Generated by trjconv : CNT in water t= 127.00000
33518
    1C        C    1   2.844   2.768   4.748
    1C        C    2   2.896   2.716   4.868
    1C        C    3   2.842   2.772   4.985
    1C        C    4   2.851   2.774   4.261
    1C        C    5   2.902   2.728   4.384
    1C        C    6   2.850   2.773   4.507
    1C        C    7   3.014   2.638   4.626
    1C        C    8   2.897   2.716   4.627
    1C        C    9   3.073   2.597   4.748
    1C        C   10   3.005   2.627   4.868
    1C        C   11   3.184   2.493   4.977
    1C        C   12   3.065   2.568   4.980
    1C        C   13   2.846   2.768   3.773
    1C        C   14   2.896   2.718   3.895
    1C        C   15   2.848   2.772   4.016
    1C        C   16   3.016   2.643   4.138
    1C        C   17   2.901   2.725   4.139
    1C        C   18   3.077   2.606   4.260
    1C        C   19   3.014   2.641   4.382
    1C        C   20   3.207   2.556   4.506
    1C        C   21   3.073   2.600   4.504
    1C        C   22   3.278   2.533   4.627
    1C        C   23   3.204   2.541   4.747
    1C        C   24   3.415   2.482   4.866
    1C        C   25   3.273   2.501   4.865
    1C        C   26   3.488   2.480   4.985
    1C        C   27   2.854   2.773   3.282
    1C        C   28   2.906   2.725   3.405
    1C        C   29   2.856   2.772   3.528
    1C        C   30   3.020   2.643   3.650
    1C        C   31   2.906   2.726   3.652
    1C        C   32   3.079   2.607   3.773
    1C        C   33   3.014   2.640   3.894
    1C        C   34   3.208   2.555   4.019
    1C        C   35   3.077   2.605   4.016
    1C        C   36   3.275   2.532   4.142
    1C        C   37   3.207   2.553   4.264
    1C        C   38   3.417   2.515   4.385
    1C        C   39   3.277   2.534   4.385
    1C        C   40   3.489   2.505   4.506
    1C        C   41   3.415   2.502   4.627
    1C        C   42   3.632   2.487   4.746
    1C        C   43   3.490   2.485   4.746
    1C        C   44   3.705   2.488   4.866
    1C        C   45   3.627   2.479   4.982
    1C        C   46   2.838   2.756   2.796
    1C        C   47   2.897   2.713   2.917
    1C        C   48   2.845   2.765   3.038
    1C        C   49   3.016   2.639   3.163
    1C        C   50   2.904   2.724   3.160
    1C        C   51   3.080   2.601   3.284
    1C        C   52   3.019   2.641   3.405
    1C        C   53   3.211   2.551   3.528
    1C        C   54   3.080   2.605   3.528
    1C        C   55   3.276   2.530   3.652
    1C        C   56   3.209   2.552   3.774
    1C        C   57   3.416   2.512   3.897
    1C        C   58   3.277   2.534   3.897
    1C        C   59   3.487   2.505   4.019
    1C        C   60   3.414   2.506   4.140
    1C        C   61   3.626   2.497   4.260
    1C        C   62   3.485   2.497   4.262
    1C        C   63   3.700   2.506   4.380
    1C        C   64   3.630   2.500   4.503
    1C        C   65   3.839   2.537   4.623
    1C        C   66   3.701   2.509   4.625
    1C        C   67   3.909   2.560   4.744
    1C        C   68   3.841   2.529   4.863
    1C        C   69   4.053   2.584   4.980
    1C        C   70   3.923   2.531   4.976
    1C        C   71   2.822   2.733   2.311
    1C        C   72   2.883   2.694   2.432
    1C        C   73   2.830   2.744   2.553
    1C        C   74   3.007   2.626   2.674
    1C        C   75   2.890   2.705   2.675
    1C        C   76   3.072   2.595   2.795
    1C        C   77   3.014   2.634   2.918
    1C        C   78   3.204   2.542   3.038
    1C        C   79   3.075   2.598   3.041
    1C        C   80   3.275   2.525   3.159
    1C        C   81   3.212   2.549   3.283
    1C        C   82   3.417   2.503   3.403
    1C        C   83   3.278   2.527   3.406
    1C        C   84   3.485   2.497   3.527
    1C        C   85   3.415   2.506   3.650
    1C        C   86   3.625   2.506   3.771
    1C        C   87   3.483   2.504   3.773
    1C        C   88   3.695   2.516   3.893
    1C        C   89   3.628   2.512   4.017
    1C        C   90   3.834   2.557   4.137
    1C        C   91   3.698   2.517   4.140
    1C        C   92   3.900   2.579   4.259
    1C        C   93   3.835   2.546   4.380
    1C        C   94   4.029   2.634   4.502
    1C        C   95   3.904   2.569   4.502
    1C        C   96   4.094   2.670   4.622
    1C        C   97   4.037   2.622   4.742
    1C        C   98   4.192   2.764   4.863
    1C        C   99   4.102   2.653   4.864
    1C        C  100   4.213   2.841   4.978
    1C        C  101   2.819   2.724   2.075
    1C        C  102   2.991   2.590   2.192
    1C        C  103   2.877   2.676   2.193
    1C        C  104   3.065   2.576   2.312
    1C        C  105   2.999   2.613   2.431
    1C        C  106   3.198   2.535   2.548
    1C        C  107   3.066   2.585   2.553
    1C        C  108   3.270   2.523   2.669
    1C        C  109   3.206   2.548   2.792
    1C        C  110   3.411   2.500   2.913
    1C        C  111   3.272   2.525   2.915
    1C        C  112   3.483   2.499   3.034
    1C        C  113   3.415   2.506   3.158
    1C        C  114   3.628   2.503   3.277
    1C        C  115   3.487   2.502   3.280
    1C        C  116   3.694   2.515   3.402
    1C        C  117   3.626   2.506   3.526
    1C        C  118   3.833   2.548   3.646
    1C        C  119   3.695   2.515   3.648
    1C        C  120   3.896   2.575   3.769
    1C        C  121   3.832   2.549   3.893
    1C        C  122   4.027   2.638   4.015
    1C        C  123   3.901   2.573   4.014
    1C        C  124   4.088   2.677   4.136
    1C        C  125   4.025   2.644   4.258
    1C        C  126   4.198   2.765   4.378
    1C        C  127   4.088   2.676   4.381
    1C        C  128   4.247   2.817   4.500
    1C        C  129   4.198   2.766   4.623
    1C        C  130   4.327   2.937   4.743
    1C        C  131   4.247   2.819   4.744
    1C        C  132   4.358   3.003   4.863
    1C        C  133   4.285   2.959   4.975
    1C        C  134   3.171   2.472   2.082
    1C        C  135   3.036   2.508   2.083
    1C        C  136   3.261   2.479   2.189
    1C        C  137   3.196   2.521   2.307
    1C        C  138   3.406   2.480   2.427
    1C        C  139   3.267   2.504   2.429
    1C        C  140   3.479   2.484   2.547
    1C        C  141   3.410   2.503   2.669
    1C        C  142   3.623   2.502   2.787
    1C        C  143   3.481   2.500   2.790
    1C        C  144   3.694   2.508   2.910
    1C        C  145   3.624   2.500   3.032
    1C        C  146   3.832   2.546   3.158
    1C        C  147   3.696   2.506   3.154
    1C        C  148   3.897   2.573   3.280
    1C        C  149   3.831   2.548   3.403
    1C        C  150   4.028   2.628   3.526
    1C        C  151   3.902   2.564   3.524
    1C        C  152   4.087   2.668   3.648
    1C        C  153   4.024   2.634   3.770
    1C        C  154   4.197   2.761   3.889
    1C        C  155   4.084   2.676   3.891
    1C        C  156   4.251   2.809   4.010
    1C        C  157   4.201   2.762   4.133
    1C        C  158   4.342   2.919   4.254
    1C        C  159   4.252   2.810   4.256
    1C        C  160   4.380   2.981   4.375
    1C        C  161   4.336   2.927   4.497
    1C        C  162   4.439   3.113   4.615
    1C        C  163   4.369   2.990   4.619
    1C        C  164   4.471   3.181   4.735
    1C        C  165   4.437   3.120   4.858
    1C        C  166   4.517   3.320   4.977
    1C        C  167   4.474   3.188   4.975
    1C        C  168   3.479   2.435   2.071
    1C        C  169   3.401   2.463   2.185
    1C        C  170   3.618   2.469   2.309
    1C        C  171   3.476   2.469   2.304
    1C        C  172   3.695   2.489   2.426
    1C        C  173   3.621   2.488   2.546
    1C        C  174   3.832   2.539   2.668
    1C        C  175   3.694   2.507   2.666
    1C        C  176   3.898   2.560   2.791
    1C        C  177   3.831   2.540   2.914
    1C        C  178   4.025   2.630   3.034
    1C        C  179   3.898   2.569   3.035
    1C        C  180   4.085   2.667   3.157
    1C        C  181   4.027   2.629   3.280
    1C        C  182   4.197   2.752   3.400
    1C        C  183   4.089   2.661   3.403
    1C        C  184   4.250   2.801   3.522
    1C        C  185   4.199   2.754   3.645
    1C        C  186   4.342   2.913   3.764
    1C        C  187   4.253   2.803   3.766
    1C        C  188   4.380   2.974   3.885
    1C        C  189   4.339   2.920   4.009
    1C        C  190   4.450   3.101   4.129
    1C        C  191   4.381   2.977   4.131
    1C        C  192   4.468   3.171   4.250
    1C        C  193   4.441   3.109   4.374
    1C        C  194   4.509   3.314   4.493
    1C        C  195   4.468   3.179   4.493
    1C        C  196   4.523   3.386   4.613
    1C        C  197   4.506   3.319   4.736
    1C        C  198   4.557   3.531   4.852
    1C        C  199   4.530   3.390   4.856
    1C        C  200   4.585   3.618   4.962
    1C        C  201   3.619   2.421   2.073
    1C        C  202   3.825   2.518   2.182
    1C        C  203   3.692   2.466   2.188
    1C        C  204   3.898   2.544   2.302
    1C        C  205   3.831   2.525   2.424
    1C        C  206   4.024   2.621   2.545
    1C        C  207   3.899   2.554   2.545
    1C        C  208   4.084   2.660   2.666
    1C        C  209   4.023   2.625   2.789
    1C        C  210   4.199   2.746   2.908
    1C        C  211   4.087   2.661   2.910
    1C        C  212   4.249   2.797   3.030
    1C        C  213   4.200   2.748   3.153
    1C        C  214   4.337   2.907   3.276
    1C        C  215   4.249   2.797   3.277
    1C        C  216   4.376   2.971   3.396
    1C        C  217   4.339   2.911   3.518
    1C        C  218   4.433   3.101   3.638
    1C        C  219   4.378   2.971   3.640
    1C        C  220   4.458   3.166   3.761
    1C        C  221   4.440   3.102   3.885
    1C        C  222   4.500   3.306   4.005
    1C        C  223   4.474   3.167   4.006
    1C        C  224   4.513   3.379   4.126
    1C        C  225   4.506   3.307   4.247
    1C        C  226   4.517   3.521   4.368
    1C        C  227   4.519   3.379   4.368
    1C        C  228   4.520   3.595   4.488
    1C        C  229   4.526   3.528   4.612
    1C        C  230   4.497   3.740   4.727
    1C        C  231   4.535   3.603   4.731
    1C        C  232   4.489   3.815   4.846
    1C        C  233   4.545   3.753   4.958
    1C        C  234   4.017   2.614   2.064
    1C        C  235   3.893   2.550   2.064
    1C        C  236   4.084   2.656   2.180
    1C        C  237   4.021   2.615   2.300
    1C        C  238   4.202   2.730   2.421
    1C        C  239   4.085   2.650   2.421
    1C        C  240   4.257   2.781   2.541
    1C        C  241   4.203   2.737   2.664
    1C        C  242   4.344   2.899   2.786
    1C        C  243   4.254   2.790   2.785
    1C        C  244   4.385   2.958   2.907
    1C        C  245   4.340   2.905   3.030
    1C        C  246   4.440   3.091   3.150
    1C        C  247   4.380   2.963   3.153
    1C        C  248   4.457   3.160   3.272
    1C        C  249   4.434   3.100   3.398
    1C        C  250   4.495   3.306   3.516
    1C        C  251   4.459   3.170   3.518
    1C        C  252   4.503   3.373   3.640
    1C        C  253   4.493   3.303   3.762
    1C        C  254   4.519   3.516   3.876
    1C        C  255   4.509   3.376   3.883
    1C        C  256   4.512   3.586   3.999
    1C        C  257   4.514   3.520   4.124
    1C        C  258   4.490   3.731   4.242
    1C        C  259   4.512   3.591   4.246
    1C        C  260   4.469   3.801   4.362
    1C        C  261   4.488   3.733   4.484
    1C        C  262   4.423   3.938   4.605
    1C        C  263   4.475   3.806   4.604
    1C        C  264   4.399   4.009   4.725
    1C        C  265   4.437   3.947   4.846
    1C        C  266   4.324   4.135   4.957
    1C        C  267   4.396   4.016   4.960
    1C        C  268   4.267   2.774   2.063
    1C        C  269   4.202   2.734   2.180
    1C        C  270   4.348   2.890   2.300
    1C        C  271   4.257   2.781   2.301
    1C        C  272   4.378   2.956   2.420
    1C        C  273   4.338   2.897   2.542
    1C        C  274   4.448   3.081   2.661
    1C        C  275   4.382   2.956   2.662
    1C        C  276   4.468   3.150   2.783
    1C        C  277   4.446   3.086   2.907
    1C        C  278   4.504   3.292   3.025
    1C        C  279   4.469   3.156   3.028
    1C        C  280   4.515   3.363   3.148
    1C        C  281   4.496   3.296   3.271
    1C        C  282   4.518   3.511   3.388
    1C        C  283   4.510   3.370   3.390
    1C        C  284   4.515   3.582   3.510
    1C        C  285   4.513   3.514   3.634
    1C        C  286   4.491   3.727   3.753
    1C        C  287   4.516   3.588   3.754
    1C        C  288   4.469   3.794   3.876
    1C        C  289   4.484   3.724   3.998
    1C        C  290   4.422   3.930   4.118
    1C        C  291   4.469   3.797   4.119
    1C        C  292   4.395   3.998   4.238
    1C        C  293   4.421   3.934   4.361
    1C        C  294   4.325   4.125   4.479
    1C        C  295   4.393   4.002   4.482
    1C        C  296   4.281   4.185   4.599
    1C        C  297   4.323   4.128   4.721
    1C        C  298   4.205   4.318   4.837
    1C        C  299   4.284   4.198   4.839
    1C        C  300   4.173   4.405   4.947
    1C        C  301   4.352   2.884   2.060
    1C        C  302   4.471   3.069   2.174
    1C        C  303   4.394   2.947   2.178
    1C        C  304   4.482   3.142   2.295
    1C        C  305   4.450   3.078   2.417
    1C        C  306   4.512   3.280   2.538
    1C        C  307   4.480   3.143   2.539
    1C        C  308   4.516   3.354   2.659
    1C        C  309   4.502   3.287   2.782
    1C        C  310   4.522   3.502   2.901
    1C        C  311   4.514   3.361   2.902
    1C        C  312   4.517   3.575   3.022
    1C        C  313   4.518   3.504   3.144
    1C        C  314   4.485   3.717   3.265
    1C        C  315   4.513   3.578   3.264
    1C        C  316   4.473   3.787   3.388
    1C        C  317   4.495   3.722   3.512
    1C        C  318   4.417   3.924   3.629
    1C        C  319   4.475   3.796   3.631
    1C        C  320   4.389   3.989   3.751
    1C        C  321   4.422   3.927   3.874
    1C        C  322   4.319   4.114   3.990
    1C        C  323   4.392   3.993   3.995
    1C        C  324   4.279   4.173   4.112
    1C        C  325   4.323   4.120   4.236
    1C        C  326   4.188   4.287   4.355
    1C        C  327   4.283   4.182   4.356
    1C        C  328   4.138   4.339   4.476
    1C        C  329   4.194   4.296   4.598
    1C        C  330   4.029   4.441   4.715
    1C        C  331   4.148   4.362   4.715
    1C        C  332   3.974   4.497   4.832
    1C        C  333   4.060   4.486   4.942
    1C        C  334   4.566   3.265   2.065
    1C        C  335   4.528   3.130   2.058
    1C        C  336   4.543   3.349   2.175
    1C        C  337   4.517   3.280   2.296
    1C        C  338   4.520   3.493   2.412
    1C        C  339   4.523   3.352   2.417
    1C        C  340   4.517   3.566   2.534
    1C        C  341   4.520   3.495   2.656
    1C        C  342   4.497   3.709   2.777
    1C        C  343   4.519   3.569   2.777
    1C        C  344   4.480   3.781   2.897
    1C        C  345   4.499   3.715   3.020
    1C        C  346   4.420   3.914   3.139
    1C        C  347   4.473   3.783   3.141
    1C        C  348   4.387   3.980   3.260
    1C        C  349   4.420   3.917   3.382
    1C        C  350   4.316   4.104   3.503
    1C        C  351   4.388   3.983   3.503
    1C        C  352   4.271   4.162   3.623
    1C        C  353   4.316   4.110   3.747
    1C        C  354   4.176   4.270   3.867
    1C        C  355   4.275   4.169   3.868
    1C        C  356   4.129   4.322   3.990
    1C        C  357   4.180   4.273   4.112
    1C        C  358   4.016   4.410   4.231
    1C        C  359   4.130   4.328   4.233
    1C        C  360   3.955   4.451   4.352
    1C        C  361   4.021   4.419   4.472
    1C        C  362   3.832   4.519   4.593
    1C        C  363   3.962   4.463   4.593
    1C        C  364   3.766   4.547   4.715
    1C        C  365   3.840   4.544   4.835
    1C        C  366   3.630   4.592   4.951
    1C        C  367   3.767   4.569   4.952
    1C        C  368   4.504   3.563   2.057
    1C        C  369   4.526   3.489   2.174
    1C        C  370   4.502   3.706   2.289
    1C        C  371   4.524   3.567   2.292
    1C        C  372   4.484   3.777   2.409
    1C        C  373   4.498   3.705   2.530
    1C        C  374   4.429   3.906   2.651
    1C        C  375   4.475   3.772   2.653
    1C        C  376   4.394   3.973   2.770
    1C        C  377   4.421   3.909   2.893
    1C        C  378   4.313   4.091   3.012
    1C        C  379   4.395   3.976   3.015
    1C        C  380   4.267   4.150   3.132
    1C        C  381   4.307   4.097   3.257
    1C        C  382   4.174   4.259   3.376
    1C        C  383   4.271   4.156   3.379
    1C        C  384   4.122   4.308   3.498
    1C        C  385   4.172   4.263   3.622
    1C        C  386   4.010   4.400   3.745
    1C        C  387   4.123   4.316   3.744
    1C        C  388   3.948   4.436   3.867
    1C        C  389   4.010   4.398   3.988
    1C        C  390   3.819   4.492   4.108
    1C        C  391   3.950   4.439   4.109
    1C        C  392   3.753   4.515   4.230
    1C        C  393   3.823   4.502   4.352
    1C        C  394   3.619   4.551   4.475
    1C        C  395   3.759   4.532   4.474
    1C        C  396   3.548   4.561   4.597
    1C        C  397   3.626   4.563   4.715
    1C        C  398   3.414   4.551   4.842
    1C        C  399   3.553   4.574   4.835
    1C        C  400   3.341   4.521   4.958
    1C        C  401   4.507   3.702   2.053
    1C        C  402   4.457   3.916   2.167
    1C        C  403   4.493   3.780   2.169
    1C        C  404   4.415   3.979   2.286
    1C        C  405   4.436   3.910   2.408
    1C        C  406   4.323   4.091   2.522
    1C        C  407   4.402   3.973   2.530
    1C        C  408   4.275   4.144   2.644
    1C        C  409   4.313   4.088   2.768
    1C        C  410   4.174   4.250   2.888
    1C        C  411   4.270   4.147   2.890
    1C        C  412   4.123   4.303   3.009
    1C        C  413   4.175   4.258   3.132
    1C        C  414   4.002   4.381   3.254
    1C        C  415   4.122   4.306   3.253
    1C        C  416   3.944   4.419   3.377
    1C        C  417   4.005   4.387   3.500
    1C        C  418   3.815   4.483   3.618
    1C        C  419   3.945   4.427   3.622
    1C        C  420   3.750   4.510   3.740
    1C        C  421   3.818   4.490   3.862
    1C        C  422   3.613   4.537   3.988
    1C        C  423   3.752   4.512   3.985
    1C        C  424   3.543   4.540   4.111
    1C        C  425   3.613   4.538   4.234
    1C        C  426   3.403   4.551   4.357
    1C        C  427   3.544   4.555   4.356
    1C        C  428   3.334   4.547   4.480
    1C        C  429   3.407   4.553   4.601
    1C        C  430   3.198   4.517   4.723
    1C        C  431   3.337   4.548   4.723
    1C        C  432   3.126   4.494   4.843
    1C        C  433   3.205   4.493   4.958
    1C        C  434   4.387   4.118   2.053
    1C        C  435   4.454   3.995   2.051
    1C        C  436   4.303   4.162   2.160
    1C        C  437   4.335   4.096   2.282
    1C        C  438   4.181   4.249   2.398
    1C        C  439   4.279   4.148   2.401
    1C        C  440   4.128   4.295   2.521
    1C        C  441   4.179   4.248   2.643
    1C        C  442   4.009   4.377   2.764
    1C        C  443   4.127   4.299   2.764
    1C        C  444   3.947   4.415   2.885
    1C        C  445   4.006   4.382   3.009
    1C        C  446   3.814   4.473   3.129
    1C        C  447   3.944   4.418   3.131
    1C        C  448   3.749   4.496   3.252
    1C        C  449   3.815   4.477   3.375
    1C        C  450   3.610   4.536   3.498
    1C        C  451   3.747   4.504   3.496
    1C        C  452   3.541   4.544   3.621
    1C        C  453   3.611   4.540   3.744
    1C        C  454   3.401   4.546   3.867
    1C        C  455   3.543   4.553   3.866
    1C        C  456   3.331   4.537   3.990
    1C        C  457   3.402   4.538   4.112
    1C        C  458   3.197   4.494   4.240
    1C        C  459   3.332   4.534   4.235
    1C        C  460   3.130   4.475   4.363
    1C        C  461   3.199   4.507   4.482
    1C        C  462   3.002   4.427   4.604
    1C        C  463   3.128   4.490   4.603
    1C        C  464   2.934   4.397   4.724
    1C        C  465   2.991   4.446   4.844
    1C        C  466   2.801   4.341   4.960
    1C        C  467   2.906   4.433   4.959
    1C        C  468   4.123   4.286   2.040
    1C        C  469   4.193   4.253   2.157
    1C        C  470   4.012   4.377   2.279
    1C        C  471   4.132   4.301   2.276
    1C        C  472   3.945   4.405   2.400
    1C        C  473   4.010   4.374   2.521
    1C        C  474   3.818   4.469   2.640
    1C        C  475   3.947   4.412   2.642
    1C        C  476   3.749   4.489   2.762
    1C        C  477   3.817   4.471   2.884
    1C        C  478   3.611   4.520   3.008
    1C        C  479   3.750   4.497   3.005
    1C        C  480   3.541   4.529   3.130
    1C        C  481   3.611   4.526   3.253
    1C        C  482   3.399   4.535   3.376
    1C        C  483   3.541   4.541   3.375
    1C        C  484   3.331   4.530   3.500
    1C        C  485   3.400   4.541   3.622
    1C        C  486   3.195   4.497   3.749
    1C        C  487   3.331   4.537   3.745
    1C        C  488   3.131   4.466   3.871
    1C        C  489   3.196   4.497   3.993
    1C        C  490   3.009   4.404   4.118
    1C        C  491   3.131   4.476   4.116
    1C        C  492   2.945   4.375   4.240
    1C        C  493   3.000   4.420   4.362
    1C        C  494   2.825   4.303   4.486
    1C        C  495   2.935   4.392   4.484
    1C        C  496   2.774   4.252   4.607
    1C        C  497   2.822   4.309   4.727
    1C        C  498   2.663   4.166   4.846
    1C        C  499   2.755   4.273   4.846
    1C        C  500   2.595   4.120   4.960
    1C        C  501   4.006   4.361   2.041
    1C        C  502   3.814   4.458   2.154
    1C        C  503   3.944   4.404   2.159
    1C        C  504   3.745   4.480   2.275
    1C        C  505   3.814   4.458   2.396
    1C        C  506   3.608   4.505   2.520
    1C        C  507   3.748   4.483   2.519
    1C        C  508   3.537   4.519   2.641
    1C        C  509   3.609   4.513   2.762
    1C        C  510   3.399   4.520   2.891
    1C        C  511   3.540   4.519   2.885
    1C        C  512   3.327   4.521   3.013
    1C        C  513   3.400   4.528   3.133
    1C        C  514   3.191   4.489   3.259
    1C        C  515   3.328   4.522   3.255
    1C        C  516   3.126   4.464   3.382
    1C        C  517   3.196   4.488   3.502
    1C        C  518   3.005   4.406   3.627
    1C        C  519   3.132   4.467   3.626
    1C        C  520   2.947   4.364   3.749
    1C        C  521   3.008   4.396   3.872
    1C        C  522   2.839   4.277   3.997
    1C        C  523   2.950   4.364   3.996
    1C        C  524   2.788   4.233   4.121
    1C        C  525   2.834   4.287   4.243
    1C        C  526   2.689   4.136   4.366
    1C        C  527   2.778   4.246   4.366
    1C        C  528   2.645   4.079   4.488
    1C        C  529   2.685   4.143   4.607
    1C        C  530   2.577   3.962   4.734
    1C        C  531   2.635   4.092   4.729
    1C        C  532   2.542   3.900   4.857
    1C        C  533   2.531   3.996   4.963
    1C        C  534   3.618   4.562   2.041
    1C        C  535   3.751   4.518   2.044
    1C        C  536   3.536   4.538   2.156
    1C        C  537   3.606   4.511   2.277
    1C        C  538   3.394   4.513   2.403
    1C        C  539   3.536   4.513   2.399
    1C        C  540   3.325   4.506   2.525
    1C        C  541   3.396   4.514   2.647
    1C        C  542   3.190   4.476   2.770
    1C        C  543   3.327   4.510   2.770
    1C        C  544   3.123   4.458   2.893
    1C        C  545   3.190   4.487   3.014
    1C        C  546   3.000   4.397   3.137
    1C        C  547   3.124   4.463   3.137
    1C        C  548   2.941   4.359   3.260
    1C        C  549   3.000   4.399   3.381
    1C        C  550   2.830   4.280   3.508
    1C        C  551   2.943   4.365   3.506
    1C        C  552   2.774   4.236   3.630
    1C        C  553   2.834   4.279   3.750
    1C        C  554   2.700   4.118   3.875
    1C        C  555   2.787   4.230   3.874
    1C        C  556   2.658   4.063   3.998
    1C        C  557   2.696   4.126   4.119
    1C        C  558   2.591   3.948   4.246
    1C        C  559   2.654   4.074   4.244
    1C        C  560   2.567   3.882   4.369
    1C        C  561   2.587   3.950   4.491
    1C        C  562   2.526   3.751   4.618
    1C        C  563   2.555   3.890   4.615
    1C        C  564   2.518   3.681   4.741
    1C        C  565   2.521   3.758   4.860
    1C        C  566   2.532   3.546   4.980
    1C        C  567   2.528   3.685   4.979
    1C        C  568   3.325   4.479   2.043
    1C        C  569   3.396   4.513   2.159
    1C        C  570   3.187   4.474   2.282
    1C        C  571   3.323   4.513   2.281
    1C        C  572   3.118   4.457   2.404
    1C        C  573   3.186   4.479   2.526
    1C        C  574   2.990   4.402   2.650
    1C        C  575   3.119   4.459   2.649
    1C        C  576   2.933   4.357   2.771
    1C        C  577   3.000   4.388   2.891
    1C        C  578   2.832   4.265   3.018
    1C        C  579   2.942   4.353   3.016
    1C        C  580   2.778   4.222   3.141
    1C        C  581   2.828   4.274   3.263
    1C        C  582   2.691   4.116   3.385
    1C        C  583   2.780   4.225   3.387
    1C        C  584   2.658   4.059   3.510
    1C        C  585   2.693   4.120   3.632
    1C        C  586   2.590   3.935   3.756
    1C        C  587   2.656   4.060   3.754
    1C        C  588   2.564   3.873   3.880
    1C        C  589   2.592   3.939   4.002
    1C        C  590   2.528   3.742   4.130
    1C        C  591   2.563   3.879   4.126
    1C        C  592   2.518   3.674   4.253
    1C        C  593   2.529   3.746   4.374
    1C        C  594   2.514   3.538   4.498
    1C        C  595   2.514   3.679   4.498
    1C        C  596   2.524   3.466   4.620
    1C        C  597   2.520   3.539   4.741
    1C        C  598   2.537   3.329   4.865
    1C        C  599   2.528   3.469   4.863
    1C        C  600   2.532   3.253   4.983
    1C        C  601   3.195   4.434   2.046
    1C        C  602   2.984   4.387   2.162
    1C        C  603   3.117   4.442   2.162
    1C        C  604   2.928   4.355   2.288
    1C        C  605   2.991   4.395   2.408
    1C        C  606   2.823   4.266   2.529
    1C        C  607   2.930   4.358   2.529
    1C        C  608   2.770   4.219   2.651
    1C        C  609   2.824   4.267   2.772
    1C        C  610   2.686   4.111   2.895
    1C        C  611   2.779   4.217   2.896
    1C        C  612   2.650   4.053   3.019
    1C        C  613   2.690   4.112   3.141
    1C        C  614   2.590   3.928   3.266
    1C        C  615   2.649   4.056   3.264
    1C        C  616   2.568   3.866   3.391
    1C        C  617   2.594   3.933   3.513
    1C        C  618   2.524   3.732   3.638
    1C        C  619   2.565   3.867   3.635
    1C        C  620   2.515   3.663   3.762
    1C        C  621   2.531   3.735   3.882
    1C        C  622   2.511   3.531   4.012
    1C        C  623   2.520   3.671   4.008
    1C        C  624   2.517   3.459   4.133
    1C        C  625   2.515   3.533   4.254
    1C        C  626   2.544   3.325   4.380
    1C        C  627   2.519   3.464   4.378
    1C        C  628   2.565   3.257   4.502
    1C        C  629   2.546   3.327   4.623
    1C        C  630   2.596   3.120   4.745
    1C        C  631   2.557   3.257   4.745
    1C        C  632   2.616   3.050   4.866
    1C        C  633   2.565   3.117   4.982
    1C        C  634   2.779   4.308   2.058
    1C        C  635   2.893   4.389   2.052
    1C        C  636   2.750   4.231   2.171
    1C        C  637   2.810   4.275   2.291
    1C        C  638   2.672   4.110   2.413
    1C        C  639   2.760   4.220   2.411
    1C        C  640   2.633   4.051   2.535
    1C        C  641   2.680   4.109   2.655
    1C        C  642   2.577   3.923   2.776
    1C        C  643   2.641   4.049   2.777
    1C        C  644   2.561   3.857   2.900
    1C        C  645   2.591   3.925   3.020
    1C        C  646   2.526   3.726   3.148
    1C        C  647   2.569   3.861   3.144
    1C        C  648   2.509   3.660   3.272
    1C        C  649   2.526   3.731   3.393
    1C        C  650   2.509   3.521   3.520
    1C        C  651   2.516   3.662   3.516
    1C        C  652   2.512   3.454   3.644
    1C        C  653   2.509   3.522   3.767
    1C        C  654   2.537   3.317   3.891
    1C        C  655   2.511   3.456   3.892
    1C        C  656   2.554   3.249   4.014
    1C        C  657   2.538   3.320   4.135
    1C        C  658   2.610   3.123   4.260
    1C        C  659   2.558   3.255   4.259
    1C        C  660   2.642   3.057   4.381
    1C        C  661   2.612   3.124   4.502
    1C        C  662   2.711   2.938   4.628
    1C        C  663   2.635   3.057   4.624
    1C        C  664   2.752   2.877   4.749
    1C        C  665   2.702   2.935   4.868
    1C        C  666   2.745   2.871   4.985
    1C        C  667   2.675   4.027   2.055
    1C        C  668   2.684   4.106   2.171
    1C        C  669   2.582   3.916   2.294
    1C        C  670   2.640   4.046   2.291
    1C        C  671   2.557   3.847   2.415
    1C        C  672   2.575   3.922   2.533
    1C        C  673   2.517   3.718   2.660
    1C        C  674   2.550   3.855   2.655
    1C        C  675   2.503   3.650   2.783
    1C        C  676   2.523   3.721   2.903
    1C        C  677   2.502   3.513   3.033
    1C        C  678   2.513   3.654   3.027
    1C        C  679   2.502   3.443   3.155
    1C        C  680   2.504   3.519   3.274
    1C        C  681   2.535   3.311   3.402
    1C        C  682   2.510   3.450   3.398
    1C        C  683   2.555   3.244   3.524
    1C        C  684   2.533   3.314   3.645
    1C        C  685   2.609   3.119   3.772
    1C        C  686   2.553   3.248   3.769
    1C        C  687   2.645   3.056   3.893
    1C        C  688   2.611   3.120   4.015
    1C        C  689   2.717   2.939   4.141
    1C        C  690   2.641   3.058   4.139
    1C        C  691   2.757   2.880   4.263
    1C        C  692   2.714   2.936   4.385
    1C        C  693   2.757   2.880   4.508
    1C        C  694   2.620   3.899   2.056
    1C        C  695   2.531   3.707   2.179
    1C        C  696   2.576   3.841   2.175
    1C        C  697   2.510   3.636   2.299
    1C        C  698   2.521   3.711   2.419
    1C        C  699   2.487   3.502   2.543
    1C        C  700   2.505   3.642   2.541
    1C        C  701   2.503   3.434   2.666
    1C        C  702   2.502   3.509   2.786
    1C        C  703   2.530   3.304   2.913
    1C        C  704   2.501   3.442   2.911
    1C        C  705   2.545   3.236   3.036
    1C        C  706   2.524   3.303   3.159
    1C        C  707   2.598   3.106   3.279
    1C        C  708   2.548   3.238   3.282
    1C        C  709   2.635   3.048   3.402
    1C        C  710   2.611   3.114   3.525
    1C        C  711   2.714   2.934   3.650
    1C        C  712   2.641   3.055   3.650
    1C        C  713   2.757   2.878   3.772
    1C        C  714   2.718   2.935   3.895
    1C        C  715   2.754   2.878   4.019
    1C        C  716   2.457   3.501   2.064
    1C        C  717   2.495   3.636   2.064
    1C        C  718   2.464   3.420   2.182
    1C        C  719   2.489   3.495   2.300
    1C        C  720   2.518   3.289   2.424
    1C        C  721   2.489   3.427   2.424
    1C        C  722   2.541   3.225   2.548
    1C        C  723   2.526   3.295   2.669
    1C        C  724   2.589   3.096   2.793
    1C        C  725   2.542   3.229   2.794
    1C        C  726   2.627   3.038   2.916
    1C        C  727   2.596   3.104   3.037
    1C        C  728   2.708   2.923   3.162
    1C        C  729   2.625   3.038   3.158
    1C        C  730   2.754   2.872   3.286
    1C        C  731   2.712   2.929   3.408
    1C        C  732   2.758   2.875   3.530
    1C        C  733   2.494   3.196   2.067
    1C        C  734   2.491   3.280   2.179
    1C        C  735   2.584   3.087   2.304
    1C        C  736   2.529   3.219   2.302
    1C        C  737   2.616   3.025   2.426
    1C        C  738   2.597   3.095   2.548
    1C        C  739   2.700   2.914   2.670
    1C        C  740   2.624   3.033   2.672
    1C        C  741   2.740   2.857   2.794
    1C        C  742   2.703   2.919   2.915
    1C        C  743   2.748   2.868   3.039
    1C        C  744   2.537   3.064   2.075
    1C        C  745   2.684   2.895   2.187
    1C        C  746   2.607   3.013   2.186
    1C        C  747   2.730   2.842   2.309
    1C        C  748   2.687   2.903   2.429
    1C        C  749   2.734   2.847   2.550
    1C        C  750   2.735   2.836   2.071
    1C        C  751   3.669   2.311   1.988
    1C        O  752   3.672   2.190   2.023
    1C        O  753   3.654   2.326   1.849
    1C        C  754   4.608   3.059   1.956
    1C        O  755   4.556   3.006   1.855
    1C        O  756   4.740   3.021   1.984
    1C        C  757   4.452   4.217   1.964
    1C        O  758   4.502   4.327   2.001
    1C        O  759   4.406   4.236   1.833
    1C        C  760   3.602   4.685   1.960
    1C        O  761   3.605   4.802   2.007
    1C        O  762   3.535   4.675   1.837
    1C        C  763   2.884   4.496   1.950
    1C        O  764   2.953   4.483   1.845
    1C        O  765   2.828   4.618   1.990
    1C        C  766   2.369   3.470   1.949
    1C        O  767   2.434   3.448   1.844
    1C        O  768   2.237   3.517   1.938
    1C        C  769   4.708   3.597   5.042
    1C        O  770   4.698   3.583   5.167
    1C        O  771   4.829   3.657   5.004
    1C        C  772   4.279   4.474   5.023
    1C        O  773   4.327   4.413   5.122
    1C        O  774   4.366   4.562   4.957
    1C        C  775   4.147   2.513   5.069
    1C        O  776   4.213   2.415   5.024
    1C        O  777   4.128   2.508   5.208
    1C        C  778   2.913   4.540   5.062
    1C        O  779   2.856   4.651   5.047
    1C        O  780   2.949   4.509   5.194
    1C        C  781   2.476   3.041   5.073
    1C        O  782   2.386   2.966   5.024
    1C        O  783   2.487   3.036   5.211
    1C        C  784   2.408   3.986   5.045
    1C        O  785   2.304   4.025   4.984
    1C        O  786   2.407   4.012   5.183
    1C        C  787   2.962   2.408   2.003
    1C        O  788   2.990   2.408   1.880
    1C        O  789   2.892   2.305   2.064
    1C        C  790   3.182   2.385   5.078
    1C        O  791   3.135   2.269   5.058
    1C        O  792   3.246   2.397   5.202
    1C        H  793   4.263   3.027   5.055
    1C        H  794   4.203   2.785   5.069
    1C        H  795   4.494   3.133   5.065
    1C        H  796   4.553   3.363   5.068
    1C        H  797   4.539   3.802   5.052
    1C        H  798   4.433   3.994   5.058
    1C        H  799   4.296   4.182   5.049
    1C        H  800   4.041   4.551   5.026
    1C        H  801   3.822   4.581   5.043
    1C        H  802   3.596   4.669   5.017
    1C        H  803   3.383   4.538   5.055
    1C        H  804   3.157   4.483   5.054
    1C        H  805   3.908   2.449   5.043
    1C        H  806   3.678   2.489   5.075
    1C        H  807   3.012   2.565   5.072
    1C        H  808   3.443   2.510   5.077
    1C        H  809   2.855   2.718   5.077
    1C        H  810   2.728   2.918   5.080
    1C        H  811   2.455   3.282   5.052
    1C        H  812   2.584   3.501   5.062
    1C        H  813   2.535   3.742   5.070
    1C        H  814   2.635   4.155   5.053
    1C        H  815   2.738   4.340   5.047
    1C        H  816   2.702   2.873   1.976
    1C        H  817   2.873   2.702   1.985
    1C        H  818   3.216   2.438   1.990
    1C        H  819   3.437   2.423   1.974
    1C        H  820   3.845   2.533   1.970
    1C        H  821   4.048   2.654   1.970
    1C        H  822   4.275   2.702   1.984
    1C        H  823   4.347   2.939   1.968
    1C        H  824   4.627   3.300   1.985
    1C        H  825   4.471   3.506   1.973
    1C        H  826   4.480   3.744   1.958
    1C        H  827   3.815   4.562   1.970
    1C        H  828   3.961   4.386   1.947
    1C        H  829   4.181   4.296   1.950
    1C        H  830   4.518   3.969   1.969
    1C        H  831   2.670   3.830   1.990
    1C        H  832   2.715   4.069   1.965
    1C        H  833   2.725   4.299   1.966
    1C        H  834   3.348   4.548   1.964
    1C        H  835   3.177   4.356   1.974
    1C        H  836   2.521   2.999   1.991
    1C        H  837   2.507   3.235   1.968
    1C        H  838   2.506   3.686   1.970
    2V3OU   H29  839   2.806   3.543   1.613
    2V3OU   C27  840   2.785   3.505   1.716
    2V3OU   H27  841   2.731   3.575   1.785
    2V3OU   H28  842   2.727   3.409   1.707
    2V3OU   O11  843   2.910   3.480   1.779
    2V3OU   C15  844   2.924   3.399   1.890
    2V3OU   C13  845   3.052   3.378   1.945
    2V3OU   C14  846   3.082   3.273   2.032
    2V3OU   C16  847   2.977   3.190   2.069
    2V3OU    H6  848   2.993   3.102   2.134
    2V3OU   C12  849   3.219   3.230   2.067
    2V3OU    O2  850   3.241   3.132   2.141
    2V3OU   C10  851   3.329   3.310   2.012
    2V3OU    C8  852   3.460   3.267   2.029
    2V3OU   O10  853   3.485   3.147   2.088
    2V3OU   H26  854   3.402   3.114   2.127
    2V3OU    C6  855   3.568   3.346   1.978
    2V3OU    C5  856   3.540   3.465   1.913
    2V3OU    C4  857   3.707   3.292   1.980
    2V3OU    H4  858   3.725   3.226   2.070
    2V3OU    H5  859   3.718   3.224   1.890
    2V3OU    C2  860   3.816   3.399   1.980
    2V3OU    O6  861   3.812   3.477   2.100
    2V3OU   H21  862   3.767   3.561   2.087
    2V3OU    C3  863   3.783   3.497   1.867
    2V3OU    H2  864   3.870   3.567   1.860
    2V3OU    H3  865   3.782   3.447   1.766
    2V3OU   C25  866   3.954   3.335   1.969
    2V3OU    O7  867   3.998   3.290   1.864
    2V3OU   C26  868   4.031   3.289   2.092
    2V3OU   H22  869   4.062   3.382   2.146
    2V3OU   H23  870   4.113   3.220   2.060
    2V3OU    O8  871   3.969   3.209   2.190
    2V3OU   H24  872   3.920   3.261   2.256
    2V3OU    C1  873   3.648   3.565   1.881
    2V3OU    H1  874   3.626   3.621   1.785
    2V3OU    O3  875   3.659   3.659   1.988
    2V3OU   C19  876   3.620   3.795   1.972
    2V3OU    H9  877   3.521   3.800   1.918
    2V3OU    O4  878   3.717   3.851   1.886
    2V3OU   C20  879   3.846   3.877   1.941
    2V3OU   H10  880   3.886   3.774   1.966
    2V3OU   C24  881   3.614   3.860   2.111
    2V3OU   H16  882   3.547   3.794   2.172
    2V3OU   H17  883   3.570   3.963   2.106
    2V3OU   C23  884   3.752   3.876   2.175
    2V3OU   H15  885   3.793   3.771   2.193
    2V3OU    N1  886   3.732   3.960   2.291
    2V3OU   H19  887   3.808   3.919   2.342
    2V3OU   H20  888   3.646   3.929   2.331
    2V3OU   C21  889   3.845   3.951   2.075
    2V3OU   H11  890   3.952   3.927   2.104
    2V3OU    O5  891   3.823   4.091   2.074
    2V3OU   H18  892   3.777   4.100   2.159
    2V3OU   C22  893   3.917   3.953   1.830
    2V3OU   H12  894   3.860   4.047   1.809
    2V3OU   H13  895   3.912   3.895   1.734
    2V3OU   H14  896   4.024   3.964   1.863
    2V3OU   C11  897   3.162   3.470   1.910
    2V3OU    O1  898   3.133   3.585   1.870
    2V3OU    C9  899   3.301   3.431   1.942
    2V3OU    C7  900   3.405   3.509   1.895
    2V3OU    O9  901   3.387   3.621   1.817
    2V3OU   H25  902   3.290   3.626   1.821
    2V3OU   C17  903   2.820   3.319   1.942
    2V3OU    H7  904   2.714   3.343   1.928
    2V3OU   C18  905   2.846   3.214   2.028
    2V3OU    H8  906   2.760   3.159   2.069
    3SOL     OW  907   2.118   4.290   1.074
    3SOL    HW1  908   2.111   4.221   1.001
    3SOL    HW2  909   2.172   4.368   1.041
    4SOL     OW  910   6.699   6.307   1.896
    4SOL    HW1  911   6.705   6.391   1.950
    4SOL    HW2  912   6.770   6.243   1.925
    5SOL     OW  913   4.330   1.295   1.792
    5SOL    HW1  914   4.257   1.359   1.768
    5SOL    HW2  915   4.358   1.245   1.711
    6SOL     OW  916   3.569   1.886   2.182
    6SOL    HW1  917   3.663   1.875   2.215
    6SOL    HW2  918   3.569   1.943   2.099
    7SOL     OW  919   6.133   2.250   1.935
    7SOL    HW1  920   6.047   2.201   1.918
    7SOL    HW2  921   6.165   2.228   2.028
    8SOL     OW  922   2.261   6.603   5.050
    8SOL    HW1  923   2.205   6.536   5.001
    8SOL    HW2  924   2.287   6.677   4.987
    9SOL     OW  925   1.532   5.971   5.767
    9SOL    HW1  926   1.572   5.977   5.858
    9SOL    HW2  927   1.596   6.008   5.700
   10SOL     OW  928   0.255   4.596   6.193
   10SOL    HW1  929   0.355   4.586   6.187
   10SOL    HW2  930   0.233   4.677   6.248
   11SOL     OW  931   3.035   0.234   0.479
   11SOL    HW1  932   3.068   0.224   0.385
   11SOL    HW2  933   3.029   0.144   0.522
   12SOL     OW  934   4.594   6.134   3.317
   12SOL    HW1  935   4.637   6.059   3.266
   12SOL    HW2  936   4.512   6.164   3.268
   13SOL     OW  937   3.076   6.237   4.204
   13SOL    HW1  938   2.988   6.255   4.161
   13SOL    HW2  939   3.122   6.163   4.154
   14SOL     OW  940   3.735   5.714   6.280
   14SOL    HW1  941   3.636   5.722   6.289
   14SOL    HW2  942   3.780   5.747   6.363
   15SOL     OW  943   1.382   5.982   0.447
   15SOL    HW1  944   1.356   5.891   0.417
   15SOL    HW2  945   1.430   5.976   0.535
   16SOL     OW  946   6.510   2.037   5.927
   16SOL    HW1  947   6.490   2.127   5.967
   16SOL    HW2  948   6.609   2.022   5.926
   17SOL     OW  949   5.188   6.097   4.491
   17SOL    HW1  950   5.288   6.104   4.484
   17SOL    HW2  951   5.160   6.122   4.584
   18SOL     OW  952   2.910   2.201   6.167
   18SOL    HW1  953   2.868   2.289   6.190
   18SOL    HW2  954   2.840   2.130   6.165
   19SOL     OW  955   0.090   0.156   3.353
   19SOL    HW1  956   0.004   0.204   3.338
   19SOL    HW2  957   0.085   0.104   3.439
   20SOL     OW  958   3.527   1.092   4.199
   20SOL    HW1  959   3.583   1.012   4.179
   20SOL    HW2  960   3.525   1.107   4.298
   21SOL     OW  961   2.942   1.915   2.153
   21SOL    HW1  962   2.922   1.860   2.234
   21SOL    HW2  963   2.858   1.957   2.120
   22SOL     OW  964   1.989   0.253   0.126
   22SOL    HW1  965   1.903   0.205   0.107
   22SOL    HW2  966   2.035   0.272   0.039
   23SOL     OW  967   4.584   6.845   3.662
   23SOL    HW1  968   4.513   6.912   3.682
   23SOL    HW2  969   4.545   6.771   3.607
   24SOL     OW  970   5.455   1.352   4.477
   24SOL    HW1  971   5.397   1.368   4.556
   24SOL    HW2  972   5.452   1.432   4.417
   25SOL     OW  973   2.998   6.036   6.820
   25SOL    HW1  974   2.998   6.017   6.918
   25SOL    HW2  975   2.938   5.971   6.774
   26SOL     OW  976   6.236   0.905   1.494
   26SOL    HW1  977   6.200   0.817   1.525
   26SOL    HW2  978   6.258   0.899   1.397
   27SOL     OW  979   0.158   0.547   2.462
   27SOL    HW1  980   0.061   0.524   2.474
   27SOL    HW2  981   0.214   0.468   2.485
   28SOL     OW  982   4.406   0.672   6.843
   28SOL    HW1  983   4.450   0.694   6.756
   28SOL    HW2  984   4.308   0.693   6.838
   29SOL     OW  985   4.946   2.329   2.064
   29SOL    HW1  986   4.939   2.281   1.976
   29SOL    HW2  987   4.945   2.428   2.048
   30SOL     OW  988   2.871   6.896   5.905
   30SOL    HW1  989   2.852   6.916   6.001
   30SOL    HW2  990   2.957   6.846   5.897
   31SOL     OW  991   0.652   1.155   5.839
   31SOL    HW1  992   0.672   1.228   5.775
   31SOL    HW2  993   0.629   1.071   5.789
   32SOL     OW  994   0.572   2.725   2.921
   32SOL    HW1  995   0.557   2.803   2.861
   32SOL    HW2  996   0.662   2.685   2.902
   33SOL     OW  997   1.761   2.940   6.223
   33SOL    HW1  998   1.713   2.918   6.138
   33SOL    HW2  999   1.695   2.967   6.293
   34SOL     OW 1000   1.975   0.375   4.967
   34SOL    HW1 1001   1.954   0.471   4.982
   34SOL    HW2 1002   1.910   0.318   5.016
   35SOL     OW 1003   4.630   2.242   5.973
   35SOL    HW1 1004   4.582   2.162   6.010
   35SOL    HW2 1005   4.697   2.274   6.040
   36SOL     OW 1006   0.679   0.678   6.326
   36SOL    HW1 1007   0.653   0.765   6.368
   36SOL    HW2 1008   0.620   0.660   6.247
   37SOL     OW 1009   2.325   6.691   1.426
   37SOL    HW1 1010   2.293   6.779   1.461
   37SOL    HW2 1011   2.325   6.693   1.326
   38SOL     OW 1012   0.097   6.343   2.858
   38SOL    HW1 1013   0.075   6.440   2.851
   38SOL    HW2 1014   0.019   6.288   2.825
   39SOL     OW 1015   6.456   4.064   6.264
   39SOL    HW1 1016   6.400   4.011   6.329
   39SOL    HW2 1017   6.543   4.086   6.306
   40SOL     OW 1018   6.223   2.167   2.174
   40SOL    HW1 1019   6.264   2.104   2.108
   40SOL    HW2 1020   6.184   2.114   2.250
   41SOL     OW 1021   2.132   6.300   4.254
   41SOL    HW1 1022   2.075   6.218   4.254
   41SOL    HW2 1023   2.078   6.378   4.286
   42SOL     OW 1024   3.142   6.706   5.937
   42SOL    HW1 1025   3.139   6.750   6.027
   42SOL    HW2 1026   3.211   6.634   5.938
   43SOL     OW 1027   5.657   5.957   5.945
   43SOL    HW1 1028   5.651   5.899   5.864
   43SOL    HW2 1029   5.619   5.909   6.024
   44SOL     OW 1030   6.917   2.623   6.401
   44SOL    HW1 1031   6.879   2.698   6.455
   44SOL    HW2 1032   6.994   2.583   6.450
   45SOL     OW 1033   3.462   0.470   2.841
   45SOL    HW1 1034   3.430   0.376   2.853
   45SOL    HW2 1035   3.528   0.492   2.912
   46SOL     OW 1036   0.723   3.725   4.542
   46SOL    HW1 1037   0.679   3.665   4.475
   46SOL    HW2 1038   0.776   3.795   4.494
   47SOL     OW 1039   6.375   3.321   4.043
   47SOL    HW1 1040   6.345   3.268   3.963
   47SOL    HW2 1041   6.308   3.393   4.061
   48SOL     OW 1042   0.691   2.329   5.112
   48SOL    HW1 1043   0.619   2.344   5.180
   48SOL    HW2 1044   0.669   2.380   5.029
   49SOL     OW 1045   4.770   4.012   1.802
   49SOL    HW1 1046   4.709   4.062   1.741
   49SOL    HW2 1047   4.829   4.076   1.851
   50SOL     OW 1048   6.878   3.240   4.666
   50SOL    HW1 1049   6.960   3.271   4.715
   50SOL    HW2 1050   6.879   3.278   4.574
   51SOL     OW 1051   3.032   5.516   2.546
   51SOL    HW1 1052   2.944   5.473   2.567
   51SOL    HW2 1053   3.071   5.556   2.628
   52SOL     OW 1054   3.341   1.799   3.183
   52SOL    HW1 1055   3.368   1.870   3.248
   52SOL    HW2 1056   3.274   1.739   3.225
   53SOL     OW 1057   4.568   0.454   3.705
   53SOL    HW1 1058   4.573   0.483   3.609
   53SOL    HW2 1059   4.572   0.355   3.710
   54SOL     OW 1060   2.969   4.938   6.285
   54SOL    HW1 1061   2.883   4.987   6.268
   54SOL    HW2 1062   2.972   4.910   6.381
   55SOL     OW 1063   3.989   1.665   5.857
   55SOL    HW1 1064   3.896   1.646   5.889
   55SOL    HW2 1065   4.054   1.642   5.929
   56SOL     OW 1066   1.962   0.515   1.858
   56SOL    HW1 1067   1.997   0.567   1.780
   56SOL    HW2 1068   1.879   0.559   1.893
   57SOL     OW 1069   4.991   0.399   0.623
   57SOL    HW1 1070   5.081   0.380   0.584
   57SOL    HW2 1071   4.942   0.313   0.638
   58SOL     OW 1072   0.410   5.927   6.928
   58SOL    HW1 1073   0.398   6.020   6.894
   58SOL    HW2 1074   0.344   5.866   6.882
   59SOL     OW 1075   1.625   0.769   6.200
   59SOL    HW1 1076   1.692   0.718   6.254
   59SOL    HW2 1077   1.625   0.864   6.229
   60SOL     OW 1078   4.857   0.694   6.013
   60SOL    HW1 1079   4.890   0.647   5.931
   60SOL    HW2 1080   4.886   0.643   6.094
   61SOL     OW 1081   4.779   0.668   4.191
   61SOL    HW1 1082   4.876   0.670   4.164
   61SOL    HW2 1083   4.723   0.651   4.110
   62SOL     OW 1084   0.909   0.764   3.777
   62SOL    HW1 1085   0.883   0.782   3.872
   62SOL    HW2 1086   0.961   0.679   3.772
   63SOL     OW 1087   6.525   2.083   3.549
   63SOL    HW1 1088   6.533   2.110   3.453
   63SOL    HW2 1089   6.494   1.988   3.554
   64SOL     OW 1090   6.745   3.856   6.291
   64SOL    HW1 1091   6.713   3.941   6.332
   64SOL    HW2 1092   6.752   3.786   6.362
   65SOL     OW 1093   6.320   4.136   5.440
   65SOL    HW1 1094   6.303   4.188   5.356
   65SOL    HW2 1095   6.401   4.079   5.427
   66SOL     OW 1096   3.412   0.815   6.691
   66SOL    HW1 1097   3.339   0.748   6.680
   66SOL    HW2 1098   3.423   0.838   6.788
   67SOL     OW 1099   5.473   6.266   5.434
   67SOL    HW1 1100   5.411   6.201   5.390
   67SOL    HW2 1101   5.542   6.216   5.487
   68SOL     OW 1102   6.038   1.336   6.579
   68SOL    HW1 1103   6.020   1.270   6.651
   68SOL    HW2 1104   5.983   1.315   6.498
   69SOL     OW 1105   1.565   4.181   6.173
   69SOL    HW1 1106   1.475   4.181   6.217
   69SOL    HW2 1107   1.577   4.266   6.121
   70SOL     OW 1108   6.674   5.584   2.805
   70SOL    HW1 1109   6.630   5.495   2.816
   70SOL    HW2 1110   6.606   5.656   2.820
   71SOL     OW 1111   2.984   2.207   3.589
   71SOL    HW1 1112   2.927   2.282   3.621
   71SOL    HW2 1113   2.933   2.153   3.521
   72SOL     OW 1114   2.784   5.969   4.256
   72SOL    HW1 1115   2.841   5.907   4.310
   72SOL    HW2 1116   2.778   6.058   4.303
   73SOL     OW 1117   3.238   2.335   6.931
   73SOL    HW1 1118   3.188   2.407   6.884
   73SOL    HW2 1119   3.179   2.292   6.999
   74SOL     OW 1120   5.272   6.898   0.373
   74SOL    HW1 1121   5.372   6.909   0.367
   74SOL    HW2 1122   5.251   6.803   0.395
   75SOL     OW 1123   3.134   5.302   5.077
   75SOL    HW1 1124   3.097   5.377   5.023
   75SOL    HW2 1125   3.234   5.304   5.075
   76SOL     OW 1126   2.264   2.712   1.236
   76SOL    HW1 1127   2.302   2.650   1.167
   76SOL    HW2 1128   2.285   2.677   1.328
   77SOL     OW 1129   5.222   5.779   4.606
   77SOL    HW1 1130   5.233   5.680   4.600
   77SOL    HW2 1131   5.211   5.816   4.514
   78SOL     OW 1132   6.990   6.873   6.336
   78SOL    HW1 1133   7.022   6.954   6.385
   78SOL    HW2 1134   0.031   6.798   6.348
   79SOL     OW 1135   2.899   7.017   0.568
   79SOL    HW1 1136   2.963   6.943   0.587
   79SOL    HW2 1137   2.889   0.003   0.469
   80SOL     OW 1138   6.383   0.754   4.793
   80SOL    HW1 1139   6.403   0.770   4.889
   80SOL    HW2 1140   6.460   0.784   4.737
   81SOL     OW 1141   2.523   0.904   2.655
   81SOL    HW1 1142   2.620   0.881   2.652
   81SOL    HW2 1143   2.495   0.919   2.750
   82SOL     OW 1144   6.695   5.263   0.152
   82SOL    HW1 1145   6.621   5.321   0.186
   82SOL    HW2 1146   6.770   5.320   0.118
   83SOL     OW 1147   6.677   6.822   0.628
   83SOL    HW1 1148   6.672   6.845   0.725
   83SOL    HW2 1149   6.659   6.724   0.617
   84SOL     OW 1150   4.949   3.590   2.824
   84SOL    HW1 1151   4.936   3.493   2.845
   84SOL    HW2 1152   4.988   3.599   2.732
   85SOL     OW 1153   0.559   1.547   5.370
   85SOL    HW1 1154   0.535   1.586   5.458
   85SOL    HW2 1155   0.566   1.620   5.301
   86SOL     OW 1156   0.744   0.356   5.471
   86SOL    HW1 1157   0.693   0.410   5.539
   86SOL    HW2 1158   0.842   0.376   5.480
   87SOL     OW 1159   4.379   2.604   0.379
   87SOL    HW1 1160   4.316   2.632   0.451
   87SOL    HW2 1161   4.335   2.615   0.290
   88SOL     OW 1162   4.916   1.887   0.005
   88SOL    HW1 1163   4.876   1.853   6.944
   88SOL    HW2 1164   4.845   1.935   0.058
   89SOL     OW 1165   1.797   2.760   0.054
   89SOL    HW1 1166   1.771   2.765   0.150
   89SOL    HW2 1167   1.883   2.810   0.040
   90SOL     OW 1168   5.044   0.076   3.917
   90SOL    HW1 1169   5.130   0.025   3.924
   90SOL    HW2 1170   4.968   0.012   3.904
   91SOL     OW 1171   4.828   4.805   4.149
   91SOL    HW1 1172   4.872   4.759   4.072
   91SOL    HW2 1173   4.751   4.859   4.117
   92SOL     OW 1174   2.905   5.414   0.512
   92SOL    HW1 1175   2.870   5.442   0.602
   92SOL    HW2 1176   2.937   5.495   0.462
   93SOL     OW 1177   2.970   4.666   5.962
   93SOL    HW1 1178   3.001   4.588   6.017
   93SOL    HW2 1179   2.937   4.634   5.873
   94SOL     OW 1180   2.931   5.495   6.694
   94SOL    HW1 1181   2.972   5.563   6.755
   94SOL    HW2 1182   2.975   5.501   6.604
   95SOL     OW 1183   0.608   1.668   3.926
   95SOL    HW1 1184   0.679   1.612   3.882
   95SOL    HW2 1185   0.563   1.723   3.856
   96SOL     OW 1186   2.637   6.930   5.767
   96SOL    HW1 1187   2.638   0.005   5.756
   96SOL    HW2 1188   2.725   6.900   5.802
   97SOL     OW 1189   0.012   3.762   5.190
   97SOL    HW1 1190   7.013   3.802   5.101
   97SOL    HW2 1191   0.105   3.788   5.216
   98SOL     OW 1192   6.117   3.477   6.707
   98SOL    HW1 1193   6.192   3.521   6.659
   98SOL    HW2 1194   6.129   3.490   6.806
   99SOL     OW 1195   4.316   3.137   0.947
   99SOL    HW1 1196   4.342   3.046   0.980
   99SOL    HW2 1197   4.377   3.205   0.987
  100SOL     OW 1198   0.605   6.975   6.436
  100SOL    HW1 1199   0.569   6.913   6.507
  100SOL    HW2 1200   0.648   6.921   6.364
  101SOL     OW 1201   0.806   5.834   2.478
  101SOL    HW1 1202   0.853   5.846   2.391
  101SOL    HW2 1203   0.849   5.761   2.530
  102SOL     OW 1204   4.391   1.355   2.804
  102SOL    HW1 1205   4.449   1.436   2.800
  102SOL    HW2 1206   4.395   1.307   2.716
  103SOL     OW 1207   4.494   1.736   1.701
  103SOL    HW1 1208   4.504   1.765   1.796
  103SOL    HW2 1209   4.458   1.643   1.698
  104SOL     OW 1210   6.893   5.789   2.865
  104SOL    HW1 1211   6.972   5.786   2.802
  104SOL    HW2 1212   6.846   5.701   2.863
  105SOL     OW 1213   6.267   1.424   6.415
  105SOL    HW1 1214   6.357   1.413   6.458
  105SOL    HW2 1215   6.195   1.400   6.480
  106SOL     OW 1216   3.326   6.986   6.211
  106SOL    HW1 1217   3.255   6.921   6.183
  106SOL    HW2 1218   3.347   6.972   6.308
  107SOL     OW 1219   1.708   2.347   1.872
  107SOL    HW1 1220   1.669   2.438   1.858
  107SOL    HW2 1221   1.773   2.351   1.948
  108SOL     OW 1222   4.789   4.679   0.044
  108SOL    HW1 1223   4.862   4.611   0.039
  108SOL    HW2 1224   4.702   4.634   0.067
  109SOL     OW 1225   0.526   0.500   1.244
  109SOL    HW1 1226   0.528   0.600   1.232
  109SOL    HW2 1227   0.570   0.456   1.166
  110SOL     OW 1228   4.054   6.292   5.340
  110SOL    HW1 1229   4.134   6.323   5.288
  110SOL    HW2 1230   3.981   6.361   5.332
  111SOL     OW 1231   4.043   0.571   4.070
  111SOL    HW1 1232   4.093   0.554   4.155
  111SOL    HW2 1233   4.088   0.522   3.995
  112SOL     OW 1234   5.313   5.687   6.107
  112SOL    HW1 1235   5.385   5.756   6.115
  112SOL    HW2 1236   5.226   5.727   6.135
  113SOL     OW 1237   6.495   4.441   3.393
  113SOL    HW1 1238   6.403   4.437   3.355
  113SOL    HW2 1239   6.562   4.419   3.322
  114SOL     OW 1240   1.191   0.366   0.691
  114SOL    HW1 1241   1.248   0.285   0.708
  114SOL    HW2 1242   1.172   0.412   0.778
  115SOL     OW 1243   4.380   0.973   4.191
  115SOL    HW1 1244   4.458   1.033   4.204
  115SOL    HW2 1245   4.347   0.941   4.280
  116SOL     OW 1246   6.146   5.043   2.113
  116SOL    HW1 1247   6.160   5.138   2.142
  116SOL    HW2 1248   6.056   5.034   2.071
  117SOL     OW 1249   0.664   1.310   6.584
  117SOL    HW1 1250   0.667   1.225   6.531
  117SOL    HW2 1251   0.706   1.294   6.674
  118SOL     OW 1252   0.407   1.657   2.086
  118SOL    HW1 1253   0.329   1.619   2.135
  118SOL    HW2 1254   0.384   1.748   2.051
  119SOL     OW 1255   0.462   2.235   6.531
  119SOL    HW1 1256   0.405   2.188   6.599
  119SOL    HW2 1257   0.441   2.199   6.440
  120SOL     OW 1258   6.758   6.706   1.284
  120SOL    HW1 1259   6.779   6.689   1.380
  120SOL    HW2 1260   6.754   6.620   1.234
  121SOL     OW 1261   2.571   3.904   0.135
  121SOL    HW1 1262   2.543   3.811   0.110
  121SOL    HW2 1263   2.628   3.900   0.217
  122SOL     OW 1264   1.522   4.218   5.734
  122SOL    HW1 1265   1.459   4.235   5.658
  122SOL    HW2 1266   1.538   4.119   5.742
  123SOL     OW 1267   0.407   2.023   1.334
  123SOL    HW1 1268   0.435   1.946   1.277
  123SOL    HW2 1269   0.465   2.102   1.314
  124SOL     OW 1270   5.821   3.453   0.273
  124SOL    HW1 1271   5.853   3.370   0.228
  124SOL    HW2 1272   5.841   3.532   0.216
  125SOL     OW 1273   2.393   1.633   2.726
  125SOL    HW1 1274   2.414   1.624   2.823
  125SOL    HW2 1275   2.365   1.545   2.689
  126SOL     OW 1276   2.682   4.934   1.127
  126SOL    HW1 1277   2.702   5.021   1.082
  126SOL    HW2 1278   2.756   4.911   1.190
  127SOL     OW 1279   7.015   4.863   6.117
  127SOL    HW1 1280   6.948   4.811   6.171
  127SOL    HW2 1281   0.082   4.848   6.155
  128SOL     OW 1282   4.166   2.870   1.649
  128SOL    HW1 1283   4.194   2.826   1.564
  128SOL    HW2 1284   4.243   2.923   1.685
  129SOL     OW 1285   4.249   3.464   5.727
  129SOL    HW1 1286   4.203   3.468   5.816
  129SOL    HW2 1287   4.188   3.422   5.660
  130SOL     OW 1288   0.796   0.845   4.333
  130SOL    HW1 1289   0.755   0.768   4.382
  130SOL    HW2 1290   0.845   0.810   4.252
  131SOL     OW 1291   4.878   1.193   2.448
  131SOL    HW1 1292   4.780   1.173   2.459
  131SOL    HW2 1293   4.929   1.149   2.521
  132SOL     OW 1294   1.791   3.283   0.857
  132SOL    HW1 1295   1.800   3.344   0.936
  132SOL    HW2 1296   1.881   3.268   0.816
  133SOL     OW 1297   5.671   6.873   3.309
  133SOL    HW1 1298   5.752   6.858   3.252
  133SOL    HW2 1299   5.590   6.847   3.257
  134SOL     OW 1300   5.776   2.706   2.791
  134SOL    HW1 1301   5.811   2.612   2.797
  134SOL    HW2 1302   5.680   2.707   2.817
  135SOL     OW 1303   5.210   2.123   2.796
  135SOL    HW1 1304   5.128   2.181   2.798
  135SOL    HW2 1305   5.287   2.174   2.834
  136SOL     OW 1306   4.484   4.205   6.685
  136SOL    HW1 1307   4.541   4.261   6.745
  136SOL    HW2 1308   4.416   4.263   6.640
  137SOL     OW 1309   3.893   0.059   5.412
  137SOL    HW1 1310   3.928   0.028   5.500
  137SOL    HW2 1311   3.799   0.092   5.422
  138SOL     OW 1312   0.168   5.077   4.548
  138SOL    HW1 1313   0.157   5.177   4.543
  138SOL    HW2 1314   0.193   5.043   4.457
  139SOL     OW 1315   2.265   6.107   4.965
  139SOL    HW1 1316   2.314   6.102   4.878
  139SOL    HW2 1317   2.315   6.056   5.034
  140SOL     OW 1318   6.740   5.475   4.135
  140SOL    HW1 1319   6.819   5.415   4.124
  140SOL    HW2 1320   6.705   5.468   4.228
  141SOL     OW 1321   0.272   1.898   5.356
  141SOL    HW1 1322   0.274   1.882   5.257
  141SOL    HW2 1323   0.231   1.820   5.402
  142SOL     OW 1324   2.064   6.290   1.195
  142SOL    HW1 1325   2.017   6.341   1.123
  142SOL    HW2 1326   2.161   6.284   1.174
  143SOL     OW 1327   5.447   4.439   2.143
  143SOL    HW1 1328   5.453   4.529   2.187
  143SOL    HW2 1329   5.353   4.423   2.113
  144SOL     OW 1330   1.929   6.721   6.201
  144SOL    HW1 1331   1.884   6.736   6.289
  144SOL    HW2 1332   1.910   6.628   6.170
  145SOL     OW 1333   1.375   5.175   0.753
  145SOL    HW1 1334   1.303   5.236   0.783
  145SOL    HW2 1335   1.458   5.192   0.806
  146SOL     OW 1336   4.223   6.277   6.418
  146SOL    HW1 1337   4.126   6.301   6.414
  146SOL    HW2 1338   4.239   6.193   6.366
  147SOL     OW 1339   6.228   2.733   0.262
  147SOL    HW1 1340   6.307   2.790   0.240
  147SOL    HW2 1341   6.208   2.672   0.185
  148SOL     OW 1342   0.172   4.848   5.774
  148SOL    HW1 1343   0.194   4.761   5.817
  148SOL    HW2 1344   0.200   4.846   5.678
  149SOL     OW 1345   3.011   1.344   4.047
  149SOL    HW1 1346   3.106   1.368   4.068
  149SOL    HW2 1347   2.950   1.406   4.095
  150SOL     OW 1348   6.479   5.203   6.058
  150SOL    HW1 1349   6.540   5.281   6.064
  150SOL    HW2 1350   6.476   5.155   6.146
  151SOL     OW 1351   3.548   2.320   1.307
  151SOL    HW1 1352   3.596   2.232   1.296
  151SOL    HW2 1353   3.579   2.364   1.391
  152SOL     OW 1354   1.834   0.941   4.499
  152SOL    HW1 1355   1.751   0.886   4.486
  152SOL    HW2 1356   1.871   0.925   4.590
  153SOL     OW 1357   2.701   0.095   1.875
  153SOL    HW1 1358   2.729   0.030   1.805
  153SOL    HW2 1359   2.614   0.066   1.915
  154SOL     OW 1360   6.898   3.023   2.156
  154SOL    HW1 1361   6.802   2.994   2.162
  154SOL    HW2 1362   6.946   2.963   2.092
  155SOL     OW 1363   0.132   1.235   3.762
  155SOL    HW1 1364   0.161   1.295   3.688
  155SOL    HW2 1365   0.213   1.192   3.803
  156SOL     OW 1366   6.695   1.688   1.574
  156SOL    HW1 1367   6.791   1.663   1.582
  156SOL    HW2 1368   6.638   1.623   1.624
  157SOL     OW 1369   6.223   3.381   2.042
  157SOL    HW1 1370   6.178   3.448   2.100
  157SOL    HW2 1371   6.189   3.390   1.948
  158SOL     OW 1372   2.960   0.061   2.212
  158SOL    HW1 1373   2.991   0.044   2.119
  158SOL    HW2 1374   2.950   6.998   2.260
  159SOL     OW 1375   4.574   4.819   1.014
  159SOL    HW1 1376   4.490   4.775   0.982
  159SOL    HW2 1377   4.551   4.890   1.081
  160SOL     OW 1378   6.766   4.727   6.523
  160SOL    HW1 1379   6.683   4.770   6.486
  160SOL    HW2 1380   6.741   4.669   6.601
  161SOL     OW 1381   1.756   4.972   4.780
  161SOL    HW1 1382   1.670   4.990   4.829
  161SOL    HW2 1383   1.780   5.052   4.725
  162SOL     OW 1384   4.156   6.625   0.111
  162SOL    HW1 1385   4.195   6.692   0.174
  162SOL    HW2 1386   4.206   6.538   0.119
  163SOL     OW 1387   4.456   5.890   1.686
  163SOL    HW1 1388   4.530   5.823   1.685
  163SOL    HW2 1389   4.491   5.980   1.660
  164SOL     OW 1390   6.857   3.761   1.393
  164SOL    HW1 1391   6.862   3.825   1.469
  164SOL    HW2 1392   6.914   3.682   1.412
  165SOL     OW 1393   5.174   3.128   1.075
  165SOL    HW1 1394   5.076   3.146   1.079
  165SOL    HW2 1395   5.221   3.209   1.040
  166SOL     OW 1396   0.182   5.202   3.705
  166SOL    HW1 1397   0.110   5.175   3.641
  166SOL    HW2 1398   0.200   5.126   3.768
  167SOL     OW 1399   5.969   1.986   0.632
  167SOL    HW1 1400   5.910   1.907   0.649
  167SOL    HW2 1401   5.930   2.067   0.676
  168SOL     OW 1402   2.680   3.941   0.719
  168SOL    HW1 1403   2.622   3.864   0.744
  168SOL    HW2 1404   2.756   3.949   0.783
  169SOL     OW 1405   3.497   0.080   1.953
  169SOL    HW1 1406   3.404   0.107   1.977
  169SOL    HW2 1407   3.561   0.149   1.987
  170SOL     OW 1408   0.698   1.810   4.317
  170SOL    HW1 1409   0.655   1.892   4.279
  170SOL    HW2 1410   0.732   1.753   4.242
  171SOL     OW 1411   3.743   3.988   6.947
  171SOL    HW1 1412   3.735   3.998   0.021
  171SOL    HW2 1413   3.795   3.906   6.926
  172SOL     OW 1414   6.226   1.502   4.393
  172SOL    HW1 1415   6.321   1.524   4.415
  172SOL    HW2 1416   6.166   1.577   4.422
  173SOL     OW 1417   6.665   0.379   4.167
  173SOL    HW1 1418   6.694   0.475   4.173
  173SOL    HW2 1419   6.745   0.321   4.149
  174SOL     OW 1420   2.838   5.346   3.617
  174SOL    HW1 1421   2.876   5.335   3.709
  174SOL    HW2 1422   2.855   5.440   3.585
  175SOL     OW 1423   2.214   6.960   1.943
  175SOL    HW1 1424   2.276   0.011   1.921
  175SOL    HW2 1425   2.241   6.879   1.890
  176SOL     OW 1426   2.050   4.123   0.802
  176SOL    HW1 1427   2.146   4.130   0.831
  176SOL    HW2 1428   2.047   4.094   0.706
  177SOL     OW 1429   5.847   2.544   3.228
  177SOL    HW1 1430   5.850   2.628   3.173
  177SOL    HW2 1431   5.794   2.560   3.311
  178SOL     OW 1432   4.585   3.471   6.266
  178SOL    HW1 1433   4.604   3.537   6.195
  178SOL    HW2 1434   4.495   3.488   6.305
  179SOL     OW 1435   2.834   1.304   6.524
  179SOL    HW1 1436   2.775   1.366   6.472
  179SOL    HW2 1437   2.920   1.350   6.546
  180SOL     OW 1438   1.145   0.999   6.653
  180SOL    HW1 1439   1.132   0.931   6.581
  180SOL    HW2 1440   1.057   1.018   6.697
  181SOL     OW 1441   3.223   1.856   6.928
  181SOL    HW1 1442   3.224   1.883   7.024
  181SOL    HW2 1443   3.227   1.756   6.922
  182SOL     OW 1444   4.241   2.280   4.556
  182SOL    HW1 1445   4.219   2.268   4.652
  182SOL    HW2 1446   4.334   2.317   4.547
  183SOL     OW 1447   3.668   0.457   2.306
  183SOL    HW1 1448   3.728   0.528   2.268
  183SOL    HW2 1449   3.576   0.467   2.268
  184SOL     OW 1450   1.418   5.779   3.649
  184SOL    HW1 1451   1.340   5.806   3.705
  184SOL    HW2 1452   1.414   5.826   3.561
  185SOL     OW 1453   1.473   2.760   6.473
  185SOL    HW1 1454   1.398   2.720   6.420
  185SOL    HW2 1455   1.447   2.762   6.570
  186SOL     OW 1456   6.800   1.053   3.325
  186SOL    HW1 1457   6.774   1.122   3.393
  186SOL    HW2 1458   6.889   1.014   3.351
  187SOL     OW 1459   4.790   1.050   3.617
  187SOL    HW1 1460   4.859   1.091   3.677
  187SOL    HW2 1461   4.800   0.951   3.617
  188SOL     OW 1462   6.038   2.406   3.091
  188SOL    HW1 1463   6.060   2.456   3.007
  188SOL    HW2 1464   5.980   2.462   3.150
  189SOL     OW 1465   1.598   5.534   2.789
  189SOL    HW1 1466   1.654   5.617   2.798
  189SOL    HW2 1467   1.601   5.482   2.874
  190SOL     OW 1468   3.776   1.308   5.123
  190SOL    HW1 1469   3.834   1.382   5.158
  190SOL    HW2 1470   3.705   1.346   5.064
  191SOL     OW 1471   5.802   5.258   6.281
  191SOL    HW1 1472   5.843   5.229   6.368
  191SOL    HW2 1473   5.832   5.198   6.208
  192SOL     OW 1474   0.115   6.571   1.932
  192SOL    HW1 1475   0.163   6.539   1.850
  192SOL    HW2 1476   0.069   6.658   1.912
  193SOL     OW 1477   4.721   2.657   6.150
  193SOL    HW1 1478   4.814   2.677   6.120
  193SOL    HW2 1479   4.662   2.644   6.071
  194SOL     OW 1480   3.736   0.940   2.712
  194SOL    HW1 1481   3.791   0.875   2.763
  194SOL    HW2 1482   3.639   0.919   2.725
  195SOL     OW 1483   1.441   6.099   3.958
  195SOL    HW1 1484   1.484   6.009   3.966
  195SOL    HW2 1485   1.403   6.110   3.866
  196SOL     OW 1486   2.538   2.461   6.978
  196SOL    HW1 1487   2.462   2.484   0.014
  196SOL    HW2 1488   2.587   2.381   7.015
  197SOL     OW 1489   2.379   1.822   1.306
  197SOL    HW1 1490   2.334   1.806   1.218
  197SOL    HW2 1491   2.467   1.775   1.308
  198SOL     OW 1492   4.464   0.877   3.186
  198SOL    HW1 1493   4.428   0.967   3.212
  198SOL    HW2 1494   4.559   0.869   3.216
  199SOL     OW 1495   1.492   2.714   4.207
  199SOL    HW1 1496   1.558   2.732   4.134
  199SOL    HW2 1497   1.458   2.620   4.199
  200SOL     OW 1498   0.540   2.450   1.099
  200SOL    HW1 1499   0.597   2.502   1.164
  200SOL    HW2 1500   0.511   2.364   1.141
  201SOL     OW 1501   0.122   0.665   5.775
  201SOL    HW1 1502   0.026   0.660   5.748
  201SOL    HW2 1503   0.128   0.684   5.873
  202SOL     OW 1504   4.476   1.130   6.505
  202SOL    HW1 1505   4.379   1.138   6.525
  202SOL    HW2 1506   4.525   1.207   6.545
  203SOL     OW 1507   6.061   2.555   5.436
  203SOL    HW1 1508   6.130   2.529   5.503
  203SOL    HW2 1509   6.008   2.474   5.411
  204SOL     OW 1510   0.579   0.160   5.945
  204SOL    HW1 1511   0.581   0.092   5.871
  204SOL    HW2 1512   0.496   0.149   5.999
  205SOL     OW 1513   1.686   1.985   2.856
  205SOL    HW1 1514   1.646   1.979   2.764
  205SOL    HW2 1515   1.653   1.908   2.911
  206SOL     OW 1516   0.443   3.330   1.683
  206SOL    HW1 1517   0.357   3.280   1.688
  206SOL    HW2 1518   0.517   3.272   1.719
  207SOL     OW 1519   5.306   1.372   2.914
  207SOL    HW1 1520   5.326   1.380   3.011
  207SOL    HW2 1521   5.261   1.455   2.882
  208SOL     OW 1522   6.988   4.065   5.585
  208SOL    HW1 1523   6.989   4.156   5.542
  208SOL    HW2 1524   6.944   4.071   5.674
  209SOL     OW 1525   6.541   4.547   2.457
  209SOL    HW1 1526   6.581   4.456   2.455
  209SOL    HW2 1527   6.465   4.549   2.522
  210SOL     OW 1528   4.465   2.131   0.230
  210SOL    HW1 1529   4.420   2.058   0.283
  210SOL    HW2 1530   4.406   2.211   0.228
  211SOL     OW 1531   1.310   0.190   2.845
  211SOL    HW1 1532   1.382   0.219   2.909
  211SOL    HW2 1533   1.231   0.249   2.855
  212SOL     OW 1534   1.610   3.844   2.461
  212SOL    HW1 1535   1.561   3.923   2.497
  212SOL    HW2 1536   1.657   3.869   2.376
  213SOL     OW 1537   1.749   6.161   1.114
  213SOL    HW1 1538   1.683   6.203   1.051
  213SOL    HW2 1539   1.787   6.230   1.174
  214SOL     OW 1540   3.829   5.282   2.210
  214SOL    HW1 1541   3.912   5.337   2.220
  214SOL    HW2 1542   3.775   5.316   2.132
  215SOL     OW 1543   2.668   4.586   1.186
  215SOL    HW1 1544   2.577   4.623   1.204
  215SOL    HW2 1545   2.730   4.614   1.259
  216SOL     OW 1546   1.096   0.302   2.618
  216SOL    HW1 1547   1.008   0.301   2.571
  216SOL    HW2 1548   1.118   0.210   2.650
  217SOL     OW 1549   1.099   2.781   5.529
  217SOL    HW1 1550   1.090   2.869   5.483
  217SOL    HW2 1551   1.029   2.718   5.495
  218SOL     OW 1552   0.976   1.852   4.946
  218SOL    HW1 1553   0.921   1.884   4.868
  218SOL    HW2 1554   0.942   1.763   4.975
  219SOL     OW 1555   4.262   0.971   0.373
  219SOL    HW1 1556   4.234   0.947   0.466
  219SOL    HW2 1557   4.226   1.062   0.350
  220SOL     OW 1558   2.983   0.534   0.914
  220SOL    HW1 1559   3.065   0.482   0.887
  220SOL    HW2 1560   2.991   0.561   1.010
  221SOL     OW 1561   5.831   4.794   1.009
  221SOL    HW1 1562   5.816   4.696   1.018
  221SOL    HW2 1563   5.751   4.844   1.041
  222SOL     OW 1564   1.467   4.323   6.606
  222SOL    HW1 1565   1.518   4.368   6.533
  222SOL    HW2 1566   1.490   4.365   6.694
  223SOL     OW 1567   0.254   2.858   5.182
  223SOL    HW1 1568   0.253   2.808   5.268
  223SOL    HW2 1569   0.180   2.826   5.124
  224SOL     OW 1570   3.515   2.166   5.748
  224SOL    HW1 1571   3.604   2.144   5.788
  224SOL    HW2 1572   3.449   2.094   5.770
  225SOL     OW 1573   4.538   3.401   5.727
  225SOL    HW1 1574   4.438   3.399   5.739
  225SOL    HW2 1575   4.574   3.482   5.774
  226SOL     OW 1576   1.012   1.706   6.374
  226SOL    HW1 1577   1.034   1.629   6.434
  226SOL    HW2 1578   0.917   1.699   6.345
  227SOL     OW 1579   2.413   4.344   2.726
  227SOL    HW1 1580   2.435   4.353   2.629
  227SOL    HW2 1581   2.357   4.263   2.741
  228SOL     OW 1582   2.162   0.916   3.101
  228SOL    HW1 1583   2.156   0.949   3.007
  228SOL    HW2 1584   2.071   0.894   3.135
  229SOL     OW 1585   5.038   4.946   6.558
  229SOL    HW1 1586   5.018   4.849   6.549
  229SOL    HW2 1587   5.005   4.979   6.646
  230SOL     OW 1588   4.555   5.965   4.649
  230SOL    HW1 1589   4.598   5.890   4.700
  230SOL    HW2 1590   4.530   5.932   4.558
  231SOL     OW 1591   5.491   1.471   6.960
  231SOL    HW1 1592   5.460   1.508   6.873
  231SOL    HW2 1593   5.542   1.541   7.010
  232SOL     OW 1594   0.109   2.914   6.516
  232SOL    HW1 1595   0.018   2.905   6.474
  232SOL    HW2 1596   0.118   3.005   6.557
  233SOL     OW 1597   3.231   2.112   3.513
  233SOL    HW1 1598   3.181   2.190   3.550
  233SOL    HW2 1599   3.170   2.034   3.503
  234SOL     OW 1600   5.862   1.036   6.229
  234SOL    HW1 1601   5.828   1.093   6.154
  234SOL    HW2 1602   5.792   1.031   6.300
  235SOL     OW 1603   5.161   3.016   2.505
  235SOL    HW1 1604   5.065   3.040   2.491
  235SOL    HW2 1605   5.216   3.099   2.508
  236SOL     OW 1606   4.843   3.489   6.832
  236SOL    HW1 1607   4.786   3.504   6.751
  236SOL    HW2 1608   4.862   3.391   6.841
  237SOL     OW 1609   0.020   4.522   2.127
  237SOL    HW1 1610   7.017   4.588   2.057
  237SOL    HW2 1611   7.018   4.556   2.217
  238SOL     OW 1612   6.628   0.789   0.807
  238SOL    HW1 1613   6.686   0.739   0.871
  238SOL    HW2 1614   6.535   0.754   0.811
  239SOL     OW 1615   0.765   4.018   0.518
  239SOL    HW1 1616   0.804   4.086   0.456
  239SOL    HW2 1617   0.776   4.047   0.612
  240SOL     OW 1618   0.352   3.110   3.330
  240SOL    HW1 1619   0.425   3.096   3.263
  240SOL    HW2 1620   0.385   3.083   3.421
  241SOL     OW 1621   2.763   2.256   4.273
  241SOL    HW1 1622   2.675   2.231   4.314
  241SOL    HW2 1623   2.832   2.266   4.346
  242SOL     OW 1624   3.528   3.844   3.356
  242SOL    HW1 1625   3.498   3.846   3.451
  242SOL    HW2 1626   3.591   3.920   3.340
  243SOL     OW 1627   4.662   1.834   6.882
  243SOL    HW1 1628   4.594   1.793   6.942
  243SOL    HW2 1629   4.710   1.761   6.831
  244SOL     OW 1630   6.054   3.433   6.437
  244SOL    HW1 1631   5.961   3.400   6.423
  244SOL    HW2 1632   6.080   3.419   6.533
  245SOL     OW 1633   3.892   1.796   3.919
  245SOL    HW1 1634   3.955   1.801   3.842
  245SOL    HW2 1635   3.798   1.803   3.886
  246SOL     OW 1636   4.904   1.881   3.113
  246SOL    HW1 1637   4.937   1.812   3.178
  246SOL    HW2 1638   4.946   1.969   3.134
  247SOL     OW 1639   2.666   1.783   0.978
  247SOL    HW1 1640   2.606   1.861   0.963
  247SOL    HW2 1641   2.740   1.784   0.910
  248SOL     OW 1642   2.306   0.936   2.484
  248SOL    HW1 1643   2.226   0.946   2.543
  248SOL    HW2 1644   2.389   0.953   2.537
  249SOL     OW 1645   5.187   6.579   5.362
  249SOL    HW1 1646   5.276   6.623   5.348
  249SOL    HW2 1647   5.116   6.637   5.322
  250SOL     OW 1648   4.136   3.482   0.995
  250SOL    HW1 1649   4.216   3.452   1.046
  250SOL    HW2 1650   4.081   3.543   1.051
  251SOL     OW 1651   4.860   3.424   5.337
  251SOL    HW1 1652   4.789   3.369   5.380
  251SOL    HW2 1653   4.818   3.490   5.275
  252SOL     OW 1654   6.302   7.003   5.401
  252SOL    HW1 1655   6.371   0.043   5.434
  252SOL    HW2 1656   6.219   0.028   5.376
  253SOL     OW 1657   3.713   4.951   5.727
  253SOL    HW1 1658   3.698   4.854   5.743
  253SOL    HW2 1659   3.785   4.984   5.789
  254SOL     OW 1660   6.653   2.348   3.544
  254SOL    HW1 1661   6.592   2.424   3.567
  254SOL    HW2 1662   6.603   2.261   3.552
  255SOL     OW 1663   1.514   4.855   5.665
  255SOL    HW1 1664   1.453   4.857   5.586
  255SOL    HW2 1665   1.522   4.762   5.699
  256SOL     OW 1666   5.671   3.458   6.177
  256SOL    HW1 1667   5.577   3.426   6.170
  256SOL    HW2 1668   5.697   3.504   6.092
  257SOL     OW 1669   5.454   6.799   3.149
  257SOL    HW1 1670   5.413   6.709   3.158
  257SOL    HW2 1671   5.492   6.810   3.057
  258SOL     OW 1672   2.430   4.104   5.652
  258SOL    HW1 1673   2.360   4.032   5.655
  258SOL    HW2 1674   2.490   4.088   5.574
  259SOL     OW 1675   5.265   1.009   2.153
  259SOL    HW1 1676   5.279   1.028   2.250
  259SOL    HW2 1677   5.322   0.931   2.126
  260SOL     OW 1678   3.646   5.161   3.103
  260SOL    HW1 1679   3.724   5.159   3.041
  260SOL    HW2 1680   3.566   5.123   3.057
  261SOL     OW 1681   5.673   4.525   1.283
  261SOL    HW1 1682   5.663   4.430   1.314
  261SOL    HW2 1683   5.770   4.549   1.279
  262SOL     OW 1684   1.637   3.922   0.770
  262SOL    HW1 1685   1.735   3.929   0.787
  262SOL    HW2 1686   1.590   3.896   0.855
  263SOL     OW 1687   1.148   0.478   4.388
  263SOL    HW1 1688   1.188   0.397   4.346
  263SOL    HW2 1689   1.178   0.485   4.483
  264SOL     OW 1690   6.440   2.619   0.691
  264SOL    HW1 1691   6.510   2.676   0.734
  264SOL    HW2 1692   6.380   2.676   0.635
  265SOL     OW 1693   6.019   6.479   3.011
  265SOL    HW1 1694   5.958   6.500   3.087
  265SOL    HW2 1695   6.093   6.547   3.007
  266SOL     OW 1696   4.660   3.262   5.943
  266SOL    HW1 1697   4.690   3.175   5.904
  266SOL    HW2 1698   4.623   3.319   5.870
  267SOL     OW 1699   0.973   1.239   5.494
  267SOL    HW1 1700   0.890   1.291   5.514
  267SOL    HW2 1701   0.983   1.166   5.561
  268SOL     OW 1702   3.104   1.166   5.840
  268SOL    HW1 1703   3.145   1.217   5.765
  268SOL    HW2 1704   3.049   1.228   5.896
  269SOL     OW 1705   2.938   2.737   0.287
  269SOL    HW1 1706   2.942   2.762   0.383
  269SOL    HW2 1707   3.031   2.721   0.253
  270SOL     OW 1708   0.647   6.332   0.320
  270SOL    HW1 1709   0.639   6.266   0.395
  270SOL    HW2 1710   0.700   6.411   0.352
  271SOL     OW 1711   0.129   1.604   6.730
  271SOL    HW1 1712   0.150   1.540   6.804
  271SOL    HW2 1713   0.113   1.695   6.768
  272SOL     OW 1714   3.687   6.149   3.849
  272SOL    HW1 1715   3.607   6.149   3.910
  272SOL    HW2 1716   3.762   6.100   3.894
  273SOL     OW 1717   1.701   4.815   5.308
  273SOL    HW1 1718   1.762   4.872   5.252
  273SOL    HW2 1719   1.606   4.831   5.280
  274SOL     OW 1720   3.609   0.708   3.463
  274SOL    HW1 1721   3.603   0.704   3.363
  274SOL    HW2 1722   3.698   0.745   3.489
  275SOL     OW 1723   6.848   6.507   2.741
  275SOL    HW1 1724   6.827   6.543   2.832
  275SOL    HW2 1725   6.849   6.407   2.745
  276SOL     OW 1726   0.577   6.856   3.562
  276SOL    HW1 1727   0.668   6.884   3.592
  276SOL    HW2 1728   0.586   6.775   3.504
  277SOL     OW 1729   1.604   3.653   0.175
  277SOL    HW1 1730   1.681   3.716   0.165
  277SOL    HW2 1731   1.639   3.560   0.189
  278SOL     OW 1732   0.232   3.524   2.543
  278SOL    HW1 1733   0.175   3.455   2.587
  278SOL    HW2 1734   0.312   3.479   2.501
  279SOL     OW 1735   5.145   2.929   4.344
  279SOL    HW1 1736   5.229   2.957   4.391
  279SOL    HW2 1737   5.141   2.973   4.254
  280SOL     OW 1738   2.601   5.269   1.303
  280SOL    HW1 1739   2.623   5.277   1.400
  280SOL    HW2 1740   2.538   5.194   1.289
  281SOL     OW 1741   2.096   4.555   1.682
  281SOL    HW1 1742   2.034   4.501   1.739
  281SOL    HW2 1743   2.178   4.501   1.661
  282SOL     OW 1744   3.089   1.129   4.933
  282SOL    HW1 1745   3.083   1.087   4.842
  282SOL    HW2 1746   3.178   1.172   4.944
  283SOL     OW 1747   5.861   2.485   6.902
  283SOL    HW1 1748   5.921   2.485   6.822
  283SOL    HW2 1749   5.774   2.527   6.877
  284SOL     OW 1750   0.871   3.623   4.025
  284SOL    HW1 1751   0.828   3.661   3.944
  284SOL    HW2 1752   0.808   3.558   4.069
  285SOL     OW 1753   5.380   4.819   3.996
  285SOL    HW1 1754   5.374   4.873   4.080
  285SOL    HW2 1755   5.432   4.871   3.927
  286SOL     OW 1756   3.404   4.091   6.681
  286SOL    HW1 1757   3.391   4.140   6.767
  286SOL    HW2 1758   3.496   4.052   6.679
  287SOL     OW 1759   1.514   3.521   1.336
  287SOL    HW1 1760   1.585   3.574   1.383
  287SOL    HW2 1761   1.424   3.548   1.370
  288SOL     OW 1762   3.893   1.524   6.330
  288SOL    HW1 1763   3.919   1.503   6.236
  288SOL    HW2 1764   3.889   1.623   6.343
  289SOL     OW 1765   1.965   4.429   5.196
  289SOL    HW1 1766   1.938   4.370   5.119
  289SOL    HW2 1767   1.884   4.467   5.239
  290SOL     OW 1768   6.935   1.692   5.207
  290SOL    HW1 1769   7.014   1.636   5.233
  290SOL    HW2 1770   6.956   1.744   5.125
  291SOL     OW 1771   0.915   1.176   3.596
  291SOL    HW1 1772   0.995   1.133   3.637
  291SOL    HW2 1773   0.835   1.161   3.655
  292SOL     OW 1774   2.138   1.000   3.402
  292SOL    HW1 1775   2.069   0.982   3.332
  292SOL    HW2 1776   2.227   1.013   3.358
  293SOL     OW 1777   5.132   5.843   3.912
  293SOL    HW1 1778   5.050   5.800   3.950
  293SOL    HW2 1779   5.202   5.849   3.983
  294SOL     OW 1780   5.353   5.997   6.782
  294SOL    HW1 1781   5.317   6.001   6.689
  294SOL    HW2 1782   5.329   6.080   6.831
  295SOL     OW 1783   4.893   0.592   3.124
  295SOL    HW1 1784   4.882   0.599   3.223
  295SOL    HW2 1785   4.811   0.552   3.084
  296SOL     OW 1786   3.637   1.375   3.018
  296SOL    HW1 1787   3.659   1.300   2.955
  296SOL    HW2 1788   3.546   1.361   3.056
  297SOL     OW 1789   2.152   4.103   3.087
  297SOL    HW1 1790   2.183   4.120   3.181
  297SOL    HW2 1791   2.066   4.153   3.072
  298SOL     OW 1792   5.876   5.995   0.645
  298SOL    HW1 1793   5.881   6.091   0.617
  298SOL    HW2 1794   5.954   5.945   0.608
  299SOL     OW 1795   6.219   2.653   4.849
  299SOL    HW1 1796   6.304   2.696   4.878
  299SOL    HW2 1797   6.236   2.594   4.770
  300SOL     OW 1798   6.440   0.782   2.766
  300SOL    HW1 1799   6.353   0.732   2.761
  300SOL    HW2 1800   6.421   0.880   2.771
  301SOL     OW 1801   5.882   3.521   6.936
  301SOL    HW1 1802   5.933   3.584   6.995
  301SOL    HW2 1803   5.873   3.562   6.845
  302SOL     OW 1804   0.992   0.229   3.797
  302SOL    HW1 1805   0.896   0.203   3.806
  302SOL    HW2 1806   1.050   0.155   3.831
  303SOL     OW 1807   5.179   0.893   2.747
  303SOL    HW1 1808   5.111   0.865   2.814
  303SOL    HW2 1809   5.267   0.850   2.768
  304SOL     OW 1810   2.390   0.192   3.188
  304SOL    HW1 1811   2.394   0.270   3.251
  304SOL    HW2 1812   2.482   0.166   3.160
  305SOL     OW 1813   0.922   4.016   6.845
  305SOL    HW1 1814   0.914   3.924   6.806
  305SOL    HW2 1815   0.913   4.010   6.945
  306SOL     OW 1816   2.437   1.005   3.674
  306SOL    HW1 1817   2.343   1.032   3.693
  306SOL    HW2 1818   2.485   0.987   3.760
  307SOL     OW 1819   4.323   0.389   1.005
  307SOL    HW1 1820   4.379   0.310   1.030
  307SOL    HW2 1821   4.376   0.451   0.947
  308SOL     OW 1822   1.320   6.194   3.016
  308SOL    HW1 1823   1.257   6.154   2.949
  308SOL    HW2 1824   1.269   6.229   3.094
  309SOL     OW 1825   3.536   4.539   5.398
  309SOL    HW1 1826   3.480   4.615   5.366
  309SOL    HW2 1827   3.506   4.455   5.352
  310SOL     OW 1828   0.077   6.250   5.758
  310SOL    HW1 1829   0.074   6.196   5.842
  310SOL    HW2 1830   0.127   6.335   5.775
  311SOL     OW 1831   0.062   5.871   1.537
  311SOL    HW1 1832   0.075   5.796   1.473
  311SOL    HW2 1833   6.989   5.896   1.540
  312SOL     OW 1834   5.328   1.441   5.106
  312SOL    HW1 1835   5.333   1.381   5.026
  312SOL    HW2 1836   5.289   1.390   5.183
  313SOL     OW 1837   2.277   4.487   1.943
  313SOL    HW1 1838   2.207   4.481   1.872
  313SOL    HW2 1839   2.291   4.583   1.968
  314SOL     OW 1840   3.400   5.646   0.642
  314SOL    HW1 1841   3.459   5.722   0.669
  314SOL    HW2 1842   3.307   5.662   0.675
  315SOL     OW 1843   0.611   2.567   3.415
  315SOL    HW1 1844   0.560   2.590   3.332
  315SOL    HW2 1845   0.692   2.626   3.422
  316SOL     OW 1846   2.271   2.904   3.888
  316SOL    HW1 1847   2.316   2.821   3.921
  316SOL    HW2 1848   2.245   2.961   3.966
  317SOL     OW 1849   6.905   1.644   0.258
  317SOL    HW1 1850   6.929   1.643   0.354
  317SOL    HW2 1851   6.813   1.606   0.246
  318SOL     OW 1852   1.351   4.725   0.479
  318SOL    HW1 1853   1.409   4.798   0.443
  318SOL    HW2 1854   1.342   4.735   0.578
  319SOL     OW 1855   1.064   6.941   1.090
  319SOL    HW1 1856   1.051   6.933   1.189
  319SOL    HW2 1857   1.060   0.013   1.064
  320SOL     OW 1858   6.235   3.144   1.061
  320SOL    HW1 1859   6.172   3.221   1.051
  320SOL    HW2 1860   6.324   3.169   1.021
  321SOL     OW 1861   1.876   2.367   2.098
  321SOL    HW1 1862   1.938   2.322   2.162
  321SOL    HW2 1863   1.832   2.445   2.143
  322SOL     OW 1864   3.710   2.912   4.967
  322SOL    HW1 1865   3.769   2.957   4.900
  322SOL    HW2 1866   3.616   2.943   4.955
  323SOL     OW 1867   0.063   4.510   0.858
  323SOL    HW1 1868   0.064   4.484   0.954
  323SOL    HW2 1869   0.087   4.431   0.801
  324SOL     OW 1870   0.973   3.209   4.658
  324SOL    HW1 1871   0.918   3.126   4.667
  324SOL    HW2 1872   1.070   3.184   4.653
  325SOL     OW 1873   1.952   3.147   1.763
  325SOL    HW1 1874   1.932   3.243   1.744
  325SOL    HW2 1875   1.879   3.089   1.726
  326SOL     OW 1876   1.898   6.564   6.672
  326SOL    HW1 1877   1.829   6.529   6.734
  326SOL    HW2 1878   1.936   6.489   6.618
  327SOL     OW 1879   6.503   4.756   5.009
  327SOL    HW1 1880   6.567   4.791   4.940
  327SOL    HW2 1881   6.409   4.770   4.978
  328SOL     OW 1882   4.352   4.889   1.972
  328SOL    HW1 1883   4.292   4.887   1.892
  328SOL    HW2 1884   4.368   4.796   2.004
  329SOL     OW 1885   3.240   3.555   3.170
  329SOL    HW1 1886   3.207   3.582   3.260
  329SOL    HW2 1887   3.176   3.586   3.100
  330SOL     OW 1888   3.640   6.664   1.528
  330SOL    HW1 1889   3.593   6.700   1.447
  330SOL    HW2 1890   3.579   6.670   1.607
  331SOL     OW 1891   4.763   5.133   5.745
  331SOL    HW1 1892   4.695   5.197   5.709
  331SOL    HW2 1893   4.814   5.093   5.669
  332SOL     OW 1894   3.077   1.577   3.828
  332SOL    HW1 1895   2.982   1.548   3.832
  332SOL    HW2 1896   3.082   1.674   3.804
  333SOL     OW 1897   3.958   6.762   5.710
  333SOL    HW1 1898   4.012   6.704   5.771
  333SOL    HW2 1899   3.986   6.747   5.616
  334SOL     OW 1900   3.659   6.808   2.253
  334SOL    HW1 1901   3.680   6.816   2.350
  334SOL    HW2 1902   3.669   6.713   2.224
  335SOL     OW 1903   3.561   5.449   3.584
  335SOL    HW1 1904   3.561   5.488   3.676
  335SOL    HW2 1905   3.605   5.513   3.521
  336SOL     OW 1906   3.309   1.151   3.485
  336SOL    HW1 1907   3.343   1.066   3.446
  336SOL    HW2 1908   3.226   1.133   3.538
  337SOL     OW 1909   0.576   3.776   1.914
  337SOL    HW1 1910   0.550   3.680   1.910
  337SOL    HW2 1911   0.496   3.833   1.896
  338SOL     OW 1912   2.631   2.898   1.562
  338SOL    HW1 1913   2.559   2.929   1.501
  338SOL    HW2 1914   2.653   2.971   1.627
  339SOL     OW 1915   3.890   6.754   2.983
  339SOL    HW1 1916   3.867   6.851   2.977
  339SOL    HW2 1917   3.825   6.708   3.043
  340SOL     OW 1918   4.746   4.141   4.440
  340SOL    HW1 1919   4.845   4.129   4.447
  340SOL    HW2 1920   4.715   4.207   4.508
  341SOL     OW 1921   5.690   5.618   3.973
  341SOL    HW1 1922   5.767   5.679   3.991
  341SOL    HW2 1923   5.612   5.671   3.939
  342SOL     OW 1924   6.052   5.228   0.487
  342SOL    HW1 1925   5.956   5.203   0.474
  342SOL    HW2 1926   6.059   5.327   0.500
  343SOL     OW 1927   3.662   6.526   1.836
  343SOL    HW1 1928   3.699   6.521   1.743
  343SOL    HW2 1929   3.608   6.445   1.855
  344SOL     OW 1930   2.076   5.372   0.512
  344SOL    HW1 1931   2.058   5.440   0.583
  344SOL    HW2 1932   2.124   5.294   0.552
  345SOL     OW 1933   0.965   0.542   5.477
  345SOL    HW1 1934   0.932   0.636   5.471
  345SOL    HW2 1935   0.987   0.509   5.385
  346SOL     OW 1936   1.501   0.242   3.303
  346SOL    HW1 1937   1.488   0.172   3.234
  346SOL    HW2 1938   1.508   0.199   3.393
  347SOL     OW 1939   5.495   0.056   6.564
  347SOL    HW1 1940   5.489   0.155   6.552
  347SOL    HW2 1941   5.558   0.035   6.639
  348SOL     OW 1942   3.847   5.198   1.273
  348SOL    HW1 1943   3.867   5.183   1.176
  348SOL    HW2 1944   3.751   5.224   1.283
  349SOL     OW 1945   0.552   4.671   2.095
  349SOL    HW1 1946   0.543   4.626   2.183
  349SOL    HW2 1947   0.489   4.628   2.029
  350SOL     OW 1948   3.757   3.568   1.508
  350SOL    HW1 1949   3.714   3.491   1.461
  350SOL    HW2 1950   3.692   3.606   1.574
  351SOL     OW 1951   2.857   1.488   0.203
  351SOL    HW1 1952   2.820   1.577   0.231
  351SOL    HW2 1953   2.834   1.419   0.271
  352SOL     OW 1954   3.106   0.267   5.951
  352SOL    HW1 1955   3.032   0.258   6.018
  352SOL    HW2 1956   3.068   0.298   5.864
  353SOL     OW 1957   1.628   5.915   1.085
  353SOL    HW1 1958   1.531   5.940   1.081
  353SOL    HW2 1959   1.681   5.993   1.118
  354SOL     OW 1960   4.185   1.790   6.991
  354SOL    HW1 1961   4.140   1.794   6.902
  354SOL    HW2 1962   4.118   1.762   0.036
  355SOL     OW 1963   6.828   3.227   2.302
  355SOL    HW1 1964   6.875   3.150   2.260
  355SOL    HW2 1965   6.749   3.193   2.354
  356SOL     OW 1966   4.145   4.785   3.999
  356SOL    HW1 1967   4.198   4.762   3.917
  356SOL    HW2 1968   4.148   4.708   4.063
  357SOL     OW 1969   0.401   5.800   5.031
  357SOL    HW1 1970   0.401   5.899   5.044
  357SOL    HW2 1971   0.412   5.755   5.119
  358SOL     OW 1972   5.956   0.250   1.730
  358SOL    HW1 1973   5.958   0.212   1.638
  358SOL    HW2 1974   5.862   0.275   1.754
  359SOL     OW 1975   1.904   2.411   2.568
  359SOL    HW1 1976   1.815   2.386   2.532
  359SOL    HW2 1977   1.897   2.497   2.619
  360SOL     OW 1978   4.674   0.095   6.765
  360SOL    HW1 1979   4.672   0.013   6.822
  360SOL    HW2 1980   4.616   0.080   6.685
  361SOL     OW 1981   5.274   6.069   2.886
  361SOL    HW1 1982   5.352   6.006   2.881
  361SOL    HW2 1983   5.230   6.074   2.797
  362SOL     OW 1984   2.835   4.212   0.772
  362SOL    HW1 1985   2.860   4.136   0.832
  362SOL    HW2 1986   2.765   4.183   0.707
  363SOL     OW 1987   4.501   5.388   4.104
  363SOL    HW1 1988   4.444   5.307   4.117
  363SOL    HW2 1989   4.493   5.447   4.184
  364SOL     OW 1990   1.430   5.566   5.770
  364SOL    HW1 1991   1.431   5.485   5.712
  364SOL    HW2 1992   1.472   5.546   5.858
  365SOL     OW 1993   5.165   5.967   2.132
  365SOL    HW1 1994   5.189   5.870   2.126
  365SOL    HW2 1995   5.145   5.991   2.227
  366SOL     OW 1996   6.029   1.121   6.780
  366SOL    HW1 1997   5.974   1.038   6.767
  366SOL    HW2 1998   6.090   1.107   6.858
  367SOL     OW 1999   5.549   3.145   1.336
  367SOL    HW1 2000   5.646   3.166   1.325
  367SOL    HW2 2001   5.526   3.063   1.284
  368SOL     OW 2002   1.401   4.416   5.206
  368SOL    HW1 2003   1.454   4.438   5.124
  368SOL    HW2 2004   1.417   4.321   5.232
  369SOL     OW 2005   0.394   4.331   1.520
  369SOL    HW1 2006   0.492   4.318   1.510
  369SOL    HW2 2007   0.372   4.350   1.616
  370SOL     OW 2008   2.726   1.381   5.648
  370SOL    HW1 2009   2.792   1.306   5.656
  370SOL    HW2 2010   2.682   1.377   5.558
  371SOL     OW 2011   3.108   3.269   0.077
  371SOL    HW1 2012   3.026   3.224   0.042
  371SOL    HW2 2013   3.144   3.218   0.155
  372SOL     OW 2014   6.973   6.319   6.156
  372SOL    HW1 2015   7.002   6.402   6.108
  372SOL    HW2 2016   6.982   6.240   6.095
  373SOL     OW 2017   0.451   6.094   0.724
  373SOL    HW1 2018   0.394   6.035   0.666
  373SOL    HW2 2019   0.394   6.135   0.794
  374SOL     OW 2020   3.280   0.197   2.146
  374SOL    HW1 2021   3.227   0.195   2.062
  374SOL    HW2 2022   3.272   0.287   2.189
  375SOL     OW 2023   6.749   4.911   3.230
  375SOL    HW1 2024   6.808   4.842   3.273
  375SOL    HW2 2025   6.668   4.925   3.287
  376SOL     OW 2026   2.018   2.696   4.155
  376SOL    HW1 2027   2.032   2.696   4.056
  376SOL    HW2 2028   2.067   2.618   4.195
  377SOL     OW 2029   5.038   2.118   3.200
  377SOL    HW1 2030   5.004   2.180   3.130
  377SOL    HW2 2031   4.990   2.136   3.286
  378SOL     OW 2032   4.784   3.114   5.321
  378SOL    HW1 2033   4.727   3.194   5.339
  378SOL    HW2 2034   4.728   3.041   5.280
  379SOL     OW 2035   5.828   3.928   1.430
  379SOL    HW1 2036   5.761   3.853   1.428
  379SOL    HW2 2037   5.779   4.015   1.427
  380SOL     OW 2038   1.918   1.785   1.323
  380SOL    HW1 2039   1.871   1.761   1.408
  380SOL    HW2 2040   2.011   1.815   1.344
  381SOL     OW 2041   3.275   4.469   1.020
  381SOL    HW1 2042   3.257   4.409   0.942
  381SOL    HW2 2043   3.306   4.558   0.986
  382SOL     OW 2044   3.366   5.982   0.502
  382SOL    HW1 2045   3.277   5.940   0.515
  382SOL    HW2 2046   3.434   5.934   0.558
  383SOL     OW 2047   6.406   2.400   0.336
  383SOL    HW1 2048   6.490   2.432   0.381
  383SOL    HW2 2049   6.397   2.443   0.246
  384SOL     OW 2050   0.904   5.210   4.923
  384SOL    HW1 2051   0.932   5.139   4.859
  384SOL    HW2 2052   0.831   5.266   4.883
  385SOL     OW 2053   4.429   6.336   0.394
  385SOL    HW1 2054   4.495   6.288   0.336
  385SOL    HW2 2055   4.346   6.280   0.403
  386SOL     OW 2056   3.837   6.486   5.287
  386SOL    HW1 2057   3.748   6.447   5.267
  386SOL    HW2 2058   3.850   6.569   5.233
  387SOL     OW 2059   0.290   0.541   5.495
  387SOL    HW1 2060   0.290   0.633   5.457
  387SOL    HW2 2061   0.318   0.475   5.425
  388SOL     OW 2062   0.226   2.498   5.347
  388SOL    HW1 2063   0.143   2.479   5.295
  388SOL    HW2 2064   0.210   2.576   5.408
  389SOL     OW 2065   4.297   4.670   1.289
  389SOL    HW1 2066   4.221   4.733   1.306
  389SOL    HW2 2067   4.380   4.722   1.273
  390SOL     OW 2068   3.541   1.910   0.634
  390SOL    HW1 2069   3.473   1.983   0.635
  390SOL    HW2 2070   3.506   1.831   0.684
  391SOL     OW 2071   2.945   3.871   6.499
  391SOL    HW1 2072   3.015   3.916   6.554
  391SOL    HW2 2073   2.906   3.937   6.434
  392SOL     OW 2074   1.663   3.759   2.001
  392SOL    HW1 2075   1.714   3.686   1.955
  392SOL    HW2 2076   1.689   3.762   2.097
  393SOL     OW 2077   0.935   4.647   1.110
  393SOL    HW1 2078   0.868   4.647   1.184
  393SOL    HW2 2079   1.027   4.639   1.148
  394SOL     OW 2080   6.487   1.153   6.316
  394SOL    HW1 2081   6.506   1.169   6.413
  394SOL    HW2 2082   6.558   1.094   6.278
  395SOL     OW 2083   5.446   4.634   1.369
  395SOL    HW1 2084   5.537   4.596   1.376
  395SOL    HW2 2085   5.427   4.656   1.273
  396SOL     OW 2086   2.926   1.382   2.754
  396SOL    HW1 2087   2.827   1.393   2.756
  396SOL    HW2 2088   2.949   1.285   2.755
  397SOL     OW 2089   4.405   1.445   5.368
  397SOL    HW1 2090   4.372   1.427   5.460
  397SOL    HW2 2091   4.327   1.462   5.307
  398SOL     OW 2092   2.591   0.961   4.724
  398SOL    HW1 2093   2.683   0.941   4.759
  398SOL    HW2 2094   2.529   0.975   4.802
  399SOL     OW 2095   5.641   6.413   3.778
  399SOL    HW1 2096   5.613   6.319   3.797
  399SOL    HW2 2097   5.660   6.422   3.680
  400SOL     OW 2098   6.697   0.526   4.883
  400SOL    HW1 2099   6.616   0.521   4.825
  400SOL    HW2 2100   6.722   0.434   4.915
  401SOL     OW 2101   6.911   5.896   5.801
  401SOL    HW1 2102   6.823   5.896   5.753
  401SOL    HW2 2103   6.895   5.898   5.900
  402SOL     OW 2104   6.882   0.426   2.458
  402SOL    HW1 2105   6.854   0.411   2.553
  402SOL    HW2 2106   6.835   0.506   2.422
  403SOL     OW 2107   2.961   0.899   6.066
  403SOL    HW1 2108   2.942   0.965   5.993
  403SOL    HW2 2109   2.923   0.932   6.152
  404SOL     OW 2110   3.932   4.848   4.403
  404SOL    HW1 2111   4.019   4.800   4.395
  404SOL    HW2 2112   3.886   4.820   4.487
  405SOL     OW 2113   2.757   4.708   3.885
  405SOL    HW1 2114   2.743   4.702   3.786
  405SOL    HW2 2115   2.672   4.734   3.930
  406SOL     OW 2116   0.376   5.366   5.965
  406SOL    HW1 2117   0.334   5.453   5.991
  406SOL    HW2 2118   0.445   5.341   6.034
  407SOL     OW 2119   2.195   3.088   4.605
  407SOL    HW1 2120   2.241   3.080   4.693
  407SOL    HW2 2121   2.149   3.002   4.583
  408SOL     OW 2122   3.037   1.183   3.551
  408SOL    HW1 2123   2.953   1.173   3.497
  408SOL    HW2 2124   3.047   1.278   3.579
  409SOL     OW 2125   1.071   3.971   2.393
  409SOL    HW1 2126   1.074   4.055   2.447
  409SOL    HW2 2127   0.976   3.949   2.370
  410SOL     OW 2128   2.020   2.092   1.410
  410SOL    HW1 2129   1.921   2.076   1.412
  410SOL    HW2 2130   2.067   2.011   1.445
  411SOL     OW 2131   0.872   2.324   1.150
  411SOL    HW1 2132   0.856   2.408   1.097
  411SOL    HW2 2133   0.883   2.347   1.246
  412SOL     OW 2134   1.884   5.011   1.760
  412SOL    HW1 2135   1.853   5.030   1.667
  412SOL    HW2 2136   1.861   5.088   1.820
  413SOL     OW 2137   5.284   5.291   2.699
  413SOL    HW1 2138   5.295   5.207   2.646
  413SOL    HW2 2139   5.201   5.286   2.754
  414SOL     OW 2140   2.582   6.335   3.788
  414SOL    HW1 2141   2.510   6.320   3.720
  414SOL    HW2 2142   2.575   6.266   3.859
  415SOL     OW 2143   6.446   0.687   0.335
  415SOL    HW1 2144   6.452   0.603   0.389
  415SOL    HW2 2145   6.514   0.685   0.262
  416SOL     OW 2146   4.900   3.368   4.640
  416SOL    HW1 2147   4.933   3.436   4.574
  416SOL    HW2 2148   4.899   3.278   4.596
  417SOL     OW 2149   3.677   2.042   6.310
  417SOL    HW1 2150   3.583   2.075   6.296
  417SOL    HW2 2151   3.733   2.117   6.346
  418SOL     OW 2152   3.974   5.969   4.844
  418SOL    HW1 2153   3.946   5.937   4.754
  418SOL    HW2 2154   4.073   5.963   4.852
  419SOL     OW 2155   1.014   6.938   1.382
  419SOL    HW1 2156   1.015   7.013   1.448
  419SOL    HW2 2157   1.002   6.851   1.430
  420SOL     OW 2158   5.292   1.190   5.995
  420SOL    HW1 2159   5.368   1.195   5.931
  420SOL    HW2 2160   5.224   1.260   5.971
  421SOL     OW 2161   5.158   3.368   2.433
  421SOL    HW1 2162   5.214   3.335   2.357
  421SOL    HW2 2163   5.062   3.353   2.412
  422SOL     OW 2164   4.919   3.318   1.706
  422SOL    HW1 2165   4.840   3.263   1.679
  422SOL    HW2 2166   4.892   3.415   1.712
  423SOL     OW 2167   3.681   1.377   6.065
  423SOL    HW1 2168   3.669   1.295   6.010
  423SOL    HW2 2169   3.769   1.374   6.112
  424SOL     OW 2170   1.072   3.910   3.319
  424SOL    HW1 2171   1.116   3.944   3.402
  424SOL    HW2 2172   1.137   3.853   3.268
  425SOL     OW 2173   2.365   0.808   5.333
  425SOL    HW1 2174   2.297   0.881   5.340
  425SOL    HW2 2175   2.320   0.720   5.349
  426SOL     OW 2176   2.583   2.497   4.184
  426SOL    HW1 2177   2.610   2.433   4.257
  426SOL    HW2 2178   2.532   2.573   4.224
  427SOL     OW 2179   3.719   2.102   3.024
  427SOL    HW1 2180   3.678   2.162   2.955
  427SOL    HW2 2181   3.653   2.032   3.051
  428SOL     OW 2182   2.540   1.639   6.125
  428SOL    HW1 2183   2.537   1.738   6.120
  428SOL    HW2 2184   2.527   1.600   6.033
  429SOL     OW 2185   1.099   6.134   4.170
  429SOL    HW1 2186   1.031   6.125   4.098
  429SOL    HW2 2187   1.148   6.221   4.159
  430SOL     OW 2188   1.498   0.009   3.805
  430SOL    HW1 2189   1.446   7.021   3.721
  430SOL    HW2 2190   1.500   0.106   3.828
  431SOL     OW 2191   3.269   1.582   1.965
  431SOL    HW1 2192   3.267   1.670   2.011
  431SOL    HW2 2193   3.301   1.512   2.028
  432SOL     OW 2194   4.182   2.364   1.690
  432SOL    HW1 2195   4.277   2.383   1.666
  432SOL    HW2 2196   4.123   2.377   1.610
  433SOL     OW 2197   2.282   5.820   0.397
  433SOL    HW1 2198   2.249   5.848   0.487
  433SOL    HW2 2199   2.309   5.901   0.345
  434SOL     OW 2200   4.153   5.837   3.657
  434SOL    HW1 2201   4.253   5.832   3.666
  434SOL    HW2 2202   4.121   5.765   3.596
  435SOL     OW 2203   3.116   1.477   6.336
  435SOL    HW1 2204   3.123   1.490   6.435
  435SOL    HW2 2205   3.197   1.515   6.291
  436SOL     OW 2206   4.985   6.747   2.853
  436SOL    HW1 2207   5.021   6.840   2.848
  436SOL    HW2 2208   4.993   6.713   2.947
  437SOL     OW 2209   6.763   0.653   5.101
  437SOL    HW1 2210   6.771   0.587   5.026
  437SOL    HW2 2211   6.850   0.701   5.112
  438SOL     OW 2212   0.603   3.964   2.766
  438SOL    HW1 2213   0.604   3.964   2.666
  438SOL    HW2 2214   0.537   4.032   2.799
  439SOL     OW 2215   6.488   0.501   3.916
  439SOL    HW1 2216   6.548   0.529   3.990
  439SOL    HW2 2217   6.520   0.414   3.878
  440SOL     OW 2218   4.424   0.931   0.782
  440SOL    HW1 2219   4.402   0.834   0.771
  440SOL    HW2 2220   4.391   0.981   0.702
  441SOL     OW 2221   0.174   4.339   2.711
  441SOL    HW1 2222   0.107   4.301   2.648
  441SOL    HW2 2223   0.133   4.414   2.763
  442SOL     OW 2224   5.411   2.981   6.315
  442SOL    HW1 2225   5.332   2.962   6.373
  442SOL    HW2 2226   5.439   2.898   6.267
  443SOL     OW 2227   4.856   3.145   2.556
  443SOL    HW1 2228   4.833   3.068   2.497
  443SOL    HW2 2229   4.834   3.230   2.509
  444SOL     OW 2230   3.966   1.040   1.466
  444SOL    HW1 2231   3.965   1.129   1.420
  444SOL    HW2 2232   3.929   1.051   1.559
  445SOL     OW 2233   1.265   5.683   2.228
  445SOL    HW1 2234   1.285   5.733   2.143
  445SOL    HW2 2235   1.351   5.668   2.278
  446SOL     OW 2236   5.593   6.908   1.535
  446SOL    HW1 2237   5.657   6.937   1.464
  446SOL    HW2 2238   5.508   6.961   1.528
  447SOL     OW 2239   6.464   4.292   0.709
  447SOL    HW1 2240   6.473   4.323   0.614
  447SOL    HW2 2241   6.467   4.372   0.770
  448SOL     OW 2242   2.736   6.712   3.415
  448SOL    HW1 2243   2.690   6.626   3.438
  448SOL    HW2 2244   2.811   6.728   3.479
  449SOL     OW 2245   2.031   3.728   4.860
  449SOL    HW1 2246   1.935   3.724   4.888
  449SOL    HW2 2247   2.064   3.822   4.869
  450SOL     OW 2248   0.711   4.970   3.488
  450SOL    HW1 2249   0.693   4.959   3.586
  450SOL    HW2 2250   0.780   4.903   3.459
  451SOL     OW 2251   0.701   2.265   2.608
  451SOL    HW1 2252   0.723   2.349   2.558
  451SOL    HW2 2253   0.680   2.288   2.703
  452SOL     OW 2254   4.900   5.637   2.101
  452SOL    HW1 2255   4.962   5.657   2.025
  452SOL    HW2 2256   4.835   5.711   2.111
  453SOL     OW 2257   3.539   0.540   6.725
  453SOL    HW1 2258   3.535   0.556   6.823
  453SOL    HW2 2259   3.593   0.612   6.681
  454SOL     OW 2260   6.602   3.510   6.935
  454SOL    HW1 2261   6.640   3.492   0.001
  454SOL    HW2 2262   6.670   3.559   6.879
  455SOL     OW 2263   5.754   4.412   6.393
  455SOL    HW1 2264   5.713   4.466   6.467
  455SOL    HW2 2265   5.790   4.474   6.323
  456SOL     OW 2266   3.009   0.542   2.256
  456SOL    HW1 2267   3.047   0.622   2.209
  456SOL    HW2 2268   3.043   0.540   2.350
  457SOL     OW 2269   2.615   0.628   0.218
  457SOL    HW1 2270   2.587   0.698   0.285
  457SOL    HW2 2271   2.534   0.594   0.171
  458SOL     OW 2272   3.403   0.916   3.394
  458SOL    HW1 2273   3.495   0.877   3.402
  458SOL    HW2 2274   3.379   0.925   3.297
  459SOL     OW 2275   3.142   0.361   4.068
  459SOL    HW1 2276   3.082   0.430   4.028
  459SOL    HW2 2277   3.103   0.331   4.156
  460SOL     OW 2278   1.159   1.538   5.652
  460SOL    HW1 2279   1.107   1.608   5.603
  460SOL    HW2 2280   1.250   1.574   5.675
  461SOL     OW 2281   0.512   4.820   6.067
  461SOL    HW1 2282   0.487   4.827   6.163
  461SOL    HW2 2283   0.470   4.896   6.016
  462SOL     OW 2284   2.966   3.862   5.037
  462SOL    HW1 2285   2.961   3.882   5.135
  462SOL    HW2 2286   3.046   3.906   4.998
  463SOL     OW 2287   5.560   6.839   2.923
  463SOL    HW1 2288   5.590   6.806   2.834
  463SOL    HW2 2289   5.620   6.914   2.952
  464SOL     OW 2290   3.792   5.301   5.769
  464SOL    HW1 2291   3.800   5.363   5.691
  464SOL    HW2 2292   3.861   5.228   5.760
  465SOL     OW 2293   0.933   3.482   0.597
  465SOL    HW1 2294   0.951   3.457   0.692
  465SOL    HW2 2295   0.910   3.579   0.592
  466SOL     OW 2296   4.092   5.683   4.729
  466SOL    HW1 2297   4.083   5.740   4.647
  466SOL    HW2 2298   4.135   5.596   4.704
  467SOL     OW 2299   6.445   0.093   1.505
  467SOL    HW1 2300   6.451   0.193   1.506
  467SOL    HW2 2301   6.529   0.055   1.467
  468SOL     OW 2302   3.489   0.120   6.856
  468SOL    HW1 2303   3.556   0.182   6.816
  468SOL    HW2 2304   3.536   0.051   6.911
  469SOL     OW 2305   3.182   5.148   5.894
  469SOL    HW1 2306   3.190   5.141   5.795
  469SOL    HW2 2307   3.136   5.066   5.930
  470SOL     OW 2308   1.911   5.077   2.920
  470SOL    HW1 2309   1.888   4.980   2.917
  470SOL    HW2 2310   1.942   5.101   3.012
  471SOL     OW 2311   2.072   2.263   4.422
  471SOL    HW1 2312   2.137   2.190   4.443
  471SOL    HW2 2313   1.991   2.253   4.480
  472SOL     OW 2314   5.882   3.639   6.658
  472SOL    HW1 2315   5.862   3.647   6.560
  472SOL    HW2 2316   5.950   3.566   6.672
  473SOL     OW 2317   6.864   2.717   2.128
  473SOL    HW1 2318   6.904   2.630   2.157
  473SOL    HW2 2319   6.923   2.792   2.160
  474SOL     OW 2320   5.194   6.223   3.609
  474SOL    HW1 2321   5.141   6.259   3.532
  474SOL    HW2 2322   5.193   6.289   3.684
  475SOL     OW 2323   5.797   1.789   0.683
  475SOL    HW1 2324   5.860   1.733   0.737
  475SOL    HW2 2325   5.711   1.800   0.733
  476SOL     OW 2326   0.882   4.647   1.571
  476SOL    HW1 2327   0.821   4.679   1.644
  476SOL    HW2 2328   0.955   4.715   1.558
  477SOL     OW 2329   1.876   4.280   3.940
  477SOL    HW1 2330   1.934   4.217   3.888
  477SOL    HW2 2331   1.873   4.250   4.036
  478SOL     OW 2332   5.162   6.031   1.856
  478SOL    HW1 2333   5.197   6.042   1.949
  478SOL    HW2 2334   5.089   6.097   1.839
  479SOL     OW 2335   3.472   3.837   3.622
  479SOL    HW1 2336   3.448   3.928   3.656
  479SOL    HW2 2337   3.551   3.802   3.673
  480SOL     OW 2338   2.317   0.408   2.952
  480SOL    HW1 2339   2.399   0.441   2.906
  480SOL    HW2 2340   2.296   0.315   2.921
  481SOL     OW 2341   0.297   0.055   0.628
  481SOL    HW1 2342   0.200   0.032   0.626
  481SOL    HW2 2343   0.310   0.140   0.679
  482SOL     OW 2344   4.003   5.310   1.479
  482SOL    HW1 2345   4.091   5.292   1.437
  482SOL    HW2 2346   3.930   5.268   1.424
  483SOL     OW 2347   5.291   1.932   3.590
  483SOL    HW1 2348   5.299   1.840   3.629
  483SOL    HW2 2349   5.195   1.961   3.593
  484SOL     OW 2350   2.195   4.673   4.570
  484SOL    HW1 2351   2.134   4.745   4.605
  484SOL    HW2 2352   2.221   4.695   4.476
  485SOL     OW 2353   5.296   3.241   1.848
  485SOL    HW1 2354   5.316   3.330   1.807
  485SOL    HW2 2355   5.229   3.192   1.792
  486SOL     OW 2356   5.906   6.427   6.298
  486SOL    HW1 2357   5.894   6.351   6.361
  486SOL    HW2 2358   5.817   6.455   6.262
  487SOL     OW 2359   6.604   6.555   5.508
  487SOL    HW1 2360   6.685   6.573   5.564
  487SOL    HW2 2361   6.592   6.629   5.442
  488SOL     OW 2362   1.642   6.344   3.319
  488SOL    HW1 2363   1.592   6.309   3.239
  488SOL    HW2 2364   1.735   6.307   3.318
  489SOL     OW 2365   1.174   6.354   6.336
  489SOL    HW1 2366   1.162   6.307   6.249
  489SOL    HW2 2367   1.223   6.440   6.321
  490SOL     OW 2368   1.087   3.851   5.106
  490SOL    HW1 2369   1.156   3.781   5.086
  490SOL    HW2 2370   1.011   3.810   5.157
  491SOL     OW 2371   0.851   2.756   0.673
  491SOL    HW1 2372   0.797   2.673   0.666
  491SOL    HW2 2373   0.945   2.733   0.697
  492SOL     OW 2374   1.693   2.485   5.884
  492SOL    HW1 2375   1.636   2.438   5.951
  492SOL    HW2 2376   1.671   2.583   5.884
  493SOL     OW 2377   2.283   5.633   4.938
  493SOL    HW1 2378   2.253   5.606   4.847
  493SOL    HW2 2379   2.227   5.709   4.971
  494SOL     OW 2380   2.627   6.275   4.832
  494SOL    HW1 2381   2.693   6.320   4.772
  494SOL    HW2 2382   2.637   6.309   4.925
  495SOL     OW 2383   3.794   4.356   6.139
  495SOL    HW1 2384   3.776   4.453   6.121
  495SOL    HW2 2385   3.749   4.301   6.069
  496SOL     OW 2386   4.945   1.502   3.177
  496SOL    HW1 2387   4.888   1.503   3.095
  496SOL    HW2 2388   4.982   1.410   3.191
  497SOL     OW 2389   3.890   2.091   0.311
  497SOL    HW1 2390   3.797   2.059   0.322
  497SOL    HW2 2391   3.953   2.027   0.354
  498SOL     OW 2392   0.809   6.843   1.745
  498SOL    HW1 2393   0.759   6.921   1.709
  498SOL    HW2 2394   0.904   6.869   1.761
  499SOL     OW 2395   2.822   5.941   6.635
  499SOL    HW1 2396   2.829   6.017   6.571
  499SOL    HW2 2397   2.849   5.856   6.590
  500SOL     OW 2398   6.151   2.418   0.442
  500SOL    HW1 2399   6.232   2.423   0.384
  500SOL    HW2 2400   6.178   2.393   0.535
  501SOL     OW 2401   1.235   0.996   3.585
  501SOL    HW1 2402   1.264   1.083   3.545
  501SOL    HW2 2403   1.241   0.924   3.516
  502SOL     OW 2404   1.941   5.042   6.682
  502SOL    HW1 2405   1.928   5.084   6.772
  502SOL    HW2 2406   1.961   4.945   6.693
  503SOL     OW 2407   3.655   4.802   6.771
  503SOL    HW1 2408   3.619   4.757   6.689
  503SOL    HW2 2409   3.579   4.830   6.830
  504SOL     OW 2410   6.167   6.252   1.941
  504SOL    HW1 2411   6.174   6.225   2.037
  504SOL    HW2 2412   6.252   6.296   1.913
  505SOL     OW 2413   4.947   6.461   5.167
  505SOL    HW1 2414   4.988   6.385   5.217
  505SOL    HW2 2415   4.878   6.506   5.224
  506SOL     OW 2416   4.236   5.130   2.922
  506SOL    HW1 2417   4.201   5.145   3.014
  506SOL    HW2 2418   4.161   5.133   2.856
  507SOL     OW 2419   3.354   1.189   0.784
  507SOL    HW1 2420   3.266   1.148   0.809
  507SOL    HW2 2421   3.409   1.121   0.734
  508SOL     OW 2422   6.784   4.568   3.062
  508SOL    HW1 2423   6.795   4.588   3.160
  508SOL    HW2 2424   6.863   4.516   3.031
  509SOL     OW 2425   4.400   6.667   6.417
  509SOL    HW1 2426   4.379   6.641   6.323
  509SOL    HW2 2427   4.478   6.729   6.418
  510SOL     OW 2428   0.119   3.545   0.532
  510SOL    HW1 2429   0.105   3.463   0.588
  510SOL    HW2 2430   0.214   3.550   0.503
  511SOL     OW 2431   1.033   1.847   0.357
  511SOL    HW1 2432   1.129   1.825   0.340
  511SOL    HW2 2433   1.016   1.943   0.331
  512SOL     OW 2434   6.968   2.348   5.299
  512SOL    HW1 2435   7.000   2.438   5.269
  512SOL    HW2 2436   6.966   2.345   5.399
  513SOL     OW 2437   5.454   1.008   2.887
  513SOL    HW1 2438   5.453   0.917   2.927
  513SOL    HW2 2439   5.360   1.037   2.869
  514SOL     OW 2440   6.398   6.885   4.410
  514SOL    HW1 2441   6.368   6.950   4.480
  514SOL    HW2 2442   6.462   6.820   4.450
  515SOL     OW 2443   3.861   0.744   6.018
  515SOL    HW1 2444   3.935   0.724   6.081
  515SOL    HW2 2445   3.899   0.776   5.931
  516SOL     OW 2446   2.177   6.059   1.487
  516SOL    HW1 2447   2.169   6.154   1.518
  516SOL    HW2 2448   2.270   6.043   1.455
  517SOL     OW 2449   3.429   5.822   1.474
  517SOL    HW1 2450   3.342   5.869   1.486
  517SOL    HW2 2451   3.414   5.723   1.474
  518SOL     OW 2452   2.106   3.472   3.874
  518SOL    HW1 2453   2.086   3.479   3.776
  518SOL    HW2 2454   2.110   3.564   3.914
  519SOL     OW 2455   0.352   0.120   2.799
  519SOL    HW1 2456   0.253   0.136   2.806
  519SOL    HW2 2457   0.377   0.042   2.858
  520SOL     OW 2458   0.803   3.166   0.390
  520SOL    HW1 2459   0.895   3.202   0.377
  520SOL    HW2 2460   0.748   3.233   0.440
  521SOL     OW 2461   6.398   5.560   5.058
  521SOL    HW1 2462   6.443   5.640   5.017
  521SOL    HW2 2463   6.313   5.588   5.101
  522SOL     OW 2464   3.644   3.965   1.636
  522SOL    HW1 2465   3.572   3.907   1.597
  522SOL    HW2 2466   3.685   3.919   1.715
  523SOL     OW 2467   0.581   6.848   1.274
  523SOL    HW1 2468   0.641   6.885   1.203
  523SOL    HW2 2469   0.593   6.900   1.358
  524SOL     OW 2470   6.896   2.145   1.934
  524SOL    HW1 2471   6.868   2.088   1.857
  524SOL    HW2 2472   6.859   2.237   1.922
  525SOL     OW 2473   1.486   3.420   5.564
  525SOL    HW1 2474   1.580   3.425   5.532
  525SOL    HW2 2475   1.434   3.359   5.504
  526SOL     OW 2476   2.573   6.958   4.378
  526SOL    HW1 2477   2.657   7.001   4.410
  526SOL    HW2 2478   2.589   6.920   4.286
  527SOL     OW 2479   0.634   0.779   0.269
  527SOL    HW1 2480   0.581   0.766   0.186
  527SOL    HW2 2481   0.587   0.737   0.346
  528SOL     OW 2482   6.839   3.314   4.082
  528SOL    HW1 2483   6.856   3.391   4.143
  528SOL    HW2 2484   6.755   3.268   4.110
  529SOL     OW 2485   1.579   0.658   6.721
  529SOL    HW1 2486   1.593   0.748   6.763
  529SOL    HW2 2487   1.555   0.591   6.791
  530SOL     OW 2488   4.336   3.715   0.735
  530SOL    HW1 2489   4.378   3.664   0.810
  530SOL    HW2 2490   4.404   3.730   0.663
  531SOL     OW 2491   1.481   0.839   1.203
  531SOL    HW1 2492   1.429   0.774   1.148
  531SOL    HW2 2493   1.555   0.792   1.251
  532SOL     OW 2494   2.366   2.472   0.721
  532SOL    HW1 2495   2.457   2.507   0.700
  532SOL    HW2 2496   2.365   2.434   0.813
  533SOL     OW 2497   3.836   0.530   4.324
  533SOL    HW1 2498   3.838   0.622   4.363
  533SOL    HW2 2499   3.905   0.523   4.251
  534SOL     OW 2500   1.226   5.142   1.423
  534SOL    HW1 2501   1.276   5.152   1.509
  534SOL    HW2 2502   1.190   5.230   1.395
  535SOL     OW 2503   5.326   3.653   3.596
  535SOL    HW1 2504   5.256   3.596   3.639
  535SOL    HW2 2505   5.286   3.742   3.572
  536SOL     OW 2506   6.691   6.747   2.758
  536SOL    HW1 2507   6.729   6.654   2.757
  536SOL    HW2 2508   6.736   6.801   2.828
  537SOL     OW 2509   3.772   1.399   4.185
  537SOL    HW1 2510   3.727   1.450   4.258
  537SOL    HW2 2511   3.704   1.352   4.129
  538SOL     OW 2512   2.815   4.642   5.728
  538SOL    HW1 2513   2.833   4.738   5.711
  538SOL    HW2 2514   2.797   4.595   5.642
  539SOL     OW 2515   1.309   0.118   0.236
  539SOL    HW1 2516   1.251   0.193   0.268
  539SOL    HW2 2517   1.373   0.094   0.309
  540SOL     OW 2518   0.720   0.302   4.324
  540SOL    HW1 2519   0.686   0.379   4.380
  540SOL    HW2 2520   0.740   0.335   4.232
  541SOL     OW 2521   4.622   5.612   4.594
  541SOL    HW1 2522   4.630   5.543   4.666
  541SOL    HW2 2523   4.695   5.600   4.527
  542SOL     OW 2524   3.260   0.339   6.366
  542SOL    HW1 2525   3.322   0.335   6.444
  542SOL    HW2 2526   3.305   0.302   6.285
  543SOL     OW 2527   6.040   2.153   4.269
  543SOL    HW1 2528   6.006   2.245   4.289
  543SOL    HW2 2529   6.065   2.107   4.355
  544SOL     OW 2530   1.250   3.866   1.198
  544SOL    HW1 2531   1.241   3.949   1.143
  544SOL    HW2 2532   1.177   3.802   1.173
  545SOL     OW 2533   5.758   1.686   0.963
  545SOL    HW1 2534   5.688   1.752   0.936
  545SOL    HW2 2535   5.749   1.666   1.061
  546SOL     OW 2536   0.629   4.063   2.501
  546SOL    HW1 2537   0.660   4.127   2.431
  546SOL    HW2 2538   0.543   4.021   2.473
  547SOL     OW 2539   3.958   1.327   6.093
  547SOL    HW1 2540   4.047   1.372   6.092
  547SOL    HW2 2541   3.969   1.230   6.073
  548SOL     OW 2542   3.154   2.702   6.971
  548SOL    HW1 2543   3.090   2.629   6.993
  548SOL    HW2 2544   3.181   2.695   6.874
  549SOL     OW 2545   6.315   1.914   1.343
  549SOL    HW1 2546   6.274   1.833   1.302
  549SOL    HW2 2547   6.370   1.887   1.422
  550SOL     OW 2548   0.147   5.293   3.212
  550SOL    HW1 2549   0.194   5.304   3.300
  550SOL    HW2 2550   0.202   5.335   3.140
  551SOL     OW 2551   6.347   0.899   0.498
  551SOL    HW1 2552   6.393   0.828   0.445
  551SOL    HW2 2553   6.358   0.880   0.596
  552SOL     OW 2554   5.942   5.227   5.766
  552SOL    HW1 2555   5.972   5.321   5.783
  552SOL    HW2 2556   5.853   5.229   5.721
  553SOL     OW 2557   3.282   0.988   5.968
  553SOL    HW1 2558   3.222   1.063   5.940
  553SOL    HW2 2559   3.253   0.903   5.923
  554SOL     OW 2560   5.861   6.081   0.891
  554SOL    HW1 2561   5.868   6.022   0.811
  554SOL    HW2 2562   5.951   6.090   0.934
  555SOL     OW 2563   1.728   4.263   5.921
  555SOL    HW1 2564   1.646   4.258   5.864
  555SOL    HW2 2565   1.763   4.171   5.938
  556SOL     OW 2566   5.386   0.595   3.824
  556SOL    HW1 2567   5.420   0.685   3.849
  556SOL    HW2 2568   5.355   0.547   3.907
  557SOL     OW 2569   6.348   4.655   6.770
  557SOL    HW1 2570   6.434   4.616   6.802
  557SOL    HW2 2571   6.322   4.731   6.830
  558SOL     OW 2572   3.357   3.733   2.507
  558SOL    HW1 2573   3.290   3.725   2.581
  558SOL    HW2 2574   3.362   3.646   2.457
  559SOL     OW 2575   6.437   6.677   5.724
  559SOL    HW1 2576   6.482   6.618   5.656
  559SOL    HW2 2577   6.357   6.720   5.683
  560SOL     OW 2578   6.450   3.111   2.814
  560SOL    HW1 2579   6.499   3.117   2.901
  560SOL    HW2 2580   6.363   3.065   2.827
  561SOL     OW 2581   0.939   2.822   6.601
  561SOL    HW1 2582   0.974   2.746   6.655
  561SOL    HW2 2583   0.866   2.868   6.652
  562SOL     OW 2584   4.303   0.412   5.300
  562SOL    HW1 2585   4.303   0.318   5.335
  562SOL    HW2 2586   4.215   0.430   5.254
  563SOL     OW 2587   1.926   1.615   4.637
  563SOL    HW1 2588   1.988   1.638   4.712
  563SOL    HW2 2589   1.971   1.549   4.576
  564SOL     OW 2590   0.189   2.509   5.038
  564SOL    HW1 2591   0.125   2.484   4.965
  564SOL    HW2 2592   0.150   2.584   5.092
  565SOL     OW 2593   3.740   3.219   3.821
  565SOL    HW1 2594   3.759   3.245   3.726
  565SOL    HW2 2595   3.717   3.122   3.825
  566SOL     OW 2596   3.193   6.614   2.975
  566SOL    HW1 2597   3.113   6.639   2.920
  566SOL    HW2 2598   3.166   6.545   3.042
  567SOL     OW 2599   2.143   3.180   6.725
  567SOL    HW1 2600   2.176   3.245   6.658
  567SOL    HW2 2601   2.121   3.093   6.680
  568SOL     OW 2602   6.857   6.644   0.412
  568SOL    HW1 2603   6.867   6.711   0.485
  568SOL    HW2 2604   6.881   6.553   0.446
  569SOL     OW 2605   6.668   2.029   0.499
  569SOL    HW1 2606   6.593   1.997   0.441
  569SOL    HW2 2607   6.738   2.071   0.442
  570SOL     OW 2608   2.529   0.348   5.896
  570SOL    HW1 2609   2.531   0.432   5.843
  570SOL    HW2 2610   2.574   0.275   5.845
  571SOL     OW 2611   2.650   5.229   2.325
  571SOL    HW1 2612   2.725   5.183   2.372
  571SOL    HW2 2613   2.683   5.270   2.241
  572SOL     OW 2614   2.321   6.693   3.767
  572SOL    HW1 2615   2.293   6.617   3.827
  572SOL    HW2 2616   2.370   6.761   3.821
  573SOL     OW 2617   6.781   1.100   5.763
  573SOL    HW1 2618   6.749   1.021   5.710
  573SOL    HW2 2619   6.881   1.098   5.770
  574SOL     OW 2620   2.667   2.024   5.769
  574SOL    HW1 2621   2.655   2.011   5.671
  574SOL    HW2 2622   2.744   1.969   5.801
  575SOL     OW 2623   3.177   3.893   0.784
  575SOL    HW1 2624   3.249   3.919   0.719
  575SOL    HW2 2625   3.218   3.850   0.864
  576SOL     OW 2626   2.268   2.921   3.229
  576SOL    HW1 2627   2.287   2.836   3.278
  576SOL    HW2 2628   2.195   2.971   3.275
  577SOL     OW 2629   0.657   1.404   1.992
  577SOL    HW1 2630   0.567   1.388   1.952
  577SOL    HW2 2631   0.646   1.449   2.081
  578SOL     OW 2632   2.170   6.124   6.898
  578SOL    HW1 2633   2.247   6.162   6.848
  578SOL    HW2 2634   2.130   6.195   6.956
  579SOL     OW 2635   2.363   4.742   1.969
  579SOL    HW1 2636   2.362   4.841   1.956
  579SOL    HW2 2637   2.448   4.704   1.933
  580SOL     OW 2638   4.208   5.303   4.880
  580SOL    HW1 2639   4.305   5.314   4.858
  580SOL    HW2 2640   4.196   5.302   4.979
  581SOL     OW 2641   1.757   2.809   4.301
  581SOL    HW1 2642   1.690   2.736   4.290
  581SOL    HW2 2643   1.844   2.781   4.261
  582SOL     OW 2644   5.740   5.431   3.559
  582SOL    HW1 2645   5.812   5.464   3.619
  582SOL    HW2 2646   5.763   5.452   3.464
  583SOL     OW 2647   3.524   5.326   5.816
  583SOL    HW1 2648   3.622   5.314   5.799
  583SOL    HW2 2649   3.480   5.237   5.816
  584SOL     OW 2650   4.448   0.819   6.623
  584SOL    HW1 2651   4.402   0.884   6.683
  584SOL    HW2 2652   4.527   0.863   6.581
  585SOL     OW 2653   2.802   6.531   1.615
  585SOL    HW1 2654   2.763   6.441   1.637
  585SOL    HW2 2655   2.873   6.520   1.545
  586SOL     OW 2656   4.425   0.139   0.787
  586SOL    HW1 2657   4.510   0.088   0.771
  586SOL    HW2 2658   4.401   0.135   0.884
  587SOL     OW 2659   4.982   2.087   2.224
  587SOL    HW1 2660   5.041   2.091   2.304
  587SOL    HW2 2661   4.988   2.173   2.174
  588SOL     OW 2662   0.814   5.387   2.034
  588SOL    HW1 2663   0.809   5.437   1.948
  588SOL    HW2 2664   0.871   5.306   2.023
  589SOL     OW 2665   3.630   6.115   1.310
  589SOL    HW1 2666   3.568   6.193   1.316
  589SOL    HW2 2667   3.590   6.037   1.357
  590SOL     OW 2668   4.581   1.669   0.225
  590SOL    HW1 2669   4.552   1.617   0.305
  590SOL    HW2 2670   4.619   1.757   0.254
  591SOL     OW 2671   4.298   6.089   4.617
  591SOL    HW1 2672   4.382   6.073   4.669
  591SOL    HW2 2673   4.232   6.138   4.674
  592SOL     OW 2674   4.375   2.449   4.087
  592SOL    HW1 2675   4.288   2.483   4.053
  592SOL    HW2 2676   4.370   2.437   4.186
  593SOL     OW 2677   3.387   1.207   5.607
  593SOL    HW1 2678   3.302   1.171   5.568
  593SOL    HW2 2679   3.462   1.143   5.588
  594SOL     OW 2680   5.925   1.153   2.026
  594SOL    HW1 2681   5.892   1.247   2.017
  594SOL    HW2 2682   6.022   1.154   2.050
  595SOL     OW 2683   5.278   6.142   2.597
  595SOL    HW1 2684   5.219   6.120   2.519
  595SOL    HW2 2685   5.363   6.089   2.590
  596SOL     OW 2686   6.792   4.348   4.097
  596SOL    HW1 2687   6.735   4.403   4.036
  596SOL    HW2 2688   6.880   4.330   4.053
  597SOL     OW 2689   2.619   0.597   6.255
  597SOL    HW1 2690   2.657   0.618   6.345
  597SOL    HW2 2691   2.680   0.632   6.184
  598SOL     OW 2692   3.273   3.325   4.432
  598SOL    HW1 2693   3.216   3.247   4.408
  598SOL    HW2 2694   3.291   3.324   4.531
  599SOL     OW 2695   1.267   5.883   2.050
  599SOL    HW1 2696   1.337   5.955   2.051
  599SOL    HW2 2697   1.180   5.921   2.079
  600SOL     OW 2698   6.946   3.910   4.956
  600SOL    HW1 2699   7.007   3.961   4.897
  600SOL    HW2 2700   6.891   3.973   5.011
  601SOL     OW 2701   1.616   0.586   5.237
  601SOL    HW1 2702   1.522   0.590   5.270
  601SOL    HW2 2703   1.667   0.519   5.290
  602SOL     OW 2704   2.766   5.974   3.980
  602SOL    HW1 2705   2.771   5.878   3.953
  602SOL    HW2 2706   2.777   5.982   4.079
  603SOL     OW 2707   1.692   1.188   5.386
  603SOL    HW1 2708   1.739   1.180   5.474
  603SOL    HW2 2709   1.694   1.283   5.356
  604SOL     OW 2710   6.394   2.448   1.570
  604SOL    HW1 2711   6.389   2.430   1.668
  604SOL    HW2 2712   6.302   2.460   1.533
  605SOL     OW 2713   0.191   5.289   2.603
  605SOL    HW1 2714   0.280   5.285   2.557
  605SOL    HW2 2715   0.129   5.225   2.559
  606SOL     OW 2716   4.014   6.988   4.733
  606SOL    HW1 2717   4.030   6.927   4.811
  606SOL    HW2 2718   4.045   0.056   4.756
  607SOL     OW 2719   1.157   4.637   6.150
  607SOL    HW1 2720   1.199   4.720   6.112
  607SOL    HW2 2721   1.088   4.603   6.087
  608SOL     OW 2722   3.198   1.019   5.160
  608SOL    HW1 2723   3.111   1.065   5.143
  608SOL    HW2 2724   3.226   0.968   5.079
  609SOL     OW 2725   3.777   2.484   1.448
  609SOL    HW1 2726   3.792   2.514   1.354
  609SOL    HW2 2727   3.857   2.431   1.479
  610SOL     OW 2728   4.882   3.353   0.561
  610SOL    HW1 2729   4.935   3.367   0.644
  610SOL    HW2 2730   4.943   3.325   0.486
  611SOL     OW 2731   3.731   0.183   2.231
  611SOL    HW1 2732   3.757   0.138   2.317
  611SOL    HW2 2733   3.705   0.278   2.249
  612SOL     OW 2734   3.981   4.688   5.962
  612SOL    HW1 2735   3.942   4.603   5.927
  612SOL    HW2 2736   4.045   4.726   5.895
  613SOL     OW 2737   4.198   5.253   5.235
  613SOL    HW1 2738   4.107   5.284   5.210
  613SOL    HW2 2739   4.267   5.315   5.196
  614SOL     OW 2740   4.571   5.528   5.884
  614SOL    HW1 2741   4.601   5.562   5.795
  614SOL    HW2 2742   4.474   5.504   5.879
  615SOL     OW 2743   0.434   4.761   1.236
  615SOL    HW1 2744   0.365   4.722   1.175
  615SOL    HW2 2745   0.393   4.834   1.290
  616SOL     OW 2746   5.790   3.280   3.142
  616SOL    HW1 2747   5.780   3.261   3.045
  616SOL    HW2 2748   5.703   3.314   3.178
  617SOL     OW 2749   2.321   5.144   6.178
  617SOL    HW1 2750   2.224   5.154   6.203
  617SOL    HW2 2751   2.364   5.234   6.177
  618SOL     OW 2752   1.398   0.768   2.256
  618SOL    HW1 2753   1.401   0.820   2.170
  618SOL    HW2 2754   1.325   0.700   2.251
  619SOL     OW 2755   1.174   1.539   6.520
  619SOL    HW1 2756   1.137   1.451   6.549
  619SOL    HW2 2757   1.249   1.524   6.456
  620SOL     OW 2758   4.966   3.679   0.172
  620SOL    HW1 2759   5.037   3.617   0.206
  620SOL    HW2 2760   4.898   3.694   0.244
  621SOL     OW 2761   0.492   4.495   1.289
  621SOL    HW1 2762   0.488   4.454   1.380
  621SOL    HW2 2763   0.485   4.594   1.296
  622SOL     OW 2764   2.107   1.829   0.307
  622SOL    HW1 2765   2.199   1.791   0.299
  622SOL    HW2 2766   2.044   1.777   0.249
  623SOL     OW 2767   0.569   4.554   6.438
  623SOL    HW1 2768   0.556   4.559   6.339
  623SOL    HW2 2769   0.638   4.620   6.466
  624SOL     OW 2770   0.967   2.791   2.799
  624SOL    HW1 2771   0.927   2.732   2.869
  624SOL    HW2 2772   0.969   2.885   2.831
  625SOL     OW 2773   2.579   1.693   2.502
  625SOL    HW1 2774   2.502   1.645   2.461
  625SOL    HW2 2775   2.554   1.723   2.595
  626SOL     OW 2776   2.609   6.471   4.460
  626SOL    HW1 2777   2.562   6.553   4.494
  626SOL    HW2 2778   2.689   6.453   4.518
  627SOL     OW 2779   5.188   0.619   0.384
  627SOL    HW1 2780   5.101   0.639   0.339
  627SOL    HW2 2781   5.183   0.649   0.479
  628SOL     OW 2782   5.055   4.279   3.862
  628SOL    HW1 2783   5.029   4.329   3.945
  628SOL    HW2 2784   5.006   4.317   3.783
  629SOL     OW 2785   0.666   0.147   1.055
  629SOL    HW1 2786   0.655   0.060   1.007
  629SOL    HW2 2787   0.699   0.129   1.148
  630SOL     OW 2788   4.471   1.998   0.963
  630SOL    HW1 2789   4.393   2.041   0.916
  630SOL    HW2 2790   4.540   2.068   0.982
  631SOL     OW 2791   2.608   6.960   5.409
  631SOL    HW1 2792   2.543   7.016   5.461
  631SOL    HW2 2793   2.672   6.916   5.471
  632SOL     OW 2794   2.215   1.053   1.401
  632SOL    HW1 2795   2.242   0.990   1.328
  632SOL    HW2 2796   2.164   1.130   1.362
  633SOL     OW 2797   2.895   0.023   6.172
  633SOL    HW1 2798   2.821   0.006   6.238
  633SOL    HW2 2799   2.898   0.120   6.149
  634SOL     OW 2800   3.797   5.376   0.824
  634SOL    HW1 2801   3.786   5.475   0.827
  634SOL    HW2 2802   3.884   5.351   0.865
  635SOL     OW 2803   3.033   6.977   2.695
  635SOL    HW1 2804   3.101   0.002   2.640
  635SOL    HW2 2805   2.984   0.017   2.753
  636SOL     OW 2806   4.837   4.955   0.005
  636SOL    HW1 2807   4.901   4.981   6.958
  636SOL    HW2 2808   4.823   4.856   0.003
  637SOL     OW 2809   4.770   4.241   1.292
  637SOL    HW1 2810   4.709   4.169   1.326
  637SOL    HW2 2811   4.775   4.236   1.192
  638SOL     OW 2812   4.700   1.317   2.093
  638SOL    HW1 2813   4.685   1.351   2.000
  638SOL    HW2 2814   4.675   1.388   2.158
  639SOL     OW 2815   4.131   4.673   2.168
  639SOL    HW1 2816   4.035   4.655   2.191
  639SOL    HW2 2817   4.151   4.637   2.077
  640SOL     OW 2818   3.152   4.356   5.313
  640SOL    HW1 2819   3.076   4.405   5.270
  640SOL    HW2 2820   3.182   4.405   5.395
  641SOL     OW 2821   7.023   6.079   5.013
  641SOL    HW1 2822   0.092   6.089   4.981
  641SOL    HW2 2823   7.000   6.156   5.073
  642SOL     OW 2824   0.367   5.206   5.082
  642SOL    HW1 2825   0.433   5.173   5.015
  642SOL    HW2 2826   0.413   5.223   5.169
  643SOL     OW 2827   5.960   5.701   6.161
  643SOL    HW1 2828   5.993   5.788   6.123
  643SOL    HW2 2829   5.922   5.645   6.087
  644SOL     OW 2830   0.986   6.549   2.552
  644SOL    HW1 2831   0.900   6.600   2.552
  644SOL    HW2 2832   0.971   6.460   2.595
  645SOL     OW 2833   6.037   2.860   4.024
  645SOL    HW1 2834   5.972   2.883   4.096
  645SOL    HW2 2835   6.087   2.777   4.049
  646SOL     OW 2836   1.692   1.423   4.664
  646SOL    HW1 2837   1.744   1.509   4.666
  646SOL    HW2 2838   1.747   1.352   4.621
  647SOL     OW 2839   6.191   2.994   0.187
  647SOL    HW1 2840   6.136   2.913   0.167
  647SOL    HW2 2841   6.186   3.015   0.284
  648SOL     OW 2842   5.986   3.791   2.331
  648SOL    HW1 2843   5.900   3.744   2.317
  648SOL    HW2 2844   6.001   3.858   2.258
  649SOL     OW 2845   4.193   4.757   0.741
  649SOL    HW1 2846   4.166   4.696   0.666
  649SOL    HW2 2847   4.123   4.756   0.812
  650SOL     OW 2848   4.730   4.666   0.725
  650SOL    HW1 2849   4.794   4.708   0.789
  650SOL    HW2 2850   4.649   4.723   0.716
  651SOL     OW 2851   1.064   6.071   0.206
  651SOL    HW1 2852   0.967   6.095   0.217
  651SOL    HW2 2853   1.115   6.097   0.287
  652SOL     OW 2854   4.339   0.909   2.321
  652SOL    HW1 2855   4.310   0.901   2.416
  652SOL    HW2 2856   4.439   0.902   2.316
  653SOL     OW 2857   3.928   4.822   3.767
  653SOL    HW1 2858   3.861   4.769   3.819
  653SOL    HW2 2859   4.013   4.828   3.818
  654SOL     OW 2860   6.875   4.783   0.317
  654SOL    HW1 2861   6.920   4.758   0.231
  654SOL    HW2 2862   6.865   4.883   0.321
  655SOL     OW 2863   0.850   0.641   1.254
  655SOL    HW1 2864   0.784   0.673   1.322
  655SOL    HW2 2865   0.941   0.674   1.278
  656SOL     OW 2866   2.522   6.483   2.213
  656SOL    HW1 2867   2.508   6.384   2.215
  656SOL    HW2 2868   2.458   6.525   2.148
  657SOL     OW 2869   3.627   1.450   0.581
  657SOL    HW1 2870   3.674   1.362   0.572
  657SOL    HW2 2871   3.694   1.525   0.575
  658SOL     OW 2872   2.847   3.833   6.962
  658SOL    HW1 2873   2.818   3.803   0.028
  658SOL    HW2 2874   2.825   3.930   6.951
  659SOL     OW 2875   2.790   6.789   6.914
  659SOL    HW1 2876   2.754   6.761   6.825
  659SOL    HW2 2877   2.833   6.878   6.906
  660SOL     OW 2878   3.728   5.458   2.744
  660SOL    HW1 2879   3.698   5.439   2.651
  660SOL    HW2 2880   3.808   5.519   2.742
  661SOL     OW 2881   4.871   5.541   2.677
  661SOL    HW1 2882   4.837   5.448   2.685
  661SOL    HW2 2883   4.954   5.543   2.621
  662SOL     OW 2884   3.514   1.339   6.333
  662SOL    HW1 2885   3.528   1.356   6.235
  662SOL    HW2 2886   3.478   1.422   6.376
  663SOL     OW 2887   2.391   4.558   5.434
  663SOL    HW1 2888   2.402   4.598   5.343
  663SOL    HW2 2889   2.334   4.618   5.490
  664SOL     OW 2890   6.754   0.693   6.923
  664SOL    HW1 2891   6.682   0.762   6.929
  664SOL    HW2 2892   6.727   0.611   6.974
  665SOL     OW 2893   2.291   5.597   3.241
  665SOL    HW1 2894   2.301   5.607   3.142
  665SOL    HW2 2895   2.231   5.519   3.261
  666SOL     OW 2896   4.060   0.532   1.850
  666SOL    HW1 2897   4.056   0.601   1.778
  666SOL    HW2 2898   4.148   0.536   1.896
  667SOL     OW 2899   1.141   6.292   2.398
  667SOL    HW1 2900   1.056   6.315   2.445
  667SOL    HW2 2901   1.133   6.200   2.359
  668SOL     OW 2902   5.467   3.863   6.453
  668SOL    HW1 2903   5.529   3.938   6.429
  668SOL    HW2 2904   5.389   3.864   6.391
  669SOL     OW 2905   5.197   1.136   2.994
  669SOL    HW1 2906   5.107   1.159   3.031
  669SOL    HW2 2907   5.253   1.219   2.986
  670SOL     OW 2908   1.730   2.212   3.486
  670SOL    HW1 2909   1.813   2.249   3.527
  670SOL    HW2 2910   1.661   2.199   3.558
  671SOL     OW 2911   2.518   6.271   1.345
  671SOL    HW1 2912   2.450   6.257   1.274
  671SOL    HW2 2913   2.599   6.316   1.307
  672SOL     OW 2914   0.930   6.979   2.530
  672SOL    HW1 2915   0.981   7.003   2.612
  672SOL    HW2 2916   0.963   0.008   2.452
  673SOL     OW 2917   5.441   6.689   0.643
  673SOL    HW1 2918   5.512   6.715   0.708
  673SOL    HW2 2919   5.413   6.594   0.661
  674SOL     OW 2920   0.141   0.538   5.087
  674SOL    HW1 2921   0.121   0.483   5.169
  674SOL    HW2 2922   0.140   0.479   5.007
  675SOL     OW 2923   6.301   3.133   2.562
  675SOL    HW1 2924   6.352   3.112   2.645
  675SOL    HW2 2925   6.260   3.049   2.526
  676SOL     OW 2926   2.341   5.411   5.867
  676SOL    HW1 2927   2.242   5.398   5.871
  676SOL    HW2 2928   2.380   5.347   5.801
  677SOL     OW 2929   4.763   0.942   1.109
  677SOL    HW1 2930   4.699   0.997   1.056
  677SOL    HW2 2931   4.715   0.863   1.148
  678SOL     OW 2932   2.061   4.339   5.455
  678SOL    HW1 2933   2.140   4.305   5.403
  678SOL    HW2 2934   2.002   4.393   5.395
  679SOL     OW 2935   5.130   1.963   5.177
  679SOL    HW1 2936   5.201   1.945   5.109
  679SOL    HW2 2937   5.146   1.906   5.257
  680SOL     OW 2938   5.079   6.830   3.906
  680SOL    HW1 2939   5.109   6.856   3.814
  680SOL    HW2 2940   5.147   6.768   3.947
  681SOL     OW 2941   5.077   5.212   1.764
  681SOL    HW1 2942   5.059   5.295   1.816
  681SOL    HW2 2943   5.068   5.132   1.823
  682SOL     OW 2944   1.004   0.534   3.211
  682SOL    HW1 2945   0.938   0.522   3.137
  682SOL    HW2 2946   1.059   0.452   3.219
  683SOL     OW 2947   4.184   3.306   1.487
  683SOL    HW1 2948   4.135   3.392   1.471
  683SOL    HW2 2949   4.229   3.310   1.577
  684SOL     OW 2950   6.416   0.162   5.593
  684SOL    HW1 2951   6.392   0.256   5.615
  684SOL    HW2 2952   6.483   0.128   5.660
  685SOL     OW 2953   3.669   0.510   3.033
  685SOL    HW1 2954   3.760   0.469   3.025
  685SOL    HW2 2955   3.608   0.448   3.082
  686SOL     OW 2956   4.065   1.370   4.530
  686SOL    HW1 2957   4.114   1.397   4.448
  686SOL    HW2 2958   3.974   1.336   4.505
  687SOL     OW 2959   1.732   1.724   4.446
  687SOL    HW1 2960   1.761   1.734   4.541
  687SOL    HW2 2961   1.632   1.726   4.441
  688SOL     OW 2962   6.558   1.576   6.933
  688SOL    HW1 2963   6.498   1.550   7.008
  688SOL    HW2 2964   6.581   1.495   6.878
  689SOL     OW 2965   1.443   5.100   5.757
  689SOL    HW1 2966   1.345   5.114   5.744
  689SOL    HW2 2967   1.467   5.008   5.727
  690SOL     OW 2968   6.080   3.708   2.634
  690SOL    HW1 2969   6.014   3.660   2.578
  690SOL    HW2 2970   6.043   3.721   2.726
  691SOL     OW 2971   4.290   2.075   6.776
  691SOL    HW1 2972   4.354   2.129   6.832
  691SOL    HW2 2973   4.299   1.979   6.801
  692SOL     OW 2974   3.041   1.661   4.453
  692SOL    HW1 2975   2.998   1.647   4.541
  692SOL    HW2 2976   3.139   1.676   4.465
  693SOL     OW 2977   5.434   6.115   3.589
  693SOL    HW1 2978   5.437   6.123   3.490
  693SOL    HW2 2979   5.339   6.122   3.620
  694SOL     OW 2980   4.246   5.920   4.856
  694SOL    HW1 2981   4.293   5.963   4.779
  694SOL    HW2 2982   4.204   5.834   4.827
  695SOL     OW 2983   3.015   6.707   4.310
  695SOL    HW1 2984   2.974   6.741   4.394
  695SOL    HW2 2985   3.109   6.740   4.303
  696SOL     OW 2986   5.225   4.402   3.093
  696SOL    HW1 2987   5.269   4.491   3.085
  696SOL    HW2 2988   5.230   4.354   3.006
  697SOL     OW 2989   0.299   4.974   2.227
  697SOL    HW1 2990   0.297   4.875   2.243
  697SOL    HW2 2991   0.220   5.000   2.172
  698SOL     OW 2992   5.498   6.704   0.999
  698SOL    HW1 2993   5.488   6.605   1.004
  698SOL    HW2 2994   5.423   6.743   0.946
  699SOL     OW 2995   3.002   2.207   0.835
  699SOL    HW1 2996   2.903   2.196   0.839
  699SOL    HW2 2997   3.047   2.121   0.859
  700SOL     OW 2998   3.712   6.677   2.590
  700SOL    HW1 2999   3.663   6.606   2.540
  700SOL    HW2 3000   3.657   6.761   2.592
  701SOL     OW 3001   5.974   5.224   1.175
  701SOL    HW1 3002   6.065   5.187   1.194
  701SOL    HW2 3003   5.937   5.184   1.092
  702SOL     OW 3004   2.760   0.957   4.180
  702SOL    HW1 3005   2.705   0.892   4.233
  702SOL    HW2 3006   2.813   1.015   4.242
  703SOL     OW 3007   3.130   2.531   6.149
  703SOL    HW1 3008   3.211   2.560   6.099
  703SOL    HW2 3009   3.101   2.441   6.117
  704SOL     OW 3010   1.437   3.048   6.138
  704SOL    HW1 3011   1.511   2.983   6.125
  704SOL    HW2 3012   1.376   3.015   6.211
  705SOL     OW 3013   6.831   6.305   4.354
  705SOL    HW1 3014   6.789   6.309   4.263
  705SOL    HW2 3015   6.759   6.299   4.423
  706SOL     OW 3016   4.732   1.090   5.049
  706SOL    HW1 3017   4.791   1.023   5.094
  706SOL    HW2 3018   4.644   1.095   5.097
  707SOL     OW 3019   3.548   4.939   3.370
  707SOL    HW1 3020   3.561   4.973   3.277
  707SOL    HW2 3021   3.637   4.921   3.412
  708SOL     OW 3022   3.436   0.852   3.724
  708SOL    HW1 3023   3.445   0.832   3.627
  708SOL    HW2 3024   3.363   0.920   3.737
  709SOL     OW 3025   2.199   0.333   1.494
  709SOL    HW1 3026   2.136   0.260   1.521
  709SOL    HW2 3027   2.255   0.360   1.573
  710SOL     OW 3028   4.707   2.845   1.713
  710SOL    HW1 3029   4.641   2.891   1.772
  710SOL    HW2 3030   4.800   2.861   1.747
  711SOL     OW 3031   0.156   2.475   5.961
  711SOL    HW1 3032   0.113   2.531   6.033
  711SOL    HW2 3033   0.188   2.389   6.000
  712SOL     OW 3034   5.061   2.962   0.395
  712SOL    HW1 3035   5.097   2.982   0.486
  712SOL    HW2 3036   4.970   2.921   0.403
  713SOL     OW 3037   4.092   2.758   5.302
  713SOL    HW1 3038   4.095   2.662   5.274
  713SOL    HW2 3039   4.021   2.806   5.251
  714SOL     OW 3040   5.581   4.800   3.470
  714SOL    HW1 3041   5.554   4.895   3.457
  714SOL    HW2 3042   5.675   4.796   3.506
  715SOL     OW 3043   6.398   5.275   5.819
  715SOL    HW1 3044   6.347   5.191   5.802
  715SOL    HW2 3045   6.460   5.262   5.896
  716SOL     OW 3046   1.769   0.965   2.460
  716SOL    HW1 3047   1.695   0.913   2.502
  716SOL    HW2 3048   1.835   0.903   2.418
  717SOL     OW 3049   5.604   4.976   3.822
  717SOL    HW1 3050   5.581   4.900   3.760
  717SOL    HW2 3051   5.612   5.060   3.769
  718SOL     OW 3052   5.101   1.904   4.291
  718SOL    HW1 3053   5.195   1.922   4.261
  718SOL    HW2 3054   5.049   1.864   4.215
  719SOL     OW 3055   5.678   0.282   2.879
  719SOL    HW1 3056   5.602   0.251   2.936
  719SOL    HW2 3057   5.745   0.331   2.935
  720SOL     OW 3058   2.187   1.058   0.090
  720SOL    HW1 3059   2.181   1.140   0.034
  720SOL    HW2 3060   2.213   1.083   0.183
  721SOL     OW 3061   6.943   2.572   2.873
  721SOL    HW1 3062   6.965   2.513   2.796
  721SOL    HW2 3063   6.916   2.516   2.952
  722SOL     OW 3064   4.508   6.862   6.811
  722SOL    HW1 3065   4.447   6.940   6.806
  722SOL    HW2 3066   4.462   6.781   6.775
  723SOL     OW 3067   2.402   5.910   3.919
  723SOL    HW1 3068   2.388   5.874   4.012
  723SOL    HW2 3069   2.458   5.846   3.867
  724SOL     OW 3070   1.050   0.498   3.770
  724SOL    HW1 3071   1.028   0.401   3.782
  724SOL    HW2 3072   1.059   0.518   3.673
  725SOL     OW 3073   1.819   4.425   2.220
  725SOL    HW1 3074   1.903   4.449   2.269
  725SOL    HW2 3075   1.823   4.330   2.191
  726SOL     OW 3076   1.846   4.862   0.897
  726SOL    HW1 3077   1.890   4.840   0.985
  726SOL    HW2 3078   1.911   4.848   0.823
  727SOL     OW 3079   4.770   4.866   5.201
  727SOL    HW1 3080   4.812   4.815   5.275
  727SOL    HW2 3081   4.840   4.891   5.134
  728SOL     OW 3082   0.013   3.090   4.845
  728SOL    HW1 3083   0.022   3.104   4.944
  728SOL    HW2 3084   6.962   3.028   4.827
  729SOL     OW 3085   0.301   3.631   1.684
  729SOL    HW1 3086   0.367   3.557   1.701
  729SOL    HW2 3087   0.296   3.649   1.586
  730SOL     OW 3088   4.956   0.549   2.800
  730SOL    HW1 3089   5.000   0.632   2.834
  730SOL    HW2 3090   4.860   0.549   2.827
  731SOL     OW 3091   4.184   4.408   6.309
  731SOL    HW1 3092   4.136   4.457   6.381
  731SOL    HW2 3093   4.202   4.471   6.233
  732SOL     OW 3094   4.797   1.663   3.367
  732SOL    HW1 3095   4.856   1.633   3.292
  732SOL    HW2 3096   4.753   1.583   3.408
  733SOL     OW 3097   6.360   6.516   3.508
  733SOL    HW1 3098   6.438   6.509   3.570
  733SOL    HW2 3099   6.289   6.452   3.536
  734SOL     OW 3100   5.477   5.868   2.879
  734SOL    HW1 3101   5.547   5.921   2.927
  734SOL    HW2 3102   5.514   5.835   2.792
  735SOL     OW 3103   5.359   0.788   2.044
  735SOL    HW1 3104   5.346   0.710   1.983
  735SOL    HW2 3105   5.450   0.826   2.032
  736SOL     OW 3106   1.464   1.648   4.253
  736SOL    HW1 3107   1.463   1.743   4.284
  736SOL    HW2 3108   1.407   1.592   4.314
  737SOL     OW 3109   5.195   1.425   6.326
  737SOL    HW1 3110   5.145   1.371   6.258
  737SOL    HW2 3111   5.133   1.449   6.402
  738SOL     OW 3112   2.751   4.316   1.206
  738SOL    HW1 3113   2.667   4.263   1.203
  738SOL    HW2 3114   2.730   4.413   1.212
  739SOL     OW 3115   3.103   6.844   4.946
  739SOL    HW1 3116   3.062   6.926   4.985
  739SOL    HW2 3117   3.066   6.763   4.992
  740SOL     OW 3118   5.632   2.371   3.152
  740SOL    HW1 3119   5.724   2.409   3.145
  740SOL    HW2 3120   5.566   2.445   3.165
  741SOL     OW 3121   2.918   0.363   3.533
  741SOL    HW1 3122   2.982   0.417   3.588
  741SOL    HW2 3123   2.938   0.266   3.546
  742SOL     OW 3124   1.702   0.193   1.499
  742SOL    HW1 3125   1.795   0.170   1.528
  742SOL    HW2 3126   1.666   0.265   1.559
  743SOL     OW 3127   0.668   6.045   3.524
  743SOL    HW1 3128   0.670   5.971   3.458
  743SOL    HW2 3129   0.702   6.129   3.482
  744SOL     OW 3130   5.188   1.580   0.332
  744SOL    HW1 3131   5.122   1.655   0.325
  744SOL    HW2 3132   5.220   1.555   0.241
  745SOL     OW 3133   2.528   5.651   5.060
  745SOL    HW1 3134   2.446   5.639   5.004
  745SOL    HW2 3135   2.533   5.579   5.128
  746SOL     OW 3136   5.870   4.851   5.820
  746SOL    HW1 3137   5.897   4.898   5.904
  746SOL    HW2 3138   5.883   4.752   5.831
  747SOL     OW 3139   5.492   5.582   3.247
  747SOL    HW1 3140   5.519   5.630   3.331
  747SOL    HW2 3141   5.428   5.639   3.195
  748SOL     OW 3142   5.139   5.601   2.586
  748SOL    HW1 3143   5.181   5.658   2.516
  748SOL    HW2 3144   5.193   5.518   2.599
  749SOL     OW 3145   5.207   4.391   3.535
  749SOL    HW1 3146   5.197   4.486   3.567
  749SOL    HW2 3147   5.299   4.378   3.499
  750SOL     OW 3148   2.462   1.847   2.163
  750SOL    HW1 3149   2.529   1.773   2.160
  750SOL    HW2 3150   2.411   1.842   2.249
  751SOL     OW 3151   4.652   0.756   0.106
  751SOL    HW1 3152   4.712   0.723   0.033
  751SOL    HW2 3153   4.621   0.678   0.161
  752SOL     OW 3154   3.343   2.627   5.316
  752SOL    HW1 3155   3.308   2.651   5.407
  752SOL    HW2 3156   3.290   2.551   5.279
  753SOL     OW 3157   3.621   4.052   4.677
  753SOL    HW1 3158   3.644   3.977   4.615
  753SOL    HW2 3159   3.541   4.101   4.642
  754SOL     OW 3160   5.132   0.609   6.394
  754SOL    HW1 3161   5.068   0.633   6.466
  754SOL    HW2 3162   5.134   0.681   6.325
  755SOL     OW 3163   3.779   4.589   5.294
  755SOL    HW1 3164   3.697   4.553   5.338
  755SOL    HW2 3165   3.860   4.568   5.351
  756SOL     OW 3166   2.369   5.155   6.531
  756SOL    HW1 3167   2.433   5.088   6.568
  756SOL    HW2 3168   2.331   5.121   6.445
  757SOL     OW 3169   2.087   7.000   2.210
  757SOL    HW1 3170   2.118   0.057   2.259
  757SOL    HW2 3171   2.147   6.985   2.131
  758SOL     OW 3172   3.229   1.916   4.045
  758SOL    HW1 3173   3.211   1.982   4.118
  758SOL    HW2 3174   3.207   1.957   3.956
  759SOL     OW 3175   0.666   2.854   4.470
  759SOL    HW1 3176   0.695   2.782   4.406
  759SOL    HW2 3177   0.566   2.858   4.472
  760SOL     OW 3178   6.782   6.374   3.791
  760SOL    HW1 3179   6.751   6.298   3.733
  760SOL    HW2 3180   6.725   6.377   3.873
  761SOL     OW 3181   4.714   4.260   5.504
  761SOL    HW1 3182   4.625   4.220   5.526
  761SOL    HW2 3183   4.780   4.187   5.484
  762SOL     OW 3184   2.904   5.837   4.478
  762SOL    HW1 3185   2.872   5.803   4.567
  762SOL    HW2 3186   2.962   5.767   4.436
  763SOL     OW 3187   5.582   0.858   6.706
  763SOL    HW1 3188   5.653   0.789   6.690
  763SOL    HW2 3189   5.582   0.884   6.803
  764SOL     OW 3190   5.409   6.571   5.105
  764SOL    HW1 3191   5.340   6.625   5.056
  764SOL    HW2 3192   5.399   6.475   5.083
  765SOL     OW 3193   0.460   6.815   0.776
  765SOL    HW1 3194   0.480   6.853   0.686
  765SOL    HW2 3195   0.370   6.771   0.775
  766SOL     OW 3196   1.475   2.604   5.307
  766SOL    HW1 3197   1.569   2.574   5.293
  766SOL    HW2 3198   1.428   2.539   5.367
  767SOL     OW 3199   0.554   6.593   4.159
  767SOL    HW1 3200   0.635   6.581   4.217
  767SOL    HW2 3201   0.564   6.678   4.107
  768SOL     OW 3202   2.601   5.970   2.816
  768SOL    HW1 3203   2.697   5.976   2.787
  768SOL    HW2 3204   2.576   5.874   2.830
  769SOL     OW 3205   2.991   2.124   5.231
  769SOL    HW1 3206   2.931   2.203   5.235
  769SOL    HW2 3207   3.050   2.130   5.151
  770SOL     OW 3208   1.722   4.719   4.631
  770SOL    HW1 3209   1.759   4.781   4.700
  770SOL    HW2 3210   1.785   4.642   4.618
  771SOL     OW 3211   1.146   5.915   3.166
  771SOL    HW1 3212   1.159   5.996   3.224
  771SOL    HW2 3213   1.233   5.868   3.155
  772SOL     OW 3214   5.422   4.417   0.100
  772SOL    HW1 3215   5.456   4.409   0.006
  772SOL    HW2 3216   5.324   4.439   0.098
  773SOL     OW 3217   0.600   3.454   3.713
  773SOL    HW1 3218   0.523   3.494   3.662
  773SOL    HW2 3219   0.675   3.520   3.718
  774SOL     OW 3220   2.609   0.482   3.187
  774SOL    HW1 3221   2.544   0.482   3.111
  774SOL    HW2 3222   2.573   0.427   3.262
  775SOL     OW 3223   2.337   4.290   4.176
  775SOL    HW1 3224   2.354   4.350   4.098
  775SOL    HW2 3225   2.296   4.204   4.144
  776SOL     OW 3226   2.524   6.095   6.309
  776SOL    HW1 3227   2.595   6.050   6.255
  776SOL    HW2 3228   2.489   6.030   6.377
  777SOL     OW 3229   1.885   3.719   0.060
  777SOL    HW1 3230   1.881   3.795   7.019
  777SOL    HW2 3231   1.926   3.639   0.016
  778SOL     OW 3232   3.256   6.876   1.555
  778SOL    HW1 3233   3.310   6.823   1.620
  778SOL    HW2 3234   3.173   6.825   1.531
  779SOL     OW 3235   0.397   1.996   2.940
  779SOL    HW1 3236   0.436   2.055   2.869
  779SOL    HW2 3237   0.402   1.901   2.910
  780SOL     OW 3238   1.522   1.700   5.315
  780SOL    HW1 3239   1.465   1.622   5.289
  780SOL    HW2 3240   1.484   1.784   5.276
  781SOL     OW 3241   0.473   3.868   0.892
  781SOL    HW1 3242   0.390   3.890   0.944
  781SOL    HW2 3243   0.482   3.932   0.816
  782SOL     OW 3244   1.815   3.602   5.692
  782SOL    HW1 3245   1.858   3.683   5.652
  782SOL    HW2 3246   1.766   3.552   5.620
  783SOL     OW 3247   5.598   4.523   6.639
  783SOL    HW1 3248   5.573   4.619   6.623
  783SOL    HW2 3249   5.688   4.519   6.684
  784SOL     OW 3250   3.284   6.670   0.500
  784SOL    HW1 3251   3.243   6.730   0.568
  784SOL    HW2 3252   3.384   6.677   0.505
  785SOL     OW 3253   0.968   6.899   4.651
  785SOL    HW1 3254   0.895   6.848   4.605
  785SOL    HW2 3255   1.053   6.889   4.600
  786SOL     OW 3256   6.917   1.347   3.211
  786SOL    HW1 3257   6.969   1.270   3.174
  786SOL    HW2 3258   6.821   1.322   3.221
  787SOL     OW 3259   2.735   0.149   0.710
  787SOL    HW1 3260   2.812   0.096   0.675
  787SOL    HW2 3261   2.663   0.153   0.640
  788SOL     OW 3262   3.545   3.314   1.253
  788SOL    HW1 3263   3.630   3.337   1.299
  788SOL    HW2 3264   3.492   3.398   1.236
  789SOL     OW 3265   4.607   5.395   1.644
  789SOL    HW1 3266   4.617   5.395   1.544
  789SOL    HW2 3267   4.697   5.402   1.686
  790SOL     OW 3268   0.744   3.255   2.316
  790SOL    HW1 3269   0.811   3.187   2.285
  790SOL    HW2 3270   0.789   3.343   2.327
  791SOL     OW 3271   2.961   5.302   4.786
  791SOL    HW1 3272   2.871   5.280   4.823
  791SOL    HW2 3273   3.010   5.217   4.767
  792SOL     OW 3274   1.041   1.285   1.013
  792SOL    HW1 3275   0.942   1.288   1.016
  792SOL    HW2 3276   1.076   1.251   1.100
  793SOL     OW 3277   3.178   6.040   3.982
  793SOL    HW1 3278   3.168   5.952   4.029
  793SOL    HW2 3279   3.167   6.027   3.884
  794SOL     OW 3280   3.381   3.392   3.454
  794SOL    HW1 3281   3.432   3.472   3.423
  794SOL    HW2 3282   3.394   3.316   3.389
  795SOL     OW 3283   3.983   0.173   6.287
  795SOL    HW1 3284   3.930   0.142   6.366
  795SOL    HW2 3285   4.029   0.094   6.246
  796SOL     OW 3286   1.358   3.555   6.912
  796SOL    HW1 3287   1.396   3.502   6.836
  796SOL    HW2 3288   1.344   3.495   6.990
  797SOL     OW 3289   4.951   6.612   0.987
  797SOL    HW1 3290   4.864   6.655   0.963
  797SOL    HW2 3291   4.952   6.592   1.085
  798SOL     OW 3292   3.874   6.631   0.052
  798SOL    HW1 3293   3.856   6.726   0.077
  798SOL    HW2 3294   3.968   6.608   0.075
  799SOL     OW 3295   1.424   2.335   6.553
  799SOL    HW1 3296   1.505   2.382   6.519
  799SOL    HW2 3297   1.405   2.365   6.647
  800SOL     OW 3298   6.040   2.245   1.613
  800SOL    HW1 3299   6.076   2.161   1.654
  800SOL    HW2 3300   6.063   2.248   1.516
  801SOL     OW 3301   1.842   5.475   5.496
  801SOL    HW1 3302   1.803   5.549   5.550
  801SOL    HW2 3303   1.813   5.387   5.534
  802SOL     OW 3304   5.923   3.029   6.956
  802SOL    HW1 3305   5.865   3.065   6.883
  802SOL    HW2 3306   5.978   2.953   6.920
  803SOL     OW 3307   2.379   1.524   5.339
  803SOL    HW1 3308   2.435   1.592   5.387
  803SOL    HW2 3309   2.438   1.466   5.283
  804SOL     OW 3310   6.499   0.582   1.905
  804SOL    HW1 3311   6.558   0.594   1.985
  804SOL    HW2 3312   6.431   0.511   1.925
  805SOL     OW 3313   3.564   0.372   3.761
  805SOL    HW1 3314   3.637   0.345   3.824
  805SOL    HW2 3315   3.583   0.464   3.725
  806SOL     OW 3316   1.708   6.337   5.260
  806SOL    HW1 3317   1.734   6.433   5.271
  806SOL    HW2 3318   1.615   6.323   5.294
  807SOL     OW 3319   0.915   6.082   5.818
  807SOL    HW1 3320   0.934   6.047   5.910
  807SOL    HW2 3321   0.981   6.154   5.796
  808SOL     OW 3322   5.602   2.871   0.462
  808SOL    HW1 3323   5.584   2.866   0.560
  808SOL    HW2 3324   5.665   2.947   0.443
  809SOL     OW 3325   1.406   4.938   0.127
  809SOL    HW1 3326   1.449   4.884   0.056
  809SOL    HW2 3327   1.307   4.942   0.111
  810SOL     OW 3328   3.330   3.744   0.199
  810SOL    HW1 3329   3.407   3.803   0.223
  810SOL    HW2 3330   3.344   3.707   0.107
  811SOL     OW 3331   5.621   4.675   4.196
  811SOL    HW1 3332   5.615   4.755   4.256
  811SOL    HW2 3333   5.616   4.704   4.101
  812SOL     OW 3334   0.696   2.552   1.744
  812SOL    HW1 3335   0.750   2.468   1.743
  812SOL    HW2 3336   0.622   2.545   1.677
  813SOL     OW 3337   1.362   1.839   4.815
  813SOL    HW1 3338   1.314   1.904   4.875
  813SOL    HW2 3339   1.459   1.837   4.839
  814SOL     OW 3340   0.993   5.250   3.488
  814SOL    HW1 3341   0.932   5.194   3.543
  814SOL    HW2 3342   0.986   5.224   3.392
  815SOL     OW 3343   4.728   2.168   3.670
  815SOL    HW1 3344   4.755   2.176   3.766
  815SOL    HW2 3345   4.653   2.102   3.662
  816SOL     OW 3346   5.605   3.692   0.046
  816SOL    HW1 3347   5.579   3.596   0.053
  816SOL    HW2 3348   5.525   3.749   0.064
  817SOL     OW 3349   0.886   4.857   6.860
  817SOL    HW1 3350   0.933   4.884   6.776
  817SOL    HW2 3351   0.876   4.757   6.862
  818SOL     OW 3352   6.173   2.622   4.041
  818SOL    HW1 3353   6.138   2.545   3.986
  818SOL    HW2 3354   6.140   2.613   4.135
  819SOL     OW 3355   5.192   2.516   2.179
  819SOL    HW1 3356   5.107   2.501   2.130
  819SOL    HW2 3357   5.184   2.597   2.237
  820SOL     OW 3358   2.753   2.016   5.314
  820SOL    HW1 3359   2.745   2.031   5.215
  820SOL    HW2 3360   2.832   2.066   5.350
  821SOL     OW 3361   5.506   3.898   5.140
  821SOL    HW1 3362   5.506   3.798   5.135
  821SOL    HW2 3363   5.587   3.933   5.092
  822SOL     OW 3364   0.738   4.377   3.393
  822SOL    HW1 3365   0.821   4.336   3.355
  822SOL    HW2 3366   0.658   4.326   3.363
  823SOL     OW 3367   0.776   3.715   5.901
  823SOL    HW1 3368   0.724   3.688   5.983
  823SOL    HW2 3369   0.752   3.654   5.825
  824SOL     OW 3370   5.674   1.409   5.990
  824SOL    HW1 3371   5.598   1.449   5.940
  824SOL    HW2 3372   5.758   1.460   5.970
  825SOL     OW 3373   0.128   5.814   0.733
  825SOL    HW1 3374   0.074   5.898   0.741
  825SOL    HW2 3375   0.107   5.753   0.809
  826SOL     OW 3376   3.837   1.076   5.471
  826SOL    HW1 3377   3.860   1.141   5.542
  826SOL    HW2 3378   3.770   1.116   5.409
  827SOL     OW 3379   3.281   3.831   4.002
  827SOL    HW1 3380   3.230   3.783   3.930
  827SOL    HW2 3381   3.225   3.904   4.040
  828SOL     OW 3382   6.193   5.696   5.244
  828SOL    HW1 3383   6.119   5.670   5.182
  828SOL    HW2 3384   6.207   5.623   5.311
  829SOL     OW 3385   3.354   2.910   2.537
  829SOL    HW1 3386   3.434   2.850   2.527
  829SOL    HW2 3387   3.305   2.914   2.450
  830SOL     OW 3388   6.573   4.861   0.386
  830SOL    HW1 3389   6.668   4.872   0.357
  830SOL    HW2 3390   6.515   4.853   0.305
  831SOL     OW 3391   5.704   6.463   1.210
  831SOL    HW1 3392   5.793   6.423   1.194
  831SOL    HW2 3393   5.652   6.465   1.124
  832SOL     OW 3394   3.245   2.081   4.846
  832SOL    HW1 3395   3.205   1.992   4.869
  832SOL    HW2 3396   3.217   2.149   4.914
  833SOL     OW 3397   1.984   3.284   6.364
  833SOL    HW1 3398   1.942   3.368   6.399
  833SOL    HW2 3399   1.936   3.205   6.402
  834SOL     OW 3400   4.864   3.847   6.804
  834SOL    HW1 3401   4.776   3.802   6.786
  834SOL    HW2 3402   4.935   3.804   6.749
  835SOL     OW 3403   0.712   6.496   4.558
  835SOL    HW1 3404   0.688   6.561   4.630
  835SOL    HW2 3405   0.695   6.403   4.589
  836SOL     OW 3406   3.105   1.318   4.689
  836SOL    HW1 3407   3.134   1.305   4.594
  836SOL    HW2 3408   3.006   1.329   4.692
  837SOL     OW 3409   1.383   0.765   0.809
  837SOL    HW1 3410   1.392   0.794   0.713
  837SOL    HW2 3411   1.474   0.758   0.849
  838SOL     OW 3412   1.919   5.812   3.209
  838SOL    HW1 3413   2.012   5.845   3.197
  838SOL    HW2 3414   1.915   5.748   3.286
  839SOL     OW 3415   1.622   1.775   0.928
  839SOL    HW1 3416   1.670   1.820   0.852
  839SOL    HW2 3417   1.666   1.799   1.014
  840SOL     OW 3418   4.768   6.034   0.246
  840SOL    HW1 3419   4.862   6.034   0.212
  840SOL    HW2 3420   4.714   5.969   0.193
  841SOL     OW 3421   3.964   5.078   5.845
  841SOL    HW1 3422   3.959   5.095   5.943
  841SOL    HW2 3423   4.020   4.998   5.828
  842SOL     OW 3424   3.108   0.427   0.053
  842SOL    HW1 3425   3.139   0.367   7.004
  842SOL    HW2 3426   3.012   0.449   0.040
  843SOL     OW 3427   1.646   1.536   2.199
  843SOL    HW1 3428   1.739   1.569   2.214
  843SOL    HW2 3429   1.609   1.502   2.285
  844SOL     OW 3430   6.311   6.859   1.089
  844SOL    HW1 3431   6.306   6.953   1.122
  844SOL    HW2 3432   6.219   6.827   1.065
  845SOL     OW 3433   3.576   1.569   2.565
  845SOL    HW1 3434   3.563   1.475   2.597
  845SOL    HW2 3435   3.664   1.603   2.597
  846SOL     OW 3436   2.971   1.707   0.399
  846SOL    HW1 3437   3.039   1.707   0.326
  846SOL    HW2 3438   3.017   1.694   0.487
  847SOL     OW 3439   2.488   4.762   1.378
  847SOL    HW1 3440   2.455   4.729   1.467
  847SOL    HW2 3441   2.410   4.792   1.323
  848SOL     OW 3442   6.790   6.149   6.312
  848SOL    HW1 3443   6.841   6.223   6.269
  848SOL    HW2 3444   6.852   6.075   6.338
  849SOL     OW 3445   5.896   4.307   0.497
  849SOL    HW1 3446   5.970   4.361   0.458
  849SOL    HW2 3447   5.815   4.364   0.507
  850SOL     OW 3448   0.191   0.419   5.720
  850SOL    HW1 3449   0.247   0.431   5.638
  850SOL    HW2 3450   0.168   0.508   5.758
  851SOL     OW 3451   6.667   3.210   6.023
  851SOL    HW1 3452   6.572   3.194   5.997
  851SOL    HW2 3453   6.679   3.305   6.049
  852SOL     OW 3454   0.052   3.890   2.164
  852SOL    HW1 3455   0.088   3.901   2.071
  852SOL    HW2 3456   0.087   3.805   2.204
  853SOL     OW 3457   2.334   4.067   0.246
  853SOL    HW1 3458   2.372   4.009   0.174
  853SOL    HW2 3459   2.249   4.108   0.214
  854SOL     OW 3460   5.482   6.458   6.555
  854SOL    HW1 3461   5.472   6.359   6.548
  854SOL    HW2 3462   5.530   6.481   6.640
  855SOL     OW 3463   5.892   0.650   0.273
  855SOL    HW1 3464   5.856   0.620   0.361
  855SOL    HW2 3465   5.992   0.658   0.279
  856SOL     OW 3466   2.142   6.473   0.234
  856SOL    HW1 3467   2.077   6.429   0.296
  856SOL    HW2 3468   2.114   6.455   0.139
  857SOL     OW 3469   6.668   5.207   4.810
  857SOL    HW1 3470   6.575   5.243   4.811
  857SOL    HW2 3471   6.665   5.107   4.822
  858SOL     OW 3472   3.797   3.903   0.537
  858SOL    HW1 3473   3.767   3.853   0.619
  858SOL    HW2 3474   3.896   3.898   0.530
  859SOL     OW 3475   4.205   6.648   5.082
  859SOL    HW1 3476   4.299   6.647   5.049
  859SOL    HW2 3477   4.202   6.683   5.175
  860SOL     OW 3478   5.437   3.117   6.064
  860SOL    HW1 3479   5.399   3.082   6.150
  860SOL    HW2 3480   5.370   3.178   6.022
  861SOL     OW 3481   2.166   6.383   2.544
  861SOL    HW1 3482   2.092   6.424   2.598
  861SOL    HW2 3483   2.224   6.456   2.507
  862SOL     OW 3484   1.442   4.604   3.579
  862SOL    HW1 3485   1.420   4.507   3.568
  862SOL    HW2 3486   1.491   4.636   3.498
  863SOL     OW 3487   0.120   0.871   6.561
  863SOL    HW1 3488   0.152   0.948   6.616
  863SOL    HW2 3489   0.173   0.789   6.585
  864SOL     OW 3490   5.228   0.038   5.187
  864SOL    HW1 3491   5.287   0.086   5.252
  864SOL    HW2 3492   5.169   6.999   5.236
  865SOL     OW 3493   1.879   6.012   4.546
  865SOL    HW1 3494   1.827   5.967   4.474
  865SOL    HW2 3495   1.816   6.051   4.614
  866SOL     OW 3496   2.501   6.205   2.230
  866SOL    HW1 3497   2.518   6.207   2.328
  866SOL    HW2 3498   2.428   6.139   2.210
  867SOL     OW 3499   5.645   2.167   0.084
  867SOL    HW1 3500   5.737   2.206   0.091
  867SOL    HW2 3501   5.645   2.074   0.120
  868SOL     OW 3502   6.673   2.137   2.211
  868SOL    HW1 3503   6.765   2.120   2.176
  868SOL    HW2 3504   6.663   2.091   2.299
  869SOL     OW 3505   0.120   3.815   3.372
  869SOL    HW1 3506   0.128   3.892   3.436
  869SOL    HW2 3507   0.211   3.778   3.352
  870SOL     OW 3508   3.422   5.301   1.517
  870SOL    HW1 3509   3.429   5.298   1.617
  870SOL    HW2 3510   3.335   5.261   1.489
  871SOL     OW 3511   4.702   1.906   3.451
  871SOL    HW1 3512   4.687   1.882   3.547
  871SOL    HW2 3513   4.716   1.822   3.398
  872SOL     OW 3514   6.938   2.702   4.519
  872SOL    HW1 3515   6.941   2.797   4.487
  872SOL    HW2 3516   6.884   2.647   4.455
  873SOL     OW 3517   4.346   6.591   6.164
  873SOL    HW1 3518   4.257   6.546   6.158
  873SOL    HW2 3519   4.418   6.522   6.171
  874SOL     OW 3520   5.053   4.068   0.644
  874SOL    HW1 3521   5.101   4.006   0.581
  874SOL    HW2 3522   5.053   4.029   0.736
  875SOL     OW 3523   4.901   5.577   0.784
  875SOL    HW1 3524   4.943   5.661   0.818
  875SOL    HW2 3525   4.941   5.553   0.696
  876SOL     OW 3526   0.319   6.067   1.900
  876SOL    HW1 3527   0.312   5.968   1.884
  876SOL    HW2 3528   0.406   6.101   1.864
  877SOL     OW 3529   2.865   4.401   6.867
  877SOL    HW1 3530   2.935   4.454   6.820
  877SOL    HW2 3531   2.787   4.461   6.887
  878SOL     OW 3532   4.259   6.613   4.146
  878SOL    HW1 3533   4.233   6.649   4.056
  878SOL    HW2 3534   4.348   6.650   4.172
  879SOL     OW 3535   4.829   0.409   0.368
  879SOL    HW1 3536   4.854   0.421   0.464
  879SOL    HW2 3537   4.885   0.469   0.311
  880SOL     OW 3538   2.981   3.655   3.022
  880SOL    HW1 3539   2.923   3.627   3.098
  880SOL    HW2 3540   2.946   3.616   2.937
  881SOL     OW 3541   4.626   2.644   5.901
  881SOL    HW1 3542   4.588   2.733   5.875
  881SOL    HW2 3543   4.576   2.572   5.852
  882SOL     OW 3544   0.862   3.609   5.271
  882SOL    HW1 3545   0.927   3.616   5.346
  882SOL    HW2 3546   0.895   3.542   5.204
  883SOL     OW 3547   3.112   0.421   2.919
  883SOL    HW1 3548   3.051   0.364   2.864
  883SOL    HW2 3549   3.160   0.363   2.986
  884SOL     OW 3550   4.712   2.916   4.984
  884SOL    HW1 3551   4.745   3.008   4.963
  884SOL    HW2 3552   4.655   2.918   5.065
  885SOL     OW 3553   3.285   1.409   5.924
  885SOL    HW1 3554   3.198   1.366   5.945
  885SOL    HW2 3555   3.359   1.344   5.939
  886SOL     OW 3556   3.593   0.993   0.154
  886SOL    HW1 3557   3.525   1.062   0.127
  886SOL    HW2 3558   3.677   1.039   0.183
  887SOL     OW 3559   4.019   0.860   3.728
  887SOL    HW1 3560   4.100   0.864   3.787
  887SOL    HW2 3561   4.035   0.916   3.647
  888SOL     OW 3562   0.639   0.426   3.303
  888SOL    HW1 3563   0.575   0.412   3.227
  888SOL    HW2 3564   0.608   0.373   3.382
  889SOL     OW 3565   0.787   4.128   6.655
  889SOL    HW1 3566   0.694   4.096   6.673
  889SOL    HW2 3567   0.840   4.124   6.740
  890SOL     OW 3568   2.120   5.735   3.501
  890SOL    HW1 3569   2.052   5.662   3.488
  890SOL    HW2 3570   2.082   5.805   3.561
  891SOL     OW 3571   5.399   5.443   0.736
  891SOL    HW1 3572   5.324   5.409   0.792
  891SOL    HW2 3573   5.463   5.494   0.793
  892SOL     OW 3574   2.251   3.921   5.579
  892SOL    HW1 3575   2.170   3.977   5.562
  892SOL    HW2 3576   2.274   3.868   5.497
  893SOL     OW 3577   2.440   6.462   3.089
  893SOL    HW1 3578   2.533   6.439   3.115
  893SOL    HW2 3579   2.386   6.483   3.170
  894SOL     OW 3580   1.630   4.163   1.527
  894SOL    HW1 3581   1.727   4.185   1.525
  894SOL    HW2 3582   1.606   4.111   1.445
  895SOL     OW 3583   0.550   5.365   3.209
  895SOL    HW1 3584   0.526   5.308   3.288
  895SOL    HW2 3585   0.649   5.360   3.194
  896SOL     OW 3586   6.252   5.399   6.710
  896SOL    HW1 3587   6.252   5.329   6.782
  896SOL    HW2 3588   6.287   5.485   6.747
  897SOL     OW 3589   5.046   0.999   0.633
  897SOL    HW1 3590   5.130   1.023   0.682
  897SOL    HW2 3591   5.059   0.912   0.586
  898SOL     OW 3592   3.286   5.278   2.960
  898SOL    HW1 3593   3.354   5.348   2.941
  898SOL    HW2 3594   3.225   5.310   3.032
  899SOL     OW 3595   0.933   5.100   6.161
  899SOL    HW1 3596   0.905   5.178   6.106
  899SOL    HW2 3597   0.876   5.020   6.138
  900SOL     OW 3598   5.958   6.761   6.996
  900SOL    HW1 3599   5.978   6.758   0.069
  900SOL    HW2 3600   5.999   6.682   6.951
  901SOL     OW 3601   1.845   0.494   2.371
  901SOL    HW1 3602   1.847   0.422   2.302
  901SOL    HW2 3603   1.897   0.573   2.337
  902SOL     OW 3604   5.948   3.506   0.722
  902SOL    HW1 3605   5.988   3.597   0.735
  902SOL    HW2 3606   5.870   3.512   0.660
  903SOL     OW 3607   0.073   2.137   6.864
  903SOL    HW1 3608   0.165   2.165   6.838
  903SOL    HW2 3609   0.034   2.203   6.928
  904SOL     OW 3610   3.039   2.165   3.895
  904SOL    HW1 3611   3.029   2.173   3.796
  904SOL    HW2 3612   2.958   2.202   3.940
  905SOL     OW 3613   5.721   2.721   0.279
  905SOL    HW1 3614   5.654   2.764   0.340
  905SOL    HW2 3615   5.780   2.660   0.332
  906SOL     OW 3616   0.483   2.407   5.763
  906SOL    HW1 3617   0.546   2.479   5.734
  906SOL    HW2 3618   0.510   2.320   5.722
  907SOL     OW 3619   5.049   3.611   6.927
  907SOL    HW1 3620   4.974   3.574   6.872
  907SOL    HW2 3621   5.013   3.659   7.006
  908SOL     OW 3622   2.703   4.750   2.172
  908SOL    HW1 3623   2.743   4.690   2.103
  908SOL    HW2 3624   2.619   4.709   2.207
  909SOL     OW 3625   4.353   5.008   6.136
  909SOL    HW1 3626   4.450   4.987   6.151
  909SOL    HW2 3627   4.307   5.019   6.224
  910SOL     OW 3628   2.589   2.666   1.693
  910SOL    HW1 3629   2.615   2.759   1.668
  910SOL    HW2 3630   2.670   2.608   1.693
  911SOL     OW 3631   1.911   5.982   6.173
  911SOL    HW1 3632   2.004   6.012   6.153
  911SOL    HW2 3633   1.889   6.003   6.268
  912SOL     OW 3634   5.190   3.053   3.610
  912SOL    HW1 3635   5.095   3.036   3.584
  912SOL    HW2 3636   5.210   3.151   3.602
  913SOL     OW 3637   5.339   6.532   3.152
  913SOL    HW1 3638   5.368   6.481   3.232
  913SOL    HW2 3639   5.345   6.474   3.071
  914SOL     OW 3640   2.488   0.054   6.516
  914SOL    HW1 3641   2.458   0.148   6.533
  914SOL    HW2 3642   2.426   0.011   6.451
  915SOL     OW 3643   5.748   5.528   0.880
  915SOL    HW1 3644   5.733   5.619   0.842
  915SOL    HW2 3645   5.839   5.496   0.856
  916SOL     OW 3646   0.791   2.516   2.494
  916SOL    HW1 3647   0.884   2.527   2.528
  916SOL    HW2 3648   0.781   2.563   2.407
  917SOL     OW 3649   0.524   6.942   0.551
  917SOL    HW1 3650   0.547   6.968   0.457
  917SOL    HW2 3651   0.443   6.993   0.581
  918SOL     OW 3652   2.228   6.102   0.885
  918SOL    HW1 3653   2.248   6.031   0.952
  918SOL    HW2 3654   2.175   6.175   0.928
  919SOL     OW 3655   5.928   1.582   3.371
  919SOL    HW1 3656   5.933   1.557   3.274
  919SOL    HW2 3657   5.944   1.680   3.381
  920SOL     OW 3658   2.497   4.949   1.732
  920SOL    HW1 3659   2.429   4.933   1.661
  920SOL    HW2 3660   2.588   4.927   1.696
  921SOL     OW 3661   5.144   5.820   4.334
  921SOL    HW1 3662   5.218   5.882   4.311
  921SOL    HW2 3663   5.155   5.735   4.282
  922SOL     OW 3664   3.560   3.869   3.992
  922SOL    HW1 3665   3.595   3.824   3.910
  922SOL    HW2 3666   3.460   3.871   3.989
  923SOL     OW 3667   1.766   2.604   5.356
  923SOL    HW1 3668   1.846   2.575   5.303
  923SOL    HW2 3669   1.766   2.557   5.444
  924SOL     OW 3670   6.797   3.890   2.157
  924SOL    HW1 3671   6.894   3.879   2.182
  924SOL    HW2 3672   6.740   3.854   2.231
  925SOL     OW 3673   5.982   1.718   0.176
  925SOL    HW1 3674   5.903   1.729   0.238
  925SOL    HW2 3675   5.961   1.648   0.108
  926SOL     OW 3676   0.656   1.667   2.193
  926SOL    HW1 3677   0.568   1.672   2.146
  926SOL    HW2 3678   0.640   1.664   2.292
  927SOL     OW 3679   5.662   3.822   3.603
  927SOL    HW1 3680   5.583   3.845   3.546
  927SOL    HW2 3681   5.631   3.774   3.685
  928SOL     OW 3682   3.351   6.001   6.574
  928SOL    HW1 3683   3.313   5.918   6.613
  928SOL    HW2 3684   3.446   5.985   6.546
  929SOL     OW 3685   6.604   1.530   5.584
  929SOL    HW1 3686   6.611   1.488   5.493
  929SOL    HW2 3687   6.693   1.525   5.629
  930SOL     OW 3688   5.074   5.153   6.379
  930SOL    HW1 3689   5.061   5.109   6.468
  930SOL    HW2 3690   5.029   5.242   6.378
  931SOL     OW 3691   6.406   2.694   3.507
  931SOL    HW1 3692   6.380   2.630   3.434
  931SOL    HW2 3693   6.407   2.787   3.471
  932SOL     OW 3694   4.077   0.586   3.506
  932SOL    HW1 3695   4.084   0.486   3.514
  932SOL    HW2 3696   4.158   0.628   3.547
  933SOL     OW 3697   1.587   4.932   2.834
  933SOL    HW1 3698   1.577   5.031   2.845
  933SOL    HW2 3699   1.682   4.910   2.816
  934SOL     OW 3700   1.694   5.252   6.530
  934SOL    HW1 3701   1.785   5.235   6.568
  934SOL    HW2 3702   1.685   5.350   6.510
  935SOL     OW 3703   5.489   3.368   3.135
  935SOL    HW1 3704   5.489   3.448   3.074
  935SOL    HW2 3705   5.421   3.381   3.206
  936SOL     OW 3706   1.572   0.543   6.456
  936SOL    HW1 3707   1.598   0.583   6.544
  936SOL    HW2 3708   1.646   0.558   6.390
  937SOL     OW 3709   5.175   0.705   5.546
  937SOL    HW1 3710   5.136   0.763   5.618
  937SOL    HW2 3711   5.154   0.744   5.457
  938SOL     OW 3712   6.611   5.419   4.374
  938SOL    HW1 3713   6.538   5.372   4.424
  938SOL    HW2 3714   6.652   5.488   4.433
  939SOL     OW 3715   6.938   6.962   5.039
  939SOL    HW1 3716   6.923   7.004   5.129
  939SOL    HW2 3717   6.850   6.938   4.998
  940SOL     OW 3718   2.224   5.147   0.657
  940SOL    HW1 3719   2.168   5.114   0.733
  940SOL    HW2 3720   2.279   5.071   0.621
  941SOL     OW 3721   3.733   0.243   6.758
  941SOL    HW1 3722   3.828   0.248   6.789
  941SOL    HW2 3723   3.729   0.241   6.658
  942SOL     OW 3724   6.924   5.441   0.423
  942SOL    HW1 3725   6.878   5.529   0.435
  942SOL    HW2 3726   7.019   5.449   0.454
  943SOL     OW 3727   3.174   4.856   2.776
  943SOL    HW1 3728   3.155   4.948   2.810
  943SOL    HW2 3729   3.236   4.862   2.697
  944SOL     OW 3730   0.774   6.550   4.304
  944SOL    HW1 3731   0.863   6.516   4.273
  944SOL    HW2 3732   0.760   6.522   4.399
  945SOL     OW 3733   1.033   5.738   6.166
  945SOL    HW1 3734   1.049   5.830   6.201
  945SOL    HW2 3735   1.118   5.686   6.168
  946SOL     OW 3736   4.799   4.081   3.595
  946SOL    HW1 3737   4.760   4.117   3.680
  946SOL    HW2 3738   4.884   4.130   3.575
  947SOL     OW 3739   3.610   4.156   4.011
  947SOL    HW1 3740   3.707   4.170   4.028
  947SOL    HW2 3741   3.586   4.061   4.032
  948SOL     OW 3742   4.589   1.413   2.517
  948SOL    HW1 3743   4.675   1.455   2.545
  948SOL    HW2 3744   4.607   1.334   2.458
  949SOL     OW 3745   3.065   6.621   6.798
  949SOL    HW1 3746   3.008   6.682   6.852
  949SOL    HW2 3747   3.030   6.528   6.804
  950SOL     OW 3748   6.923   6.426   2.431
  950SOL    HW1 3749   6.883   6.517   2.447
  950SOL    HW2 3750   7.014   6.436   2.391
  951SOL     OW 3751   1.554   0.189   3.552
  951SOL    HW1 3752   1.630   0.244   3.519
  951SOL    HW2 3753   1.585   0.095   3.567
  952SOL     OW 3754   3.932   1.529   1.881
  952SOL    HW1 3755   3.933   1.518   1.980
  952SOL    HW2 3756   3.903   1.622   1.858
  953SOL     OW 3757   6.844   5.257   5.293
  953SOL    HW1 3758   6.894   5.272   5.378
  953SOL    HW2 3759   6.900   5.203   5.231
  954SOL     OW 3760   4.781   5.799   2.837
  954SOL    HW1 3761   4.853   5.807   2.906
  954SOL    HW2 3762   4.780   5.705   2.802
  955SOL     OW 3763   1.226   4.421   6.569
  955SOL    HW1 3764   1.172   4.353   6.620
  955SOL    HW2 3765   1.323   4.403   6.582
  956SOL     OW 3766   6.265   0.457   1.308
  956SOL    HW1 3767   6.183   0.401   1.294
  956SOL    HW2 3768   6.332   0.434   1.238
  957SOL     OW 3769   6.340   2.294   4.021
  957SOL    HW1 3770   6.357   2.253   4.110
  957SOL    HW2 3771   6.241   2.298   4.004
  958SOL     OW 3772   5.547   6.660   2.257
  958SOL    HW1 3773   5.515   6.663   2.162
  958SOL    HW2 3774   5.639   6.621   2.260
  959SOL     OW 3775   3.912   6.879   3.936
  959SOL    HW1 3776   3.848   6.953   3.956
  959SOL    HW2 3777   3.867   6.811   3.878
  960SOL     OW 3778   1.155   0.356   0.239
  960SOL    HW1 3779   1.129   0.387   0.330
  960SOL    HW2 3780   1.079   0.374   0.176
  961SOL     OW 3781   3.398   6.514   2.822
  961SOL    HW1 3782   3.484   6.556   2.851
  961SOL    HW2 3783   3.324   6.547   2.881
  962SOL     OW 3784   6.562   0.092   4.741
  962SOL    HW1 3785   6.552   0.165   4.673
  962SOL    HW2 3786   6.474   0.047   4.756
  963SOL     OW 3787   4.712   2.938   1.033
  963SOL    HW1 3788   4.770   2.892   0.967
  963SOL    HW2 3789   4.677   2.871   1.099
  964SOL     OW 3790   4.948   4.254   5.081
  964SOL    HW1 3791   4.903   4.231   4.995
  964SOL    HW2 3792   5.041   4.218   5.082
  965SOL     OW 3793   5.803   2.573   3.526
  965SOL    HW1 3794   5.837   2.667   3.525
  965SOL    HW2 3795   5.704   2.574   3.512
  966SOL     OW 3796   4.983   2.119   3.867
  966SOL    HW1 3797   4.961   2.059   3.790
  966SOL    HW2 3798   5.078   2.150   3.860
  967SOL     OW 3799   4.915   4.000   6.087
  967SOL    HW1 3800   4.965   3.941   6.023
  967SOL    HW2 3801   4.946   3.981   6.180
  968SOL     OW 3802   3.954   0.212   1.506
  968SOL    HW1 3803   4.053   0.200   1.508
  968SOL    HW2 3804   3.922   0.205   1.411
  969SOL     OW 3805   3.485   4.288   5.727
  969SOL    HW1 3806   3.521   4.348   5.656
  969SOL    HW2 3807   3.444   4.344   5.800
  970SOL     OW 3808   5.906   0.456   5.981
  970SOL    HW1 3809   5.884   0.374   6.034
  970SOL    HW2 3810   5.874   0.444   5.887
  971SOL     OW 3811   6.115   4.038   2.934
  971SOL    HW1 3812   6.200   4.083   2.960
  971SOL    HW2 3813   6.048   4.047   3.008
  972SOL     OW 3814   0.240   2.382   0.845
  972SOL    HW1 3815   0.152   2.401   0.887
  972SOL    HW2 3816   0.263   2.286   0.858
  973SOL     OW 3817   7.017   3.462   6.250
  973SOL    HW1 3818   6.989   3.523   6.176
  973SOL    HW2 3819   7.015   3.368   6.218
  974SOL     OW 3820   6.609   4.843   4.187
  974SOL    HW1 3821   6.632   4.889   4.273
  974SOL    HW2 3822   6.547   4.766   4.207
  975SOL     OW 3823   2.348   0.160   1.907
  975SOL    HW1 3824   2.415   0.185   1.977
  975SOL    HW2 3825   2.361   0.217   1.826
  976SOL     OW 3826   6.459   4.285   2.102
  976SOL    HW1 3827   6.405   4.227   2.164
  976SOL    HW2 3828   6.486   4.232   2.022
  977SOL     OW 3829   0.461   1.294   2.661
  977SOL    HW1 3830   0.427   1.381   2.694
  977SOL    HW2 3831   0.557   1.304   2.634
  978SOL     OW 3832   5.566   2.466   2.051
  978SOL    HW1 3833   5.540   2.549   2.100
  978SOL    HW2 3834   5.642   2.422   2.097
  979SOL     OW 3835   6.513   3.873   0.135
  979SOL    HW1 3836   6.513   3.973   0.122
  979SOL    HW2 3837   6.459   3.851   0.216
  980SOL     OW 3838   3.566   1.548   5.327
  980SOL    HW1 3839   3.656   1.591   5.315
  980SOL    HW2 3840   3.496   1.619   5.337
  981SOL     OW 3841   6.794   6.660   5.127
  981SOL    HW1 3842   6.832   6.664   5.034
  981SOL    HW2 3843   6.862   6.694   5.192
  982SOL     OW 3844   0.212   1.726   5.113
  982SOL    HW1 3845   0.194   1.643   5.166
  982SOL    HW2 3846   0.206   1.705   5.015
  983SOL     OW 3847   0.216   4.152   3.827
  983SOL    HW1 3848   0.198   4.246   3.799
  983SOL    HW2 3849   0.224   4.148   3.927
  984SOL     OW 3850   1.783   1.509   2.976
  984SOL    HW1 3851   1.706   1.459   2.936
  984SOL    HW2 3852   1.757   1.605   2.987
  985SOL     OW 3853   6.200   3.429   4.350
  985SOL    HW1 3854   6.247   3.504   4.303
  985SOL    HW2 3855   6.265   3.355   4.368
  986SOL     OW 3856   5.218   4.458   1.301
  986SOL    HW1 3857   5.292   4.510   1.343
  986SOL    HW2 3858   5.253   4.369   1.270
  987SOL     OW 3859   5.811   4.882   3.638
  987SOL    HW1 3860   5.910   4.884   3.631
  987SOL    HW2 3861   5.779   4.958   3.694
  988SOL     OW 3862   3.102   4.036   1.613
  988SOL    HW1 3863   3.078   4.118   1.664
  988SOL    HW2 3864   3.023   3.974   1.608
  989SOL     OW 3865   0.468   1.570   1.221
  989SOL    HW1 3866   0.532   1.528   1.157
  989SOL    HW2 3867   0.404   1.501   1.254
  990SOL     OW 3868   4.132   0.327   3.591
  990SOL    HW1 3869   4.077   0.273   3.654
  990SOL    HW2 3870   4.191   0.266   3.538
  991SOL     OW 3871   6.693   4.479   3.899
  991SOL    HW1 3872   6.671   4.431   3.814
  991SOL    HW2 3873   6.610   4.521   3.935
  992SOL     OW 3874   0.600   2.835   1.115
  992SOL    HW1 3875   0.620   2.887   1.032
  992SOL    HW2 3876   0.534   2.886   1.171
  993SOL     OW 3877   2.001   5.471   0.760
  993SOL    HW1 3878   1.945   5.412   0.817
  993SOL    HW2 3879   2.098   5.459   0.784
  994SOL     OW 3880   3.303   6.795   0.813
  994SOL    HW1 3881   3.339   6.878   0.858
  994SOL    HW2 3882   3.365   6.719   0.831
  995SOL     OW 3883   5.310   3.602   5.602
  995SOL    HW1 3884   5.294   3.508   5.571
  995SOL    HW2 3885   5.392   3.638   5.557
  996SOL     OW 3886   3.703   6.286   5.582
  996SOL    HW1 3887   3.787   6.233   5.570
  996SOL    HW2 3888   3.639   6.264   5.508
  997SOL     OW 3889   1.518   5.841   4.045
  997SOL    HW1 3890   1.438   5.868   4.099
  997SOL    HW2 3891   1.581   5.788   4.103
  998SOL     OW 3892   5.635   0.156   6.229
  998SOL    HW1 3893   5.672   0.063   6.238
  998SOL    HW2 3894   5.592   0.183   6.315
  999SOL     OW 3895   4.951   3.602   1.927
  999SOL    HW1 3896   5.009   3.522   1.908
  999SOL    HW2 3897   4.871   3.600   1.866
 1000SOL     OW 3898   3.896   1.733   1.531
 1000SOL    HW1 3899   3.818   1.696   1.479
 1000SOL    HW2 3900   3.862   1.800   1.598
 1001SOL     OW 3901   2.713   6.915   2.306
 1001SOL    HW1 3902   2.788   6.930   2.371
 1001SOL    HW2 3903   2.738   6.844   2.241
 1002SOL     OW 3904   5.690   2.853   1.567
 1002SOL    HW1 3905   5.600   2.878   1.603
 1002SOL    HW2 3906   5.756   2.845   1.642
 1003SOL     OW 3907   0.863   6.304   2.551
 1003SOL    HW1 3908   0.782   6.362   2.555
 1003SOL    HW2 3909   0.855   6.240   2.475
 1004SOL     OW 3910   5.118   1.631   3.682
 1004SOL    HW1 3911   5.209   1.613   3.643
 1004SOL    HW2 3912   5.127   1.693   3.759
 1005SOL     OW 3913   1.712   4.722   4.257
 1005SOL    HW1 3914   1.667   4.779   4.189
 1005SOL    HW2 3915   1.749   4.780   4.330
 1006SOL     OW 3916   2.067   3.623   0.544
 1006SOL    HW1 3917   2.008   3.703   0.537
 1006SOL    HW2 3918   2.124   3.617   0.462
 1007SOL     OW 3919   4.516   2.248   6.531
 1007SOL    HW1 3920   4.598   2.288   6.492
 1007SOL    HW2 3921   4.524   2.149   6.533
 1008SOL     OW 3922   0.544   4.482   4.879
 1008SOL    HW1 3923   0.604   4.467   4.800
 1008SOL    HW2 3924   0.463   4.424   4.870
 1009SOL     OW 3925   6.494   5.032   5.585
 1009SOL    HW1 3926   6.589   5.043   5.615
 1009SOL    HW2 3927   6.462   5.117   5.543
 1010SOL     OW 3928   2.285   3.790   1.250
 1010SOL    HW1 3929   2.325   3.736   1.324
 1010SOL    HW2 3930   2.292   3.739   1.164
 1011SOL     OW 3931   0.442   4.707   2.453
 1011SOL    HW1 3932   0.406   4.655   2.530
 1011SOL    HW2 3933   0.409   4.667   2.367
 1012SOL     OW 3934   5.799   0.277   2.406
 1012SOL    HW1 3935   5.757   0.192   2.438
 1012SOL    HW2 3936   5.858   0.315   2.478
 1013SOL     OW 3937   6.444   0.808   6.567
 1013SOL    HW1 3938   6.421   0.904   6.576
 1013SOL    HW2 3939   6.527   0.799   6.511
 1014SOL     OW 3940   0.944   4.845   4.427
 1014SOL    HW1 3941   0.936   4.858   4.328
 1014SOL    HW2 3942   1.037   4.817   4.450
 1015SOL     OW 3943   3.631   6.995   6.199
 1015SOL    HW1 3944   3.694   6.918   6.215
 1015SOL    HW2 3945   3.587   7.020   6.285
 1016SOL     OW 3946   5.321   4.037   1.722
 1016SOL    HW1 3947   5.223   4.034   1.737
 1016SOL    HW2 3948   5.365   4.090   1.794
 1017SOL     OW 3949   2.373   1.400   2.577
 1017SOL    HW1 3950   2.297   1.337   2.564
 1017SOL    HW2 3951   2.377   1.464   2.500
 1018SOL     OW 3952   0.349   4.958   3.472
 1018SOL    HW1 3953   0.382   4.931   3.381
 1018SOL    HW2 3954   0.249   4.970   3.469
 1019SOL     OW 3955   0.147   5.273   0.810
 1019SOL    HW1 3956   0.068   5.212   0.818
 1019SOL    HW2 3957   0.141   5.324   0.724
 1020SOL     OW 3958   0.213   0.001   0.924
 1020SOL    HW1 3959   0.243   6.954   0.861
 1020SOL    HW2 3960   0.284   0.015   0.994
 1021SOL     OW 3961   6.440   5.768   1.810
 1021SOL    HW1 3962   6.455   5.709   1.731
 1021SOL    HW2 3963   6.360   5.826   1.793
 1022SOL     OW 3964   2.715   6.300   6.085
 1022SOL    HW1 3965   2.725   6.201   6.101
 1022SOL    HW2 3966   2.801   6.346   6.108
 1023SOL     OW 3967   0.391   1.764   3.356
 1023SOL    HW1 3968   0.363   1.687   3.414
 1023SOL    HW2 3969   0.311   1.800   3.308
 1024SOL     OW 3970   1.305   2.073   4.989
 1024SOL    HW1 3971   1.235   2.023   5.040
 1024SOL    HW2 3972   1.392   2.070   5.039
 1025SOL     OW 3973   4.666   3.631   0.002
 1025SOL    HW1 3974   4.634   3.603   0.093
 1025SOL    HW2 3975   4.740   3.570   6.998
 1026SOL     OW 3976   2.932   2.572   1.281
 1026SOL    HW1 3977   2.901   2.629   1.205
 1026SOL    HW2 3978   2.853   2.544   1.335
 1027SOL     OW 3979   0.669   6.532   1.196
 1027SOL    HW1 3980   0.671   6.435   1.222
 1027SOL    HW2 3981   0.639   6.587   1.274
 1028SOL     OW 3982   0.856   6.079   2.933
 1028SOL    HW1 3983   0.759   6.098   2.946
 1028SOL    HW2 3984   0.868   5.988   2.895
 1029SOL     OW 3985   1.296   1.917   5.831
 1029SOL    HW1 3986   1.293   1.819   5.813
 1029SOL    HW2 3987   1.207   1.958   5.811
 1030SOL     OW 3988   3.038   3.665   1.621
 1030SOL    HW1 3989   3.124   3.700   1.583
 1030SOL    HW2 3990   3.054   3.634   1.715
 1031SOL     OW 3991   3.400   3.399   1.582
 1031SOL    HW1 3992   3.458   3.319   1.568
 1031SOL    HW2 3993   3.457   3.478   1.604
 1032SOL     OW 3994   1.882   1.626   6.004
 1032SOL    HW1 3995   1.982   1.624   6.006
 1032SOL    HW2 3996   1.850   1.720   6.015
 1033SOL     OW 3997   0.843   6.082   2.037
 1033SOL    HW1 3998   0.893   6.123   2.114
 1033SOL    HW2 3999   0.747   6.108   2.042
 1034SOL     OW 4000   3.599   6.857   4.753
 1034SOL    HW1 4001   3.539   6.887   4.827
 1034SOL    HW2 4002   3.636   6.937   4.705
 1035SOL     OW 4003   0.512   1.489   5.968
 1035SOL    HW1 4004   0.561   1.570   6.000
 1035SOL    HW2 4005   0.543   1.465   5.876
 1036SOL     OW 4006   5.272   1.599   0.929
 1036SOL    HW1 4007   5.249   1.682   0.877
 1036SOL    HW2 4008   5.192   1.567   0.978
 1037SOL     OW 4009   1.659   2.458   2.993
 1037SOL    HW1 4010   1.669   2.420   3.085
 1037SOL    HW2 4011   1.749   2.478   2.955
 1038SOL     OW 4012   2.844   0.246   6.775
 1038SOL    HW1 4013   2.924   0.297   6.809
 1038SOL    HW2 4014   2.762   0.302   6.784
 1039SOL     OW 4015   3.626   3.477   3.868
 1039SOL    HW1 4016   3.532   3.470   3.833
 1039SOL    HW2 4017   3.678   3.397   3.841
 1040SOL     OW 4018   4.042   0.722   2.665
 1040SOL    HW1 4019   3.979   0.759   2.733
 1040SOL    HW2 4020   4.136   0.734   2.697
 1041SOL     OW 4021   6.700   6.180   5.672
 1041SOL    HW1 4022   6.637   6.182   5.749
 1041SOL    HW2 4023   6.779   6.122   5.694
 1042SOL     OW 4024   4.884   4.492   2.342
 1042SOL    HW1 4025   4.958   4.560   2.347
 1042SOL    HW2 4026   4.805   4.534   2.298
 1043SOL     OW 4027   3.386   1.445   3.537
 1043SOL    HW1 4028   3.426   1.486   3.455
 1043SOL    HW2 4029   3.408   1.347   3.539
 1044SOL     OW 4030   5.845   4.828   1.385
 1044SOL    HW1 4031   5.929   4.798   1.338
 1044SOL    HW2 4032   5.867   4.855   1.479
 1045SOL     OW 4033   2.383   0.609   3.872
 1045SOL    HW1 4034   2.345   0.580   3.784
 1045SOL    HW2 4035   2.481   0.626   3.863
 1046SOL     OW 4036   3.425   1.511   1.050
 1046SOL    HW1 4037   3.470   1.463   0.975
 1046SOL    HW2 4038   3.395   1.445   1.119
 1047SOL     OW 4039   3.504   0.092   3.305
 1047SOL    HW1 4040   3.469   0.069   3.396
 1047SOL    HW2 4041   3.487   0.015   3.243
 1048SOL     OW 4042   1.379   6.102   2.400
 1048SOL    HW1 4043   1.354   6.136   2.309
 1048SOL    HW2 4044   1.410   6.179   2.457
 1049SOL     OW 4045   4.077   6.921   5.077
 1049SOL    HW1 4046   4.129   6.849   5.031
 1049SOL    HW2 4047   4.129   7.006   5.073
 1050SOL     OW 4048   3.335   5.212   3.849
 1050SOL    HW1 4049   3.251   5.174   3.811
 1050SOL    HW2 4050   3.407   5.142   3.849
 1051SOL     OW 4051   0.010   0.309   0.283
 1051SOL    HW1 4052   0.090   0.316   0.223
 1051SOL    HW2 4053   0.010   0.386   0.347
 1052SOL     OW 4054   3.715   0.353   6.999
 1052SOL    HW1 4055   3.812   0.360   7.020
 1052SOL    HW2 4056   3.704   0.311   6.909
 1053SOL     OW 4057   6.315   3.565   2.690
 1053SOL    HW1 4058   6.243   3.634   2.683
 1053SOL    HW2 4059   6.351   3.544   2.599
 1054SOL     OW 4060   3.489   4.303   0.358
 1054SOL    HW1 4061   3.531   4.249   0.285
 1054SOL    HW2 4062   3.468   4.244   0.435
 1055SOL     OW 4063   4.281   5.749   6.607
 1055SOL    HW1 4064   4.331   5.703   6.679
 1055SOL    HW2 4065   4.218   5.685   6.563
 1056SOL     OW 4066   2.511   4.366   6.956
 1056SOL    HW1 4067   2.425   4.363   6.905
 1056SOL    HW2 4068   2.556   4.277   6.949
 1057SOL     OW 4069   3.268   1.437   1.713
 1057SOL    HW1 4070   3.287   1.350   1.758
 1057SOL    HW2 4071   3.249   1.507   1.782
 1058SOL     OW 4072   2.936   1.878   2.966
 1058SOL    HW1 4073   2.938   1.788   3.010
 1058SOL    HW2 4074   2.905   1.869   2.872
 1059SOL     OW 4075   2.423   5.902   1.412
 1059SOL    HW1 4076   2.501   5.927   1.469
 1059SOL    HW2 4077   2.451   5.830   1.348
 1060SOL     OW 4078   6.596   6.150   5.414
 1060SOL    HW1 4079   6.636   6.186   5.498
 1060SOL    HW2 4080   6.617   6.212   5.338
 1061SOL     OW 4081   6.689   4.093   0.545
 1061SOL    HW1 4082   6.666   3.998   0.522
 1061SOL    HW2 4083   6.679   4.106   0.644
 1062SOL     OW 4084   3.553   6.447   5.239
 1062SOL    HW1 4085   3.484   6.429   5.170
 1062SOL    HW2 4086   3.572   6.545   5.243
 1063SOL     OW 4087   1.251   6.452   5.665
 1063SOL    HW1 4088   1.316   6.405   5.725
 1063SOL    HW2 4089   1.293   6.465   5.575
 1064SOL     OW 4090   0.638   4.738   0.806
 1064SOL    HW1 4091   0.611   4.659   0.861
 1064SOL    HW2 4092   0.603   4.822   0.849
 1065SOL     OW 4093   4.125   0.365   4.589
 1065SOL    HW1 4094   4.036   0.346   4.629
 1065SOL    HW2 4095   4.190   0.294   4.617
 1066SOL     OW 4096   4.685   0.028   2.117
 1066SOL    HW1 4097   4.771   7.015   2.151
 1066SOL    HW2 4098   4.662   0.110   2.169
 1067SOL     OW 4099   3.101   1.154   0.374
 1067SOL    HW1 4100   3.028   1.137   0.440
 1067SOL    HW2 4101   3.116   1.252   0.365
 1068SOL     OW 4102   6.073   3.159   1.531
 1068SOL    HW1 4103   6.118   3.088   1.586
 1068SOL    HW2 4104   5.991   3.191   1.579
 1069SOL     OW 4105   6.465   4.395   1.360
 1069SOL    HW1 4106   6.444   4.471   1.422
 1069SOL    HW2 4107   6.533   4.335   1.401
 1070SOL     OW 4108   1.009   0.907   2.160
 1070SOL    HW1 4109   1.063   0.825   2.141
 1070SOL    HW2 4110   0.958   0.895   2.245
 1071SOL     OW 4111   0.045   2.778   5.037
 1071SOL    HW1 4112   0.081   2.763   4.944
 1071SOL    HW2 4113   0.006   2.870   5.043
 1072SOL     OW 4114   3.065   1.374   2.523
 1072SOL    HW1 4115   3.158   1.411   2.529
 1072SOL    HW2 4116   3.016   1.392   2.608
 1073SOL     OW 4117   5.107   1.717   3.250
 1073SOL    HW1 4118   5.204   1.694   3.261
 1073SOL    HW2 4119   5.055   1.633   3.235
 1074SOL     OW 4120   3.242   5.169   2.081
 1074SOL    HW1 4121   3.146   5.197   2.083
 1074SOL    HW2 4122   3.247   5.069   2.086
 1075SOL     OW 4123   5.732   2.564   4.940
 1075SOL    HW1 4124   5.820   2.611   4.947
 1075SOL    HW2 4125   5.676   2.587   5.020
 1076SOL     OW 4126   2.128   3.999   4.769
 1076SOL    HW1 4127   2.208   3.983   4.827
 1076SOL    HW2 4128   2.125   4.095   4.742
 1077SOL     OW 4129   6.563   0.170   0.214
 1077SOL    HW1 4130   6.587   0.112   0.136
 1077SOL    HW2 4131   6.622   0.251   0.214
 1078SOL     OW 4132   6.529   6.126   3.864
 1078SOL    HW1 4133   6.532   6.140   3.765
 1078SOL    HW2 4134   6.617   6.091   3.895
 1079SOL     OW 4135   0.888   5.814   2.862
 1079SOL    HW1 4136   0.981   5.833   2.831
 1079SOL    HW2 4137   0.836   5.773   2.788
 1080SOL     OW 4138   2.057   4.946   5.399
 1080SOL    HW1 4139   2.004   4.880   5.451
 1080SOL    HW2 4140   2.116   4.897   5.334
 1081SOL     OW 4141   6.148   5.632   4.771
 1081SOL    HW1 4142   6.151   5.630   4.671
 1081SOL    HW2 4143   6.157   5.726   4.802
 1082SOL     OW 4144   5.809   6.979   6.326
 1082SOL    HW1 4145   5.774   6.886   6.336
 1082SOL    HW2 4146   5.908   6.977   6.311
 1083SOL     OW 4147   5.182   4.271   0.956
 1083SOL    HW1 4148   5.228   4.268   1.045
 1083SOL    HW2 4149   5.198   4.185   0.907
 1084SOL     OW 4150   0.130   0.033   6.480
 1084SOL    HW1 4151   0.229   0.041   6.483
 1084SOL    HW2 4152   0.092   0.049   6.571
 1085SOL     OW 4153   2.233   4.039   4.183
 1085SOL    HW1 4154   2.254   3.958   4.129
 1085SOL    HW2 4155   2.244   4.018   4.280
 1086SOL     OW 4156   6.025   4.667   6.933
 1086SOL    HW1 4157   5.948   4.652   6.871
 1086SOL    HW2 4158   5.995   4.654   0.003
 1087SOL     OW 4159   1.943   0.616   5.739
 1087SOL    HW1 4160   1.935   0.669   5.655
 1087SOL    HW2 4161   1.852   0.598   5.776
 1088SOL     OW 4162   6.848   4.653   3.324
 1088SOL    HW1 4163   6.757   4.672   3.360
 1088SOL    HW2 4164   6.899   4.598   3.390
 1089SOL     OW 4165   6.509   4.382   4.590
 1089SOL    HW1 4166   6.415   4.399   4.621
 1089SOL    HW2 4167   6.566   4.359   4.669
 1090SOL     OW 4168   5.290   1.441   4.681
 1090SOL    HW1 4169   5.356   1.506   4.720
 1090SOL    HW2 4170   5.198   1.480   4.686
 1091SOL     OW 4171   2.200   3.064   3.651
 1091SOL    HW1 4172   2.242   2.973   3.656
 1091SOL    HW2 4173   2.204   3.107   3.741
 1092SOL     OW 4174   0.757   4.933   0.620
 1092SOL    HW1 4175   0.684   5.001   0.633
 1092SOL    HW2 4176   0.773   4.885   0.706
 1093SOL     OW 4177   2.040   6.835   1.219
 1093SOL    HW1 4178   2.108   6.770   1.183
 1093SOL    HW2 4179   1.978   6.787   1.281
 1094SOL     OW 4180   1.254   0.355   3.330
 1094SOL    HW1 4181   1.351   0.333   3.332
 1094SOL    HW2 4182   1.209   0.301   3.258
 1095SOL     OW 4183   6.834   3.175   0.091
 1095SOL    HW1 4184   6.876   3.145   0.177
 1095SOL    HW2 4185   6.876   3.126   0.015
 1096SOL     OW 4186   3.014   5.432   1.302
 1096SOL    HW1 4187   3.021   5.345   1.352
 1096SOL    HW2 4188   2.922   5.441   1.264
 1097SOL     OW 4189   2.395   5.472   3.716
 1097SOL    HW1 4190   2.470   5.504   3.774
 1097SOL    HW2 4191   2.431   5.444   3.627
 1098SOL     OW 4192   6.166   4.981   0.356
 1098SOL    HW1 4193   6.239   4.931   0.403
 1098SOL    HW2 4194   6.127   5.049   0.418
 1099SOL     OW 4195   4.637   1.441   6.219
 1099SOL    HW1 4196   4.688   1.525   6.201
 1099SOL    HW2 4197   4.596   1.446   6.310
 1100SOL     OW 4198   3.738   1.180   3.465
 1100SOL    HW1 4199   3.713   1.129   3.382
 1100SOL    HW2 4200   3.660   1.182   3.527
 1101SOL     OW 4201   6.214   3.065   5.791
 1101SOL    HW1 4202   6.127   3.037   5.830
 1101SOL    HW2 4203   6.221   3.165   5.791
 1102SOL     OW 4204   1.991   0.917   4.750
 1102SOL    HW1 4205   1.979   1.015   4.758
 1102SOL    HW2 4206   2.058   0.885   4.817
 1103SOL     OW 4207   2.947   0.405   6.411
 1103SOL    HW1 4208   2.877   0.474   6.430
 1103SOL    HW2 4209   3.035   0.450   6.398
 1104SOL     OW 4210   0.536   3.670   3.461
 1104SOL    HW1 4211   0.500   3.601   3.399
 1104SOL    HW2 4212   0.502   3.760   3.433
 1105SOL     OW 4213   5.371   1.246   4.911
 1105SOL    HW1 4214   5.360   1.147   4.902
 1105SOL    HW2 4215   5.456   1.274   4.867
 1106SOL     OW 4216   0.715   1.458   0.563
 1106SOL    HW1 4217   0.677   1.371   0.531
 1106SOL    HW2 4218   0.814   1.449   0.573
 1107SOL     OW 4219   0.387   0.956   0.034
 1107SOL    HW1 4220   0.456   1.013   7.016
 1107SOL    HW2 4221   0.412   0.860   0.023
 1108SOL     OW 4222   2.832   6.293   4.103
 1108SOL    HW1 4223   2.735   6.293   4.077
 1108SOL    HW2 4224   2.886   6.333   4.028
 1109SOL     OW 4225   5.492   1.632   4.679
 1109SOL    HW1 4226   5.430   1.706   4.654
 1109SOL    HW2 4227   5.544   1.657   4.760
 1110SOL     OW 4228   3.447   0.411   2.548
 1110SOL    HW1 4229   3.395   0.474   2.491
 1110SOL    HW2 4230   3.491   0.461   2.622
 1111SOL     OW 4231   4.796   3.629   6.164
 1111SOL    HW1 4232   4.873   3.644   6.103
 1111SOL    HW2 4233   4.826   3.638   6.259
 1112SOL     OW 4234   5.756   0.524   2.296
 1112SOL    HW1 4235   5.781   0.443   2.349
 1112SOL    HW2 4236   5.657   0.531   2.290
 1113SOL     OW 4237   6.173   4.585   2.533
 1113SOL    HW1 4238   6.215   4.654   2.474
 1113SOL    HW2 4239   6.101   4.628   2.587
 1114SOL     OW 4240   4.528   3.003   5.620
 1114SOL    HW1 4241   4.560   3.089   5.582
 1114SOL    HW2 4242   4.490   2.946   5.548
 1115SOL     OW 4243   2.786   4.011   6.093
 1115SOL    HW1 4244   2.756   4.045   6.004
 1115SOL    HW2 4245   2.716   3.952   6.133
 1116SOL     OW 4246   4.806   0.595   6.267
 1116SOL    HW1 4247   4.717   0.552   6.259
 1116SOL    HW2 4248   4.836   0.593   6.363
 1117SOL     OW 4249   1.051   2.786   1.713
 1117SOL    HW1 4250   1.091   2.860   1.660
 1117SOL    HW2 4251   0.957   2.771   1.684
 1118SOL     OW 4252   3.348   4.989   0.130
 1118SOL    HW1 4253   3.296   5.071   0.155
 1118SOL    HW2 4254   3.289   4.909   0.139
 1119SOL     OW 4255   4.218   5.002   3.540
 1119SOL    HW1 4256   4.206   5.029   3.636
 1119SOL    HW2 4257   4.136   4.956   3.508
 1120SOL     OW 4258   6.809   5.632   0.951
 1120SOL    HW1 4259   6.908   5.644   0.946
 1120SOL    HW2 4260   6.785   5.593   1.040
 1121SOL     OW 4261   0.484   4.542   4.343
 1121SOL    HW1 4262   0.447   4.629   4.310
 1121SOL    HW2 4263   0.580   4.553   4.369
 1122SOL     OW 4264   5.712   2.587   1.819
 1122SOL    HW1 4265   5.685   2.525   1.893
 1122SOL    HW2 4266   5.791   2.548   1.772
 1123SOL     OW 4267   4.059   2.229   3.133
 1123SOL    HW1 4268   4.004   2.307   3.104
 1123SOL    HW2 4269   4.054   2.158   3.062
 1124SOL     OW 4270   2.253   2.906   4.810
 1124SOL    HW1 4271   2.173   2.850   4.832
 1124SOL    HW2 4272   2.302   2.929   4.895
 1125SOL     OW 4273   1.178   3.810   4.189
 1125SOL    HW1 4274   1.172   3.753   4.107
 1125SOL    HW2 4275   1.145   3.902   4.168
 1126SOL     OW 4276   4.201   5.653   5.289
 1126SOL    HW1 4277   4.156   5.719   5.230
 1126SOL    HW2 4278   4.141   5.630   5.366
 1127SOL     OW 4279   5.383   5.869   3.314
 1127SOL    HW1 4280   5.481   5.869   3.332
 1127SOL    HW2 4281   5.349   5.963   3.311
 1128SOL     OW 4282   6.354   1.359   3.285
 1128SOL    HW1 4283   6.277   1.353   3.349
 1128SOL    HW2 4284   6.320   1.356   3.191
 1129SOL     OW 4285   1.878   0.513   1.138
 1129SOL    HW1 4286   1.823   0.488   1.059
 1129SOL    HW2 4287   1.919   0.431   1.178
 1130SOL     OW 4288   2.147   5.356   3.281
 1130SOL    HW1 4289   2.224   5.299   3.311
 1130SOL    HW2 4290   2.122   5.331   3.187
 1131SOL     OW 4291   1.312   6.607   4.320
 1131SOL    HW1 4292   1.313   6.507   4.315
 1131SOL    HW2 4293   1.406   6.641   4.328
 1132SOL     OW 4294   3.945   1.122   3.042
 1132SOL    HW1 4295   3.973   1.215   3.066
 1132SOL    HW2 4296   3.922   1.118   2.945
 1133SOL     OW 4297   0.694   6.523   5.134
 1133SOL    HW1 4298   0.598   6.508   5.159
 1133SOL    HW2 4299   0.740   6.434   5.128
 1134SOL     OW 4300   4.240   7.014   1.465
 1134SOL    HW1 4301   4.291   6.982   1.545
 1134SOL    HW2 4302   4.224   0.088   1.474
 1135SOL     OW 4303   1.733   5.940   3.802
 1135SOL    HW1 4304   1.666   5.906   3.869
 1135SOL    HW2 4305   1.746   6.038   3.815
 1136SOL     OW 4306   3.051   5.736   2.256
 1136SOL    HW1 4307   2.960   5.708   2.286
 1136SOL    HW2 4308   3.043   5.811   2.190
 1137SOL     OW 4309   0.382   5.647   6.589
 1137SOL    HW1 4310   0.329   5.570   6.555
 1137SOL    HW2 4311   0.480   5.626   6.584
 1138SOL     OW 4312   2.170   3.054   5.162
 1138SOL    HW1 4313   2.248   3.013   5.115
 1138SOL    HW2 4314   2.203   3.108   5.240
 1139SOL     OW 4315   3.032   5.084   4.385
 1139SOL    HW1 4316   3.088   5.006   4.356
 1139SOL    HW2 4317   3.032   5.154   4.314
 1140SOL     OW 4318   1.737   1.268   2.137
 1140SOL    HW1 4319   1.668   1.341   2.142
 1140SOL    HW2 4320   1.693   1.180   2.150
 1141SOL     OW 4321   6.060   4.971   5.660
 1141SOL    HW1 4322   5.981   4.931   5.707
 1141SOL    HW2 4323   6.078   5.062   5.697
 1142SOL     OW 4324   2.615   0.045   3.041
 1142SOL    HW1 4325   2.682   0.103   2.994
 1142SOL    HW2 4326   2.597   6.988   2.985
 1143SOL     OW 4327   0.777   3.960   1.859
 1143SOL    HW1 4328   0.801   3.948   1.762
 1143SOL    HW2 4329   0.715   3.887   1.887
 1144SOL     OW 4330   5.707   4.310   2.098
 1144SOL    HW1 4331   5.726   4.240   2.167
 1144SOL    HW2 4332   5.628   4.364   2.125
 1145SOL     OW 4333   0.928   1.909   0.005
 1145SOL    HW1 4334   0.918   1.866   6.940
 1145SOL    HW2 4335   1.024   1.932   0.021
 1146SOL     OW 4336   0.493   1.320   1.558
 1146SOL    HW1 4337   0.480   1.265   1.640
 1146SOL    HW2 4338   0.539   1.406   1.582
 1147SOL     OW 4339   3.152   6.204   1.221
 1147SOL    HW1 4340   3.156   6.257   1.136
 1147SOL    HW2 4341   3.100   6.120   1.205
 1148SOL     OW 4342   3.885   6.260   2.141
 1148SOL    HW1 4343   3.968   6.254   2.197
 1148SOL    HW2 4344   3.810   6.294   2.198
 1149SOL     OW 4345   5.250   2.188   1.541
 1149SOL    HW1 4346   5.339   2.233   1.546
 1149SOL    HW2 4347   5.183   2.249   1.499
 1150SOL     OW 4348   1.195   4.257   0.023
 1150SOL    HW1 4349   1.152   4.274   6.960
 1150SOL    HW2 4350   1.126   4.260   0.096
 1151SOL     OW 4351   6.635   5.151   3.586
 1151SOL    HW1 4352   6.703   5.078   3.596
 1151SOL    HW2 4353   6.544   5.112   3.573
 1152SOL     OW 4354   5.061   0.485   6.674
 1152SOL    HW1 4355   5.077   0.388   6.656
 1152SOL    HW2 4356   4.963   0.505   6.668
 1153SOL     OW 4357   6.150   6.984   1.414
 1153SOL    HW1 4358   6.250   6.988   1.423
 1153SOL    HW2 4359   6.126   6.919   1.343
 1154SOL     OW 4360   1.512   3.414   2.024
 1154SOL    HW1 4361   1.489   3.317   2.020
 1154SOL    HW2 4362   1.544   3.436   2.116
 1155SOL     OW 4363   2.518   6.729   4.566
 1155SOL    HW1 4364   2.566   6.696   4.647
 1155SOL    HW2 4365   2.563   6.812   4.532
 1156SOL     OW 4366   4.119   1.568   4.984
 1156SOL    HW1 4367   4.067   1.492   4.944
 1156SOL    HW2 4368   4.107   1.650   4.928
 1157SOL     OW 4369   4.047   0.374   5.878
 1157SOL    HW1 4370   3.991   0.317   5.938
 1157SOL    HW2 4371   4.009   0.371   5.785
 1158SOL     OW 4372   6.120   5.804   3.152
 1158SOL    HW1 4373   6.033   5.818   3.106
 1158SOL    HW2 4374   6.190   5.861   3.108
 1159SOL     OW 4375   6.663   6.166   2.929
 1159SOL    HW1 4376   6.571   6.206   2.922
 1159SOL    HW2 4377   6.667   6.083   2.874
 1160SOL     OW 4378   4.489   0.138   0.383
 1160SOL    HW1 4379   4.452   0.135   0.291
 1160SOL    HW2 4380   4.584   0.106   0.382
 1161SOL     OW 4381   0.164   5.425   0.049
 1161SOL    HW1 4382   0.199   5.377   6.993
 1161SOL    HW2 4383   0.229   5.494   0.078
 1162SOL     OW 4384   2.031   2.819   5.368
 1162SOL    HW1 4385   2.043   2.820   5.467
 1162SOL    HW2 4386   1.934   2.832   5.346
 1163SOL     OW 4387   5.981   4.524   1.590
 1163SOL    HW1 4388   5.946   4.534   1.683
 1163SOL    HW2 4389   6.057   4.459   1.589
 1164SOL     OW 4390   4.920   1.785   4.083
 1164SOL    HW1 4391   4.867   1.848   4.140
 1164SOL    HW2 4392   4.925   1.696   4.128
 1165SOL     OW 4393   3.916   6.232   3.548
 1165SOL    HW1 4394   4.014   6.248   3.539
 1165SOL    HW2 4395   3.886   6.262   3.639
 1166SOL     OW 4396   2.372   6.176   6.732
 1166SOL    HW1 4397   2.403   6.082   6.720
 1166SOL    HW2 4398   2.429   6.238   6.678
 1167SOL     OW 4399   5.244   4.446   2.483
 1167SOL    HW1 4400   5.221   4.451   2.580
 1167SOL    HW2 4401   5.174   4.394   2.434
 1168SOL     OW 4402   5.916   2.477   2.796
 1168SOL    HW1 4403   6.012   2.452   2.796
 1168SOL    HW2 4404   5.860   2.395   2.810
 1169SOL     OW 4405   5.372   0.853   5.000
 1169SOL    HW1 4406   5.394   0.927   5.064
 1169SOL    HW2 4407   5.436   0.777   5.014
 1170SOL     OW 4408   4.836   6.917   3.540
 1170SOL    HW1 4409   4.746   6.888   3.571
 1170SOL    HW2 4410   4.838   7.016   3.529
 1171SOL     OW 4411   1.300   0.690   1.039
 1171SOL    HW1 4412   1.323   0.702   0.942
 1171SOL    HW2 4413   1.299   0.592   1.060
 1172SOL     OW 4414   6.698   4.073   6.927
 1172SOL    HW1 4415   6.733   4.005   6.992
 1172SOL    HW2 4416   6.753   4.072   6.844
 1173SOL     OW 4417   2.820   1.204   1.453
 1173SOL    HW1 4418   2.821   1.275   1.524
 1173SOL    HW2 4419   2.908   1.155   1.453
 1174SOL     OW 4420   3.843   3.766   1.339
 1174SOL    HW1 4421   3.823   3.712   1.421
 1174SOL    HW2 4422   3.759   3.807   1.304
 1175SOL     OW 4423   3.920   3.135   5.022
 1175SOL    HW1 4424   3.962   3.226   5.022
 1175SOL    HW2 4425   3.953   3.083   4.943
 1176SOL     OW 4426   5.239   3.808   6.276
 1176SOL    HW1 4427   5.164   3.868   6.307
 1176SOL    HW2 4428   5.203   3.717   6.259
 1177SOL     OW 4429   6.351   2.270   4.687
 1177SOL    HW1 4430   6.256   2.252   4.712
 1177SOL    HW2 4431   6.360   2.366   4.660
 1178SOL     OW 4432   3.138   4.734   0.455
 1178SOL    HW1 4433   3.233   4.705   0.445
 1178SOL    HW2 4434   3.124   4.771   0.547
 1179SOL     OW 4435   2.586   5.616   0.331
 1179SOL    HW1 4436   2.621   5.637   0.423
 1179SOL    HW2 4437   2.486   5.611   0.334
 1180SOL     OW 4438   2.906   5.979   0.815
 1180SOL    HW1 4439   2.865   5.954   0.728
 1180SOL    HW2 4440   2.959   6.063   0.804
 1181SOL     OW 4441   0.627   5.560   6.538
 1181SOL    HW1 4442   0.692   5.636   6.526
 1181SOL    HW2 4443   0.658   5.482   6.485
 1182SOL     OW 4444   3.471   5.454   2.856
 1182SOL    HW1 4445   3.461   5.527   2.923
 1182SOL    HW2 4446   3.563   5.457   2.816
 1183SOL     OW 4447   1.664   4.111   6.703
 1183SOL    HW1 4448   1.639   4.069   6.616
 1183SOL    HW2 4449   1.606   4.190   6.720
 1184SOL     OW 4450   1.180   0.082   5.157
 1184SOL    HW1 4451   1.099   0.140   5.151
 1184SOL    HW2 4452   1.261   0.134   5.130
 1185SOL     OW 4453   6.685   1.351   6.782
 1185SOL    HW1 4454   6.761   1.414   6.800
 1185SOL    HW2 4455   6.711   1.287   6.709
 1186SOL     OW 4456   4.877   5.808   4.232
 1186SOL    HW1 4457   4.977   5.808   4.226
 1186SOL    HW2 4458   4.842   5.896   4.198
 1187SOL     OW 4459   6.698   0.010   6.179
 1187SOL    HW1 4460   6.717   0.055   6.092
 1187SOL    HW2 4461   6.627   6.965   6.166
 1188SOL     OW 4462   2.855   6.383   4.599
 1188SOL    HW1 4463   2.860   6.316   4.525
 1188SOL    HW2 4464   2.947   6.403   4.633
 1189SOL     OW 4465   6.607   3.562   2.977
 1189SOL    HW1 4466   6.615   3.506   3.059
 1189SOL    HW2 4467   6.529   3.624   2.985
 1190SOL     OW 4468   1.896   6.163   3.411
 1190SOL    HW1 4469   1.864   6.070   3.429
 1190SOL    HW2 4470   1.991   6.160   3.382
 1191SOL     OW 4471   4.017   5.348   3.101
 1191SOL    HW1 4472   3.970   5.300   3.028
 1191SOL    HW2 4473   4.038   5.284   3.175
 1192SOL     OW 4474   3.840   5.792   3.000
 1192SOL    HW1 4475   3.847   5.885   2.963
 1192SOL    HW2 4476   3.852   5.726   2.925
 1193SOL     OW 4477   6.085   4.451   4.516
 1193SOL    HW1 4478   6.129   4.414   4.599
 1193SOL    HW2 4479   5.995   4.410   4.506
 1194SOL     OW 4480   5.458   0.459   1.283
 1194SOL    HW1 4481   5.482   0.546   1.327
 1194SOL    HW2 4482   5.392   0.476   1.210
 1195SOL     OW 4483   6.240   4.402   1.948
 1195SOL    HW1 4484   6.294   4.366   2.025
 1195SOL    HW2 4485   6.157   4.348   1.939
 1196SOL     OW 4486   6.919   6.659   3.767
 1196SOL    HW1 4487   6.885   6.565   3.778
 1196SOL    HW2 4488   6.966   6.687   3.850
 1197SOL     OW 4489   3.432   0.847   6.969
 1197SOL    HW1 4490   3.484   0.924   7.007
 1197SOL    HW2 4491   3.442   0.767   0.005
 1198SOL     OW 4492   1.546   2.447   0.950
 1198SOL    HW1 4493   1.638   2.483   0.935
 1198SOL    HW2 4494   1.553   2.355   0.990
 1199SOL     OW 4495   4.831   5.176   1.524
 1199SOL    HW1 4496   4.812   5.130   1.611
 1199SOL    HW2 4497   4.829   5.275   1.537
 1200SOL     OW 4498   3.381   3.264   2.924
 1200SOL    HW1 4499   3.357   3.302   2.835
 1200SOL    HW2 4500   3.346   3.170   2.931
 1201SOL     OW 4501   1.345   1.278   4.894
 1201SOL    HW1 4502   1.378   1.344   4.961
 1201SOL    HW2 4503   1.376   1.305   4.802
 1202SOL     OW 4504   1.016   5.484   6.636
 1202SOL    HW1 4505   1.020   5.570   6.586
 1202SOL    HW2 4506   1.070   5.415   6.588
 1203SOL     OW 4507   4.706   5.762   6.124
 1203SOL    HW1 4508   4.779   5.704   6.088
 1203SOL    HW2 4509   4.671   5.821   6.052
 1204SOL     OW 4510   2.607   0.427   1.485
 1204SOL    HW1 4511   2.512   0.400   1.470
 1204SOL    HW2 4512   2.664   0.346   1.496
 1205SOL     OW 4513   5.069   3.964   1.750
 1205SOL    HW1 4514   5.109   3.873   1.757
 1205SOL    HW2 4515   4.985   3.960   1.696
 1206SOL     OW 4516   3.128   3.093   4.664
 1206SOL    HW1 4517   3.157   3.030   4.736
 1206SOL    HW2 4518   3.127   3.186   4.701
 1207SOL     OW 4519   2.734   6.908   1.712
 1207SOL    HW1 4520   2.785   6.945   1.635
 1207SOL    HW2 4521   2.669   6.839   1.680
 1208SOL     OW 4522   3.601   4.204   0.131
 1208SOL    HW1 4523   3.701   4.208   0.134
 1208SOL    HW2 4524   3.565   4.288   0.091
 1209SOL     OW 4525   3.664   0.424   5.271
 1209SOL    HW1 4526   3.736   0.451   5.334
 1209SOL    HW2 4527   3.627   0.335   5.299
 1210SOL     OW 4528   2.823   6.846   3.813
 1210SOL    HW1 4529   2.858   6.841   3.906
 1210SOL    HW2 4530   2.761   6.924   3.804
 1211SOL     OW 4531   0.923   3.866   1.141
 1211SOL    HW1 4532   0.913   3.824   1.051
 1211SOL    HW2 4533   0.900   3.963   1.135
 1212SOL     OW 4534   0.362   0.233   6.708
 1212SOL    HW1 4535   0.378   0.152   6.652
 1212SOL    HW2 4536   0.382   0.315   6.655
 1213SOL     OW 4537   6.222   2.792   0.545
 1213SOL    HW1 4538   6.130   2.806   0.581
 1213SOL    HW2 4539   6.219   2.781   0.446
 1214SOL     OW 4540   0.080   1.777   0.850
 1214SOL    HW1 4541   0.023   1.858   0.862
 1214SOL    HW2 4542   0.170   1.793   0.890
 1215SOL     OW 4543   1.565   4.493   4.306
 1215SOL    HW1 4544   1.608   4.583   4.311
 1215SOL    HW2 4545   1.618   4.434   4.244
 1216SOL     OW 4546   4.348   0.578   0.081
 1216SOL    HW1 4547   4.393   0.597   7.018
 1216SOL    HW2 4548   4.298   0.659   0.111
 1217SOL     OW 4549   1.978   4.773   0.689
 1217SOL    HW1 4550   1.992   4.674   0.687
 1217SOL    HW2 4551   1.923   4.800   0.610
 1218SOL     OW 4552   0.917   4.887   4.146
 1218SOL    HW1 4553   0.922   4.956   4.074
 1218SOL    HW2 4554   0.923   4.796   4.105
 1219SOL     OW 4555   4.686   6.135   1.919
 1219SOL    HW1 4556   4.620   6.156   1.991
 1219SOL    HW2 4557   4.641   6.137   1.830
 1220SOL     OW 4558   1.278   5.008   2.925
 1220SOL    HW1 4559   1.284   5.085   2.861
 1220SOL    HW2 4560   1.205   4.946   2.896
 1221SOL     OW 4561   5.603   3.140   5.474
 1221SOL    HW1 4562   5.681   3.078   5.466
 1221SOL    HW2 4563   5.552   3.118   5.558
 1222SOL     OW 4564   6.333   6.817   6.688
 1222SOL    HW1 4565   6.403   6.784   6.751
 1222SOL    HW2 4566   6.246   6.827   6.737
 1223SOL     OW 4567   3.775   6.938   0.448
 1223SOL    HW1 4568   3.844   6.971   0.513
 1223SOL    HW2 4569   3.791   6.981   0.359
 1224SOL     OW 4570   2.589   0.254   1.138
 1224SOL    HW1 4571   2.547   0.324   1.079
 1224SOL    HW2 4572   2.532   0.241   1.219
 1225SOL     OW 4573   3.304   3.955   6.193
 1225SOL    HW1 4574   3.288   3.868   6.240
 1225SOL    HW2 4575   3.402   3.968   6.181
 1226SOL     OW 4576   2.027   4.513   1.431
 1226SOL    HW1 4577   2.024   4.542   1.527
 1226SOL    HW2 4578   2.099   4.444   1.419
 1227SOL     OW 4579   6.844   3.645   6.870
 1227SOL    HW1 4580   6.879   3.561   6.912
 1227SOL    HW2 4581   6.820   3.711   6.941
 1228SOL     OW 4582   3.509   2.709   6.445
 1228SOL    HW1 4583   3.418   2.691   6.409
 1228SOL    HW2 4584   3.536   2.635   6.507
 1229SOL     OW 4585   4.231   4.783   6.514
 1229SOL    HW1 4586   4.147   4.795   6.460
 1229SOL    HW2 4587   4.303   4.746   6.456
 1230SOL     OW 4588   4.409   7.005   3.733
 1230SOL    HW1 4589   4.362   0.017   3.813
 1230SOL    HW2 4590   4.352   7.017   3.652
 1231SOL     OW 4591   2.119   3.447   4.951
 1231SOL    HW1 4592   2.090   3.537   4.921
 1231SOL    HW2 4593   2.166   3.455   5.039
 1232SOL     OW 4594   1.265   2.681   5.133
 1232SOL    HW1 4595   1.321   2.658   5.213
 1232SOL    HW2 4596   1.312   2.653   5.050
 1233SOL     OW 4597   1.075   2.517   5.634
 1233SOL    HW1 4598   1.090   2.616   5.645
 1233SOL    HW2 4599   1.158   2.468   5.659
 1234SOL     OW 4600   6.567   4.413   4.220
 1234SOL    HW1 4601   6.485   4.362   4.194
 1234SOL    HW2 4602   6.644   4.384   4.162
 1235SOL     OW 4603   6.340   5.512   2.972
 1235SOL    HW1 4604   6.399   5.467   2.905
 1235SOL    HW2 4605   6.389   5.588   3.014
 1236SOL     OW 4606   4.950   0.913   6.480
 1236SOL    HW1 4607   5.022   0.977   6.505
 1236SOL    HW2 4608   4.948   0.903   6.380
 1237SOL     OW 4609   2.652   4.947   6.301
 1237SOL    HW1 4610   2.560   4.924   6.268
 1237SOL    HW2 4611   2.644   4.990   6.391
 1238SOL     OW 4612   2.048   1.254   1.293
 1238SOL    HW1 4613   2.014   1.209   1.210
 1238SOL    HW2 4614   2.070   1.349   1.271
 1239SOL     OW 4615   6.848   6.115   6.782
 1239SOL    HW1 4616   6.798   6.081   6.703
 1239SOL    HW2 4617   6.921   6.051   6.806
 1240SOL     OW 4618   5.488   5.947   1.553
 1240SOL    HW1 4619   5.482   6.025   1.615
 1240SOL    HW2 4620   5.396   5.914   1.532
 1241SOL     OW 4621   6.426   3.318   4.458
 1241SOL    HW1 4622   6.471   3.246   4.404
 1241SOL    HW2 4623   6.492   3.356   4.523
 1242SOL     OW 4624   1.611   3.351   0.646
 1242SOL    HW1 4625   1.597   3.448   0.663
 1242SOL    HW2 4626   1.688   3.318   0.701
 1243SOL     OW 4627   2.071   5.432   5.079
 1243SOL    HW1 4628   2.002   5.390   5.020
 1243SOL    HW2 4629   2.097   5.521   5.041
 1244SOL     OW 4630   0.518   0.865   3.403
 1244SOL    HW1 4631   0.445   0.912   3.353
 1244SOL    HW2 4632   0.569   0.806   3.340
 1245SOL     OW 4633   3.146   3.510   0.240
 1245SOL    HW1 4634   3.202   3.592   0.234
 1245SOL    HW2 4635   3.179   3.442   0.175
 1246SOL     OW 4636   2.526   6.895   1.973
 1246SOL    HW1 4637   2.572   6.808   1.959
 1246SOL    HW2 4638   2.464   6.888   2.051
 1247SOL     OW 4639   2.426   6.562   6.460
 1247SOL    HW1 4640   2.503   6.619   6.431
 1247SOL    HW2 4641   2.353   6.621   6.496
 1248SOL     OW 4642   1.429   5.901   3.084
 1248SOL    HW1 4643   1.394   5.995   3.084
 1248SOL    HW2 4644   1.529   5.904   3.082
 1249SOL     OW 4645   6.028   3.405   3.259
 1249SOL    HW1 4646   6.022   3.406   3.359
 1249SOL    HW2 4647   5.941   3.372   3.221
 1250SOL     OW 4648   1.302   4.835   3.969
 1250SOL    HW1 4649   1.296   4.823   3.870
 1250SOL    HW2 4650   1.261   4.756   4.015
 1251SOL     OW 4651   3.935   0.791   4.385
 1251SOL    HW1 4652   3.957   0.836   4.298
 1251SOL    HW2 4653   3.861   0.840   4.430
 1252SOL     OW 4654   3.123   3.903   5.854
 1252SOL    HW1 4655   3.042   3.890   5.797
 1252SOL    HW2 4656   3.103   3.970   5.926
 1253SOL     OW 4657   3.630   5.375   2.475
 1253SOL    HW1 4658   3.620   5.300   2.409
 1253SOL    HW2 4659   3.691   5.445   2.437
 1254SOL     OW 4660   6.176   1.996   2.930
 1254SOL    HW1 4661   6.090   2.039   2.957
 1254SOL    HW2 4662   6.158   1.927   2.860
 1255SOL     OW 4663   0.314   0.166   6.030
 1255SOL    HW1 4664   0.248   0.167   5.954
 1255SOL    HW2 4665   0.294   0.089   6.090
 1256SOL     OW 4666   6.460   0.164   3.107
 1256SOL    HW1 4667   6.365   0.188   3.127
 1256SOL    HW2 4668   6.515   0.248   3.103
 1257SOL     OW 4669   6.969   0.685   3.375
 1257SOL    HW1 4670   7.018   0.657   3.458
 1257SOL    HW2 4671   6.873   0.656   3.381
 1258SOL     OW 4672   0.625   6.605   3.060
 1258SOL    HW1 4673   0.679   6.537   3.010
 1258SOL    HW2 4674   0.666   6.622   3.149
 1259SOL     OW 4675   4.306   1.965   4.990
 1259SOL    HW1 4676   4.392   1.939   4.945
 1259SOL    HW2 4677   4.231   1.911   4.953
 1260SOL     OW 4678   1.109   1.271   0.061
 1260SOL    HW1 4679   1.203   1.302   0.072
 1260SOL    HW2 4680   1.048   1.324   0.120
 1261SOL     OW 4681   0.545   5.457   0.550
 1261SOL    HW1 4682   0.527   5.397   0.472
 1261SOL    HW2 4683   0.532   5.552   0.523
 1262SOL     OW 4684   5.284   5.506   1.859
 1262SOL    HW1 4685   5.373   5.478   1.824
 1262SOL    HW2 4686   5.257   5.444   1.933
 1263SOL     OW 4687   1.079   2.173   3.441
 1263SOL    HW1 4688   1.015   2.243   3.409
 1263SOL    HW2 4689   1.167   2.185   3.395
 1264SOL     OW 4690   0.946   3.134   5.729
 1264SOL    HW1 4691   0.973   3.076   5.653
 1264SOL    HW2 4692   1.026   3.177   5.769
 1265SOL     OW 4693   5.885   5.903   5.272
 1265SOL    HW1 4694   5.903   6.000   5.263
 1265SOL    HW2 4695   5.909   5.856   5.187
 1266SOL     OW 4696   1.485   0.505   4.991
 1266SOL    HW1 4697   1.521   0.553   4.911
 1266SOL    HW2 4698   1.546   0.521   5.069
 1267SOL     OW 4699   4.669   0.238   2.279
 1267SOL    HW1 4700   4.640   0.249   2.375
 1267SOL    HW2 4701   4.768   0.246   2.274
 1268SOL     OW 4702   4.289   2.469   5.449
 1268SOL    HW1 4703   4.287   2.374   5.479
 1268SOL    HW2 4704   4.237   2.479   5.364
 1269SOL     OW 4705   6.310   2.362   3.555
 1269SOL    HW1 4706   6.241   2.312   3.607
 1269SOL    HW2 4707   6.289   2.355   3.457
 1270SOL     OW 4708   0.983   4.758   2.581
 1270SOL    HW1 4709   0.888   4.727   2.580
 1270SOL    HW2 4710   1.003   4.801   2.669
 1271SOL     OW 4711   1.420   1.533   1.570
 1271SOL    HW1 4712   1.471   1.562   1.488
 1271SOL    HW2 4713   1.328   1.506   1.544
 1272SOL     OW 4714   6.934   4.187   0.147
 1272SOL    HW1 4715   6.940   4.214   0.243
 1272SOL    HW2 4716   7.012   4.129   0.124
 1273SOL     OW 4717   1.371   4.170   4.948
 1273SOL    HW1 4718   1.394   4.238   4.878
 1273SOL    HW2 4719   1.451   4.112   4.966
 1274SOL     OW 4720   0.824   4.963   2.190
 1274SOL    HW1 4721   0.725   4.962   2.208
 1274SOL    HW2 4722   0.864   4.878   2.224
 1275SOL     OW 4723   2.928   0.596   3.034
 1275SOL    HW1 4724   2.983   0.521   2.996
 1275SOL    HW2 4725   2.898   0.572   3.126
 1276SOL     OW 4726   5.105   4.558   4.264
 1276SOL    HW1 4727   5.111   4.623   4.189
 1276SOL    HW2 4728   5.194   4.551   4.310
 1277SOL     OW 4729   0.059   5.991   6.862
 1277SOL    HW1 4730   0.141   5.993   6.804
 1277SOL    HW2 4731   0.039   5.897   6.888
 1278SOL     OW 4732   1.423   6.071   2.765
 1278SOL    HW1 4733   1.429   6.149   2.702
 1278SOL    HW2 4734   1.411   6.104   2.858
 1279SOL     OW 4735   2.846   2.320   6.520
 1279SOL    HW1 4736   2.863   2.386   6.446
 1279SOL    HW2 4737   2.794   2.365   6.593
 1280SOL     OW 4738   3.184   1.306   3.301
 1280SOL    HW1 4739   3.113   1.259   3.248
 1280SOL    HW2 4740   3.227   1.242   3.365
 1281SOL     OW 4741   3.799   5.965   4.009
 1281SOL    HW1 4742   3.776   6.012   4.094
 1281SOL    HW2 4743   3.897   5.947   4.005
 1282SOL     OW 4744   6.808   2.805   0.701
 1282SOL    HW1 4745   6.867   2.788   0.780
 1282SOL    HW2 4746   6.714   2.821   0.733
 1283SOL     OW 4747   5.985   3.324   5.192
 1283SOL    HW1 4748   5.921   3.253   5.161
 1283SOL    HW2 4749   6.014   3.379   5.114
 1284SOL     OW 4750   3.976   1.848   1.284
 1284SOL    HW1 4751   4.059   1.796   1.260
 1284SOL    HW2 4752   3.946   1.820   1.375
 1285SOL     OW 4753   3.559   1.321   4.590
 1285SOL    HW1 4754   3.568   1.302   4.687
 1285SOL    HW2 4755   3.533   1.238   4.541
 1286SOL     OW 4756   4.602   2.109   1.999
 1286SOL    HW1 4757   4.640   2.040   2.061
 1286SOL    HW2 4758   4.510   2.134   2.030
 1287SOL     OW 4759   6.567   4.197   4.872
 1287SOL    HW1 4760   6.643   4.131   4.873
 1287SOL    HW2 4761   6.521   4.195   4.961
 1288SOL     OW 4762   4.454   3.948   6.711
 1288SOL    HW1 4763   4.527   3.902   6.662
 1288SOL    HW2 4764   4.471   4.047   6.711
 1289SOL     OW 4765   0.147   0.477   2.073
 1289SOL    HW1 4766   0.076   0.439   2.133
 1289SOL    HW2 4767   0.107   0.496   1.983
 1290SOL     OW 4768   1.074   0.089   6.640
 1290SOL    HW1 4769   1.088   0.122   6.734
 1290SOL    HW2 4770   0.976   0.076   6.624
 1291SOL     OW 4771   6.773   5.192   2.562
 1291SOL    HW1 4772   6.734   5.284   2.560
 1291SOL    HW2 4773   6.801   5.170   2.655
 1292SOL     OW 4774   0.902   5.798   2.212
 1292SOL    HW1 4775   0.872   5.822   2.120
 1292SOL    HW2 4776   0.881   5.702   2.230
 1293SOL     OW 4777   2.979   1.121   6.674
 1293SOL    HW1 4778   2.945   1.035   6.710
 1293SOL    HW2 4779   2.931   1.143   6.589
 1294SOL     OW 4780   1.989   4.083   5.517
 1294SOL    HW1 4781   2.006   4.178   5.493
 1294SOL    HW2 4782   1.893   4.071   5.541
 1295SOL     OW 4783   7.010   3.400   1.229
 1295SOL    HW1 4784   0.003   3.481   1.172
 1295SOL    HW2 4785   0.035   3.321   1.190
 1296SOL     OW 4786   5.533   6.784   6.286
 1296SOL    HW1 4787   5.542   6.733   6.200
 1296SOL    HW2 4788   5.577   6.733   6.360
 1297SOL     OW 4789   0.345   0.273   2.484
 1297SOL    HW1 4790   0.421   0.214   2.511
 1297SOL    HW2 4791   0.303   0.312   2.566
 1298SOL     OW 4792   5.639   5.517   2.155
 1298SOL    HW1 4793   5.655   5.463   2.238
 1298SOL    HW2 4794   5.719   5.511   2.096
 1299SOL     OW 4795   1.832   3.408   4.530
 1299SOL    HW1 4796   1.897   3.475   4.565
 1299SOL    HW2 4797   1.772   3.452   4.462
 1300SOL     OW 4798   1.461   4.383   1.054
 1300SOL    HW1 4799   1.517   4.466   1.057
 1300SOL    HW2 4800   1.522   4.303   1.057
 1301SOL     OW 4801   0.983   1.001   1.575
 1301SOL    HW1 4802   0.923   0.979   1.652
 1301SOL    HW2 4803   0.929   1.009   1.491
 1302SOL     OW 4804   5.367   6.065   6.000
 1302SOL    HW1 4805   5.441   6.004   6.029
 1302SOL    HW2 4806   5.385   6.100   5.908
 1303SOL     OW 4807   4.358   6.599   1.549
 1303SOL    HW1 4808   4.299   6.518   1.559
 1303SOL    HW2 4809   4.365   6.646   1.636
 1304SOL     OW 4810   0.508   0.758   1.164
 1304SOL    HW1 4811   0.534   0.743   1.068
 1304SOL    HW2 4812   0.429   0.819   1.168
 1305SOL     OW 4813   5.565   3.934   0.253
 1305SOL    HW1 4814   5.522   3.849   0.283
 1305SOL    HW2 4815   5.515   3.971   0.175
 1306SOL     OW 4816   1.748   5.432   4.617
 1306SOL    HW1 4817   1.772   5.497   4.689
 1306SOL    HW2 4818   1.657   5.452   4.581
 1307SOL     OW 4819   2.163   2.366   3.944
 1307SOL    HW1 4820   2.144   2.308   4.024
 1307SOL    HW2 4821   2.077   2.394   3.902
 1308SOL     OW 4822   6.676   5.361   6.001
 1308SOL    HW1 4823   6.726   5.309   5.931
 1308SOL    HW2 4824   6.741   5.412   6.057
 1309SOL     OW 4825   5.505   4.561   6.319
 1309SOL    HW1 4826   5.571   4.628   6.353
 1309SOL    HW2 4827   5.461   4.515   6.396
 1310SOL     OW 4828   1.014   4.042   4.160
 1310SOL    HW1 4829   0.987   4.104   4.086
 1310SOL    HW2 4830   1.070   4.092   4.226
 1311SOL     OW 4831   6.845   5.470   0.040
 1311SOL    HW1 4832   6.945   5.468   0.028
 1311SOL    HW2 4833   6.802   5.496   6.978
 1312SOL     OW 4834   1.733   0.509   5.877
 1312SOL    HW1 4835   1.647   0.457   5.877
 1312SOL    HW2 4836   1.718   0.598   5.921
 1313SOL     OW 4837   6.513   5.189   2.920
 1313SOL    HW1 4838   6.522   5.211   3.017
 1313SOL    HW2 4839   6.560   5.103   2.901
 1314SOL     OW 4840   2.788   1.779   4.795
 1314SOL    HW1 4841   2.749   1.776   4.887
 1314SOL    HW2 4842   2.761   1.865   4.750
 1315SOL     OW 4843   5.521   0.245   4.275
 1315SOL    HW1 4844   5.593   0.250   4.206
 1315SOL    HW2 4845   5.463   0.326   4.269
 1316SOL     OW 4846   4.216   0.662   5.014
 1316SOL    HW1 4847   4.177   0.729   4.951
 1316SOL    HW2 4848   4.226   0.574   4.967
 1317SOL     OW 4849   2.661   3.155   5.629
 1317SOL    HW1 4850   2.727   3.107   5.687
 1317SOL    HW2 4851   2.651   3.249   5.660
 1318SOL     OW 4852   1.989   2.757   6.814
 1318SOL    HW1 4853   1.956   2.671   6.775
 1318SOL    HW2 4854   2.081   2.777   6.780
 1319SOL     OW 4855   6.886   6.414   0.568
 1319SOL    HW1 4856   6.801   6.368   0.541
 1319SOL    HW2 4857   6.872   6.461   0.655
 1320SOL     OW 4858   3.299   2.992   6.299
 1320SOL    HW1 4859   3.273   2.896   6.285
 1320SOL    HW2 4860   3.346   3.026   6.218
 1321SOL     OW 4861   5.648   2.316   6.425
 1321SOL    HW1 4862   5.730   2.353   6.381
 1321SOL    HW2 4863   5.628   2.225   6.387
 1322SOL     OW 4864   3.321   1.143   6.723
 1322SOL    HW1 4865   3.269   1.115   6.804
 1322SOL    HW2 4866   3.334   1.063   6.663
 1323SOL     OW 4867   3.541   0.382   0.514
 1323SOL    HW1 4868   3.512   0.451   0.447
 1323SOL    HW2 4869   3.488   0.298   0.500
 1324SOL     OW 4870   1.027   3.540   0.089
 1324SOL    HW1 4871   1.099   3.481   0.125
 1324SOL    HW2 4872   1.049   3.636   0.108
 1325SOL     OW 4873   2.393   5.769   6.255
 1325SOL    HW1 4874   2.308   5.766   6.203
 1325SOL    HW2 4875   2.382   5.831   6.333
 1326SOL     OW 4876   4.771   4.116   3.868
 1326SOL    HW1 4877   4.761   4.152   3.961
 1326SOL    HW2 4878   4.789   4.018   3.872
 1327SOL     OW 4879   0.334   6.643   0.963
 1327SOL    HW1 4880   0.410   6.613   0.905
 1327SOL    HW2 4881   0.327   6.582   1.042
 1328SOL     OW 4882   0.946   3.377   5.974
 1328SOL    HW1 4883   0.876   3.444   5.950
 1328SOL    HW2 4884   1.017   3.422   6.028
 1329SOL     OW 4885   0.162   2.764   3.573
 1329SOL    HW1 4886   0.071   2.731   3.596
 1329SOL    HW2 4887   0.160   2.864   3.567
 1330SOL     OW 4888   6.747   2.206   0.757
 1330SOL    HW1 4889   6.679   2.202   0.684
 1330SOL    HW2 4890   6.704   2.186   0.845
 1331SOL     OW 4891   4.247   1.825   2.465
 1331SOL    HW1 4892   4.186   1.845   2.541
 1331SOL    HW2 4893   4.326   1.773   2.497
 1332SOL     OW 4894   2.012   0.528   0.604
 1332SOL    HW1 4895   2.050   0.437   0.590
 1332SOL    HW2 4896   2.079   0.597   0.575
 1333SOL     OW 4897   3.369   4.062   2.740
 1333SOL    HW1 4898   3.454   4.072   2.689
 1333SOL    HW2 4899   3.292   4.060   2.676
 1334SOL     OW 4900   6.982   1.705   2.651
 1334SOL    HW1 4901   6.999   1.760   2.732
 1334SOL    HW2 4902   6.949   1.615   2.678
 1335SOL     OW 4903   1.897   4.247   1.469
 1335SOL    HW1 4904   1.930   4.342   1.464
 1335SOL    HW2 4905   1.882   4.213   1.376
 1336SOL     OW 4906   3.797   0.587   5.512
 1336SOL    HW1 4907   3.710   0.624   5.544
 1336SOL    HW2 4908   3.860   0.662   5.492
 1337SOL     OW 4909   6.386   1.463   3.623
 1337SOL    HW1 4910   6.315   1.480   3.554
 1337SOL    HW2 4911   6.392   1.542   3.684
 1338SOL     OW 4912   6.041   3.723   4.473
 1338SOL    HW1 4913   6.133   3.742   4.507
 1338SOL    HW2 4914   6.025   3.624   4.476
 1339SOL     OW 4915   0.297   0.396   6.459
 1339SOL    HW1 4916   0.321   0.376   6.364
 1339SOL    HW2 4917   0.207   0.359   6.479
 1340SOL     OW 4918   5.418   1.509   1.874
 1340SOL    HW1 4919   5.401   1.547   1.783
 1340SOL    HW2 4920   5.508   1.540   1.907
 1341SOL     OW 4921   4.646   6.822   6.467
 1341SOL    HW1 4922   4.705   6.870   6.402
 1341SOL    HW2 4923   4.701   6.759   6.521
 1342SOL     OW 4924   3.066   5.973   1.145
 1342SOL    HW1 4925   2.974   5.946   1.117
 1342SOL    HW2 4926   3.127   5.894   1.144
 1343SOL     OW 4927   5.498   5.466   2.687
 1343SOL    HW1 4928   5.569   5.430   2.747
 1343SOL    HW2 4929   5.419   5.405   2.689
 1344SOL     OW 4930   0.114   6.937   4.467
 1344SOL    HW1 4931   0.199   6.883   4.469
 1344SOL    HW2 4932   0.131   7.023   4.419
 1345SOL     OW 4933   0.429   5.335   1.945
 1345SOL    HW1 4934   0.479   5.258   1.904
 1345SOL    HW2 4935   0.426   5.411   1.880
 1346SOL     OW 4936   2.470   5.187   5.752
 1346SOL    HW1 4937   2.402   5.132   5.704
 1346SOL    HW2 4938   2.530   5.127   5.805
 1347SOL     OW 4939   1.582   0.338   0.043
 1347SOL    HW1 4940   1.591   0.296   0.134
 1347SOL    HW2 4941   1.544   0.271   7.004
 1348SOL     OW 4942   6.960   6.333   5.091
 1348SOL    HW1 4943   6.991   6.393   5.165
 1348SOL    HW2 4944   6.860   6.334   5.087
 1349SOL     OW 4945   5.313   4.115   3.817
 1349SOL    HW1 4946   5.216   4.140   3.821
 1349SOL    HW2 4947   5.328   4.033   3.872
 1350SOL     OW 4948   3.510   3.962   0.271
 1350SOL    HW1 4949   3.519   4.034   0.203
 1350SOL    HW2 4950   3.508   4.003   0.363
 1351SOL     OW 4951   6.803   2.827   4.804
 1351SOL    HW1 4952   6.746   2.751   4.835
 1351SOL    HW2 4953   6.745   2.895   4.758
 1352SOL     OW 4954   6.999   6.931   2.771
 1352SOL    HW1 4955   7.017   6.870   2.694
 1352SOL    HW2 4956   6.901   6.938   2.786
 1353SOL     OW 4957   0.907   1.719   1.003
 1353SOL    HW1 4958   0.850   1.765   0.936
 1353SOL    HW2 4959   0.850   1.673   1.071
 1354SOL     OW 4960   6.170   4.189   2.155
 1354SOL    HW1 4961   6.205   4.113   2.210
 1354SOL    HW2 4962   6.117   4.250   2.213
 1355SOL     OW 4963   6.233   3.434   4.646
 1355SOL    HW1 4964   6.237   3.517   4.591
 1355SOL    HW2 4965   6.305   3.371   4.616
 1356SOL     OW 4966   3.524   2.992   1.813
 1356SOL    HW1 4967   3.471   2.909   1.798
 1356SOL    HW2 4968   3.553   2.997   1.908
 1357SOL     OW 4969   6.726   3.333   5.447
 1357SOL    HW1 4970   6.809   3.369   5.490
 1357SOL    HW2 4971   6.647   3.351   5.506
 1358SOL     OW 4972   1.142   6.582   7.016
 1358SOL    HW1 4973   1.134   6.682   7.023
 1358SOL    HW2 4974   1.166   6.557   6.922
 1359SOL     OW 4975   6.393   4.440   1.723
 1359SOL    HW1 4976   6.338   4.433   1.807
 1359SOL    HW2 4977   6.350   4.386   1.651
 1360SOL     OW 4978   2.964   2.545   6.409
 1360SOL    HW1 4979   3.008   2.562   6.321
 1360SOL    HW2 4980   2.991   2.617   6.473
 1361SOL     OW 4981   0.030   4.264   4.276
 1361SOL    HW1 4982   0.085   4.240   4.196
 1361SOL    HW2 4983   6.962   4.230   4.265
 1362SOL     OW 4984   3.690   3.003   2.708
 1362SOL    HW1 4985   3.769   2.965   2.754
 1362SOL    HW2 4986   3.608   2.952   2.735
 1363SOL     OW 4987   0.210   5.589   5.666
 1363SOL    HW1 4988   0.129   5.605   5.610
 1363SOL    HW2 4989   0.273   5.667   5.657
 1364SOL     OW 4990   4.418   4.429   0.652
 1364SOL    HW1 4991   4.511   4.465   0.638
 1364SOL    HW2 4992   4.376   4.473   0.731
 1365SOL     OW 4993   0.716   3.405   6.858
 1365SOL    HW1 4994   0.704   3.319   6.907
 1365SOL    HW2 4995   0.702   3.389   6.760
 1366SOL     OW 4996   1.676   0.118   5.189
 1366SOL    HW1 4997   1.762   0.166   5.173
 1366SOL    HW2 4998   1.652   0.065   5.107
 1367SOL     OW 4999   2.527   0.819   2.345
 1367SOL    HW1 5000   2.461   0.880   2.390
 1367SOL    HW2 5001   2.617   0.863   2.345
 1368SOL     OW 5002   6.165   6.559   4.711
 1368SOL    HW1 5003   6.248   6.599   4.749
 1368SOL    HW2 5004   6.189   6.494   4.639
 1369SOL     OW 5005   1.117   0.534   3.485
 1369SOL    HW1 5006   1.033   0.556   3.435
 1369SOL    HW2 5007   1.166   0.461   3.438
 1370SOL     OW 5008   2.879   0.963   1.731
 1370SOL    HW1 5009   2.922   1.053   1.733
 1370SOL    HW2 5010   2.795   0.967   1.678
 1371SOL     OW 5011   3.451   0.576   5.952
 1371SOL    HW1 5012   3.412   0.563   6.043
 1371SOL    HW2 5013   3.543   0.537   5.950
 1372SOL     OW 5014   2.682   2.015   2.301
 1372SOL    HW1 5015   2.603   1.968   2.263
 1372SOL    HW2 5016   2.689   2.106   2.261
 1373SOL     OW 5017   0.667   5.987   0.859
 1373SOL    HW1 5018   0.678   5.891   0.834
 1373SOL    HW2 5019   0.616   6.034   0.788
 1374SOL     OW 5020   4.301   2.333   0.290
 1374SOL    HW1 5021   4.205   2.320   0.315
 1374SOL    HW2 5022   4.330   2.425   0.314
 1375SOL     OW 5023   0.134   4.373   6.079
 1375SOL    HW1 5024   0.169   4.458   6.119
 1375SOL    HW2 5025   0.191   4.348   6.000
 1376SOL     OW 5026   5.036   2.598   2.759
 1376SOL    HW1 5027   5.052   2.564   2.666
 1376SOL    HW2 5028   4.945   2.571   2.789
 1377SOL     OW 5029   0.162   5.398   5.058
 1377SOL    HW1 5030   0.136   5.413   5.153
 1377SOL    HW2 5031   0.242   5.337   5.054
 1378SOL     OW 5032   1.318   2.496   0.286
 1378SOL    HW1 5033   1.261   2.501   0.204
 1378SOL    HW2 5034   1.377   2.576   0.290
 1379SOL     OW 5035   4.184   6.159   2.369
 1379SOL    HW1 5036   4.178   6.062   2.392
 1379SOL    HW2 5037   4.221   6.210   2.447
 1380SOL     OW 5038   6.460   6.632   2.965
 1380SOL    HW1 5039   6.533   6.700   2.955
 1380SOL    HW2 5040   6.452   6.606   3.062
 1381SOL     OW 5041   6.276   1.705   0.820
 1381SOL    HW1 5042   6.336   1.706   0.899
 1381SOL    HW2 5043   6.270   1.797   0.781
 1382SOL     OW 5044   5.358   4.403   6.539
 1382SOL    HW1 5045   5.430   4.456   6.584
 1382SOL    HW2 5046   5.356   4.311   6.579
 1383SOL     OW 5047   2.629   0.053   0.975
 1383SOL    HW1 5048   2.613   0.134   1.031
 1383SOL    HW2 5049   2.680   0.078   0.893
 1384SOL     OW 5050   3.017   2.142   2.665
 1384SOL    HW1 5051   2.940   2.092   2.626
 1384SOL    HW2 5052   3.092   2.145   2.599
 1385SOL     OW 5053   6.960   3.152   2.864
 1385SOL    HW1 5054   6.928   3.113   2.950
 1385SOL    HW2 5055   6.932   3.248   2.859
 1386SOL     OW 5056   1.995   2.252   4.161
 1386SOL    HW1 5057   1.903   2.264   4.124
 1386SOL    HW2 5058   1.996   2.277   4.257
 1387SOL     OW 5059   2.367   0.169   5.334
 1387SOL    HW1 5060   2.308   0.234   5.286
 1387SOL    HW2 5061   2.459   0.172   5.296
 1388SOL     OW 5062   6.297   1.060   4.189
 1388SOL    HW1 5063   6.231   1.133   4.205
 1388SOL    HW2 5064   6.283   0.987   4.255
 1389SOL     OW 5065   5.599   0.432   4.675
 1389SOL    HW1 5066   5.563   0.366   4.741
 1389SOL    HW2 5067   5.632   0.384   4.594
 1390SOL     OW 5068   4.767   2.534   2.796
 1390SOL    HW1 5069   4.707   2.569   2.724
 1390SOL    HW2 5070   4.721   2.543   2.885
 1391SOL     OW 5071   5.028   0.648   4.728
 1391SOL    HW1 5072   4.999   0.727   4.782
 1391SOL    HW2 5073   4.948   0.591   4.708
 1392SOL     OW 5074   4.536   5.487   6.398
 1392SOL    HW1 5075   4.604   5.478   6.326
 1392SOL    HW2 5076   4.539   5.580   6.435
 1393SOL     OW 5077   6.181   0.713   0.065
 1393SOL    HW1 5078   6.158   0.765   0.147
 1393SOL    HW2 5079   6.246   0.766   0.009
 1394SOL     OW 5080   4.735   6.369   4.079
 1394SOL    HW1 5081   4.769   6.454   4.038
 1394SOL    HW2 5082   4.635   6.372   4.083
 1395SOL     OW 5083   1.495   5.130   2.216
 1395SOL    HW1 5084   1.486   5.223   2.179
 1395SOL    HW2 5085   1.478   5.063   2.143
 1396SOL     OW 5086   1.956   1.626   4.022
 1396SOL    HW1 5087   1.864   1.612   4.059
 1396SOL    HW2 5088   2.001   1.700   4.071
 1397SOL     OW 5089   6.884   5.244   4.648
 1397SOL    HW1 5090   6.897   5.150   4.617
 1397SOL    HW2 5091   6.792   5.253   4.688
 1398SOL     OW 5092   0.319   0.469   0.513
 1398SOL    HW1 5093   0.356   0.377   0.505
 1398SOL    HW2 5094   0.221   0.468   0.495
 1399SOL     OW 5095   4.269   0.415   0.376
 1399SOL    HW1 5096   4.172   0.430   0.353
 1399SOL    HW2 5097   4.323   0.415   0.292
 1400SOL     OW 5098   6.499   0.198   5.130
 1400SOL    HW1 5099   6.578   0.214   5.071
 1400SOL    HW2 5100   6.446   0.120   5.094
 1401SOL     OW 5101   5.345   0.306   3.484
 1401SOL    HW1 5102   5.351   0.279   3.388
 1401SOL    HW2 5103   5.364   0.227   3.542
 1402SOL     OW 5104   0.055   4.698   1.890
 1402SOL    HW1 5105   7.003   4.762   1.899
 1402SOL    HW2 5106   0.135   4.735   1.936
 1403SOL     OW 5107   2.645   2.962   6.368
 1403SOL    HW1 5108   2.574   3.024   6.401
 1403SOL    HW2 5109   2.700   3.009   6.299
 1404SOL     OW 5110   4.368   6.801   0.284
 1404SOL    HW1 5111   4.310   6.794   0.366
 1404SOL    HW2 5112   4.447   6.741   0.294
 1405SOL     OW 5113   1.029   3.650   1.244
 1405SOL    HW1 5114   0.948   3.674   1.191
 1405SOL    HW2 5115   1.048   3.553   1.234
 1406SOL     OW 5116   2.645   3.142   1.062
 1406SOL    HW1 5117   2.600   3.095   0.985
 1406SOL    HW2 5118   2.680   3.074   1.126
 1407SOL     OW 5119   0.401   3.209   1.005
 1407SOL    HW1 5120   0.376   3.304   0.984
 1407SOL    HW2 5121   0.427   3.202   1.101
 1408SOL     OW 5122   6.072   6.404   0.799
 1408SOL    HW1 5123   5.988   6.456   0.784
 1408SOL    HW2 5124   6.093   6.401   0.897
 1409SOL     OW 5125   6.574   1.779   5.617
 1409SOL    HW1 5126   6.577   1.679   5.617
 1409SOL    HW2 5127   6.522   1.810   5.537
 1410SOL     OW 5128   4.191   1.168   5.919
 1410SOL    HW1 5129   4.189   1.267   5.903
 1410SOL    HW2 5130   4.133   1.123   5.852
 1411SOL     OW 5131   3.532   5.259   7.010
 1411SOL    HW1 5132   3.441   5.237   6.973
 1411SOL    HW2 5133   3.576   5.327   6.952
 1412SOL     OW 5134   2.435   3.433   0.212
 1412SOL    HW1 5135   2.515   3.378   0.234
 1412SOL    HW2 5136   2.392   3.397   0.129
 1413SOL     OW 5137   1.241   1.637   5.049
 1413SOL    HW1 5138   1.144   1.649   5.027
 1413SOL    HW2 5139   1.291   1.720   5.025
 1414SOL     OW 5140   1.542   4.095   2.598
 1414SOL    HW1 5141   1.599   4.166   2.640
 1414SOL    HW2 5142   1.450   4.131   2.580
 1415SOL     OW 5143   2.325   1.842   4.600
 1415SOL    HW1 5144   2.350   1.793   4.683
 1415SOL    HW2 5145   2.316   1.777   4.524
 1416SOL     OW 5146   4.412   0.546   4.714
 1416SOL    HW1 5147   4.466   0.544   4.798
 1416SOL    HW2 5148   4.322   0.587   4.733
 1417SOL     OW 5149   3.515   2.998   5.858
 1417SOL    HW1 5150   3.470   2.923   5.809
 1417SOL    HW2 5151   3.462   3.082   5.845
 1418SOL     OW 5152   3.613   4.691   5.777
 1418SOL    HW1 5153   3.526   4.662   5.818
 1418SOL    HW2 5154   3.645   4.621   5.714
 1419SOL     OW 5155   2.097   5.302   2.571
 1419SOL    HW1 5156   2.056   5.213   2.550
 1419SOL    HW2 5157   2.063   5.333   2.660
 1420SOL     OW 5158   2.752   6.429   3.180
 1420SOL    HW1 5159   2.716   6.403   3.270
 1420SOL    HW2 5160   2.837   6.480   3.192
 1421SOL     OW 5161   1.163   4.715   5.362
 1421SOL    HW1 5162   1.200   4.712   5.269
 1421SOL    HW2 5163   1.092   4.645   5.372
 1422SOL     OW 5164   2.074   3.938   6.063
 1422SOL    HW1 5165   2.135   3.897   5.994
 1422SOL    HW2 5166   2.087   3.891   6.150
 1423SOL     OW 5167   4.485   0.469   5.047
 1423SOL    HW1 5168   4.457   0.553   5.092
 1423SOL    HW2 5169   4.585   0.462   5.049
 1424SOL     OW 5170   6.452   2.922   0.194
 1424SOL    HW1 5171   6.370   2.977   0.174
 1424SOL    HW2 5172   6.496   2.956   0.277
 1425SOL     OW 5173   5.081   6.324   3.374
 1425SOL    HW1 5174   5.002   6.283   3.329
 1425SOL    HW2 5175   5.065   6.422   3.386
 1426SOL     OW 5176   3.454   2.163   0.263
 1426SOL    HW1 5177   3.447   2.230   0.336
 1426SOL    HW2 5178   3.504   2.202   0.186
 1427SOL     OW 5179   1.857   0.570   4.016
 1427SOL    HW1 5180   1.954   0.567   4.039
 1427SOL    HW2 5181   1.827   0.666   4.009
 1428SOL     OW 5182   0.943   3.030   3.961
 1428SOL    HW1 5183   0.893   3.048   3.876
 1428SOL    HW2 5184   0.929   3.105   4.025
 1429SOL     OW 5185   6.355   1.032   1.239
 1429SOL    HW1 5186   6.272   1.029   1.184
 1429SOL    HW2 5187   6.370   1.126   1.273
 1430SOL     OW 5188   2.125   3.628   4.099
 1430SOL    HW1 5189   2.082   3.670   4.178
 1430SOL    HW2 5190   2.124   3.528   4.110
 1431SOL     OW 5191   2.450   1.459   6.767
 1431SOL    HW1 5192   2.381   1.390   6.743
 1431SOL    HW2 5193   2.408   1.549   6.769
 1432SOL     OW 5194   3.054   0.284   2.345
 1432SOL    HW1 5195   3.026   0.364   2.292
 1432SOL    HW2 5196   3.009   0.203   2.309
 1433SOL     OW 5197   2.177   0.318   3.955
 1433SOL    HW1 5198   2.156   0.415   3.970
 1433SOL    HW2 5199   2.250   0.290   4.018
 1434SOL     OW 5200   0.139   3.234   0.692
 1434SOL    HW1 5201   0.070   3.221   0.763
 1434SOL    HW2 5202   0.159   3.147   0.648
 1435SOL     OW 5203   1.760   6.870   4.215
 1435SOL    HW1 5204   1.817   6.871   4.133
 1435SOL    HW2 5205   1.813   6.905   4.292
 1436SOL     OW 5206   5.496   1.863   6.943
 1436SOL    HW1 5207   5.496   1.948   6.890
 1436SOL    HW2 5208   5.410   1.856   6.994
 1437SOL     OW 5209   3.703   0.484   6.003
 1437SOL    HW1 5210   3.787   0.537   6.014
 1437SOL    HW2 5211   3.711   0.398   6.053
 1438SOL     OW 5212   2.883   0.287   1.974
 1438SOL    HW1 5213   2.829   0.355   2.025
 1438SOL    HW2 5214   2.822   0.219   1.935
 1439SOL     OW 5215   0.111   4.705   0.080
 1439SOL    HW1 5216   0.029   4.649   0.085
 1439SOL    HW2 5217   0.097   4.779   0.014
 1440SOL     OW 5218   3.785   3.349   3.116
 1440SOL    HW1 5219   3.808   3.445   3.100
 1440SOL    HW2 5220   3.758   3.306   3.029
 1441SOL     OW 5221   6.471   2.996   3.998
 1441SOL    HW1 5222   6.458   3.049   4.082
 1441SOL    HW2 5223   6.427   2.907   4.007
 1442SOL     OW 5224   5.645   5.821   0.173
 1442SOL    HW1 5225   5.690   5.848   0.258
 1442SOL    HW2 5226   5.707   5.836   0.096
 1443SOL     OW 5227   0.511   2.942   2.711
 1443SOL    HW1 5228   0.465   2.983   2.790
 1443SOL    HW2 5229   0.543   3.014   2.650
 1444SOL     OW 5230   4.674   0.967   3.964
 1444SOL    HW1 5231   4.733   0.955   3.884
 1444SOL    HW2 5232   4.596   0.905   3.957
 1445SOL     OW 5233   6.380   2.014   0.968
 1445SOL    HW1 5234   6.438   2.002   1.049
 1445SOL    HW2 5235   6.290   2.046   0.996
 1446SOL     OW 5236   4.143   0.519   1.432
 1446SOL    HW1 5237   4.222   0.579   1.440
 1446SOL    HW2 5238   4.068   0.555   1.487
 1447SOL     OW 5239   5.983   0.952   5.585
 1447SOL    HW1 5240   5.936   0.898   5.515
 1447SOL    HW2 5241   6.056   0.897   5.626
 1448SOL     OW 5242   5.427   0.603   6.473
 1448SOL    HW1 5243   5.333   0.610   6.440
 1448SOL    HW2 5244   5.426   0.582   6.571
 1449SOL     OW 5245   4.441   5.726   1.327
 1449SOL    HW1 5246   4.471   5.821   1.324
 1449SOL    HW2 5247   4.507   5.672   1.379
 1450SOL     OW 5248   5.755   2.642   3.814
 1450SOL    HW1 5249   5.824   2.595   3.759
 1450SOL    HW2 5250   5.706   2.707   3.758
 1451SOL     OW 5251   1.778   6.709   2.781
 1451SOL    HW1 5252   1.771   6.744   2.688
 1451SOL    HW2 5253   1.867   6.732   2.820
 1452SOL     OW 5254   4.497   1.041   5.166
 1452SOL    HW1 5255   4.475   0.949   5.135
 1452SOL    HW2 5256   4.413   1.091   5.185
 1453SOL     OW 5257   5.244   4.434   4.724
 1453SOL    HW1 5258   5.207   4.417   4.815
 1453SOL    HW2 5259   5.186   4.500   4.676
 1454SOL     OW 5260   4.268   3.711   1.457
 1454SOL    HW1 5261   4.360   3.673   1.466
 1454SOL    HW2 5262   4.273   3.811   1.461
 1455SOL     OW 5263   1.912   2.686   1.695
 1455SOL    HW1 5264   1.972   2.640   1.760
 1455SOL    HW2 5265   1.847   2.743   1.745
 1456SOL     OW 5266   6.587   5.813   3.678
 1456SOL    HW1 5267   6.641   5.882   3.630
 1456SOL    HW2 5268   6.648   5.745   3.718
 1457SOL     OW 5269   1.820   0.191   3.204
 1457SOL    HW1 5270   1.862   0.178   3.294
 1457SOL    HW2 5271   1.736   0.138   3.199
 1458SOL     OW 5272   6.287   5.241   6.937
 1458SOL    HW1 5273   6.190   5.265   6.939
 1458SOL    HW2 5274   6.334   5.287   7.013
 1459SOL     OW 5275   2.321   0.196   0.830
 1459SOL    HW1 5276   2.348   0.118   0.887
 1459SOL    HW2 5277   2.354   0.280   0.871
 1460SOL     OW 5278   0.845   6.607   0.101
 1460SOL    HW1 5279   0.899   6.572   0.023
 1460SOL    HW2 5280   0.877   6.564   0.185
 1461SOL     OW 5281   5.469   5.112   1.582
 1461SOL    HW1 5282   5.458   5.121   1.483
 1461SOL    HW2 5283   5.396   5.056   1.619
 1462SOL     OW 5284   4.995   0.474   5.811
 1462SOL    HW1 5285   5.023   0.398   5.753
 1462SOL    HW2 5286   5.049   0.475   5.895
 1463SOL     OW 5287   0.655   1.072   4.983
 1463SOL    HW1 5288   0.624   1.096   4.891
 1463SOL    HW2 5289   0.577   1.046   5.040
 1464SOL     OW 5290   0.121   6.374   0.748
 1464SOL    HW1 5291   0.217   6.399   0.761
 1464SOL    HW2 5292   0.064   6.431   0.807
 1465SOL     OW 5293   0.304   0.029   4.827
 1465SOL    HW1 5294   0.365   7.000   4.769
 1465SOL    HW2 5295   0.209   0.012   4.801
 1466SOL     OW 5296   5.907   5.219   3.854
 1466SOL    HW1 5297   5.895   5.223   3.755
 1466SOL    HW2 5298   5.884   5.127   3.887
 1467SOL     OW 5299   0.091   3.198   3.296
 1467SOL    HW1 5300   0.185   3.167   3.308
 1467SOL    HW2 5301   0.083   3.293   3.326
 1468SOL     OW 5302   5.651   5.998   3.053
 1468SOL    HW1 5303   5.625   6.002   3.149
 1468SOL    HW2 5304   5.703   6.079   3.029
 1469SOL     OW 5305   0.304   1.081   2.734
 1469SOL    HW1 5306   0.296   0.997   2.681
 1469SOL    HW2 5307   0.355   1.149   2.682
 1470SOL     OW 5308   0.066   0.932   3.341
 1470SOL    HW1 5309   0.159   0.910   3.312
 1470SOL    HW2 5310   0.021   0.849   3.374
 1471SOL     OW 5311   6.869   0.165   6.936
 1471SOL    HW1 5312   6.837   0.179   6.842
 1471SOL    HW2 5313   6.967   0.144   6.934
 1472SOL     OW 5314   4.621   0.279   5.236
 1472SOL    HW1 5315   4.643   0.264   5.333
 1472SOL    HW2 5316   4.528   0.313   5.227
 1473SOL     OW 5317   6.028   4.358   3.826
 1473SOL    HW1 5318   5.968   4.377   3.748
 1473SOL    HW2 5319   6.029   4.437   3.887
 1474SOL     OW 5320   4.776   5.626   3.641
 1474SOL    HW1 5321   4.775   5.685   3.560
 1474SOL    HW2 5322   4.787   5.531   3.613
 1475SOL     OW 5323   0.328   0.844   2.587
 1475SOL    HW1 5324   0.415   0.887   2.561
 1475SOL    HW2 5325   0.272   0.829   2.506
 1476SOL     OW 5326   6.268   1.746   1.721
 1476SOL    HW1 5327   6.200   1.717   1.654
 1476SOL    HW2 5328   6.332   1.672   1.738
 1477SOL     OW 5329   2.850   6.159   3.505
 1477SOL    HW1 5330   2.901   6.131   3.587
 1477SOL    HW2 5331   2.889   6.244   3.469
 1478SOL     OW 5332   6.704   4.652   1.576
 1478SOL    HW1 5333   6.716   4.626   1.672
 1478SOL    HW2 5334   6.606   4.656   1.555
 1479SOL     OW 5335   1.665   5.337   0.541
 1479SOL    HW1 5336   1.728   5.262   0.562
 1479SOL    HW2 5337   1.658   5.398   0.619
 1480SOL     OW 5338   2.743   1.081   0.089
 1480SOL    HW1 5339   2.763   1.172   0.051
 1480SOL    HW2 5340   2.653   1.052   0.059
 1481SOL     OW 5341   6.139   2.091   6.159
 1481SOL    HW1 5342   6.096   2.110   6.071
 1481SOL    HW2 5343   6.089   2.139   6.231
 1482SOL     OW 5344   5.683   0.525   6.396
 1482SOL    HW1 5345   5.742   0.570   6.330
 1482SOL    HW2 5346   5.591   0.565   6.392
 1483SOL     OW 5347   6.025   2.226   6.352
 1483SOL    HW1 5348   5.963   2.296   6.317
 1483SOL    HW2 5349   6.000   2.204   6.446
 1484SOL     OW 5350   6.299   5.981   3.003
 1484SOL    HW1 5351   6.217   5.996   2.947
 1484SOL    HW2 5352   6.339   6.069   3.027
 1485SOL     OW 5353   5.139   3.245   3.911
 1485SOL    HW1 5354   5.119   3.152   3.943
 1485SOL    HW2 5355   5.190   3.240   3.825
 1486SOL     OW 5356   4.830   2.384   2.340
 1486SOL    HW1 5357   4.846   2.356   2.245
 1486SOL    HW2 5358   4.749   2.443   2.344
 1487SOL     OW 5359   6.201   1.563   5.322
 1487SOL    HW1 5360   6.212   1.476   5.273
 1487SOL    HW2 5361   6.148   1.548   5.405
 1488SOL     OW 5362   3.953   1.839   3.042
 1488SOL    HW1 5363   3.859   1.808   3.056
 1488SOL    HW2 5364   3.954   1.914   2.976
 1489SOL     OW 5365   3.925   5.832   5.087
 1489SOL    HW1 5366   4.011   5.874   5.115
 1489SOL    HW2 5367   3.892   5.875   5.002
 1490SOL     OW 5368   2.098   2.737   0.690
 1490SOL    HW1 5369   2.172   2.759   0.626
 1490SOL    HW2 5370   2.136   2.690   0.770
 1491SOL     OW 5371   0.420   2.917   4.944
 1491SOL    HW1 5372   0.348   2.966   4.895
 1491SOL    HW2 5373   0.388   2.894   5.036
 1492SOL     OW 5374   5.473   2.569   2.423
 1492SOL    HW1 5375   5.548   2.503   2.431
 1492SOL    HW2 5376   5.463   2.597   2.328
 1493SOL     OW 5377   4.801   0.482   4.953
 1493SOL    HW1 5378   4.734   0.555   4.938
 1493SOL    HW2 5379   4.855   0.470   4.870
 1494SOL     OW 5380   5.429   3.031   5.664
 1494SOL    HW1 5381   5.359   3.054   5.732
 1494SOL    HW2 5382   5.499   2.974   5.707
 1495SOL     OW 5383   2.246   3.012   2.751
 1495SOL    HW1 5384   2.287   2.924   2.772
 1495SOL    HW2 5385   2.191   3.042   2.829
 1496SOL     OW 5386   0.977   1.241   2.619
 1496SOL    HW1 5387   1.014   1.186   2.693
 1496SOL    HW2 5388   1.037   1.233   2.539
 1497SOL     OW 5389   5.782   5.000   5.311
 1497SOL    HW1 5390   5.728   4.917   5.326
 1497SOL    HW2 5391   5.731   5.079   5.345
 1498SOL     OW 5392   2.446   6.327   0.684
 1498SOL    HW1 5393   2.521   6.385   0.651
 1498SOL    HW2 5394   2.420   6.356   0.776
 1499SOL     OW 5395   0.359   4.481   5.427
 1499SOL    HW1 5396   0.356   4.517   5.334
 1499SOL    HW2 5397   0.399   4.390   5.427
 1500SOL     OW 5398   4.842   6.919   5.920
 1500SOL    HW1 5399   4.891   6.922   5.833
 1500SOL    HW2 5400   4.786   7.001   5.930
 1501SOL     OW 5401   3.941   7.004   6.502
 1501SOL    HW1 5402   4.013   6.936   6.497
 1501SOL    HW2 5403   3.882   6.985   6.580
 1502SOL     OW 5404   6.510   5.989   6.950
 1502SOL    HW1 5405   6.548   5.898   6.940
 1502SOL    HW2 5406   6.420   5.984   6.994
 1503SOL     OW 5407   2.842   3.345   6.053
 1503SOL    HW1 5408   2.892   3.406   6.114
 1503SOL    HW2 5409   2.876   3.355   5.959
 1504SOL     OW 5410   2.249   5.851   4.458
 1504SOL    HW1 5411   2.312   5.802   4.519
 1504SOL    HW2 5412   2.233   5.943   4.494
 1505SOL     OW 5413   4.978   5.287   0.473
 1505SOL    HW1 5414   5.014   5.298   0.380
 1505SOL    HW2 5415   4.899   5.227   0.472
 1506SOL     OW 5416   0.605   5.702   3.695
 1506SOL    HW1 5417   0.568   5.625   3.643
 1506SOL    HW2 5418   0.704   5.707   3.681
 1507SOL     OW 5419   1.644   1.432   6.609
 1507SOL    HW1 5420   1.733   1.397   6.581
 1507SOL    HW2 5421   1.636   1.529   6.583
 1508SOL     OW 5422   5.134   0.074   0.258
 1508SOL    HW1 5423   5.034   0.069   0.260
 1508SOL    HW2 5424   5.172   7.017   0.301
 1509SOL     OW 5425   5.076   2.218   0.244
 1509SOL    HW1 5426   5.087   2.213   0.343
 1509SOL    HW2 5427   5.162   2.195   0.200
 1510SOL     OW 5428   7.012   1.497   3.778
 1510SOL    HW1 5429   7.013   1.419   3.715
 1510SOL    HW2 5430   0.077   1.505   3.821
 1511SOL     OW 5431   1.996   2.595   1.058
 1511SOL    HW1 5432   2.090   2.576   1.031
 1511SOL    HW2 5433   1.996   2.665   1.130
 1512SOL     OW 5434   6.472   0.499   2.245
 1512SOL    HW1 5435   6.386   0.507   2.195
 1512SOL    HW2 5436   6.547   0.532   2.188
 1513SOL     OW 5437   3.660   1.263   2.069
 1513SOL    HW1 5438   3.688   1.167   2.074
 1513SOL    HW2 5439   3.632   1.285   1.975
 1514SOL     OW 5440   5.273   1.701   5.133
 1514SOL    HW1 5441   5.304   1.607   5.118
 1514SOL    HW2 5442   5.188   1.701   5.184
 1515SOL     OW 5443   6.952   4.491   4.525
 1515SOL    HW1 5444   6.898   4.416   4.486
 1515SOL    HW2 5445   7.008   4.532   4.454
 1516SOL     OW 5446   1.132   1.883   1.010
 1516SOL    HW1 5447   1.124   1.965   1.066
 1516SOL    HW2 5448   1.041   1.844   0.995
 1517SOL     OW 5449   3.783   5.385   3.326
 1517SOL    HW1 5450   3.754   5.480   3.319
 1517SOL    HW2 5451   3.733   5.329   3.260
 1518SOL     OW 5452   0.900   4.778   0.866
 1518SOL    HW1 5453   0.804   4.753   0.858
 1518SOL    HW2 5454   0.945   4.715   0.930
 1519SOL     OW 5455   6.728   4.734   0.778
 1519SOL    HW1 5456   6.634   4.766   0.782
 1519SOL    HW2 5457   6.741   4.661   0.846
 1520SOL     OW 5458   1.502   3.501   3.309
 1520SOL    HW1 5459   1.429   3.433   3.316
 1520SOL    HW2 5460   1.564   3.476   3.235
 1521SOL     OW 5461   2.489   4.243   5.987
 1521SOL    HW1 5462   2.498   4.316   6.055
 1521SOL    HW2 5463   2.542   4.266   5.906
 1522SOL     OW 5464   6.261   2.336   6.420
 1522SOL    HW1 5465   6.164   2.317   6.402
 1522SOL    HW2 5466   6.308   2.251   6.444
 1523SOL     OW 5467   0.123   1.516   0.723
 1523SOL    HW1 5468   0.150   1.449   0.792
 1523SOL    HW2 5469   0.112   1.605   0.767
 1524SOL     OW 5470   0.022   0.927   2.625
 1524SOL    HW1 5471   0.007   0.830   2.605
 1524SOL    HW2 5472   0.074   0.936   2.710
 1525SOL     OW 5473   4.443   2.098   6.212
 1525SOL    HW1 5474   4.529   2.048   6.204
 1525SOL    HW2 5475   4.457   2.181   6.266
 1526SOL     OW 5476   0.234   2.036   1.717
 1526SOL    HW1 5477   0.204   2.081   1.801
 1526SOL    HW2 5478   0.303   2.092   1.672
 1527SOL     OW 5479   2.841   1.207   5.442
 1527SOL    HW1 5480   2.752   1.163   5.435
 1527SOL    HW2 5481   2.837   1.298   5.402
 1528SOL     OW 5482   5.350   6.420   3.418
 1528SOL    HW1 5483   5.315   6.328   3.437
 1528SOL    HW2 5484   5.282   6.488   3.445
 1529SOL     OW 5485   2.787   0.657   6.054
 1529SOL    HW1 5486   2.807   0.755   6.060
 1529SOL    HW2 5487   2.842   0.616   5.981
 1530SOL     OW 5488   3.768   6.332   1.655
 1530SOL    HW1 5489   3.828   6.305   1.730
 1530SOL    HW2 5490   3.693   6.266   1.647
 1531SOL     OW 5491   0.047   7.002   4.780
 1531SOL    HW1 5492   0.030   0.072   4.752
 1531SOL    HW2 5493   7.013   6.979   4.857
 1532SOL     OW 5494   3.211   1.543   5.123
 1532SOL    HW1 5495   3.217   1.521   5.026
 1532SOL    HW2 5496   3.271   1.620   5.143
 1533SOL     OW 5497   6.114   2.863   6.820
 1533SOL    HW1 5498   6.132   2.765   6.806
 1533SOL    HW2 5499   6.195   2.916   6.792
 1534SOL     OW 5500   0.422   6.373   1.879
 1534SOL    HW1 5501   0.358   6.398   1.806
 1534SOL    HW2 5502   0.475   6.293   1.851
 1535SOL     OW 5503   5.143   5.130   4.484
 1535SOL    HW1 5504   5.203   5.052   4.467
 1535SOL    HW2 5505   5.099   5.158   4.399
 1536SOL     OW 5506   2.253   5.739   4.178
 1536SOL    HW1 5507   2.265   5.778   4.269
 1536SOL    HW2 5508   2.331   5.681   4.157
 1537SOL     OW 5509   1.548   5.272   4.284
 1537SOL    HW1 5510   1.577   5.294   4.191
 1537SOL    HW2 5511   1.469   5.328   4.308
 1538SOL     OW 5512   2.655   5.546   6.412
 1538SOL    HW1 5513   2.714   5.466   6.417
 1538SOL    HW2 5514   2.578   5.534   6.475
 1539SOL     OW 5515   3.333   4.751   1.689
 1539SOL    HW1 5516   3.255   4.777   1.746
 1539SOL    HW2 5517   3.410   4.726   1.747
 1540SOL     OW 5518   0.429   6.229   4.552
 1540SOL    HW1 5519   0.440   6.304   4.487
 1540SOL    HW2 5520   0.470   6.146   4.515
 1541SOL     OW 5521   5.049   2.359   1.461
 1541SOL    HW1 5522   5.080   2.438   1.515
 1541SOL    HW2 5523   5.055   2.381   1.364
 1542SOL     OW 5524   1.034   6.396   1.119
 1542SOL    HW1 5525   0.972   6.467   1.085
 1542SOL    HW2 5526   1.128   6.431   1.119
 1543SOL     OW 5527   3.004   3.960   4.046
 1543SOL    HW1 5528   3.000   3.863   4.024
 1543SOL    HW2 5529   3.022   3.971   4.144
 1544SOL     OW 5530   3.861   4.047   2.580
 1544SOL    HW1 5531   3.883   4.033   2.677
 1544SOL    HW2 5532   3.945   4.067   2.530
 1545SOL     OW 5533   5.847   0.755   4.960
 1545SOL    HW1 5534   5.915   0.710   5.018
 1545SOL    HW2 5535   5.889   0.779   4.872
 1546SOL     OW 5536   0.955   6.851   6.403
 1546SOL    HW1 5537   1.040   6.833   6.453
 1546SOL    HW2 5538   0.970   6.925   6.337
 1547SOL     OW 5539   3.605   6.094   6.755
 1547SOL    HW1 5540   3.633   6.082   6.660
 1547SOL    HW2 5541   3.523   6.040   6.773
 1548SOL     OW 5542   5.634   4.025   4.527
 1548SOL    HW1 5543   5.693   3.946   4.511
 1548SOL    HW2 5544   5.602   4.024   4.622
 1549SOL     OW 5545   6.741   1.782   1.273
 1549SOL    HW1 5546   6.780   1.711   1.215
 1549SOL    HW2 5547   6.717   1.743   1.362
 1550SOL     OW 5548   2.539   5.937   4.529
 1550SOL    HW1 5549   2.519   6.015   4.470
 1550SOL    HW2 5550   2.534   5.853   4.475
 1551SOL     OW 5551   1.726   2.725   0.309
 1551SOL    HW1 5552   1.631   2.697   0.293
 1551SOL    HW2 5553   1.761   2.680   0.390
 1552SOL     OW 5554   0.521   0.247   0.667
 1552SOL    HW1 5555   0.475   0.241   0.756
 1552SOL    HW2 5556   0.615   0.275   0.680
 1553SOL     OW 5557   5.757   1.065   6.481
 1553SOL    HW1 5558   5.748   1.152   6.530
 1553SOL    HW2 5559   5.679   1.007   6.501
 1554SOL     OW 5560   3.187   1.668   1.316
 1554SOL    HW1 5561   3.136   1.599   1.368
 1554SOL    HW2 5562   3.122   1.734   1.277
 1555SOL     OW 5563   4.049   1.214   5.258
 1555SOL    HW1 5564   3.960   1.196   5.301
 1555SOL    HW2 5565   4.062   1.152   5.181
 1556SOL     OW 5566   4.034   1.620   0.702
 1556SOL    HW1 5567   4.049   1.671   0.787
 1556SOL    HW2 5568   4.063   1.525   0.715
 1557SOL     OW 5569   1.816   2.695   0.664
 1557SOL    HW1 5570   1.789   2.605   0.630
 1557SOL    HW2 5571   1.914   2.707   0.651
 1558SOL     OW 5572   5.780   3.040   6.303
 1558SOL    HW1 5573   5.696   3.004   6.263
 1558SOL    HW2 5574   5.776   3.140   6.306
 1559SOL     OW 5575   1.922   4.515   3.477
 1559SOL    HW1 5576   1.927   4.421   3.512
 1559SOL    HW2 5577   1.895   4.577   3.551
 1560SOL     OW 5578   4.252   1.481   1.397
 1560SOL    HW1 5579   4.195   1.489   1.479
 1560SOL    HW2 5580   4.338   1.437   1.421
 1561SOL     OW 5581   6.058   6.021   1.097
 1561SOL    HW1 5582   6.002   5.968   1.160
 1561SOL    HW2 5583   6.154   5.996   1.108
 1562SOL     OW 5584   4.028   6.482   2.360
 1562SOL    HW1 5585   4.103   6.533   2.403
 1562SOL    HW2 5586   3.999   6.529   2.277
 1563SOL     OW 5587   3.954   2.201   4.169
 1563SOL    HW1 5588   4.002   2.266   4.227
 1563SOL    HW2 5589   3.983   2.213   4.074
 1564SOL     OW 5590   1.153   2.359   3.062
 1564SOL    HW1 5591   1.228   2.426   3.064
 1564SOL    HW2 5592   1.190   2.269   3.040
 1565SOL     OW 5593   4.077   1.283   4.116
 1565SOL    HW1 5594   4.119   1.310   4.203
 1565SOL    HW2 5595   4.026   1.360   4.078
 1566SOL     OW 5596   4.892   4.686   3.001
 1566SOL    HW1 5597   4.907   4.627   2.922
 1566SOL    HW2 5598   4.870   4.630   3.081
 1567SOL     OW 5599   4.960   0.265   5.181
 1567SOL    HW1 5600   4.875   0.260   5.130
 1567SOL    HW2 5601   5.037   0.246   5.121
 1568SOL     OW 5602   2.427   5.558   2.294
 1568SOL    HW1 5603   2.338   5.552   2.338
 1568SOL    HW2 5604   2.449   5.654   2.277
 1569SOL     OW 5605   3.192   0.274   3.411
 1569SOL    HW1 5606   3.113   0.327   3.442
 1569SOL    HW2 5607   3.276   0.328   3.424
 1570SOL     OW 5608   3.600   6.429   6.472
 1570SOL    HW1 5609   3.557   6.506   6.518
 1570SOL    HW2 5610   3.688   6.410   6.513
 1571SOL     OW 5611   0.940   2.678   4.583
 1571SOL    HW1 5612   0.955   2.668   4.484
 1571SOL    HW2 5613   0.844   2.659   4.604
 1572SOL     OW 5614   2.151   5.189   1.808
 1572SOL    HW1 5615   2.236   5.135   1.805
 1572SOL    HW2 5616   2.077   5.132   1.842
 1573SOL     OW 5617   5.619   5.549   0.286
 1573SOL    HW1 5618   5.705   5.537   0.336
 1573SOL    HW2 5619   5.622   5.635   0.235
 1574SOL     OW 5620   0.068   3.459   3.352
 1574SOL    HW1 5621   0.161   3.494   3.367
 1574SOL    HW2 5622   0.021   3.518   3.287
 1575SOL     OW 5623   6.925   1.302   0.409
 1575SOL    HW1 5624   6.838   1.254   0.412
 1575SOL    HW2 5625   6.913   1.394   0.446
 1576SOL     OW 5626   0.908   0.366   2.147
 1576SOL    HW1 5627   0.901   0.368   2.247
 1576SOL    HW2 5628   0.883   0.455   2.110
 1577SOL     OW 5629   4.467   6.105   5.296
 1577SOL    HW1 5630   4.385   6.106   5.353
 1577SOL    HW2 5631   4.460   6.177   5.227
 1578SOL     OW 5632   5.472   1.197   0.961
 1578SOL    HW1 5633   5.521   1.246   1.033
 1578SOL    HW2 5634   5.378   1.231   0.955
 1579SOL     OW 5635   1.638   2.724   1.377
 1579SOL    HW1 5636   1.629   2.812   1.423
 1579SOL    HW2 5637   1.614   2.651   1.441
 1580SOL     OW 5638   3.178   3.669   2.703
 1580SOL    HW1 5639   3.127   3.584   2.687
 1580SOL    HW2 5640   3.116   3.747   2.691
 1581SOL     OW 5641   6.349   4.123   5.790
 1581SOL    HW1 5642   6.411   4.199   5.772
 1581SOL    HW2 5643   6.274   4.154   5.847
 1582SOL     OW 5644   4.336   6.402   5.135
 1582SOL    HW1 5645   4.316   6.488   5.088
 1582SOL    HW2 5646   4.434   6.395   5.151
 1583SOL     OW 5647   1.305   6.005   5.140
 1583SOL    HW1 5648   1.396   5.988   5.103
 1583SOL    HW2 5649   1.260   6.076   5.086
 1584SOL     OW 5650   0.272   5.177   0.313
 1584SOL    HW1 5651   0.255   5.095   0.367
 1584SOL    HW2 5652   0.189   5.202   0.263
 1585SOL     OW 5653   4.140   6.428   3.169
 1585SOL    HW1 5654   4.052   6.386   3.193
 1585SOL    HW2 5655   4.125   6.502   3.103
 1586SOL     OW 5656   3.315   5.088   3.534
 1586SOL    HW1 5657   3.393   5.027   3.523
 1586SOL    HW2 5658   3.336   5.157   3.603
 1587SOL     OW 5659   2.344   6.121   6.068
 1587SOL    HW1 5660   2.389   6.161   5.988
 1587SOL    HW2 5661   2.404   6.129   6.148
 1588SOL     OW 5662   5.594   1.242   3.087
 1588SOL    HW1 5663   5.656   1.216   3.014
 1588SOL    HW2 5664   5.643   1.243   3.174
 1589SOL     OW 5665   6.159   4.602   3.990
 1589SOL    HW1 5666   6.116   4.557   4.068
 1589SOL    HW2 5667   6.206   4.684   4.021
 1590SOL     OW 5668   6.277   2.655   3.739
 1590SOL    HW1 5669   6.325   2.580   3.785
 1590SOL    HW2 5670   6.324   2.677   3.653
 1591SOL     OW 5671   1.194   6.518   1.976
 1591SOL    HW1 5672   1.187   6.598   1.916
 1591SOL    HW2 5673   1.197   6.549   2.071
 1592SOL     OW 5674   0.016   4.254   6.659
 1592SOL    HW1 5675   0.088   4.187   6.638
 1592SOL    HW2 5676   0.013   4.323   6.587
 1593SOL     OW 5677   2.889   0.456   0.419
 1593SOL    HW1 5678   2.948   0.381   0.447
 1593SOL    HW2 5679   2.884   0.524   0.492
 1594SOL     OW 5680   6.357   0.367   1.950
 1594SOL    HW1 5681   6.414   0.300   1.997
 1594SOL    HW2 5682   6.297   0.412   2.016
 1595SOL     OW 5683   0.103   4.033   7.022
 1595SOL    HW1 5684   0.199   4.054   7.001
 1595SOL    HW2 5685   0.068   3.969   6.954
 1596SOL     OW 5686   4.720   4.863   2.677
 1596SOL    HW1 5687   4.672   4.927   2.617
 1596SOL    HW2 5688   4.657   4.794   2.711
 1597SOL     OW 5689   3.959   6.342   6.502
 1597SOL    HW1 5690   4.035   6.400   6.533
 1597SOL    HW2 5691   3.899   6.322   6.580
 1598SOL     OW 5692   2.008   5.286   0.244
 1598SOL    HW1 5693   2.086   5.230   0.220
 1598SOL    HW2 5694   2.027   5.336   0.329
 1599SOL     OW 5695   4.626   5.239   3.517
 1599SOL    HW1 5696   4.696   5.300   3.553
 1599SOL    HW2 5697   4.634   5.234   3.417
 1600SOL     OW 5698   4.749   6.771   2.373
 1600SOL    HW1 5699   4.664   6.819   2.351
 1600SOL    HW2 5700   4.797   6.819   2.447
 1601SOL     OW 5701   6.638   6.674   4.436
 1601SOL    HW1 5702   6.693   6.705   4.513
 1601SOL    HW2 5703   6.681   6.703   4.350
 1602SOL     OW 5704   3.955   5.175   3.782
 1602SOL    HW1 5705   4.019   5.097   3.776
 1602SOL    HW2 5706   3.999   5.257   3.746
 1603SOL     OW 5707   3.221   5.590   2.757
 1603SOL    HW1 5708   3.286   5.636   2.697
 1603SOL    HW2 5709   3.269   5.519   2.809
 1604SOL     OW 5710   4.225   5.345   2.114
 1604SOL    HW1 5711   4.308   5.361   2.168
 1604SOL    HW2 5712   4.209   5.247   2.104
 1605SOL     OW 5713   4.552   5.334   1.044
 1605SOL    HW1 5714   4.607   5.281   1.109
 1605SOL    HW2 5715   4.608   5.408   1.007
 1606SOL     OW 5716   3.829   6.231   4.741
 1606SOL    HW1 5717   3.840   6.226   4.841
 1606SOL    HW2 5718   3.833   6.138   4.703
 1607SOL     OW 5719   4.398   6.225   3.159
 1607SOL    HW1 5720   4.394   6.159   3.083
 1607SOL    HW2 5721   4.306   6.262   3.175
 1608SOL     OW 5722   5.853   0.871   3.054
 1608SOL    HW1 5723   5.887   0.780   3.031
 1608SOL    HW2 5724   5.802   0.867   3.140
 1609SOL     OW 5725   3.287   6.527   0.065
 1609SOL    HW1 5726   3.255   6.483   7.006
 1609SOL    HW2 5727   3.376   6.490   0.090
 1610SOL     OW 5728   5.591   0.262   0.683
 1610SOL    HW1 5729   5.583   0.313   0.768
 1610SOL    HW2 5730   5.502   0.223   0.659
 1611SOL     OW 5731   1.121   4.047   1.670
 1611SOL    HW1 5732   1.025   4.060   1.643
 1611SOL    HW2 5733   1.153   3.959   1.636
 1612SOL     OW 5734   3.956   6.925   1.894
 1612SOL    HW1 5735   3.944   6.985   1.814
 1612SOL    HW2 5736   3.873   6.926   1.948
 1613SOL     OW 5737   0.092   5.268   2.326
 1613SOL    HW1 5738   0.076   5.362   2.358
 1613SOL    HW2 5739   0.084   5.266   2.226
 1614SOL     OW 5740   6.594   2.115   6.283
 1614SOL    HW1 5741   6.553   2.205   6.300
 1614SOL    HW2 5742   6.530   2.059   6.230
 1615SOL     OW 5743   1.339   4.852   6.072
 1615SOL    HW1 5744   1.430   4.869   6.033
 1615SOL    HW2 5745   1.295   4.940   6.093
 1616SOL     OW 5746   2.422   1.322   4.630
 1616SOL    HW1 5747   2.431   1.374   4.545
 1616SOL    HW2 5748   2.470   1.235   4.621
 1617SOL     OW 5749   5.638   6.117   3.325
 1617SOL    HW1 5750   5.733   6.085   3.321
 1617SOL    HW2 5751   5.605   6.110   3.419
 1618SOL     OW 5752   3.080   5.112   2.857
 1618SOL    HW1 5753   2.998   5.161   2.826
 1618SOL    HW2 5754   3.149   5.178   2.886
 1619SOL     OW 5755   1.227   5.064   6.572
 1619SOL    HW1 5756   1.199   5.149   6.616
 1619SOL    HW2 5757   1.324   5.048   6.589
 1620SOL     OW 5758   3.791   5.467   6.364
 1620SOL    HW1 5759   3.868   5.429   6.313
 1620SOL    HW2 5760   3.739   5.528   6.305
 1621SOL     OW 5761   5.196   6.459   0.912
 1621SOL    HW1 5762   5.115   6.516   0.921
 1621SOL    HW2 5763   5.175   6.379   0.855
 1622SOL     OW 5764   0.414   4.355   4.151
 1622SOL    HW1 5765   0.462   4.387   4.069
 1622SOL    HW2 5766   0.425   4.421   4.225
 1623SOL     OW 5767   0.730   1.970   3.731
 1623SOL    HW1 5768   0.695   1.885   3.691
 1623SOL    HW2 5769   0.662   2.042   3.720
 1624SOL     OW 5770   4.441   1.795   0.786
 1624SOL    HW1 5771   4.467   1.859   0.858
 1624SOL    HW2 5772   4.518   1.782   0.723
 1625SOL     OW 5773   1.066   5.495   0.958
 1625SOL    HW1 5774   0.997   5.562   0.984
 1625SOL    HW2 5775   1.133   5.485   1.031
 1626SOL     OW 5776   3.001   1.875   1.186
 1626SOL    HW1 5777   2.908   1.841   1.200
 1626SOL    HW2 5778   3.008   1.969   1.219
 1627SOL     OW 5779   4.198   1.688   4.146
 1627SOL    HW1 5780   4.268   1.645   4.089
 1627SOL    HW2 5781   4.108   1.654   4.120
 1628SOL     OW 5782   5.216   6.620   0.402
 1628SOL    HW1 5783   5.130   6.608   0.352
 1628SOL    HW2 5784   5.293   6.600   0.341
 1629SOL     OW 5785   2.027   0.859   3.614
 1629SOL    HW1 5786   1.948   0.921   3.620
 1629SOL    HW2 5787   2.075   0.876   3.528
 1630SOL     OW 5788   0.159   3.571   7.010
 1630SOL    HW1 5789   0.086   3.503   7.021
 1630SOL    HW2 5790   0.164   3.628   0.068
 1631SOL     OW 5791   6.835   3.071   0.473
 1631SOL    HW1 5792   6.761   3.024   0.426
 1631SOL    HW2 5793   6.849   3.030   0.563
 1632SOL     OW 5794   6.576   4.959   2.561
 1632SOL    HW1 5795   6.508   4.939   2.490
 1632SOL    HW2 5796   6.575   5.057   2.581
 1633SOL     OW 5797   5.053   3.006   4.018
 1633SOL    HW1 5798   4.977   2.956   4.060
 1633SOL    HW2 5799   5.121   2.941   3.985
 1634SOL     OW 5800   5.596   0.689   4.562
 1634SOL    HW1 5801   5.519   0.694   4.498
 1634SOL    HW2 5802   5.599   0.598   4.604
 1635SOL     OW 5803   3.468   5.684   3.998
 1635SOL    HW1 5804   3.410   5.617   3.950
 1635SOL    HW2 5805   3.555   5.693   3.949
 1636SOL     OW 5806   5.984   6.419   1.553
 1636SOL    HW1 5807   6.069   6.387   1.510
 1636SOL    HW2 5808   5.994   6.416   1.652
 1637SOL     OW 5809   0.403   0.363   2.188
 1637SOL    HW1 5810   0.374   0.331   2.278
 1637SOL    HW2 5811   0.331   0.422   2.150
 1638SOL     OW 5812   6.632   2.969   2.202
 1638SOL    HW1 5813   6.583   2.882   2.194
 1638SOL    HW2 5814   6.622   3.004   2.295
 1639SOL     OW 5815   5.039   2.470   2.480
 1639SOL    HW1 5816   5.103   2.536   2.441
 1639SOL    HW2 5817   4.951   2.478   2.435
 1640SOL     OW 5818   6.190   0.062   6.997
 1640SOL    HW1 5819   6.270   0.121   6.990
 1640SOL    HW2 5820   6.108   0.119   7.008
 1641SOL     OW 5821   6.375   2.530   3.186
 1641SOL    HW1 5822   6.435   2.454   3.209
 1641SOL    HW2 5823   6.280   2.506   3.209
 1642SOL     OW 5824   6.107   2.306   5.752
 1642SOL    HW1 5825   6.130   2.321   5.848
 1642SOL    HW2 5826   6.145   2.219   5.722
 1643SOL     OW 5827   2.526   5.760   3.711
 1643SOL    HW1 5828   2.568   5.671   3.698
 1643SOL    HW2 5829   2.469   5.783   3.632
 1644SOL     OW 5830   6.056   3.043   1.277
 1644SOL    HW1 5831   6.070   3.086   1.367
 1644SOL    HW2 5832   6.133   3.066   1.218
 1645SOL     OW 5833   2.027   1.001   5.684
 1645SOL    HW1 5834   1.969   0.951   5.747
 1645SOL    HW2 5835   2.115   0.953   5.673
 1646SOL     OW 5836   1.252   5.496   1.247
 1646SOL    HW1 5837   1.282   5.586   1.279
 1646SOL    HW2 5838   1.201   5.450   1.320
 1647SOL     OW 5839   5.816   2.881   4.188
 1647SOL    HW1 5840   5.845   2.959   4.244
 1647SOL    HW2 5841   5.727   2.901   4.146
 1648SOL     OW 5842   5.324   6.187   1.261
 1648SOL    HW1 5843   5.379   6.267   1.240
 1648SOL    HW2 5844   5.310   6.181   1.360
 1649SOL     OW 5845   3.405   0.014   3.539
 1649SOL    HW1 5846   3.418   0.062   3.625
 1649SOL    HW2 5847   3.436   6.944   3.549
 1650SOL     OW 5848   2.786   4.657   6.347
 1650SOL    HW1 5849   2.746   4.643   6.438
 1650SOL    HW2 5850   2.775   4.753   6.321
 1651SOL     OW 5851   1.212   2.975   3.988
 1651SOL    HW1 5852   1.113   2.979   3.978
 1651SOL    HW2 5853   1.247   2.890   3.948
 1652SOL     OW 5854   0.585   2.633   1.306
 1652SOL    HW1 5855   0.595   2.706   1.238
 1652SOL    HW2 5856   0.490   2.625   1.334
 1653SOL     OW 5857   6.949   4.462   3.502
 1653SOL    HW1 5858   7.010   4.506   3.568
 1653SOL    HW2 5859   6.892   4.395   3.549
 1654SOL     OW 5860   0.231   3.080   2.151
 1654SOL    HW1 5861   0.241   3.037   2.241
 1654SOL    HW2 5862   0.201   3.175   2.163
 1655SOL     OW 5863   0.166   6.598   4.588
 1655SOL    HW1 5864   0.119   6.512   4.568
 1655SOL    HW2 5865   0.170   6.655   4.506
 1656SOL     OW 5866   1.714   4.607   3.941
 1656SOL    HW1 5867   1.805   4.600   3.981
 1656SOL    HW2 5868   1.707   4.547   3.861
 1657SOL     OW 5869   1.163   6.834   5.154
 1657SOL    HW1 5870   1.165   6.934   5.158
 1657SOL    HW2 5871   1.141   6.798   5.244
 1658SOL     OW 5872   6.378   0.133   6.760
 1658SOL    HW1 5873   6.445   0.061   6.740
 1658SOL    HW2 5874   6.316   0.143   6.683
 1659SOL     OW 5875   4.892   6.720   6.488
 1659SOL    HW1 5876   4.953   6.778   6.435
 1659SOL    HW2 5877   4.895   6.748   6.584
 1660SOL     OW 5878   2.192   0.226   2.263
 1660SOL    HW1 5879   2.188   0.290   2.339
 1660SOL    HW2 5880   2.238   0.268   2.185
 1661SOL     OW 5881   4.236   4.760   2.712
 1661SOL    HW1 5882   4.223   4.728   2.618
 1661SOL    HW2 5883   4.148   4.764   2.759
 1662SOL     OW 5884   0.261   1.139   5.068
 1662SOL    HW1 5885   0.211   1.186   5.141
 1662SOL    HW2 5886   0.322   1.071   5.108
 1663SOL     OW 5887   4.166   5.022   0.602
 1663SOL    HW1 5888   4.222   5.091   0.648
 1663SOL    HW2 5889   4.177   4.935   0.649
 1664SOL     OW 5890   1.129   0.004   5.403
 1664SOL    HW1 5891   1.037   0.038   5.421
 1664SOL    HW2 5892   1.159   0.035   5.313
 1665SOL     OW 5893   2.148   3.805   0.155
 1665SOL    HW1 5894   2.181   3.872   0.089
 1665SOL    HW2 5895   2.071   3.754   0.117
 1666SOL     OW 5896   6.090   6.592   6.126
 1666SOL    HW1 5897   6.137   6.514   6.086
 1666SOL    HW2 5898   6.058   6.569   6.218
 1667SOL     OW 5899   1.067   6.415   1.395
 1667SOL    HW1 5900   1.043   6.412   1.298
 1667SOL    HW2 5901   1.086   6.322   1.427
 1668SOL     OW 5902   5.619   4.543   3.028
 1668SOL    HW1 5903   5.565   4.536   2.945
 1668SOL    HW2 5904   5.709   4.581   3.006
 1669SOL     OW 5905   6.402   3.718   5.490
 1669SOL    HW1 5906   6.402   3.806   5.537
 1669SOL    HW2 5907   6.487   3.709   5.437
 1670SOL     OW 5908   2.251   5.050   5.586
 1670SOL    HW1 5909   2.186   5.095   5.648
 1670SOL    HW2 5910   2.205   5.027   5.501
 1671SOL     OW 5911   6.036   1.870   1.076
 1671SOL    HW1 5912   6.072   1.951   1.030
 1671SOL    HW2 5913   5.975   1.897   1.150
 1672SOL     OW 5914   0.929   3.571   6.869
 1672SOL    HW1 5915   0.864   3.496   6.857
 1672SOL    HW2 5916   0.969   3.566   6.961
 1673SOL     OW 5917   2.534   1.492   4.845
 1673SOL    HW1 5918   2.542   1.435   4.763
 1673SOL    HW2 5919   2.462   1.560   4.832
 1674SOL     OW 5920   4.638   1.875   3.059
 1674SOL    HW1 5921   4.730   1.889   3.094
 1674SOL    HW2 5922   4.592   1.963   3.048
 1675SOL     OW 5923   5.568   0.670   0.775
 1675SOL    HW1 5924   5.589   0.640   0.869
 1675SOL    HW2 5925   5.635   0.739   0.747
 1676SOL     OW 5926   1.533   1.365   2.964
 1676SOL    HW1 5927   1.560   1.287   2.908
 1676SOL    HW2 5928   1.512   1.334   3.056
 1677SOL     OW 5929   3.865   4.025   3.727
 1677SOL    HW1 5930   3.882   3.972   3.810
 1677SOL    HW2 5931   3.931   3.998   3.656
 1678SOL     OW 5932   1.192   0.063   0.676
 1678SOL    HW1 5933   1.103   0.054   0.721
 1678SOL    HW2 5934   1.211   7.006   0.622
 1679SOL     OW 5935   1.437   2.143   5.572
 1679SOL    HW1 5936   1.396   2.058   5.605
 1679SOL    HW2 5937   1.528   2.124   5.535
 1680SOL     OW 5938   5.031   2.402   3.829
 1680SOL    HW1 5939   5.040   2.411   3.929
 1680SOL    HW2 5940   5.005   2.308   3.807
 1681SOL     OW 5941   1.950   6.214   3.855
 1681SOL    HW1 5942   1.914   6.301   3.890
 1681SOL    HW2 5943   2.044   6.202   3.887
 1682SOL     OW 5944   3.173   0.451   5.250
 1682SOL    HW1 5945   3.125   0.398   5.319
 1682SOL    HW2 5946   3.248   0.396   5.212
 1683SOL     OW 5947   5.948   5.041   2.361
 1683SOL    HW1 5948   5.918   4.975   2.292
 1683SOL    HW2 5949   5.930   5.134   2.328
 1684SOL     OW 5950   2.601   4.615   1.840
 1684SOL    HW1 5951   2.584   4.517   1.830
 1684SOL    HW2 5952   2.684   4.629   1.895
 1685SOL     OW 5953   0.307   0.814   5.451
 1685SOL    HW1 5954   0.364   0.792   5.530
 1685SOL    HW2 5955   0.262   0.902   5.466
 1686SOL     OW 5956   4.944   5.717   3.115
 1686SOL    HW1 5957   4.925   5.635   3.062
 1686SOL    HW2 5958   4.953   5.694   3.211
 1687SOL     OW 5959   5.968   3.732   2.899
 1687SOL    HW1 5960   6.040   3.787   2.942
 1687SOL    HW2 5961   5.956   3.647   2.950
 1688SOL     OW 5962   2.058   1.541   3.671
 1688SOL    HW1 5963   2.080   1.499   3.583
 1688SOL    HW2 5964   2.116   1.622   3.684
 1689SOL     OW 5965   5.174   0.802   1.351
 1689SOL    HW1 5966   5.126   0.760   1.428
 1689SOL    HW2 5967   5.273   0.795   1.366
 1690SOL     OW 5968   0.650   4.005   4.448
 1690SOL    HW1 5969   0.633   4.040   4.540
 1690SOL    HW2 5970   0.747   3.983   4.438
 1691SOL     OW 5971   4.588   2.933   5.236
 1691SOL    HW1 5972   4.606   2.841   5.272
 1691SOL    HW2 5973   4.507   2.971   5.279
 1692SOL     OW 5974   5.882   5.433   1.306
 1692SOL    HW1 5975   5.911   5.354   1.253
 1692SOL    HW2 5976   5.899   5.417   1.404
 1693SOL     OW 5977   5.597   6.998   5.192
 1693SOL    HW1 5978   5.552   0.049   5.239
 1693SOL    HW2 5979   5.615   6.925   5.258
 1694SOL     OW 5980   4.724   0.962   5.384
 1694SOL    HW1 5981   4.706   0.928   5.476
 1694SOL    HW2 5982   4.692   1.056   5.376
 1695SOL     OW 5983   3.962   1.007   6.459
 1695SOL    HW1 5984   4.037   0.950   6.425
 1695SOL    HW2 5985   3.974   1.100   6.425
 1696SOL     OW 5986   4.303   6.143   0.744
 1696SOL    HW1 5987   4.328   6.214   0.810
 1696SOL    HW2 5988   4.287   6.057   0.792
 1697SOL     OW 5989   6.007   2.480   2.062
 1697SOL    HW1 5990   6.045   2.403   2.010
 1697SOL    HW2 5991   6.003   2.561   2.004
 1698SOL     OW 5992   3.868   1.078   1.737
 1698SOL    HW1 5993   3.862   1.177   1.730
 1698SOL    HW2 5994   3.835   1.048   1.826
 1699SOL     OW 5995   2.421   0.488   0.073
 1699SOL    HW1 5996   2.418   0.519   7.002
 1699SOL    HW2 5997   2.336   0.514   0.119
 1700SOL     OW 5998   6.011   2.895   2.766
 1700SOL    HW1 5999   5.911   2.892   2.761
 1700SOL    HW2 6000   6.049   2.822   2.709
 1701SOL     OW 6001   0.136   5.640   4.536
 1701SOL    HW1 6002   0.221   5.589   4.522
 1701SOL    HW2 6003   0.082   5.638   4.452
 1702SOL     OW 6004   2.090   2.695   5.681
 1702SOL    HW1 6005   2.029   2.655   5.750
 1702SOL    HW2 6006   2.121   2.624   5.618
 1703SOL     OW 6007   3.361   2.107   0.651
 1703SOL    HW1 6008   3.279   2.076   0.603
 1703SOL    HW2 6009   3.336   2.178   0.717
 1704SOL     OW 6010   2.370   2.092   1.147
 1704SOL    HW1 6011   2.413   2.086   1.237
 1704SOL    HW2 6012   2.271   2.082   1.157
 1705SOL     OW 6013   4.206   2.030   0.604
 1705SOL    HW1 6014   4.113   1.993   0.598
 1705SOL    HW2 6015   4.261   1.995   0.527
 1706SOL     OW 6016   4.202   2.612   0.185
 1706SOL    HW1 6017   4.189   2.524   0.140
 1706SOL    HW2 6018   4.139   2.679   0.145
 1707SOL     OW 6019   4.352   2.175   2.090
 1707SOL    HW1 6020   4.269   2.207   2.044
 1707SOL    HW2 6021   4.327   2.101   2.153
 1708SOL     OW 6022   3.377   5.228   1.801
 1708SOL    HW1 6023   3.289   5.196   1.836
 1708SOL    HW2 6024   3.442   5.152   1.801
 1709SOL     OW 6025   4.547   5.427   0.699
 1709SOL    HW1 6026   4.596   5.410   0.613
 1709SOL    HW2 6027   4.609   5.411   0.776
 1710SOL     OW 6028   4.122   5.112   3.222
 1710SOL    HW1 6029   4.213   5.133   3.258
 1710SOL    HW2 6030   4.115   5.013   3.205
 1711SOL     OW 6031   3.675   4.683   6.280
 1711SOL    HW1 6032   3.751   4.734   6.240
 1711SOL    HW2 6033   3.635   4.623   6.211
 1712SOL     OW 6034   0.140   1.908   3.295
 1712SOL    HW1 6035   0.114   1.901   3.391
 1712SOL    HW2 6036   0.074   1.859   3.238
 1713SOL     OW 6037   4.068   0.745   3.087
 1713SOL    HW1 6038   4.149   0.692   3.061
 1713SOL    HW2 6039   4.097   0.830   3.131
 1714SOL     OW 6040   3.881   3.439   0.397
 1714SOL    HW1 6041   3.785   3.419   0.416
 1714SOL    HW2 6042   3.917   3.500   0.467
 1715SOL     OW 6043   1.685   6.978   2.895
 1715SOL    HW1 6044   1.709   6.881   2.900
 1715SOL    HW2 6045   1.736   7.021   2.820
 1716SOL     OW 6046   4.593   0.458   3.145
 1716SOL    HW1 6047   4.577   0.364   3.174
 1716SOL    HW2 6048   4.640   0.458   3.056
 1717SOL     OW 6049   3.698   6.041   5.234
 1717SOL    HW1 6050   3.665   6.118   5.287
 1717SOL    HW2 6051   3.682   5.956   5.284
 1718SOL     OW 6052   1.329   3.159   1.758
 1718SOL    HW1 6053   1.261   3.098   1.718
 1718SOL    HW2 6054   1.305   3.254   1.737
 1719SOL     OW 6055   1.300   5.399   2.143
 1719SOL    HW1 6056   1.295   5.498   2.153
 1719SOL    HW2 6057   1.245   5.356   2.215
 1720SOL     OW 6058   6.778   3.065   5.817
 1720SOL    HW1 6059   6.875   3.087   5.805
 1720SOL    HW2 6060   6.742   3.116   5.896
 1721SOL     OW 6061   2.169   1.806   1.078
 1721SOL    HW1 6062   2.261   1.776   1.051
 1721SOL    HW2 6063   2.102   1.739   1.045
 1722SOL     OW 6064   2.958   2.148   3.289
 1722SOL    HW1 6065   2.992   2.232   3.248
 1722SOL    HW2 6066   2.991   2.069   3.237
 1723SOL     OW 6067   5.453   3.330   0.256
 1723SOL    HW1 6068   5.363   3.310   0.217
 1723SOL    HW2 6069   5.524   3.294   0.196
 1724SOL     OW 6070   7.017   2.132   1.150
 1724SOL    HW1 6071   7.012   2.103   1.246
 1724SOL    HW2 6072   6.925   2.140   1.113
 1725SOL     OW 6073   1.352   5.805   0.088
 1725SOL    HW1 6074   1.296   5.796   0.170
 1725SOL    HW2 6075   1.361   5.715   0.044
 1726SOL     OW 6076   5.449   4.301   3.431
 1726SOL    HW1 6077   5.440   4.249   3.346
 1726SOL    HW2 6078   5.490   4.390   3.411
 1727SOL     OW 6079   3.306   2.932   3.277
 1727SOL    HW1 6080   3.237   2.860   3.283
 1727SOL    HW2 6081   3.358   2.936   3.363
 1728SOL     OW 6082   4.518   2.449   4.354
 1728SOL    HW1 6083   4.524   2.427   4.451
 1728SOL    HW2 6084   4.592   2.403   4.304
 1729SOL     OW 6085   1.817   4.042   2.155
 1729SOL    HW1 6086   1.730   4.076   2.190
 1729SOL    HW2 6087   1.827   3.945   2.177
 1730SOL     OW 6088   2.693   4.882   5.404
 1730SOL    HW1 6089   2.627   4.954   5.423
 1730SOL    HW2 6090   2.654   4.817   5.339
 1731SOL     OW 6091   5.901   4.417   3.595
 1731SOL    HW1 6092   5.822   4.462   3.636
 1731SOL    HW2 6093   5.874   4.374   3.509
 1732SOL     OW 6094   1.741   3.745   6.513
 1732SOL    HW1 6095   1.746   3.792   6.601
 1732SOL    HW2 6096   1.717   3.811   6.442
 1733SOL     OW 6097   2.595   4.014   6.920
 1733SOL    HW1 6098   2.576   4.003   7.018
 1733SOL    HW2 6099   2.557   3.936   6.870
 1734SOL     OW 6100   0.109   2.796   1.067
 1734SOL    HW1 6101   0.132   2.844   0.982
 1734SOL    HW2 6102   0.168   2.716   1.077
 1735SOL     OW 6103   3.972   4.987   5.523
 1735SOL    HW1 6104   3.965   5.075   5.478
 1735SOL    HW2 6105   3.893   4.973   5.583
 1736SOL     OW 6106   4.790   3.275   0.920
 1736SOL    HW1 6107   4.875   3.294   0.871
 1736SOL    HW2 6108   4.722   3.239   0.855
 1737SOL     OW 6109   4.784   1.385   5.484
 1737SOL    HW1 6110   4.717   1.320   5.449
 1737SOL    HW2 6111   4.751   1.478   5.468
 1738SOL     OW 6112   1.456   3.153   4.610
 1738SOL    HW1 6113   1.493   3.085   4.547
 1738SOL    HW2 6114   1.526   3.176   4.678
 1739SOL     OW 6115   5.347   0.102   4.142
 1739SOL    HW1 6116   5.261   0.152   4.150
 1739SOL    HW2 6117   5.416   0.145   4.200
 1740SOL     OW 6118   6.215   2.792   4.512
 1740SOL    HW1 6119   6.163   2.869   4.547
 1740SOL    HW2 6120   6.306   2.792   4.554
 1741SOL     OW 6121   1.256   2.185   4.571
 1741SOL    HW1 6122   1.334   2.123   4.577
 1741SOL    HW2 6123   1.171   2.131   4.571
 1742SOL     OW 6124   6.087   6.584   5.799
 1742SOL    HW1 6125   6.163   6.591   5.863
 1742SOL    HW2 6126   6.099   6.504   5.741
 1743SOL     OW 6127   1.497   0.533   2.952
 1743SOL    HW1 6128   1.594   0.557   2.945
 1743SOL    HW2 6129   1.445   0.612   2.984
 1744SOL     OW 6130   3.969   2.018   4.457
 1744SOL    HW1 6131   4.058   1.981   4.483
 1744SOL    HW2 6132   3.954   2.005   4.359
 1745SOL     OW 6133   6.676   6.995   1.429
 1745SOL    HW1 6134   6.684   6.968   1.525
 1745SOL    HW2 6135   6.765   6.987   1.385
 1746SOL     OW 6136   2.002   4.225   3.555
 1746SOL    HW1 6137   2.008   4.151   3.622
 1746SOL    HW2 6138   2.094   4.248   3.523
 1747SOL     OW 6139   4.256   7.010   2.268
 1747SOL    HW1 6140   4.164   6.992   2.304
 1747SOL    HW2 6141   4.301   0.055   2.323
 1748SOL     OW 6142   6.628   2.357   4.469
 1748SOL    HW1 6143   6.557   2.333   4.402
 1748SOL    HW2 6144   6.608   2.447   4.507
 1749SOL     OW 6145   1.650   5.019   0.765
 1749SOL    HW1 6146   1.607   4.956   0.701
 1749SOL    HW2 6147   1.712   4.968   0.825
 1750SOL     OW 6148   3.655   0.006   5.563
 1750SOL    HW1 6149   3.676   6.940   5.527
 1750SOL    HW2 6150   3.675   0.009   5.661
 1751SOL     OW 6151   5.442   2.902   5.174
 1751SOL    HW1 6152   5.429   2.924   5.270
 1751SOL    HW2 6153   5.354   2.909   5.126
 1752SOL     OW 6154   6.890   0.689   1.752
 1752SOL    HW1 6155   6.828   0.663   1.677
 1752SOL    HW2 6156   6.868   0.781   1.782
 1753SOL     OW 6157   6.151   1.612   1.499
 1753SOL    HW1 6158   6.118   1.602   1.405
 1753SOL    HW2 6159   6.117   1.536   1.555
 1754SOL     OW 6160   3.285   6.029   4.474
 1754SOL    HW1 6161   3.369   5.975   4.482
 1754SOL    HW2 6162   3.227   5.989   4.402
 1755SOL     OW 6163   6.659   6.846   4.731
 1755SOL    HW1 6164   6.641   6.899   4.814
 1755SOL    HW2 6165   6.758   6.837   4.718
 1756SOL     OW 6166   5.131   6.718   5.823
 1756SOL    HW1 6167   5.054   6.712   5.759
 1756SOL    HW2 6168   5.171   6.809   5.817
 1757SOL     OW 6169   2.252   4.796   5.237
 1757SOL    HW1 6170   2.332   4.752   5.196
 1757SOL    HW2 6171   2.169   4.763   5.192
 1758SOL     OW 6172   1.577   6.736   4.836
 1758SOL    HW1 6173   1.577   6.644   4.797
 1758SOL    HW2 6174   1.524   6.736   4.921
 1759SOL     OW 6175   1.869   6.795   0.446
 1759SOL    HW1 6176   1.821   6.708   0.449
 1759SOL    HW2 6177   1.874   6.826   0.351
 1760SOL     OW 6178   6.588   1.140   4.646
 1760SOL    HW1 6179   6.512   1.121   4.708
 1760SOL    HW2 6180   6.587   1.075   4.571
 1761SOL     OW 6181   6.194   1.238   2.111
 1761SOL    HW1 6182   6.280   1.205   2.150
 1761SOL    HW2 6183   6.151   1.302   2.175
 1762SOL     OW 6184   0.578   1.849   6.248
 1762SOL    HW1 6185   0.658   1.803   6.209
 1762SOL    HW2 6186   0.550   1.801   6.331
 1763SOL     OW 6187   1.016   3.630   4.333
 1763SOL    HW1 6188   1.034   3.716   4.286
 1763SOL    HW2 6189   0.930   3.636   4.383
 1764SOL     OW 6190   0.904   5.635   2.640
 1764SOL    HW1 6191   0.968   5.642   2.563
 1764SOL    HW2 6192   0.864   5.544   2.642
 1765SOL     OW 6193   5.471   3.066   2.483
 1765SOL    HW1 6194   5.555   3.035   2.528
 1765SOL    HW2 6195   5.489   3.152   2.435
 1766SOL     OW 6196   4.960   4.879   4.397
 1766SOL    HW1 6197   5.058   4.868   4.382
 1766SOL    HW2 6198   4.910   4.854   4.314
 1767SOL     OW 6199   1.084   4.563   2.115
 1767SOL    HW1 6200   1.086   4.572   2.214
 1767SOL    HW2 6201   1.140   4.484   2.087
 1768SOL     OW 6202   5.183   6.476   2.048
 1768SOL    HW1 6203   5.118   6.547   2.019
 1768SOL    HW2 6204   5.166   6.454   2.145
 1769SOL     OW 6205   4.827   0.303   6.874
 1769SOL    HW1 6206   4.823   0.224   6.812
 1769SOL    HW2 6207   4.922   0.322   6.897
 1770SOL     OW 6208   1.886   5.605   6.622
 1770SOL    HW1 6209   1.968   5.555   6.594
 1770SOL    HW2 6210   1.855   5.663   6.547
 1771SOL     OW 6211   1.470   3.472   5.843
 1771SOL    HW1 6212   1.481   3.384   5.890
 1771SOL    HW2 6213   1.460   3.457   5.745
 1772SOL     OW 6214   2.333   4.571   3.432
 1772SOL    HW1 6215   2.299   4.663   3.449
 1772SOL    HW2 6216   2.259   4.515   3.396
 1773SOL     OW 6217   0.919   6.828   5.755
 1773SOL    HW1 6218   0.933   6.844   5.853
 1773SOL    HW2 6219   0.881   6.911   5.713
 1774SOL     OW 6220   5.001   5.552   0.531
 1774SOL    HW1 6221   4.935   5.586   0.463
 1774SOL    HW2 6222   5.015   5.454   0.518
 1775SOL     OW 6223   2.303   5.498   6.331
 1775SOL    HW1 6224   2.333   5.592   6.317
 1775SOL    HW2 6225   2.351   5.438   6.268
 1776SOL     OW 6226   4.766   1.808   5.907
 1776SOL    HW1 6227   4.836   1.877   5.891
 1776SOL    HW2 6228   4.800   1.741   5.973
 1777SOL     OW 6229   4.942   6.203   6.406
 1777SOL    HW1 6230   4.932   6.301   6.387
 1777SOL    HW2 6231   4.855   6.166   6.439
 1778SOL     OW 6232   5.955   6.875   4.128
 1778SOL    HW1 6233   5.931   6.867   4.032
 1778SOL    HW2 6234   6.044   6.919   4.137
 1779SOL     OW 6235   5.800   5.780   4.202
 1779SOL    HW1 6236   5.828   5.818   4.114
 1779SOL    HW2 6237   5.830   5.840   4.276
 1780SOL     OW 6238   1.566   5.914   5.015
 1780SOL    HW1 6239   1.501   5.948   4.947
 1780SOL    HW2 6240   1.638   5.981   5.029
 1781SOL     OW 6241   3.985   1.008   4.140
 1781SOL    HW1 6242   4.029   1.095   4.119
 1781SOL    HW2 6243   3.899   1.002   4.089
 1782SOL     OW 6244   0.917   1.621   2.495
 1782SOL    HW1 6245   0.989   1.566   2.537
 1782SOL    HW2 6246   0.945   1.646   2.402
 1783SOL     OW 6247   2.316   3.991   6.667
 1783SOL    HW1 6248   2.283   4.051   6.741
 1783SOL    HW2 6249   2.415   3.988   6.669
 1784SOL     OW 6250   2.806   6.947   1.436
 1784SOL    HW1 6251   2.893   6.995   1.429
 1784SOL    HW2 6252   2.731   7.012   1.426
 1785SOL     OW 6253   1.452   6.546   4.571
 1785SOL    HW1 6254   1.405   6.459   4.552
 1785SOL    HW2 6255   1.384   6.619   4.579
 1786SOL     OW 6256   0.980   6.607   0.607
 1786SOL    HW1 6257   1.029   6.679   0.657
 1786SOL    HW2 6258   0.896   6.584   0.656
 1787SOL     OW 6259   2.594   3.776   6.224
 1787SOL    HW1 6260   2.595   3.677   6.214
 1787SOL    HW2 6261   2.579   3.799   6.320
 1788SOL     OW 6262   4.770   3.543   0.986
 1788SOL    HW1 6263   4.787   3.445   0.978
 1788SOL    HW2 6264   4.737   3.579   0.899
 1789SOL     OW 6265   6.080   3.874   2.046
 1789SOL    HW1 6266   6.173   3.905   2.031
 1789SOL    HW2 6267   6.015   3.943   2.013
 1790SOL     OW 6268   2.376   2.460   4.427
 1790SOL    HW1 6269   2.349   2.533   4.490
 1790SOL    HW2 6270   2.326   2.376   4.450
 1791SOL     OW 6271   5.126   6.694   3.095
 1791SOL    HW1 6272   5.201   6.644   3.139
 1791SOL    HW2 6273   5.149   6.713   3.000
 1792SOL     OW 6274   0.199   1.488   5.239
 1792SOL    HW1 6275   0.243   1.450   5.158
 1792SOL    HW2 6276   0.153   1.415   5.289
 1793SOL     OW 6277   6.921   1.496   6.105
 1793SOL    HW1 6278   6.936   1.405   6.143
 1793SOL    HW2 6279   6.984   1.560   6.147
 1794SOL     OW 6280   1.239   0.221   6.452
 1794SOL    HW1 6281   1.172   0.157   6.489
 1794SOL    HW2 6282   1.287   0.267   6.527
 1795SOL     OW 6283   6.182   4.286   1.587
 1795SOL    HW1 6284   6.182   4.255   1.491
 1795SOL    HW2 6285   6.108   4.239   1.636
 1796SOL     OW 6286   0.798   0.588   6.568
 1796SOL    HW1 6287   0.737   0.627   6.500
 1796SOL    HW2 6288   0.811   0.491   6.550
 1797SOL     OW 6289   2.057   5.393   5.913
 1797SOL    HW1 6290   2.014   5.407   6.002
 1797SOL    HW2 6291   2.060   5.479   5.863
 1798SOL     OW 6292   3.080   3.526   5.018
 1798SOL    HW1 6293   3.052   3.577   4.936
 1798SOL    HW2 6294   3.009   3.534   5.088
 1799SOL     OW 6295   3.500   1.665   0.725
 1799SOL    HW1 6296   3.483   1.592   0.658
 1799SOL    HW2 6297   3.574   1.637   0.786
 1800SOL     OW 6298   6.250   3.637   5.015
 1800SOL    HW1 6299   6.157   3.607   4.995
 1800SOL    HW2 6300   6.248   3.732   5.045
 1801SOL     OW 6301   1.358   1.172   2.585
 1801SOL    HW1 6302   1.309   1.165   2.498
 1801SOL    HW2 6303   1.452   1.202   2.568
 1802SOL     OW 6304   7.008   4.904   4.081
 1802SOL    HW1 6305   6.955   4.986   4.104
 1802SOL    HW2 6306   6.947   4.826   4.073
 1803SOL     OW 6307   0.401   6.657   3.189
 1803SOL    HW1 6308   0.477   6.649   3.124
 1803SOL    HW2 6309   0.388   6.754   3.213
 1804SOL     OW 6310   2.005   3.198   6.086
 1804SOL    HW1 6311   2.021   3.275   6.024
 1804SOL    HW2 6312   1.986   3.233   6.178
 1805SOL     OW 6313   0.221   5.803   6.731
 1805SOL    HW1 6314   0.268   5.750   6.661
 1805SOL    HW2 6315   0.126   5.819   6.703
 1806SOL     OW 6316   0.190   1.725   1.862
 1806SOL    HW1 6317   0.210   1.710   1.765
 1806SOL    HW2 6318   0.142   1.645   1.898
 1807SOL     OW 6319   0.207   2.595   2.590
 1807SOL    HW1 6320   0.124   2.540   2.597
 1807SOL    HW2 6321   0.249   2.582   2.501
 1808SOL     OW 6322   4.915   2.347   6.016
 1808SOL    HW1 6323   4.958   2.372   6.103
 1808SOL    HW2 6324   4.877   2.430   5.974
 1809SOL     OW 6325   4.471   0.622   5.329
 1809SOL    HW1 6326   4.425   0.534   5.320
 1809SOL    HW2 6327   4.512   0.629   5.421
 1810SOL     OW 6328   0.223   0.417   4.073
 1810SOL    HW1 6329   0.130   0.399   4.041
 1810SOL    HW2 6330   0.229   0.399   4.171
 1811SOL     OW 6331   3.936   5.618   1.638
 1811SOL    HW1 6332   3.967   5.710   1.659
 1811SOL    HW2 6333   3.838   5.620   1.617
 1812SOL     OW 6334   4.517   6.378   6.191
 1812SOL    HW1 6335   4.496   6.286   6.159
 1812SOL    HW2 6336   4.592   6.416   6.136
 1813SOL     OW 6337   4.569   4.621   2.772
 1813SOL    HW1 6338   4.501   4.598   2.702
 1813SOL    HW2 6339   4.649   4.563   2.761
 1814SOL     OW 6340   0.137   6.042   0.223
 1814SOL    HW1 6341   0.170   6.115   0.163
 1814SOL    HW2 6342   0.068   5.988   0.176
 1815SOL     OW 6343   5.770   6.256   1.560
 1815SOL    HW1 6344   5.824   6.329   1.518
 1815SOL    HW2 6345   5.742   6.191   1.489
 1816SOL     OW 6346   4.232   5.039   5.408
 1816SOL    HW1 6347   4.234   5.121   5.350
 1816SOL    HW2 6348   4.137   5.020   5.434
 1817SOL     OW 6349   0.348   1.661   3.619
 1817SOL    HW1 6350   0.437   1.706   3.625
 1817SOL    HW2 6351   0.282   1.709   3.677
 1818SOL     OW 6352   2.227   0.927   0.568
 1818SOL    HW1 6353   2.210   0.894   0.661
 1818SOL    HW2 6354   2.258   0.852   0.510
 1819SOL     OW 6355   1.892   4.737   3.697
 1819SOL    HW1 6356   1.824   4.808   3.676
 1819SOL    HW2 6357   1.921   4.747   3.792
 1820SOL     OW 6358   3.247   0.108   5.364
 1820SOL    HW1 6359   3.258   0.011   5.344
 1820SOL    HW2 6360   3.335   0.155   5.353
 1821SOL     OW 6361   3.003   2.168   2.926
 1821SOL    HW1 6362   3.019   2.169   2.827
 1821SOL    HW2 6363   2.965   2.079   2.952
 1822SOL     OW 6364   6.922   2.610   2.509
 1822SOL    HW1 6365   6.852   2.675   2.478
 1822SOL    HW2 6366   6.885   2.553   2.582
 1823SOL     OW 6367   3.909   5.811   2.311
 1823SOL    HW1 6368   3.954   5.847   2.393
 1823SOL    HW2 6369   3.976   5.804   2.237
 1824SOL     OW 6370   4.342   3.045   1.702
 1824SOL    HW1 6371   4.338   3.141   1.730
 1824SOL    HW2 6372   4.417   2.999   1.749
 1825SOL     OW 6373   1.909   2.001   5.025
 1825SOL    HW1 6374   1.863   1.947   5.095
 1825SOL    HW2 6375   1.964   1.941   4.967
 1826SOL     OW 6376   3.424   2.236   1.792
 1826SOL    HW1 6377   3.514   2.266   1.824
 1826SOL    HW2 6378   3.380   2.311   1.742
 1827SOL     OW 6379   5.373   4.917   0.837
 1827SOL    HW1 6380   5.472   4.916   0.845
 1827SOL    HW2 6381   5.344   5.000   0.788
 1828SOL     OW 6382   1.386   2.992   4.870
 1828SOL    HW1 6383   1.349   2.911   4.825
 1828SOL    HW2 6384   1.311   3.055   4.892
 1829SOL     OW 6385   3.925   0.417   2.972
 1829SOL    HW1 6386   3.947   0.397   2.876
 1829SOL    HW2 6387   4.009   0.418   3.026
 1830SOL     OW 6388   5.228   6.991   4.936
 1830SOL    HW1 6389   5.222   0.061   4.905
 1830SOL    HW2 6390   5.232   6.989   5.036
 1831SOL     OW 6391   4.195   5.223   1.211
 1831SOL    HW1 6392   4.221   5.225   1.114
 1831SOL    HW2 6393   4.128   5.150   1.225
 1832SOL     OW 6394   2.242   3.105   0.338
 1832SOL    HW1 6395   2.148   3.138   0.324
 1832SOL    HW2 6396   2.296   3.123   0.255
 1833SOL     OW 6397   5.423   0.685   0.291
 1833SOL    HW1 6398   5.325   0.671   0.279
 1833SOL    HW2 6399   5.447   0.677   0.388
 1834SOL     OW 6400   1.187   2.957   5.993
 1834SOL    HW1 6401   1.230   2.934   5.906
 1834SOL    HW2 6402   1.257   2.968   6.063
 1835SOL     OW 6403   6.960   6.435   1.040
 1835SOL    HW1 6404   6.992   6.524   1.008
 1835SOL    HW2 6405   7.000   6.414   1.129
 1836SOL     OW 6406   4.994   2.560   1.921
 1836SOL    HW1 6407   5.085   2.537   1.888
 1836SOL    HW2 6408   4.926   2.539   1.850
 1837SOL     OW 6409   3.248   2.725   6.321
 1837SOL    HW1 6410   3.201   2.655   6.267
 1837SOL    HW2 6411   3.215   2.721   6.416
 1838SOL     OW 6412   5.954   0.935   0.870
 1838SOL    HW1 6413   5.936   0.845   0.830
 1838SOL    HW2 6414   5.873   0.992   0.862
 1839SOL     OW 6415   6.840   1.145   0.093
 1839SOL    HW1 6416   6.924   1.166   0.042
 1839SOL    HW2 6417   6.865   1.101   0.179
 1840SOL     OW 6418   4.660   6.405   3.639
 1840SOL    HW1 6419   4.714   6.482   3.671
 1840SOL    HW2 6420   4.576   6.399   3.693
 1841SOL     OW 6421   2.099   0.502   2.099
 1841SOL    HW1 6422   2.040   0.432   2.139
 1841SOL    HW2 6423   2.061   0.531   2.011
 1842SOL     OW 6424   1.581   5.702   0.528
 1842SOL    HW1 6425   1.571   5.649   0.612
 1842SOL    HW2 6426   1.593   5.639   0.451
 1843SOL     OW 6427   2.493   1.341   5.170
 1843SOL    HW1 6428   2.411   1.311   5.122
 1843SOL    HW2 6429   2.558   1.379   5.105
 1844SOL     OW 6430   5.800   2.396   5.975
 1844SOL    HW1 6431   5.767   2.375   5.883
 1844SOL    HW2 6432   5.878   2.338   5.997
 1845SOL     OW 6433   1.353   1.645   3.053
 1845SOL    HW1 6434   1.306   1.656   3.140
 1845SOL    HW2 6435   1.394   1.554   3.048
 1846SOL     OW 6436   4.157   1.859   1.919
 1846SOL    HW1 6437   4.146   1.929   1.848
 1846SOL    HW2 6438   4.101   1.884   1.998
 1847SOL     OW 6439   1.883   5.700   5.301
 1847SOL    HW1 6440   1.864   5.638   5.377
 1847SOL    HW2 6441   1.978   5.729   5.303
 1848SOL     OW 6442   3.076   6.018   3.291
 1848SOL    HW1 6443   3.019   5.950   3.338
 1848SOL    HW2 6444   3.020   6.067   3.223
 1849SOL     OW 6445   4.934   2.872   1.859
 1849SOL    HW1 6446   4.942   2.781   1.899
 1849SOL    HW2 6447   4.871   2.927   1.914
 1850SOL     OW 6448   5.227   1.281   0.985
 1850SOL    HW1 6449   5.202   1.289   1.081
 1850SOL    HW2 6450   5.165   1.336   0.929
 1851SOL     OW 6451   0.395   4.522   5.158
 1851SOL    HW1 6452   0.322   4.552   5.095
 1851SOL    HW2 6453   0.468   4.479   5.106
 1852SOL     OW 6454   0.096   6.936   3.038
 1852SOL    HW1 6455   0.059   6.898   2.953
 1852SOL    HW2 6456   0.028   6.928   3.110
 1853SOL     OW 6457   0.235   2.740   5.455
 1853SOL    HW1 6458   0.148   2.785   5.475
 1853SOL    HW2 6459   0.310   2.791   5.498
 1854SOL     OW 6460   0.909   0.002   3.341
 1854SOL    HW1 6461   0.905   7.024   3.241
 1854SOL    HW2 6462   0.914   0.097   3.372
 1855SOL     OW 6463   4.737   2.866   4.503
 1855SOL    HW1 6464   4.810   2.819   4.453
 1855SOL    HW2 6465   4.702   2.806   4.575
 1856SOL     OW 6466   3.450   2.828   1.104
 1856SOL    HW1 6467   3.484   2.755   1.163
 1856SOL    HW2 6468   3.479   2.917   1.141
 1857SOL     OW 6469   4.364   1.872   0.393
 1857SOL    HW1 6470   4.456   1.856   0.359
 1857SOL    HW2 6471   4.319   1.784   0.410
 1858SOL     OW 6472   4.652   2.489   3.992
 1858SOL    HW1 6473   4.556   2.492   4.019
 1858SOL    HW2 6474   4.688   2.583   3.986
 1859SOL     OW 6475   6.855   1.980   4.144
 1859SOL    HW1 6476   6.879   1.904   4.204
 1859SOL    HW2 6477   6.761   2.009   4.163
 1860SOL     OW 6478   1.789   1.655   4.986
 1860SOL    HW1 6479   1.845   1.647   5.068
 1860SOL    HW2 6480   1.847   1.656   4.905
 1861SOL     OW 6481   6.698   6.893   3.853
 1861SOL    HW1 6482   6.796   6.901   3.839
 1861SOL    HW2 6483   6.669   6.953   3.928
 1862SOL     OW 6484   2.838   5.881   5.792
 1862SOL    HW1 6485   2.858   5.837   5.879
 1862SOL    HW2 6486   2.882   5.831   5.718
 1863SOL     OW 6487   0.067   2.755   0.596
 1863SOL    HW1 6488   0.154   2.722   0.633
 1863SOL    HW2 6489   0.010   2.788   0.671
 1864SOL     OW 6490   4.294   5.586   2.566
 1864SOL    HW1 6491   4.285   5.501   2.513
 1864SOL    HW2 6492   4.242   5.578   2.651
 1865SOL     OW 6493   5.895   1.509   5.852
 1865SOL    HW1 6494   5.872   1.576   5.781
 1865SOL    HW2 6495   5.991   1.522   5.880
 1866SOL     OW 6496   0.960   5.075   3.739
 1866SOL    HW1 6497   0.953   4.982   3.702
 1866SOL    HW2 6498   0.917   5.078   3.830
 1867SOL     OW 6499   1.590   2.490   1.554
 1867SOL    HW1 6500   1.552   2.424   1.619
 1867SOL    HW2 6501   1.686   2.469   1.537
 1868SOL     OW 6502   5.756   3.677   6.369
 1868SOL    HW1 6503   5.756   3.580   6.343
 1868SOL    HW2 6504   5.663   3.705   6.393
 1869SOL     OW 6505   3.951   1.284   3.777
 1869SOL    HW1 6506   3.920   1.308   3.869
 1869SOL    HW2 6507   3.926   1.357   3.713
 1870SOL     OW 6508   6.831   5.901   4.619
 1870SOL    HW1 6509   6.845   5.895   4.520
 1870SOL    HW2 6510   6.863   5.817   4.662
 1871SOL     OW 6511   0.533   6.818   6.651
 1871SOL    HW1 6512   0.502   6.817   6.746
 1871SOL    HW2 6513   0.468   6.767   6.594
 1872SOL     OW 6514   2.818   2.534   1.711
 1872SOL    HW1 6515   2.888   2.481   1.758
 1872SOL    HW2 6516   2.856   2.622   1.683
 1873SOL     OW 6517   6.697   1.504   0.964
 1873SOL    HW1 6518   6.677   1.459   0.877
 1873SOL    HW2 6519   6.696   1.436   1.037
 1874SOL     OW 6520   0.501   5.332   0.329
 1874SOL    HW1 6521   0.413   5.287   0.319
 1874SOL    HW2 6522   0.522   5.384   0.246
 1875SOL     OW 6523   6.695   5.008   0.089
 1875SOL    HW1 6524   6.708   5.101   0.124
 1875SOL    HW2 6525   6.608   4.972   0.124
 1876SOL     OW 6526   0.225   5.619   0.380
 1876SOL    HW1 6527   0.143   5.676   0.385
 1876SOL    HW2 6528   0.286   5.654   0.309
 1877SOL     OW 6529   0.734   1.624   3.012
 1877SOL    HW1 6530   0.811   1.559   3.008
 1877SOL    HW2 6531   0.749   1.697   2.946
 1878SOL     OW 6532   6.430   3.637   3.726
 1878SOL    HW1 6533   6.351   3.601   3.676
 1878SOL    HW2 6534   6.480   3.701   3.668
 1879SOL     OW 6535   4.768   5.968   5.021
 1879SOL    HW1 6536   4.794   5.911   5.099
 1879SOL    HW2 6537   4.793   5.922   4.936
 1880SOL     OW 6538   0.033   1.853   3.998
 1880SOL    HW1 6539   0.116   1.832   4.051
 1880SOL    HW2 6540   6.996   1.908   4.053
 1881SOL     OW 6541   1.702   1.559   4.127
 1881SOL    HW1 6542   1.629   1.591   4.188
 1881SOL    HW2 6543   1.714   1.461   4.138
 1882SOL     OW 6544   1.645   5.780   0.185
 1882SOL    HW1 6545   1.654   5.692   0.231
 1882SOL    HW2 6546   1.553   5.816   0.201
 1883SOL     OW 6547   1.780   3.173   2.515
 1883SOL    HW1 6548   1.845   3.116   2.465
 1883SOL    HW2 6549   1.822   3.204   2.600
 1884SOL     OW 6550   3.460   1.194   0.049
 1884SOL    HW1 6551   3.527   1.233   7.010
 1884SOL    HW2 6552   3.371   1.238   0.034
 1885SOL     OW 6553   0.572   2.224   1.262
 1885SOL    HW1 6554   0.625   2.238   1.346
 1885SOL    HW2 6555   0.635   2.200   1.187
 1886SOL     OW 6556   2.860   2.395   5.795
 1886SOL    HW1 6557   2.921   2.365   5.868
 1886SOL    HW2 6558   2.862   2.495   5.789
 1887SOL     OW 6559   0.271   6.689   5.967
 1887SOL    HW1 6560   0.278   6.765   5.904
 1887SOL    HW2 6561   0.320   6.711   6.052
 1888SOL     OW 6562   2.243   2.084   5.796
 1888SOL    HW1 6563   2.249   1.999   5.742
 1888SOL    HW2 6564   2.333   2.105   5.834
 1889SOL     OW 6565   3.305   2.941   0.539
 1889SOL    HW1 6566   3.239   2.952   0.613
 1889SOL    HW2 6567   3.274   2.993   0.459
 1890SOL     OW 6568   6.449   5.727   6.606
 1890SOL    HW1 6569   6.404   5.816   6.612
 1890SOL    HW2 6570   6.396   5.667   6.547
 1891SOL     OW 6571   6.043   4.139   5.784
 1891SOL    HW1 6572   6.009   4.074   5.852
 1891SOL    HW2 6573   6.003   4.229   5.802
 1892SOL     OW 6574   3.916   6.211   1.869
 1892SOL    HW1 6575   3.996   6.161   1.903
 1892SOL    HW2 6576   3.882   6.272   1.941
 1893SOL     OW 6577   3.394   1.871   5.039
 1893SOL    HW1 6578   3.475   1.877   5.097
 1893SOL    HW2 6579   3.335   1.950   5.055
 1894SOL     OW 6580   3.957   3.966   1.187
 1894SOL    HW1 6581   3.934   3.884   1.238
 1894SOL    HW2 6582   4.043   3.951   1.137
 1895SOL     OW 6583   5.273   0.585   3.102
 1895SOL    HW1 6584   5.274   0.683   3.083
 1895SOL    HW2 6585   5.367   0.552   3.115
 1896SOL     OW 6586   6.477   1.332   5.968
 1896SOL    HW1 6587   6.391   1.368   6.005
 1896SOL    HW2 6588   6.540   1.408   5.950
 1897SOL     OW 6589   6.083   4.842   3.650
 1897SOL    HW1 6590   6.092   4.854   3.551
 1897SOL    HW2 6591   6.146   4.770   3.680
 1898SOL     OW 6592   5.830   6.055   6.841
 1898SOL    HW1 6593   5.861   5.972   6.888
 1898SOL    HW2 6594   5.882   6.133   6.876
 1899SOL     OW 6595   0.695   2.847   3.243
 1899SOL    HW1 6596   0.618   2.784   3.229
 1899SOL    HW2 6597   0.772   2.796   3.282
 1900SOL     OW 6598   2.331   6.570   0.926
 1900SOL    HW1 6599   2.425   6.549   0.950
 1900SOL    HW2 6600   2.328   6.617   0.838
 1901SOL     OW 6601   1.540   1.700   6.857
 1901SOL    HW1 6602   1.500   1.791   6.869
 1901SOL    HW2 6603   1.625   1.708   6.805
 1902SOL     OW 6604   1.777   2.847   5.234
 1902SOL    HW1 6605   1.734   2.770   5.281
 1902SOL    HW2 6606   1.711   2.922   5.226
 1903SOL     OW 6607   6.532   3.367   3.710
 1903SOL    HW1 6608   6.473   3.310   3.767
 1903SOL    HW2 6609   6.499   3.462   3.712
 1904SOL     OW 6610   0.411   6.797   4.432
 1904SOL    HW1 6611   0.331   6.753   4.391
 1904SOL    HW2 6612   0.447   6.866   4.370
 1905SOL     OW 6613   6.605   2.619   4.540
 1905SOL    HW1 6614   6.565   2.649   4.453
 1905SOL    HW2 6615   6.698   2.655   4.549
 1906SOL     OW 6616   2.545   6.982   0.478
 1906SOL    HW1 6617   2.597   6.975   0.394
 1906SOL    HW2 6618   2.515   0.052   0.491
 1907SOL     OW 6619   3.448   5.996   3.336
 1907SOL    HW1 6620   3.396   5.911   3.342
 1907SOL    HW2 6621   3.543   5.975   3.312
 1908SOL     OW 6622   4.929   1.277   6.757
 1908SOL    HW1 6623   5.006   1.214   6.771
 1908SOL    HW2 6624   4.849   1.241   6.804
 1909SOL     OW 6625   3.929   5.094   4.295
 1909SOL    HW1 6626   3.929   4.995   4.288
 1909SOL    HW2 6627   3.898   5.133   4.207
 1910SOL     OW 6628   5.080   2.291   5.225
 1910SOL    HW1 6629   4.992   2.286   5.178
 1910SOL    HW2 6630   5.066   2.325   5.318
 1911SOL     OW 6631   6.950   3.669   6.061
 1911SOL    HW1 6632   6.989   3.758   6.084
 1911SOL    HW2 6633   6.968   3.649   5.964
 1912SOL     OW 6634   3.558   6.102   3.601
 1912SOL    HW1 6635   3.508   6.019   3.580
 1912SOL    HW2 6636   3.597   6.096   3.693
 1913SOL     OW 6637   1.395   4.160   5.308
 1913SOL    HW1 6638   1.477   4.103   5.305
 1913SOL    HW2 6639   1.323   4.117   5.253
 1914SOL     OW 6640   4.219   1.670   5.505
 1914SOL    HW1 6641   4.216   1.589   5.564
 1914SOL    HW2 6642   4.202   1.642   5.410
 1915SOL     OW 6643   3.327   0.285   5.045
 1915SOL    HW1 6644   3.321   0.299   4.946
 1915SOL    HW2 6645   3.392   0.212   5.064
 1916SOL     OW 6646   4.133   6.476   1.313
 1916SOL    HW1 6647   4.039   6.442   1.318
 1916SOL    HW2 6648   4.137   6.569   1.350
 1917SOL     OW 6649   3.181   2.950   3.929
 1917SOL    HW1 6650   3.251   3.019   3.945
 1917SOL    HW2 6651   3.111   2.957   4.000
 1918SOL     OW 6652   6.088   6.630   3.673
 1918SOL    HW1 6653   6.008   6.641   3.732
 1918SOL    HW2 6654   6.098   6.533   3.650
 1919SOL     OW 6655   6.709   6.499   2.079
 1919SOL    HW1 6656   6.764   6.568   2.127
 1919SOL    HW2 6657   6.629   6.477   2.134
 1920SOL     OW 6658   0.014   5.597   4.268
 1920SOL    HW1 6659   7.014   5.500   4.269
 1920SOL    HW2 6660   0.062   5.618   4.183
 1921SOL     OW 6661   1.017   6.545   6.504
 1921SOL    HW1 6662   0.918   6.537   6.493
 1921SOL    HW2 6663   1.063   6.481   6.442
 1922SOL     OW 6664   3.352   4.676   0.880
 1922SOL    HW1 6665   3.313   4.643   0.795
 1922SOL    HW2 6666   3.405   4.759   0.862
 1923SOL     OW 6667   1.809   2.046   1.007
 1923SOL    HW1 6668   1.894   2.079   1.049
 1923SOL    HW2 6669   1.797   2.089   0.918
 1924SOL     OW 6670   1.179   4.298   1.761
 1924SOL    HW1 6671   1.168   4.349   1.675
 1924SOL    HW2 6672   1.162   4.201   1.744
 1925SOL     OW 6673   3.043   4.338   0.648
 1925SOL    HW1 6674   2.954   4.325   0.692
 1925SOL    HW2 6675   3.030   4.380   0.558
 1926SOL     OW 6676   0.864   6.780   3.498
 1926SOL    HW1 6677   0.891   6.862   3.448
 1926SOL    HW2 6678   0.943   6.745   3.549
 1927SOL     OW 6679   4.150   3.573   0.014
 1927SOL    HW1 6680   4.137   3.647   6.973
 1927SOL    HW2 6681   4.108   3.597   0.101
 1928SOL     OW 6682   6.370   4.439   5.527
 1928SOL    HW1 6683   6.431   4.494   5.470
 1928SOL    HW2 6684   6.420   4.361   5.564
 1929SOL     OW 6685   1.237   6.990   3.098
 1929SOL    HW1 6686   1.334   6.988   3.122
 1929SOL    HW2 6687   1.217   0.049   3.047
 1930SOL     OW 6688   5.543   4.096   6.775
 1930SOL    HW1 6689   5.636   4.066   6.795
 1930SOL    HW2 6690   5.485   4.016   6.760
 1931SOL     OW 6691   0.888   2.500   5.230
 1931SOL    HW1 6692   0.944   2.441   5.289
 1931SOL    HW2 6693   0.818   2.445   5.184
 1932SOL     OW 6694   5.874   3.261   1.741
 1932SOL    HW1 6695   5.794   3.216   1.782
 1932SOL    HW2 6696   5.863   3.360   1.747
 1933SOL     OW 6697   2.981   4.356   1.375
 1933SOL    HW1 6698   2.907   4.351   1.307
 1933SOL    HW2 6699   2.944   4.387   1.462
 1934SOL     OW 6700   0.827   5.713   4.900
 1934SOL    HW1 6701   0.922   5.686   4.914
 1934SOL    HW2 6702   0.768   5.668   4.967
 1935SOL     OW 6703   2.432   0.722   3.579
 1935SOL    HW1 6704   2.430   0.808   3.631
 1935SOL    HW2 6705   2.349   0.670   3.597
 1936SOL     OW 6706   6.239   5.654   5.600
 1936SOL    HW1 6707   6.150   5.612   5.618
 1936SOL    HW2 6708   6.311   5.601   5.645
 1937SOL     OW 6709   3.958   0.146   2.068
 1937SOL    HW1 6710   3.982   0.071   2.007
 1937SOL    HW2 6711   3.875   0.122   2.120
 1938SOL     OW 6712   5.129   0.566   3.699
 1938SOL    HW1 6713   5.043   0.609   3.725
 1938SOL    HW2 6714   5.205   0.616   3.738
 1939SOL     OW 6715   1.914   0.622   3.634
 1939SOL    HW1 6716   1.820   0.636   3.663
 1939SOL    HW2 6717   1.955   0.710   3.611
 1940SOL     OW 6718   0.175   5.500   6.778
 1940SOL    HW1 6719   0.234   5.424   6.803
 1940SOL    HW2 6720   0.225   5.586   6.791
 1941SOL     OW 6721   5.193   4.265   2.856
 1941SOL    HW1 6722   5.147   4.197   2.799
 1941SOL    HW2 6723   5.216   4.345   2.801
 1942SOL     OW 6724   6.090   5.513   3.152
 1942SOL    HW1 6725   6.155   5.497   3.078
 1942SOL    HW2 6726   6.083   5.611   3.170
 1943SOL     OW 6727   2.584   5.392   2.531
 1943SOL    HW1 6728   2.516   5.464   2.539
 1943SOL    HW2 6729   2.590   5.361   2.436
 1944SOL     OW 6730   6.513   1.377   1.463
 1944SOL    HW1 6731   6.540   1.369   1.367
 1944SOL    HW2 6732   6.418   1.346   1.473
 1945SOL     OW 6733   3.622   5.294   3.992
 1945SOL    HW1 6734   3.586   5.227   3.926
 1945SOL    HW2 6735   3.545   5.337   4.039
 1946SOL     OW 6736   1.324   0.807   0.536
 1946SOL    HW1 6737   1.296   0.894   0.577
 1946SOL    HW2 6738   1.256   0.779   0.468
 1947SOL     OW 6739   5.723   5.852   4.629
 1947SOL    HW1 6740   5.670   5.769   4.642
 1947SOL    HW2 6741   5.679   5.929   4.676
 1948SOL     OW 6742   6.080   4.831   4.745
 1948SOL    HW1 6743   6.128   4.752   4.784
 1948SOL    HW2 6744   6.018   4.801   4.673
 1949SOL     OW 6745   4.745   4.196   6.508
 1949SOL    HW1 6746   4.785   4.288   6.507
 1949SOL    HW2 6747   4.665   4.196   6.568
 1950SOL     OW 6748   3.097   3.788   6.837
 1950SOL    HW1 6749   3.008   3.781   6.881
 1950SOL    HW2 6750   3.097   3.863   6.771
 1951SOL     OW 6751   6.270   2.327   6.999
 1951SOL    HW1 6752   6.342   2.343   0.043
 1951SOL    HW2 6753   6.230   2.237   7.012
 1952SOL     OW 6754   3.792   2.097   5.788
 1952SOL    HW1 6755   3.784   2.118   5.886
 1952SOL    HW2 6756   3.827   2.177   5.740
 1953SOL     OW 6757   0.498   3.272   6.056
 1953SOL    HW1 6758   0.532   3.179   6.071
 1953SOL    HW2 6759   0.573   3.337   6.066
 1954SOL     OW 6760   3.338   2.145   3.924
 1954SOL    HW1 6761   3.352   2.118   4.019
 1954SOL    HW2 6762   3.244   2.177   3.912
 1955SOL     OW 6763   6.787   6.584   2.985
 1955SOL    HW1 6764   6.727   6.532   3.046
 1955SOL    HW2 6765   6.818   6.667   3.031
 1956SOL     OW 6766   5.626   5.872   2.348
 1956SOL    HW1 6767   5.602   5.782   2.384
 1956SOL    HW2 6768   5.627   5.869   2.248
 1957SOL     OW 6769   0.570   6.765   5.690
 1957SOL    HW1 6770   0.529   6.704   5.757
 1957SOL    HW2 6771   0.578   6.717   5.602
 1958SOL     OW 6772   5.564   3.760   5.772
 1958SOL    HW1 6773   5.587   3.784   5.678
 1958SOL    HW2 6774   5.608   3.825   5.834
 1959SOL     OW 6775   1.595   2.020   6.677
 1959SOL    HW1 6776   1.573   1.930   6.639
 1959SOL    HW2 6777   1.514   2.078   6.675
 1960SOL     OW 6778   5.588   5.992   0.947
 1960SOL    HW1 6779   5.556   6.008   1.040
 1960SOL    HW2 6780   5.678   6.035   0.934
 1961SOL     OW 6781   5.641   4.354   3.939
 1961SOL    HW1 6782   5.552   4.399   3.951
 1961SOL    HW2 6783   5.644   4.311   3.848
 1962SOL     OW 6784   7.017   6.366   3.246
 1962SOL    HW1 6785   6.924   6.345   3.218
 1962SOL    HW2 6786   0.047   6.282   3.247
 1963SOL     OW 6787   1.640   0.486   3.291
 1963SOL    HW1 6788   1.734   0.452   3.288
 1963SOL    HW2 6789   1.578   0.416   3.257
 1964SOL     OW 6790   5.240   3.283   2.689
 1964SOL    HW1 6791   5.196   3.278   2.599
 1964SOL    HW2 6792   5.201   3.215   2.750
 1965SOL     OW 6793   1.711   4.402   3.762
 1965SOL    HW1 6794   1.788   4.363   3.812
 1965SOL    HW2 6795   1.717   4.376   3.666
 1966SOL     OW 6796   6.473   5.498   5.653
 1966SOL    HW1 6797   6.558   5.474   5.607
 1966SOL    HW2 6798   6.438   5.419   5.703
 1967SOL     OW 6799   4.889   2.365   4.806
 1967SOL    HW1 6800   4.915   2.291   4.743
 1967SOL    HW2 6801   4.791   2.382   4.797
 1968SOL     OW 6802   3.048   5.932   6.121
 1968SOL    HW1 6803   3.089   5.955   6.033
 1968SOL    HW2 6804   2.967   5.875   6.106
 1969SOL     OW 6805   6.879   2.740   0.951
 1969SOL    HW1 6806   6.959   2.764   1.006
 1969SOL    HW2 6807   6.817   2.682   1.006
 1970SOL     OW 6808   1.667   0.773   4.076
 1970SOL    HW1 6809   1.569   0.770   4.054
 1970SOL    HW2 6810   1.696   0.868   4.087
 1971SOL     OW 6811   0.348   6.185   6.781
 1971SOL    HW1 6812   0.340   6.142   6.691
 1971SOL    HW2 6813   0.437   6.229   6.789
 1972SOL     OW 6814   0.557   5.002   3.744
 1972SOL    HW1 6815   0.475   5.033   3.697
 1972SOL    HW2 6816   0.536   4.922   3.800
 1973SOL     OW 6817   2.934   3.390   1.188
 1973SOL    HW1 6818   2.941   3.301   1.142
 1973SOL    HW2 6819   2.842   3.428   1.174
 1974SOL     OW 6820   5.550   0.806   3.891
 1974SOL    HW1 6821   5.521   0.839   3.981
 1974SOL    HW2 6822   5.567   0.885   3.831
 1975SOL     OW 6823   3.463   0.113   3.799
 1975SOL    HW1 6824   3.387   0.125   3.863
 1975SOL    HW2 6825   3.514   0.199   3.792
 1976SOL     OW 6826   0.881   5.667   0.462
 1976SOL    HW1 6827   0.943   5.743   0.482
 1976SOL    HW2 6828   0.788   5.702   0.451
 1977SOL     OW 6829   1.104   2.930   5.212
 1977SOL    HW1 6830   1.181   2.869   5.226
 1977SOL    HW2 6831   1.038   2.888   5.149
 1978SOL     OW 6832   6.586   1.754   4.845
 1978SOL    HW1 6833   6.607   1.757   4.748
 1978SOL    HW2 6834   6.615   1.839   4.889
 1979SOL     OW 6835   6.021   4.615   3.427
 1979SOL    HW1 6836   6.117   4.593   3.415
 1979SOL    HW2 6837   5.978   4.547   3.485
 1980SOL     OW 6838   4.285   0.267   1.504
 1980SOL    HW1 6839   4.352   0.303   1.568
 1980SOL    HW2 6840   4.207   0.329   1.498
 1981SOL     OW 6841   4.701   3.188   1.687
 1981SOL    HW1 6842   4.680   3.120   1.616
 1981SOL    HW2 6843   4.703   3.143   1.776
 1982SOL     OW 6844   5.797   6.260   4.669
 1982SOL    HW1 6845   5.885   6.215   4.683
 1982SOL    HW2 6846   5.807   6.358   4.686
 1983SOL     OW 6847   0.988   3.396   3.519
 1983SOL    HW1 6848   1.079   3.436   3.517
 1983SOL    HW2 6849   0.926   3.452   3.465
 1984SOL     OW 6850   4.162   0.604   5.944
 1984SOL    HW1 6851   4.091   0.536   5.926
 1984SOL    HW2 6852   4.141   0.653   6.029
 1985SOL     OW 6853   0.851   1.019   1.355
 1985SOL    HW1 6854   0.889   0.993   1.266
 1985SOL    HW2 6855   0.762   1.062   1.342
 1986SOL     OW 6856   1.750   1.648   6.280
 1986SOL    HW1 6857   1.736   1.702   6.197
 1986SOL    HW2 6858   1.722   1.553   6.263
 1987SOL     OW 6859   2.303   3.351   7.016
 1987SOL    HW1 6860   2.358   3.369   6.934
 1987SOL    HW2 6861   2.257   3.263   7.006
 1988SOL     OW 6862   4.280   4.043   0.506
 1988SOL    HW1 6863   4.341   4.059   0.429
 1988SOL    HW2 6864   4.321   4.081   0.589
 1989SOL     OW 6865   1.963   0.224   4.240
 1989SOL    HW1 6866   1.893   0.259   4.177
 1989SOL    HW2 6867   2.051   0.220   4.192
 1990SOL     OW 6868   3.022   0.806   1.455
 1990SOL    HW1 6869   2.951   0.736   1.459
 1990SOL    HW2 6870   3.087   0.793   1.530
 1991SOL     OW 6871   3.196   5.645   4.349
 1991SOL    HW1 6872   3.205   5.545   4.346
 1991SOL    HW2 6873   3.236   5.680   4.433
 1992SOL     OW 6874   2.381   6.640   5.413
 1992SOL    HW1 6875   2.359   6.677   5.503
 1992SOL    HW2 6876   2.448   6.566   5.423
 1993SOL     OW 6877   4.116   3.308   5.524
 1993SOL    HW1 6878   4.034   3.309   5.467
 1993SOL    HW2 6879   4.131   3.216   5.559
 1994SOL     OW 6880   6.510   2.386   2.084
 1994SOL    HW1 6881   6.569   2.314   2.121
 1994SOL    HW2 6882   6.512   2.466   2.144
 1995SOL     OW 6883   5.689   2.232   1.826
 1995SOL    HW1 6884   5.602   2.191   1.854
 1995SOL    HW2 6885   5.729   2.283   1.903
 1996SOL     OW 6886   3.591   4.729   0.301
 1996SOL    HW1 6887   3.563   4.786   0.379
 1996SOL    HW2 6888   3.625   4.788   0.228
 1997SOL     OW 6889   5.450   0.568   3.560
 1997SOL    HW1 6890   5.413   0.574   3.653
 1997SOL    HW2 6891   5.427   0.478   3.522
 1998SOL     OW 6892   2.876   4.593   5.431
 1998SOL    HW1 6893   2.943   4.642   5.488
 1998SOL    HW2 6894   2.913   4.580   5.339
 1999SOL     OW 6895   2.572   0.502   1.887
 1999SOL    HW1 6896   2.643   0.489   1.956
 1999SOL    HW2 6897   2.586   0.590   1.842
 2000SOL     OW 6898   3.850   1.696   4.497
 2000SOL    HW1 6899   3.949   1.703   4.508
 2000SOL    HW2 6900   3.804   1.757   4.561
 2001SOL     OW 6901   2.843   1.544   1.094
 2001SOL    HW1 6902   2.917   1.521   1.031
 2001SOL    HW2 6903   2.800   1.630   1.064
 2002SOL     OW 6904   1.808   5.238   5.753
 2002SOL    HW1 6905   1.741   5.261   5.823
 2002SOL    HW2 6906   1.770   5.170   5.691
 2003SOL     OW 6907   5.891   5.884   3.970
 2003SOL    HW1 6908   5.972   5.933   4.000
 2003SOL    HW2 6909   5.854   5.927   3.888
 2004SOL     OW 6910   2.617   0.698   5.562
 2004SOL    HW1 6911   2.563   0.782   5.572
 2004SOL    HW2 6912   2.710   0.721   5.534
 2005SOL     OW 6913   2.111   6.258   5.809
 2005SOL    HW1 6914   2.022   6.222   5.838
 2005SOL    HW2 6915   2.184   6.199   5.844
 2006SOL     OW 6916   4.171   5.210   4.028
 2006SOL    HW1 6917   4.214   5.200   4.118
 2006SOL    HW2 6918   4.127   5.299   4.022
 2007SOL     OW 6919   5.394   5.868   0.609
 2007SOL    HW1 6920   5.350   5.829   0.528
 2007SOL    HW2 6921   5.363   5.819   0.691
 2008SOL     OW 6922   6.954   5.995   4.112
 2008SOL    HW1 6923   6.967   5.960   4.205
 2008SOL    HW2 6924   6.989   5.929   4.046
 2009SOL     OW 6925   0.213   0.077   2.356
 2009SOL    HW1 6926   0.265   0.139   2.416
 2009SOL    HW2 6927   0.271   0.001   2.328
 2010SOL     OW 6928   1.000   0.712   0.488
 2010SOL    HW1 6929   0.962   0.792   0.442
 2010SOL    HW2 6930   1.048   0.740   0.571
 2011SOL     OW 6931   0.423   2.151   5.307
 2011SOL    HW1 6932   0.401   2.192   5.219
 2011SOL    HW2 6933   0.382   2.059   5.313
 2012SOL     OW 6934   1.075   4.037   0.827
 2012SOL    HW1 6935   1.124   4.084   0.754
 2012SOL    HW2 6936   1.119   4.058   0.915
 2013SOL     OW 6937   5.393   1.322   2.109
 2013SOL    HW1 6938   5.312   1.265   2.121
 2013SOL    HW2 6939   5.390   1.365   2.018
 2014SOL     OW 6940   2.137   5.398   2.966
 2014SOL    HW1 6941   2.183   5.310   2.953
 2014SOL    HW2 6942   2.055   5.401   2.909
 2015SOL     OW 6943   3.175   0.673   6.693
 2015SOL    HW1 6944   3.167   0.577   6.664
 2015SOL    HW2 6945   3.102   0.694   6.758
 2016SOL     OW 6946   0.428   5.155   4.419
 2016SOL    HW1 6947   0.346   5.157   4.361
 2016SOL    HW2 6948   0.483   5.236   4.402
 2017SOL     OW 6949   2.361   5.999   2.955
 2017SOL    HW1 6950   2.455   6.001   2.921
 2017SOL    HW2 6951   2.299   5.968   2.882
 2018SOL     OW 6952   0.326   5.404   6.422
 2018SOL    HW1 6953   0.387   5.334   6.459
 2018SOL    HW2 6954   0.235   5.365   6.408
 2019SOL     OW 6955   5.989   1.810   1.995
 2019SOL    HW1 6956   5.977   1.762   1.908
 2019SOL    HW2 6957   5.905   1.805   2.048
 2020SOL     OW 6958   2.867   5.645   3.143
 2020SOL    HW1 6959   2.781   5.621   3.099
 2020SOL    HW2 6960   2.942   5.635   3.078
 2021SOL     OW 6961   1.133   0.676   2.845
 2021SOL    HW1 6962   1.221   0.704   2.885
 2021SOL    HW2 6963   1.060   0.695   2.910
 2022SOL     OW 6964   1.813   3.872   1.400
 2022SOL    HW1 6965   1.745   3.871   1.327
 2022SOL    HW2 6966   1.901   3.901   1.363
 2023SOL     OW 6967   6.392   0.900   5.812
 2023SOL    HW1 6968   6.459   0.907   5.739
 2023SOL    HW2 6969   6.387   0.806   5.845
 2024SOL     OW 6970   5.603   1.025   3.696
 2024SOL    HW1 6971   5.700   1.004   3.680
 2024SOL    HW2 6972   5.551   1.011   3.612
 2025SOL     OW 6973   0.079   1.407   1.711
 2025SOL    HW1 6974   7.012   1.376   1.735
 2025SOL    HW2 6975   0.074   1.497   1.668
 2026SOL     OW 6976   1.722   1.484   5.387
 2026SOL    HW1 6977   1.763   1.509   5.475
 2026SOL    HW2 6978   1.677   1.564   5.348
 2027SOL     OW 6979   0.730   1.543   2.718
 2027SOL    HW1 6980   0.791   1.510   2.790
 2027SOL    HW2 6981   0.690   1.631   2.745
 2028SOL     OW 6982   4.056   3.142   6.910
 2028SOL    HW1 6983   4.091   3.063   6.961
 2028SOL    HW2 6984   4.023   3.112   6.821
 2029SOL     OW 6985   0.623   1.071   6.981
 2029SOL    HW1 6986   0.703   1.018   6.951
 2029SOL    HW2 6987   0.648   1.126   0.036
 2030SOL     OW 6988   1.578   1.496   3.673
 2030SOL    HW1 6989   1.543   1.447   3.753
 2030SOL    HW2 6990   1.657   1.552   3.701
 2031SOL     OW 6991   5.894   6.906   1.729
 2031SOL    HW1 6992   5.949   6.951   1.659
 2031SOL    HW2 6993   5.945   6.828   1.766
 2032SOL     OW 6994   5.234   6.909   1.347
 2032SOL    HW1 6995   5.299   6.837   1.326
 2032SOL    HW2 6996   5.270   6.966   1.421
 2033SOL     OW 6997   5.522   5.228   6.882
 2033SOL    HW1 6998   5.487   5.136   6.890
 2033SOL    HW2 6999   5.556   5.259   6.970
 2034SOL     OW 7000   2.205   6.785   3.159
 2034SOL    HW1 7001   2.193   6.712   3.092
 2034SOL    HW2 7002   2.212   6.873   3.112
 2035SOL     OW 7003   0.969   2.395   2.762
 2035SOL    HW1 7004   0.889   2.351   2.803
 2035SOL    HW2 7005   1.047   2.332   2.767
 2036SOL     OW 7006   1.124   4.947   0.152
 2036SOL    HW1 7007   1.088   5.029   0.198
 2036SOL    HW2 7008   1.068   4.868   0.177
 2037SOL     OW 7009   0.048   1.813   5.766
 2037SOL    HW1 7010   0.094   1.724   5.772
 2037SOL    HW2 7011   0.103   1.875   5.710
 2038SOL     OW 7012   0.325   1.101   4.594
 2038SOL    HW1 7013   0.319   1.013   4.547
 2038SOL    HW2 7014   0.249   1.110   4.659
 2039SOL     OW 7015   6.893   5.552   2.640
 2039SOL    HW1 7016   6.956   5.544   2.717
 2039SOL    HW2 7017   6.802   5.575   2.674
 2040SOL     OW 7018   4.139   3.672   4.816
 2040SOL    HW1 7019   4.188   3.645   4.899
 2040SOL    HW2 7020   4.159   3.767   4.795
 2041SOL     OW 7021   5.752   4.266   5.647
 2041SOL    HW1 7022   5.821   4.262   5.719
 2041SOL    HW2 7023   5.783   4.328   5.575
 2042SOL     OW 7024   4.203   5.426   0.241
 2042SOL    HW1 7025   4.243   5.403   0.152
 2042SOL    HW2 7026   4.261   5.492   0.288
 2043SOL     OW 7027   5.871   4.086   2.023
 2043SOL    HW1 7028   5.839   4.046   2.109
 2043SOL    HW2 7029   5.809   4.160   1.996
 2044SOL     OW 7030   6.361   6.913   1.671
 2044SOL    HW1 7031   6.299   6.837   1.653
 2044SOL    HW2 7032   6.358   6.978   1.595
 2045SOL     OW 7033   2.274   5.028   5.923
 2045SOL    HW1 7034   2.302   5.070   6.010
 2045SOL    HW2 7035   2.232   5.097   5.865
 2046SOL     OW 7036   6.335   6.948   4.697
 2046SOL    HW1 7037   6.320   6.855   4.731
 2046SOL    HW2 7038   6.252   7.002   4.711
 2047SOL     OW 7039   4.883   2.490   0.403
 2047SOL    HW1 7040   4.789   2.510   0.430
 2047SOL    HW2 7041   4.910   2.549   0.327
 2048SOL     OW 7042   4.531   0.476   6.211
 2048SOL    HW1 7043   4.482   0.505   6.294
 2048SOL    HW2 7044   4.494   0.524   6.132
 2049SOL     OW 7045   4.636   1.024   0.590
 2049SOL    HW1 7046   4.597   0.973   0.667
 2049SOL    HW2 7047   4.633   0.967   0.508
 2050SOL     OW 7048   5.833   3.062   3.882
 2050SOL    HW1 7049   5.882   3.149   3.889
 2050SOL    HW2 7050   5.898   2.988   3.865
 2051SOL     OW 7051   1.723   5.579   0.743
 2051SOL    HW1 7052   1.818   5.551   0.737
 2051SOL    HW2 7053   1.707   5.624   0.831
 2052SOL     OW 7054   1.026   2.603   6.756
 2052SOL    HW1 7055   0.954   2.536   6.774
 2052SOL    HW2 7056   1.067   2.632   6.843
 2053SOL     OW 7057   6.442   0.448   0.487
 2053SOL    HW1 7058   6.384   0.416   0.412
 2053SOL    HW2 7059   6.418   0.401   0.571
 2054SOL     OW 7060   5.910   2.567   0.445
 2054SOL    HW1 7061   5.912   2.607   0.537
 2054SOL    HW2 7062   5.998   2.524   0.426
 2055SOL     OW 7063   5.255   2.789   4.104
 2055SOL    HW1 7064   5.167   2.744   4.123
 2055SOL    HW2 7065   5.323   2.758   4.171
 2056SOL     OW 7066   2.380   0.747   3.046
 2056SOL    HW1 7067   2.291   0.792   3.043
 2056SOL    HW2 7068   2.403   0.725   3.141
 2057SOL     OW 7069   0.250   2.789   4.155
 2057SOL    HW1 7070   0.287   2.818   4.244
 2057SOL    HW2 7071   0.155   2.819   4.146
 2058SOL     OW 7072   0.151   2.113   2.343
 2058SOL    HW1 7073   0.065   2.092   2.296
 2058SOL    HW2 7074   0.185   2.030   2.387
 2059SOL     OW 7075   2.124   1.265   6.968
 2059SOL    HW1 7076   2.157   1.282   6.875
 2059SOL    HW2 7077   2.027   1.289   6.974
 2060SOL     OW 7078   0.502   4.476   2.280
 2060SOL    HW1 7079   0.501   4.398   2.217
 2060SOL    HW2 7080   0.459   4.449   2.366
 2061SOL     OW 7081   6.593   1.743   2.315
 2061SOL    HW1 7082   6.554   1.806   2.248
 2061SOL    HW2 7083   6.604   1.653   2.273
 2062SOL     OW 7084   4.825   0.140   2.647
 2062SOL    HW1 7085   4.804   0.044   2.628
 2062SOL    HW2 7086   4.765   0.198   2.592
 2063SOL     OW 7087   1.476   3.036   6.730
 2063SOL    HW1 7088   1.551   2.986   6.772
 2063SOL    HW2 7089   1.488   3.039   6.631
 2064SOL     OW 7090   1.223   2.167   6.691
 2064SOL    HW1 7091   1.151   2.098   6.682
 2064SOL    HW2 7092   1.222   2.227   6.611
 2065SOL     OW 7093   6.161   3.634   2.168
 2065SOL    HW1 7094   6.196   3.708   2.111
 2065SOL    HW2 7095   6.095   3.671   2.233
 2066SOL     OW 7096   0.133   0.431   4.842
 2066SOL    HW1 7097   0.212   0.385   4.802
 2066SOL    HW2 7098   0.053   0.417   4.784
 2067SOL     OW 7099   6.639   6.383   1.452
 2067SOL    HW1 7100   6.633   6.368   1.354
 2067SOL    HW2 7101   6.716   6.444   1.472
 2068SOL     OW 7102   2.091   1.893   5.299
 2068SOL    HW1 7103   2.177   1.845   5.279
 2068SOL    HW2 7104   2.092   1.982   5.253
 2069SOL     OW 7105   1.056   2.470   2.260
 2069SOL    HW1 7106   1.109   2.551   2.285
 2069SOL    HW2 7107   1.043   2.413   2.342
 2070SOL     OW 7108   1.349   1.801   2.599
 2070SOL    HW1 7109   1.420   1.745   2.642
 2070SOL    HW2 7110   1.264   1.792   2.651
 2071SOL     OW 7111   0.961   0.146   4.363
 2071SOL    HW1 7112   0.975   0.057   4.320
 2071SOL    HW2 7113   0.863   0.165   4.368
 2072SOL     OW 7114   5.037   5.753   1.888
 2072SOL    HW1 7115   5.100   5.809   1.942
 2072SOL    HW2 7116   5.066   5.752   1.792
 2073SOL     OW 7117   3.184   6.789   5.680
 2073SOL    HW1 7118   3.194   6.887   5.660
 2073SOL    HW2 7119   3.181   6.776   5.779
 2074SOL     OW 7120   6.073   1.409   1.260
 2074SOL    HW1 7121   6.064   1.442   1.166
 2074SOL    HW2 7122   6.150   1.347   1.266
 2075SOL     OW 7123   4.185   3.368   0.211
 2075SOL    HW1 7124   4.226   3.415   0.289
 2075SOL    HW2 7125   4.176   3.432   0.134
 2076SOL     OW 7126   5.249   6.537   1.249
 2076SOL    HW1 7127   5.150   6.544   1.242
 2076SOL    HW2 7128   5.291   6.573   1.166
 2077SOL     OW 7129   5.259   1.628   2.525
 2077SOL    HW1 7130   5.255   1.602   2.429
 2077SOL    HW2 7131   5.298   1.553   2.579
 2078SOL     OW 7132   3.241   4.804   6.603
 2078SOL    HW1 7133   3.293   4.729   6.561
 2078SOL    HW2 7134   3.147   4.801   6.570
 2079SOL     OW 7135   5.578   1.280   3.842
 2079SOL    HW1 7136   5.550   1.274   3.938
 2079SOL    HW2 7137   5.590   1.188   3.804
 2080SOL     OW 7138   2.823   2.273   4.778
 2080SOL    HW1 7139   2.758   2.325   4.722
 2080SOL    HW2 7140   2.886   2.336   4.823
 2081SOL     OW 7141   0.855   6.301   5.132
 2081SOL    HW1 7142   0.934   6.332   5.185
 2081SOL    HW2 7143   0.887   6.245   5.055
 2082SOL     OW 7144   5.774   1.060   1.253
 2082SOL    HW1 7145   5.754   0.988   1.187
 2082SOL    HW2 7146   5.745   1.148   1.215
 2083SOL     OW 7147   3.516   4.605   6.073
 2083SOL    HW1 7148   3.470   4.520   6.047
 2083SOL    HW2 7149   3.458   4.683   6.049
 2084SOL     OW 7150   6.865   2.826   2.823
 2084SOL    HW1 7151   6.941   2.889   2.808
 2084SOL    HW2 7152   6.901   2.737   2.852
 2085SOL     OW 7153   4.428   0.592   5.985
 2085SOL    HW1 7154   4.332   0.591   5.957
 2085SOL    HW2 7155   4.479   0.657   5.929
 2086SOL     OW 7156   2.865   5.138   0.184
 2086SOL    HW1 7157   2.908   5.099   0.266
 2086SOL    HW2 7158   2.840   5.233   0.201
 2087SOL     OW 7159   5.463   0.104   2.718
 2087SOL    HW1 7160   5.546   0.083   2.667
 2087SOL    HW2 7161   5.483   0.102   2.816
 2088SOL     OW 7162   3.475   6.603   0.905
 2088SOL    HW1 7163   3.515   6.540   0.972
 2088SOL    HW2 7164   3.546   6.633   0.841
 2089SOL     OW 7165   4.883   1.110   0.162
 2089SOL    HW1 7166   4.978   1.099   0.132
 2089SOL    HW2 7167   4.874   1.196   0.212
 2090SOL     OW 7168   3.567   3.883   4.948
 2090SOL    HW1 7169   3.485   3.871   4.892
 2090SOL    HW2 7170   3.646   3.845   4.901
 2091SOL     OW 7171   1.429   5.623   0.978
 2091SOL    HW1 7172   1.514   5.642   1.026
 2091SOL    HW2 7173   1.374   5.560   1.033
 2092SOL     OW 7174   6.313   5.957   1.177
 2092SOL    HW1 7175   6.304   5.869   1.224
 2092SOL    HW2 7176   6.391   5.954   1.115
 2093SOL     OW 7177   0.901   3.180   1.806
 2093SOL    HW1 7178   0.908   3.273   1.770
 2093SOL    HW2 7179   0.954   3.173   1.891
 2094SOL     OW 7180   5.552   0.344   2.046
 2094SOL    HW1 7181   5.620   0.282   2.085
 2094SOL    HW2 7182   5.505   0.393   2.120
 2095SOL     OW 7183   5.538   5.625   4.657
 2095SOL    HW1 7184   5.440   5.617   4.674
 2095SOL    HW2 7185   5.571   5.543   4.610
 2096SOL     OW 7186   4.743   4.314   2.519
 2096SOL    HW1 7187   4.784   4.377   2.452
 2096SOL    HW2 7188   4.773   4.221   2.500
 2097SOL     OW 7189   0.132   2.765   6.997
 2097SOL    HW1 7190   0.100   2.762   6.902
 2097SOL    HW2 7191   0.074   2.707   0.029
 2098SOL     OW 7192   4.394   6.880   4.322
 2098SOL    HW1 7193   4.456   6.806   4.293
 2098SOL    HW2 7194   4.443   6.943   4.382
 2099SOL     OW 7195   2.930   0.739   4.101
 2099SOL    HW1 7196   2.880   0.655   4.121
 2099SOL    HW2 7197   2.873   0.818   4.124
 2100SOL     OW 7198   4.668   4.365   6.150
 2100SOL    HW1 7199   4.597   4.325   6.208
 2100SOL    HW2 7200   4.656   4.464   6.145
 2101SOL     OW 7201   0.323   7.016   3.141
 2101SOL    HW1 7202   0.231   6.998   3.106
 2101SOL    HW2 7203   0.320   0.064   3.209
 2102SOL     OW 7204   6.984   5.200   3.040
 2102SOL    HW1 7205   0.027   5.242   3.101
 2102SOL    HW2 7206   6.895   5.200   3.085
 2103SOL     OW 7207   3.350   3.244   6.959
 2103SOL    HW1 7208   3.417   3.302   7.005
 2103SOL    HW2 7209   3.261   3.254   7.004
 2104SOL     OW 7210   1.718   3.484   5.461
 2104SOL    HW1 7211   1.758   3.567   5.424
 2104SOL    HW2 7212   1.770   3.404   5.430
 2105SOL     OW 7213   6.053   5.287   1.920
 2105SOL    HW1 7214   6.035   5.262   2.016
 2105SOL    HW2 7215   6.144   5.255   1.894
 2106SOL     OW 7216   4.977   5.592   6.666
 2106SOL    HW1 7217   4.935   5.526   6.603
 2106SOL    HW2 7218   4.906   5.640   6.716
 2107SOL     OW 7219   3.718   4.226   5.500
 2107SOL    HW1 7220   3.627   4.185   5.495
 2107SOL    HW2 7221   3.782   4.171   5.447
 2108SOL     OW 7222   6.095   5.472   5.773
 2108SOL    HW1 7223   6.177   5.459   5.829
 2108SOL    HW2 7224   6.044   5.552   5.807
 2109SOL     OW 7225   6.086   5.963   2.474
 2109SOL    HW1 7226   6.020   6.037   2.488
 2109SOL    HW2 7227   6.054   5.905   2.398
 2110SOL     OW 7228   2.906   4.397   6.331
 2110SOL    HW1 7229   2.858   4.485   6.338
 2110SOL    HW2 7230   2.989   4.409   6.276
 2111SOL     OW 7231   1.260   2.644   6.352
 2111SOL    HW1 7232   1.255   2.625   6.254
 2111SOL    HW2 7233   1.223   2.566   6.403
 2112SOL     OW 7234   4.654   2.720   1.198
 2112SOL    HW1 7235   4.630   2.737   1.293
 2112SOL    HW2 7236   4.594   2.649   1.160
 2113SOL     OW 7237   1.304   0.979   2.773
 2113SOL    HW1 7238   1.234   0.923   2.728
 2113SOL    HW2 7239   1.346   1.039   2.706
 2114SOL     OW 7240   1.625   4.448   0.150
 2114SOL    HW1 7241   1.662   4.357   0.138
 2114SOL    HW2 7242   1.597   4.460   0.246
 2115SOL     OW 7243   2.100   4.503   2.272
 2115SOL    HW1 7244   2.151   4.441   2.332
 2115SOL    HW2 7245   2.146   4.510   2.184
 2116SOL     OW 7246   0.170   3.935   3.662
 2116SOL    HW1 7247   0.141   3.860   3.722
 2116SOL    HW2 7248   0.182   4.018   3.717
 2117SOL     OW 7249   0.903   4.976   1.450
 2117SOL    HW1 7250   0.927   4.951   1.356
 2117SOL    HW2 7251   0.984   4.973   1.508
 2118SOL     OW 7252   0.126   3.694   2.318
 2118SOL    HW1 7253   0.145   3.647   2.404
 2118SOL    HW2 7254   0.083   3.631   2.254
 2119SOL     OW 7255   2.634   6.035   0.922
 2119SOL    HW1 7256   2.696   6.035   0.843
 2119SOL    HW2 7257   2.581   5.950   0.922
 2120SOL     OW 7258   6.691   5.057   1.872
 2120SOL    HW1 7259   6.759   5.127   1.852
 2120SOL    HW2 7260   6.665   5.010   1.787
 2121SOL     OW 7261   0.517   5.221   5.308
 2121SOL    HW1 7262   0.460   5.211   5.389
 2121SOL    HW2 7263   0.567   5.136   5.291
 2122SOL     OW 7264   4.655   4.389   4.920
 2122SOL    HW1 7265   4.753   4.409   4.916
 2122SOL    HW2 7266   4.636   4.302   4.874
 2123SOL     OW 7267   6.436   4.732   2.704
 2123SOL    HW1 7268   6.388   4.819   2.693
 2123SOL    HW2 7269   6.532   4.744   2.682
 2124SOL     OW 7270   2.507   2.113   1.419
 2124SOL    HW1 7271   2.556   2.056   1.486
 2124SOL    HW2 7272   2.412   2.121   1.447
 2125SOL     OW 7273   2.972   0.656   0.645
 2125SOL    HW1 7274   2.887   0.709   0.637
 2125SOL    HW2 7275   2.967   0.597   0.726
 2126SOL     OW 7276   2.951   0.871   6.486
 2126SOL    HW1 7277   3.020   0.806   6.456
 2126SOL    HW2 7278   2.949   0.949   6.423
 2127SOL     OW 7279   5.636   3.204   4.461
 2127SOL    HW1 7280   5.663   3.238   4.551
 2127SOL    HW2 7281   5.578   3.273   4.416
 2128SOL     OW 7282   0.627   4.060   4.692
 2128SOL    HW1 7283   0.545   4.114   4.713
 2128SOL    HW2 7284   0.643   3.994   4.765
 2129SOL     OW 7285   4.463   2.264   5.612
 2129SOL    HW1 7286   4.505   2.191   5.666
 2129SOL    HW2 7287   4.403   2.225   5.543
 2130SOL     OW 7288   5.229   6.677   2.439
 2130SOL    HW1 7289   5.236   6.674   2.539
 2130SOL    HW2 7290   5.269   6.763   2.406
 2131SOL     OW 7291   6.758   1.032   0.744
 2131SOL    HW1 7292   6.790   1.025   0.650
 2131SOL    HW2 7293   6.716   0.946   0.772
 2132SOL     OW 7294   2.363   3.126   0.570
 2132SOL    HW1 7295   2.403   3.035   0.586
 2132SOL    HW2 7296   2.298   3.120   0.494
 2133SOL     OW 7297   3.082   2.284   5.986
 2133SOL    HW1 7298   3.011   2.250   6.048
 2133SOL    HW2 7299   3.126   2.206   5.941
 2134SOL     OW 7300   0.127   0.769   1.050
 2134SOL    HW1 7301   0.084   0.680   1.062
 2134SOL    HW2 7302   0.200   0.763   0.982
 2135SOL     OW 7303   0.634   3.718   4.793
 2135SOL    HW1 7304   0.630   3.625   4.829
 2135SOL    HW2 7305   0.672   3.718   4.701
 2136SOL     OW 7306   2.299   5.687   1.732
 2136SOL    HW1 7307   2.343   5.662   1.646
 2136SOL    HW2 7308   2.200   5.687   1.720
 2137SOL     OW 7309   2.987   5.483   4.588
 2137SOL    HW1 7310   3.038   5.430   4.520
 2137SOL    HW2 7311   2.963   5.424   4.665
 2138SOL     OW 7312   5.702   1.609   2.398
 2138SOL    HW1 7313   5.677   1.548   2.473
 2138SOL    HW2 7314   5.630   1.607   2.329
 2139SOL     OW 7315   3.133   0.646   5.485
 2139SOL    HW1 7316   3.124   0.550   5.510
 2139SOL    HW2 7317   3.187   0.654   5.401
 2140SOL     OW 7318   2.749   1.489   5.022
 2140SOL    HW1 7319   2.787   1.398   5.029
 2140SOL    HW2 7320   2.676   1.490   4.954
 2141SOL     OW 7321   6.047   4.351   2.343
 2141SOL    HW1 7322   5.970   4.348   2.407
 2141SOL    HW2 7323   6.127   4.389   2.389
 2142SOL     OW 7324   1.974   2.293   3.577
 2142SOL    HW1 7325   1.993   2.333   3.666
 2142SOL    HW2 7326   2.055   2.245   3.543
 2143SOL     OW 7327   2.205   4.863   0.785
 2143SOL    HW1 7328   2.264   4.791   0.748
 2143SOL    HW2 7329   2.109   4.838   0.772
 2144SOL     OW 7330   6.656   5.743   4.136
 2144SOL    HW1 7331   6.568   5.742   4.182
 2144SOL    HW2 7332   6.685   5.649   4.118
 2145SOL     OW 7333   4.279   6.442   4.363
 2145SOL    HW1 7334   4.233   6.505   4.300
 2145SOL    HW2 7335   4.318   6.495   4.439
 2146SOL     OW 7336   2.468   2.930   0.956
 2146SOL    HW1 7337   2.526   2.863   1.002
 2146SOL    HW2 7338   2.384   2.942   1.009
 2147SOL     OW 7339   6.227   0.883   5.386
 2147SOL    HW1 7340   6.180   0.959   5.340
 2147SOL    HW2 7341   6.161   0.810   5.403
 2148SOL     OW 7342   0.146   3.562   6.719
 2148SOL    HW1 7343   0.066   3.564   6.659
 2148SOL    HW2 7344   0.131   3.623   6.797
 2149SOL     OW 7345   0.630   0.617   6.774
 2149SOL    HW1 7346   0.693   0.605   6.698
 2149SOL    HW2 7347   0.647   0.546   6.843
 2150SOL     OW 7348   2.400   3.322   1.486
 2150SOL    HW1 7349   2.478   3.342   1.546
 2150SOL    HW2 7350   2.317   3.313   1.542
 2151SOL     OW 7351   1.139   5.593   6.967
 2151SOL    HW1 7352   1.117   5.683   7.003
 2151SOL    HW2 7353   1.238   5.585   6.954
 2152SOL     OW 7354   4.149   5.982   3.261
 2152SOL    HW1 7355   4.076   5.921   3.292
 2152SOL    HW2 7356   4.167   6.050   3.332
 2153SOL     OW 7357   4.974   1.217   3.170
 2153SOL    HW1 7358   4.894   1.224   3.111
 2153SOL    HW2 7359   4.949   1.238   3.264
 2154SOL     OW 7360   2.988   6.575   3.247
 2154SOL    HW1 7361   3.033   6.611   3.329
 2154SOL    HW2 7362   3.042   6.499   3.210
 2155SOL     OW 7363   4.327   6.597   0.975
 2155SOL    HW1 7364   4.303   6.629   0.883
 2155SOL    HW2 7365   4.399   6.655   1.013
 2156SOL     OW 7366   5.671   1.597   4.462
 2156SOL    HW1 7367   5.615   1.613   4.543
 2156SOL    HW2 7368   5.748   1.538   4.485
 2157SOL     OW 7369   3.793   5.491   3.897
 2157SOL    HW1 7370   3.850   5.485   3.816
 2157SOL    HW2 7371   3.729   5.414   3.899
 2158SOL     OW 7372   3.260   0.861   0.249
 2158SOL    HW1 7373   3.197   0.909   0.188
 2158SOL    HW2 7374   3.222   0.860   0.342
 2159SOL     OW 7375   1.065   0.222   5.809
 2159SOL    HW1 7376   1.129   0.146   5.794
 2159SOL    HW2 7377   1.088   0.297   5.747
 2160SOL     OW 7378   4.720   6.189   0.596
 2160SOL    HW1 7379   4.655   6.224   0.663
 2160SOL    HW2 7380   4.761   6.266   0.546
 2161SOL     OW 7381   1.447   3.646   2.386
 2161SOL    HW1 7382   1.366   3.683   2.342
 2161SOL    HW2 7383   1.506   3.721   2.417
 2162SOL     OW 7384   1.998   0.166   2.990
 2162SOL    HW1 7385   1.917   0.180   3.047
 2162SOL    HW2 7386   1.969   0.141   2.898
 2163SOL     OW 7387   1.151   3.383   1.568
 2163SOL    HW1 7388   1.222   3.398   1.637
 2163SOL    HW2 7389   1.190   3.331   1.492
 2164SOL     OW 7390   2.154   2.641   2.398
 2164SOL    HW1 7391   2.061   2.676   2.409
 2164SOL    HW2 7392   2.220   2.710   2.428
 2165SOL     OW 7393   0.146   1.803   3.751
 2165SOL    HW1 7394   0.119   1.820   3.846
 2165SOL    HW2 7395   0.067   1.771   3.699
 2166SOL     OW 7396   0.159   4.390   3.320
 2166SOL    HW1 7397   0.131   4.435   3.235
 2166SOL    HW2 7398   0.086   4.400   3.388
 2167SOL     OW 7399   2.089   2.540   4.429
 2167SOL    HW1 7400   2.082   2.561   4.526
 2167SOL    HW2 7401   2.075   2.442   4.415
 2168SOL     OW 7402   1.326   2.019   3.108
 2168SOL    HW1 7403   1.250   1.956   3.124
 2168SOL    HW2 7404   1.299   2.087   3.041
 2169SOL     OW 7405   0.480   0.524   1.675
 2169SOL    HW1 7406   0.399   0.466   1.674
 2169SOL    HW2 7407   0.466   0.603   1.616
 2170SOL     OW 7408   0.845   3.964   5.959
 2170SOL    HW1 7409   0.931   3.974   6.008
 2170SOL    HW2 7410   0.823   3.867   5.948
 2171SOL     OW 7411   0.570   5.491   1.052
 2171SOL    HW1 7412   0.529   5.400   1.056
 2171SOL    HW2 7413   0.546   5.535   0.966
 2172SOL     OW 7414   0.441   1.972   5.046
 2172SOL    HW1 7415   0.472   2.059   5.007
 2172SOL    HW2 7416   0.453   1.900   4.979
 2173SOL     OW 7417   5.975   0.411   4.886
 2173SOL    HW1 7418   6.073   0.412   4.864
 2173SOL    HW2 7419   5.958   0.474   4.962
 2174SOL     OW 7420   0.167   5.727   4.894
 2174SOL    HW1 7421   0.242   5.760   4.952
 2174SOL    HW2 7422   0.080   5.745   4.940
 2175SOL     OW 7423   3.204   3.336   5.607
 2175SOL    HW1 7424   3.134   3.264   5.614
 2175SOL    HW2 7425   3.165   3.423   5.638
 2176SOL     OW 7426   5.550   2.953   1.118
 2176SOL    HW1 7427   5.650   2.953   1.109
 2176SOL    HW2 7428   5.510   2.927   1.030
 2177SOL     OW 7429   0.027   0.579   3.827
 2177SOL    HW1 7430   6.995   0.632   3.765
 2177SOL    HW2 7431   0.106   0.634   3.855
 2178SOL     OW 7432   1.075   1.854   2.657
 2178SOL    HW1 7433   1.006   1.791   2.621
 2178SOL    HW2 7434   1.103   1.823   2.748
 2179SOL     OW 7435   1.911   4.760   6.647
 2179SOL    HW1 7436   1.894   4.696   6.722
 2179SOL    HW2 7437   1.934   4.709   6.565
 2180SOL     OW 7438   0.781   4.803   1.803
 2180SOL    HW1 7439   0.772   4.718   1.855
 2180SOL    HW2 7440   0.852   4.860   1.845
 2181SOL     OW 7441   4.635   4.990   4.047
 2181SOL    HW1 7442   4.598   4.954   3.962
 2181SOL    HW2 7443   4.567   4.979   4.120
 2182SOL     OW 7444   0.336   5.551   3.327
 2182SOL    HW1 7445   0.407   5.488   3.297
 2182SOL    HW2 7446   0.328   5.626   3.261
 2183SOL     OW 7447   3.649   3.328   0.459
 2183SOL    HW1 7448   3.665   3.238   0.420
 2183SOL    HW2 7449   3.602   3.319   0.547
 2184SOL     OW 7450   6.683   0.637   0.212
 2184SOL    HW1 7451   6.646   0.591   0.131
 2184SOL    HW2 7452   6.745   0.576   0.260
 2185SOL     OW 7453   0.259   1.468   6.926
 2185SOL    HW1 7454   0.357   1.468   6.944
 2185SOL    HW2 7455   0.210   1.442   7.009
 2186SOL     OW 7456   6.968   5.686   4.707
 2186SOL    HW1 7457   0.017   5.677   4.640
 2186SOL    HW2 7458   6.970   5.607   4.768
 2187SOL     OW 7459   0.527   5.524   3.004
 2187SOL    HW1 7460   0.533   5.458   3.079
 2187SOL    HW2 7461   0.500   5.613   3.041
 2188SOL     OW 7462   1.982   0.220   0.786
 2188SOL    HW1 7463   2.046   0.194   0.859
 2188SOL    HW2 7464   2.030   0.270   0.715
 2189SOL     OW 7465   2.912   1.473   2.185
 2189SOL    HW1 7466   2.979   1.500   2.115
 2189SOL    HW2 7467   2.881   1.554   2.235
 2190SOL     OW 7468   6.802   4.370   2.418
 2190SOL    HW1 7469   6.845   4.441   2.362
 2190SOL    HW2 7470   6.822   4.280   2.380
 2191SOL     OW 7471   2.058   0.859   6.129
 2191SOL    HW1 7472   2.100   0.770   6.149
 2191SOL    HW2 7473   2.029   0.902   6.214
 2192SOL     OW 7474   4.983   1.347   2.238
 2192SOL    HW1 7475   4.916   1.346   2.164
 2192SOL    HW2 7476   4.945   1.303   2.319
 2193SOL     OW 7477   6.852   6.803   6.099
 2193SOL    HW1 7478   6.797   6.866   6.044
 2193SOL    HW2 7479   6.911   6.855   6.161
 2194SOL     OW 7480   0.975   4.560   5.562
 2194SOL    HW1 7481   1.046   4.615   5.606
 2194SOL    HW2 7482   0.903   4.538   5.629
 2195SOL     OW 7483   0.837   4.392   6.644
 2195SOL    HW1 7484   0.821   4.297   6.671
 2195SOL    HW2 7485   0.821   4.401   6.546
 2196SOL     OW 7486   2.330   6.062   5.605
 2196SOL    HW1 7487   2.354   5.970   5.637
 2196SOL    HW2 7488   2.232   6.066   5.586
 2197SOL     OW 7489   2.845   4.188   5.698
 2197SOL    HW1 7490   2.929   4.243   5.703
 2197SOL    HW2 7491   2.773   4.231   5.751
 2198SOL     OW 7492   0.771   0.183   6.147
 2198SOL    HW1 7493   0.716   0.243   6.206
 2198SOL    HW2 7494   0.710   0.132   6.087
 2199SOL     OW 7495   4.781   6.742   4.781
 2199SOL    HW1 7496   4.837   6.698   4.852
 2199SOL    HW2 7497   4.826   6.827   4.752
 2200SOL     OW 7498   2.705   1.443   4.139
 2200SOL    HW1 7499   2.753   1.480   4.218
 2200SOL    HW2 7500   2.719   1.503   4.060
 2201SOL     OW 7501   6.419   2.737   4.025
 2201SOL    HW1 7502   6.330   2.692   4.017
 2201SOL    HW2 7503   6.491   2.668   4.015
 2202SOL     OW 7504   3.753   5.125   2.441
 2202SOL    HW1 7505   3.741   5.029   2.415
 2202SOL    HW2 7506   3.788   5.177   2.363
 2203SOL     OW 7507   1.973   3.701   1.003
 2203SOL    HW1 7508   1.899   3.639   0.975
 2203SOL    HW2 7509   2.059   3.672   0.960
 2204SOL     OW 7510   4.305   2.712   0.890
 2204SOL    HW1 7511   4.336   2.652   0.817
 2204SOL    HW2 7512   4.213   2.745   0.869
 2205SOL     OW 7513   1.517   6.138   0.747
 2205SOL    HW1 7514   1.491   6.042   0.740
 2205SOL    HW2 7515   1.617   6.145   0.754
 2206SOL     OW 7516   2.268   3.008   6.486
 2206SOL    HW1 7517   2.324   3.089   6.467
 2206SOL    HW2 7518   2.193   3.003   6.421
 2207SOL     OW 7519   4.459   5.969   1.105
 2207SOL    HW1 7520   4.538   5.992   1.048
 2207SOL    HW2 7521   4.472   6.008   1.197
 2208SOL     OW 7522   0.930   5.989   3.653
 2208SOL    HW1 7523   0.908   5.892   3.665
 2208SOL    HW2 7524   0.849   6.037   3.618
 2209SOL     OW 7525   2.559   5.260   5.140
 2209SOL    HW1 7526   2.465   5.225   5.133
 2209SOL    HW2 7527   2.559   5.343   5.197
 2210SOL     OW 7528   5.839   6.101   1.314
 2210SOL    HW1 7529   5.747   6.096   1.275
 2210SOL    HW2 7530   5.869   6.009   1.340
 2211SOL     OW 7531   6.132   0.131   0.836
 2211SOL    HW1 7532   6.181   0.076   0.768
 2211SOL    HW2 7533   6.066   0.190   0.790
 2212SOL     OW 7534   2.549   5.864   6.731
 2212SOL    HW1 7535   2.599   5.800   6.789
 2212SOL    HW2 7536   2.613   5.911   6.670
 2213SOL     OW 7537   4.022   2.168   3.916
 2213SOL    HW1 7538   4.023   2.223   3.832
 2213SOL    HW2 7539   4.072   2.083   3.900
 2214SOL     OW 7540   4.148   3.031   5.530
 2214SOL    HW1 7541   4.088   3.039   5.450
 2214SOL    HW2 7542   4.197   2.943   5.526
 2215SOL     OW 7543   4.808   0.543   6.632
 2215SOL    HW1 7544   4.769   0.618   6.579
 2215SOL    HW2 7545   4.743   0.467   6.637
 2216SOL     OW 7546   0.573   6.161   6.403
 2216SOL    HW1 7547   0.641   6.183   6.333
 2216SOL    HW2 7548   0.513   6.240   6.416
 2217SOL     OW 7549   4.489   0.775   2.592
 2217SOL    HW1 7550   4.457   0.707   2.528
 2217SOL    HW2 7551   4.584   0.799   2.571
 2218SOL     OW 7552   0.442   5.119   6.204
 2218SOL    HW1 7553   0.346   5.103   6.183
 2218SOL    HW2 7554   0.482   5.036   6.243
 2219SOL     OW 7555   5.384   1.282   0.463
 2219SOL    HW1 7556   5.381   1.352   0.535
 2219SOL    HW2 7557   5.291   1.264   0.431
 2220SOL     OW 7558   1.428   6.736   5.627
 2220SOL    HW1 7559   1.512   6.722   5.680
 2220SOL    HW2 7560   1.363   6.790   5.680
 2221SOL     OW 7561   6.808   1.189   5.050
 2221SOL    HW1 7562   6.861   1.192   4.965
 2221SOL    HW2 7563   6.774   1.281   5.071
 2222SOL     OW 7564   5.970   6.237   0.589
 2222SOL    HW1 7565   6.008   6.276   0.674
 2222SOL    HW2 7566   6.032   6.256   0.513
 2223SOL     OW 7567   6.826   0.176   5.552
 2223SOL    HW1 7568   6.809   0.078   5.541
 2223SOL    HW2 7569   6.780   0.226   5.479
 2224SOL     OW 7570   6.039   4.209   1.856
 2224SOL    HW1 7571   6.082   4.138   1.800
 2224SOL    HW2 7572   5.986   4.166   1.929
 2225SOL     OW 7573   0.645   6.491   3.506
 2225SOL    HW1 7574   0.738   6.482   3.543
 2225SOL    HW2 7575   0.615   6.403   3.471
 2226SOL     OW 7576   2.748   5.271   0.760
 2226SOL    HW1 7577   2.691   5.256   0.841
 2226SOL    HW2 7578   2.779   5.366   0.758
 2227SOL     OW 7579   3.970   2.539   1.708
 2227SOL    HW1 7580   4.065   2.510   1.721
 2227SOL    HW2 7581   3.962   2.637   1.725
 2228SOL     OW 7582   4.622   4.968   0.285
 2228SOL    HW1 7583   4.662   4.879   0.302
 2228SOL    HW2 7584   4.694   5.033   0.259
 2229SOL     OW 7585   3.159   3.683   4.486
 2229SOL    HW1 7586   3.178   3.651   4.393
 2229SOL    HW2 7587   3.085   3.628   4.525
 2230SOL     OW 7588   5.395   6.414   0.640
 2230SOL    HW1 7589   5.334   6.366   0.576
 2230SOL    HW2 7590   5.475   6.357   0.659
 2231SOL     OW 7591   0.114   0.963   6.989
 2231SOL    HW1 7592   0.200   0.984   0.012
 2231SOL    HW2 7593   0.121   0.990   6.893
 2232SOL     OW 7594   1.607   0.579   5.612
 2232SOL    HW1 7595   1.650   0.654   5.662
 2232SOL    HW2 7596   1.509   0.596   5.603
 2233SOL     OW 7597   3.269   3.674   1.034
 2233SOL    HW1 7598   3.368   3.681   1.024
 2233SOL    HW2 7599   3.239   3.584   1.003
 2234SOL     OW 7600   3.813   1.660   0.558
 2234SOL    HW1 7601   3.893   1.639   0.613
 2234SOL    HW2 7602   3.841   1.709   0.476
 2235SOL     OW 7603   2.761   0.454   2.155
 2235SOL    HW1 7604   2.688   0.509   2.196
 2235SOL    HW2 7605   2.847   0.475   2.202
 2236SOL     OW 7606   1.799   3.985   5.948
 2236SOL    HW1 7607   1.896   4.010   5.940
 2236SOL    HW2 7608   1.771   3.935   5.866
 2237SOL     OW 7609   5.896   5.220   5.151
 2237SOL    HW1 7610   5.960   5.253   5.220
 2237SOL    HW2 7611   5.880   5.122   5.166
 2238SOL     OW 7612   4.967   4.687   2.677
 2238SOL    HW1 7613   4.905   4.613   2.702
 2238SOL    HW2 7614   4.915   4.767   2.648
 2239SOL     OW 7615   3.569   6.511   3.879
 2239SOL    HW1 7616   3.656   6.462   3.888
 2239SOL    HW2 7617   3.507   6.481   3.951
 2240SOL     OW 7618   4.698   5.967   3.107
 2240SOL    HW1 7619   4.636   6.024   3.053
 2240SOL    HW2 7620   4.772   5.933   3.048
 2241SOL     OW 7621   0.347   6.913   1.775
 2241SOL    HW1 7622   0.288   6.880   1.701
 2241SOL    HW2 7623   0.300   6.986   1.825
 2242SOL     OW 7624   5.357   3.014   3.320
 2242SOL    HW1 7625   5.440   3.065   3.345
 2242SOL    HW2 7626   5.329   2.958   3.397
 2243SOL     OW 7627   2.361   6.592   0.355
 2243SOL    HW1 7628   2.288   6.534   0.319
 2243SOL    HW2 7629   2.448   6.568   0.310
 2244SOL     OW 7630   2.651   0.653   1.029
 2244SOL    HW1 7631   2.593   0.575   1.052
 2244SOL    HW2 7632   2.703   0.633   0.946
 2245SOL     OW 7633   0.973   1.392   0.621
 2245SOL    HW1 7634   1.030   1.470   0.597
 2245SOL    HW2 7635   1.006   1.351   0.706
 2246SOL     OW 7636   2.149   0.808   4.521
 2246SOL    HW1 7637   2.090   0.856   4.586
 2246SOL    HW2 7638   2.222   0.761   4.570
 2247SOL     OW 7639   3.434   3.951   2.355
 2247SOL    HW1 7640   3.387   3.981   2.273
 2247SOL    HW2 7641   3.409   3.856   2.375
 2248SOL     OW 7642   5.988   4.508   5.067
 2248SOL    HW1 7643   5.986   4.568   5.147
 2248SOL    HW2 7644   5.993   4.413   5.098
 2249SOL     OW 7645   2.734   6.525   3.893
 2249SOL    HW1 7646   2.677   6.460   3.842
 2249SOL    HW2 7647   2.689   6.614   3.896
 2250SOL     OW 7648   3.802   4.039   5.728
 2250SOL    HW1 7649   3.769   3.945   5.722
 2250SOL    HW2 7650   3.772   4.090   5.648
 2251SOL     OW 7651   5.221   6.353   6.673
 2251SOL    HW1 7652   5.134   6.372   6.718
 2251SOL    HW2 7653   5.267   6.439   6.649
 2252SOL     OW 7654   5.564   1.823   3.062
 2252SOL    HW1 7655   5.561   1.920   3.087
 2252SOL    HW2 7656   5.556   1.814   2.963
 2253SOL     OW 7657   0.517   3.115   0.521
 2253SOL    HW1 7658   0.571   3.193   0.553
 2253SOL    HW2 7659   0.527   3.039   0.585
 2254SOL     OW 7660   3.584   4.050   2.563
 2254SOL    HW1 7661   3.533   4.036   2.478
 2254SOL    HW2 7662   3.682   4.048   2.543
 2255SOL     OW 7663   2.823   4.291   5.330
 2255SOL    HW1 7664   2.872   4.375   5.309
 2255SOL    HW2 7665   2.859   4.216   5.273
 2256SOL     OW 7666   4.806   6.358   2.031
 2256SOL    HW1 7667   4.758   6.296   1.969
 2256SOL    HW2 7668   4.764   6.449   2.027
 2257SOL     OW 7669   0.805   1.599   3.725
 2257SOL    HW1 7670   0.893   1.604   3.678
 2257SOL    HW2 7671   0.753   1.520   3.691
 2258SOL     OW 7672   1.998   6.748   4.869
 2258SOL    HW1 7673   2.095   6.738   4.846
 2258SOL    HW2 7674   1.943   6.700   4.801
 2259SOL     OW 7675   6.361   2.528   4.630
 2259SOL    HW1 7676   6.297   2.563   4.561
 2259SOL    HW2 7677   6.450   2.572   4.618
 2260SOL     OW 7678   1.213   3.820   1.590
 2260SOL    HW1 7679   1.202   3.745   1.526
 2260SOL    HW2 7680   1.197   3.788   1.683
 2261SOL     OW 7681   6.314   3.816   0.357
 2261SOL    HW1 7682   6.264   3.903   0.366
 2261SOL    HW2 7683   6.251   3.744   0.329
 2262SOL     OW 7684   6.142   0.639   4.147
 2262SOL    HW1 7685   6.072   0.623   4.217
 2262SOL    HW2 7686   6.228   0.598   4.177
 2263SOL     OW 7687   1.065   5.183   0.360
 2263SOL    HW1 7688   1.042   5.171   0.456
 2263SOL    HW2 7689   1.045   5.276   0.332
 2264SOL     OW 7690   2.689   6.689   6.658
 2264SOL    HW1 7691   2.781   6.668   6.624
 2264SOL    HW2 7692   2.672   6.787   6.647
 2265SOL     OW 7693   1.649   0.310   4.456
 2265SOL    HW1 7694   1.639   0.296   4.357
 2265SOL    HW2 7695   1.565   0.349   4.492
 2266SOL     OW 7696   5.031   1.325   6.124
 2266SOL    HW1 7697   5.026   1.278   6.036
 2266SOL    HW2 7698   4.958   1.292   6.184
 2267SOL     OW 7699   4.546   2.638   5.017
 2267SOL    HW1 7700   4.591   2.720   5.051
 2267SOL    HW2 7701   4.556   2.564   5.084
 2268SOL     OW 7702   6.131   4.525   6.366
 2268SOL    HW1 7703   6.044   4.515   6.318
 2268SOL    HW2 7704   6.169   4.615   6.348
 2269SOL     OW 7705   0.629   3.437   5.761
 2269SOL    HW1 7706   0.662   3.352   5.801
 2269SOL    HW2 7707   0.533   3.426   5.734
 2270SOL     OW 7708   4.327   3.219   5.956
 2270SOL    HW1 7709   4.293   3.130   5.925
 2270SOL    HW2 7710   4.411   3.206   6.008
 2271SOL     OW 7711   5.793   4.321   6.905
 2271SOL    HW1 7712   5.816   4.310   7.001
 2271SOL    HW2 7713   5.799   4.233   6.858
 2272SOL     OW 7714   6.144   0.695   6.360
 2272SOL    HW1 7715   6.144   0.761   6.435
 2272SOL    HW2 7716   6.154   0.743   6.273
 2273SOL     OW 7717   2.201   2.372   2.274
 2273SOL    HW1 7718   2.114   2.332   2.302
 2273SOL    HW2 7719   2.191   2.472   2.267
 2274SOL     OW 7720   0.718   1.698   6.977
 2274SOL    HW1 7721   0.685   1.657   6.891
 2274SOL    HW2 7722   0.665   1.780   6.997
 2275SOL     OW 7723   5.890   5.041   1.987
 2275SOL    HW1 7724   5.873   5.026   1.889
 2275SOL    HW2 7725   5.812   5.089   2.027
 2276SOL     OW 7726   1.741   0.683   1.326
 2276SOL    HW1 7727   1.750   0.764   1.268
 2276SOL    HW2 7728   1.782   0.604   1.280
 2277SOL     OW 7729   3.024   3.738   3.436
 2277SOL    HW1 7730   3.061   3.827   3.465
 2277SOL    HW2 7731   3.070   3.665   3.486
 2278SOL     OW 7732   0.471   2.898   4.010
 2278SOL    HW1 7733   0.462   2.883   3.912
 2278SOL    HW2 7734   0.392   2.861   4.058
 2279SOL     OW 7735   6.890   5.894   6.089
 2279SOL    HW1 7736   6.794   5.868   6.092
 2279SOL    HW2 7737   6.944   5.830   6.144
 2280SOL     OW 7738   5.586   0.761   5.240
 2280SOL    HW1 7739   5.600   0.725   5.148
 2280SOL    HW2 7740   5.557   0.688   5.301
 2281SOL     OW 7741   4.456   6.687   2.555
 2281SOL    HW1 7742   4.483   6.630   2.634
 2281SOL    HW2 7743   4.358   6.680   2.541
 2282SOL     OW 7744   4.968   5.430   5.380
 2282SOL    HW1 7745   4.986   5.391   5.470
 2282SOL    HW2 7746   4.979   5.530   5.385
 2283SOL     OW 7747   2.053   0.671   3.247
 2283SOL    HW1 7748   2.058   0.770   3.261
 2283SOL    HW2 7749   1.986   0.632   3.310
 2284SOL     OW 7750   0.725   3.413   6.171
 2284SOL    HW1 7751   0.703   3.356   6.250
 2284SOL    HW2 7752   0.817   3.390   6.138
 2285SOL     OW 7753   1.157   3.755   6.866
 2285SOL    HW1 7754   1.228   3.686   6.879
 2285SOL    HW2 7755   1.094   3.726   6.794
 2286SOL     OW 7756   5.075   6.359   3.064
 2286SOL    HW1 7757   5.166   6.398   3.079
 2286SOL    HW2 7758   5.010   6.401   3.127
 2287SOL     OW 7759   2.771   0.919   3.268
 2287SOL    HW1 7760   2.833   0.852   3.309
 2287SOL    HW2 7761   2.683   0.874   3.249
 2288SOL     OW 7762   0.006   4.757   3.583
 2288SOL    HW1 7763   0.004   4.816   3.502
 2288SOL    HW2 7764   6.978   4.801   3.657
 2289SOL     OW 7765   0.452   5.184   1.570
 2289SOL    HW1 7766   0.535   5.239   1.564
 2289SOL    HW2 7767   0.454   5.112   1.500
 2290SOL     OW 7768   1.095   4.264   1.257
 2290SOL    HW1 7769   1.096   4.329   1.181
 2290SOL    HW2 7770   1.084   4.313   1.343
 2291SOL     OW 7771   3.494   1.442   5.691
 2291SOL    HW1 7772   3.460   1.356   5.652
 2291SOL    HW2 7773   3.472   1.445   5.788
 2292SOL     OW 7774   1.140   0.974   5.109
 2292SOL    HW1 7775   1.090   0.888   5.123
 2292SOL    HW2 7776   1.103   1.044   5.170
 2293SOL     OW 7777   5.292   5.508   1.359
 2293SOL    HW1 7778   5.282   5.414   1.391
 2293SOL    HW2 7779   5.364   5.512   1.290
 2294SOL     OW 7780   3.632   6.977   7.021
 2294SOL    HW1 7781   3.728   6.980   0.026
 2294SOL    HW2 7782   3.572   6.983   0.075
 2295SOL     OW 7783   0.276   1.924   2.025
 2295SOL    HW1 7784   0.212   1.882   2.090
 2295SOL    HW2 7785   0.272   1.875   1.938
 2296SOL     OW 7786   3.461   0.780   0.562
 2296SOL    HW1 7787   3.519   0.785   0.480
 2296SOL    HW2 7788   3.371   0.818   0.541
 2297SOL     OW 7789   4.304   3.934   5.710
 2297SOL    HW1 7790   4.345   3.843   5.715
 2297SOL    HW2 7791   4.208   3.926   5.681
 2298SOL     OW 7792   3.653   2.643   0.783
 2298SOL    HW1 7793   3.634   2.563   0.840
 2298SOL    HW2 7794   3.573   2.664   0.728
 2299SOL     OW 7795   5.021   6.113   0.036
 2299SOL    HW1 7796   4.970   6.088   6.979
 2299SOL    HW2 7797   5.008   6.210   0.056
 2300SOL     OW 7798   1.533   5.842   1.374
 2300SOL    HW1 7799   1.537   5.898   1.457
 2300SOL    HW2 7800   1.625   5.827   1.340
 2301SOL     OW 7801   3.363   3.198   3.241
 2301SOL    HW1 7802   3.368   3.209   3.142
 2301SOL    HW2 7803   3.304   3.120   3.263
 2302SOL     OW 7804   3.834   6.096   2.592
 2302SOL    HW1 7805   3.810   6.190   2.566
 2302SOL    HW2 7806   3.822   6.085   2.691
 2303SOL     OW 7807   1.047   3.355   5.449
 2303SOL    HW1 7808   0.953   3.335   5.477
 2303SOL    HW2 7809   1.087   3.422   5.510
 2304SOL     OW 7810   2.671   0.134   3.747
 2304SOL    HW1 7811   2.592   0.116   3.688
 2304SOL    HW2 7812   2.755   0.133   3.692
 2305SOL     OW 7813   4.184   5.522   2.789
 2305SOL    HW1 7814   4.204   5.583   2.865
 2305SOL    HW2 7815   4.095   5.479   2.802
 2306SOL     OW 7816   2.071   4.795   1.842
 2306SOL    HW1 7817   1.978   4.830   1.827
 2306SOL    HW2 7818   2.093   4.729   1.770
 2307SOL     OW 7819   1.848   4.089   2.914
 2307SOL    HW1 7820   1.886   4.016   2.971
 2307SOL    HW2 7821   1.891   4.087   2.824
 2308SOL     OW 7822   0.573   0.859   6.477
 2308SOL    HW1 7823   0.491   0.868   6.534
 2308SOL    HW2 7824   0.601   0.950   6.445
 2309SOL     OW 7825   3.385   5.812   0.079
 2309SOL    HW1 7826   3.479   5.782   0.065
 2309SOL    HW2 7827   3.376   5.908   0.052
 2310SOL     OW 7828   6.223   6.711   1.569
 2310SOL    HW1 7829   6.237   6.619   1.604
 2310SOL    HW2 7830   6.208   6.708   1.470
 2311SOL     OW 7831   2.766   6.896   2.632
 2311SOL    HW1 7832   2.722   6.807   2.621
 2311SOL    HW2 7833   2.847   6.901   2.573
 2312SOL     OW 7834   2.992   6.862   2.995
 2312SOL    HW1 7835   3.089   6.875   3.012
 2312SOL    HW2 7836   2.979   6.801   2.916
 2313SOL     OW 7837   4.999   4.507   1.973
 2313SOL    HW1 7838   5.039   4.576   1.912
 2313SOL    HW2 7839   4.901   4.499   1.954
 2314SOL     OW 7840   6.227   0.607   3.893
 2314SOL    HW1 7841   6.201   0.629   3.987
 2314SOL    HW2 7842   6.324   0.584   3.890
 2315SOL     OW 7843   4.979   3.634   5.954
 2315SOL    HW1 7844   5.077   3.621   5.943
 2315SOL    HW2 7845   4.945   3.698   5.885
 2316SOL     OW 7846   2.513   0.984   5.901
 2316SOL    HW1 7847   2.435   1.044   5.919
 2316SOL    HW2 7848   2.515   0.910   5.968
 2317SOL     OW 7849   6.654   6.412   4.014
 2317SOL    HW1 7850   6.663   6.338   4.081
 2317SOL    HW2 7851   6.565   6.456   4.024
 2318SOL     OW 7852   2.217   4.017   4.448
 2318SOL    HW1 7853   2.290   4.084   4.460
 2318SOL    HW2 7854   2.230   3.941   4.512
 2319SOL     OW 7855   3.089   5.058   4.655
 2319SOL    HW1 7856   3.053   4.964   4.650
 2319SOL    HW2 7857   3.088   5.098   4.563
 2320SOL     OW 7858   1.230   2.658   6.070
 2320SOL    HW1 7859   1.136   2.685   6.050
 2320SOL    HW2 7860   1.261   2.593   6.002
 2321SOL     OW 7861   2.844   5.362   6.409
 2321SOL    HW1 7862   2.944   5.362   6.403
 2321SOL    HW2 7863   2.807   5.295   6.344
 2322SOL     OW 7864   1.891   4.125   1.912
 2322SOL    HW1 7865   1.863   4.069   1.834
 2322SOL    HW2 7866   1.862   4.080   1.997
 2323SOL     OW 7867   3.316   4.907   2.096
 2323SOL    HW1 7868   3.404   4.873   2.064
 2323SOL    HW2 7869   3.245   4.839   2.076
 2324SOL     OW 7870   6.999   6.067   1.868
 2324SOL    HW1 7871   6.969   6.090   1.775
 2324SOL    HW2 7872   0.073   6.052   1.868
 2325SOL     OW 7873   0.012   4.904   1.663
 2325SOL    HW1 7874   6.993   4.816   1.683
 2325SOL    HW2 7875   0.059   4.937   1.745
 2326SOL     OW 7876   1.466   6.020   6.675
 2326SOL    HW1 7877   1.469   5.990   6.770
 2326SOL    HW2 7878   1.373   6.051   6.653
 2327SOL     OW 7879   0.286   0.669   3.387
 2327SOL    HW1 7880   0.291   0.640   3.292
 2327SOL    HW2 7881   0.347   0.747   3.402
 2328SOL     OW 7882   1.434   2.269   2.288
 2328SOL    HW1 7883   1.417   2.266   2.387
 2328SOL    HW2 7884   1.513   2.211   2.266
 2329SOL     OW 7885   0.759   4.443   4.692
 2329SOL    HW1 7886   0.824   4.488   4.753
 2329SOL    HW2 7887   0.764   4.484   4.601
 2330SOL     OW 7888   0.123   3.022   0.495
 2330SOL    HW1 7889   0.112   3.060   0.403
 2330SOL    HW2 7890   0.054   2.953   0.511
 2331SOL     OW 7891   3.079   5.236   6.733
 2331SOL    HW1 7892   3.019   5.315   6.719
 2331SOL    HW2 7893   3.124   5.212   6.647
 2332SOL     OW 7894   6.541   0.051   5.796
 2332SOL    HW1 7895   6.636   0.080   5.795
 2332SOL    HW2 7896   6.533   6.987   5.842
 2333SOL     OW 7897   6.938   4.793   2.744
 2333SOL    HW1 7898   6.856   4.778   2.690
 2333SOL    HW2 7899   6.937   4.885   2.782
 2334SOL     OW 7900   1.182   1.496   6.806
 2334SOL    HW1 7901   1.187   1.562   6.732
 2334SOL    HW2 7902   1.139   1.411   6.773
 2335SOL     OW 7903   5.848   0.638   4.075
 2335SOL    HW1 7904   5.813   0.556   4.031
 2335SOL    HW2 7905   5.912   0.684   4.014
 2336SOL     OW 7906   2.784   1.609   3.929
 2336SOL    HW1 7907   2.696   1.599   3.882
 2336SOL    HW2 7908   2.802   1.707   3.944
 2337SOL     OW 7909   4.219   1.624   1.772
 2337SOL    HW1 7910   4.141   1.586   1.723
 2337SOL    HW2 7911   4.189   1.705   1.823
 2338SOL     OW 7912   0.645   3.125   4.429
 2338SOL    HW1 7913   0.642   3.109   4.330
 2338SOL    HW2 7914   0.665   3.038   4.476
 2339SOL     OW 7915   3.010   3.169   3.123
 2339SOL    HW1 7916   3.013   3.113   3.206
 2339SOL    HW2 7917   3.029   3.264   3.146
 2340SOL     OW 7918   0.341   4.645   0.379
 2340SOL    HW1 7919   0.299   4.592   0.305
 2340SOL    HW2 7920   0.436   4.615   0.392
 2341SOL     OW 7921   2.868   4.999   2.241
 2341SOL    HW1 7922   2.819   4.933   2.184
 2341SOL    HW2 7923   2.895   5.077   2.186
 2342SOL     OW 7924   2.190   6.696   4.562
 2342SOL    HW1 7925   2.257   6.671   4.492
 2342SOL    HW2 7926   2.148   6.784   4.539
 2343SOL     OW 7927   2.007   5.832   2.911
 2343SOL    HW1 7928   2.029   5.930   2.910
 2343SOL    HW2 7929   1.930   5.816   2.973
 2344SOL     OW 7930   6.934   6.069   0.051
 2344SOL    HW1 7931   6.997   6.068   6.998
 2344SOL    HW2 7932   6.863   6.000   0.037
 2345SOL     OW 7933   2.538   5.606   4.757
 2345SOL    HW1 7934   2.608   5.668   4.722
 2345SOL    HW2 7935   2.456   5.657   4.780
 2346SOL     OW 7936   3.883   3.506   5.648
 2346SOL    HW1 7937   3.881   3.606   5.637
 2346SOL    HW2 7938   3.791   3.469   5.635
 2347SOL     OW 7939   2.153   1.860   1.439
 2347SOL    HW1 7940   2.243   1.865   1.395
 2347SOL    HW2 7941   2.161   1.807   1.524
 2348SOL     OW 7942   2.209   6.195   3.973
 2348SOL    HW1 7943   2.250   6.164   4.059
 2348SOL    HW2 7944   2.252   6.147   3.897
 2349SOL     OW 7945   0.537   4.523   6.163
 2349SOL    HW1 7946   0.541   4.425   6.148
 2349SOL    HW2 7947   0.584   4.571   6.089
 2350SOL     OW 7948   5.943   5.059   6.002
 2350SOL    HW1 7949   6.034   5.031   6.033
 2350SOL    HW2 7950   5.952   5.128   5.931
 2351SOL     OW 7951   3.630   5.081   3.794
 2351SOL    HW1 7952   3.599   5.111   3.704
 2351SOL    HW2 7953   3.730   5.083   3.798
 2352SOL     OW 7954   0.337   3.315   2.949
 2352SOL    HW1 7955   0.363   3.223   2.980
 2352SOL    HW2 7956   0.374   3.383   3.011
 2353SOL     OW 7957   3.698   5.033   4.582
 2353SOL    HW1 7958   3.779   4.992   4.626
 2353SOL    HW2 7959   3.719   5.052   4.486
 2354SOL     OW 7960   2.332   2.171   4.770
 2354SOL    HW1 7961   2.345   2.108   4.693
 2354SOL    HW2 7962   2.319   2.264   4.734
 2355SOL     OW 7963   2.118   6.879   6.074
 2355SOL    HW1 7964   2.075   6.821   6.143
 2355SOL    HW2 7965   2.140   6.825   5.993
 2356SOL     OW 7966   1.255   2.991   6.343
 2356SOL    HW1 7967   1.238   2.893   6.358
 2356SOL    HW2 7968   1.216   3.043   6.419
 2357SOL     OW 7969   4.039   0.755   1.694
 2357SOL    HW1 7970   3.950   0.782   1.658
 2357SOL    HW2 7971   4.110   0.779   1.627
 2358SOL     OW 7972   2.808   5.495   5.541
 2358SOL    HW1 7973   2.854   5.407   5.555
 2358SOL    HW2 7974   2.714   5.489   5.573
 2359SOL     OW 7975   0.353   0.796   5.984
 2359SOL    HW1 7976   0.257   0.770   5.993
 2359SOL    HW2 7977   0.384   0.780   5.890
 2360SOL     OW 7978   5.926   3.950   0.569
 2360SOL    HW1 7979   5.958   4.008   0.493
 2360SOL    HW2 7980   5.922   4.005   0.653
 2361SOL     OW 7981   2.643   0.903   6.254
 2361SOL    HW1 7982   2.577   0.976   6.235
 2361SOL    HW2 7983   2.596   0.815   6.256
 2362SOL     OW 7984   2.797   5.709   3.925
 2362SOL    HW1 7985   2.822   5.677   4.016
 2362SOL    HW2 7986   2.880   5.726   3.872
 2363SOL     OW 7987   3.683   2.111   4.537
 2363SOL    HW1 7988   3.693   2.205   4.570
 2363SOL    HW2 7989   3.772   2.077   4.508
 2364SOL     OW 7990   1.534   2.820   2.401
 2364SOL    HW1 7991   1.439   2.850   2.408
 2364SOL    HW2 7992   1.546   2.738   2.456
 2365SOL     OW 7993   6.610   1.798   6.789
 2365SOL    HW1 7994   6.535   1.864   6.796
 2365SOL    HW2 7995   6.588   1.716   6.842
 2366SOL     OW 7996   2.551   5.489   0.002
 2366SOL    HW1 7997   2.629   5.528   0.051
 2366SOL    HW2 7998   2.583   5.449   6.941
 2367SOL     OW 7999   2.204   3.647   0.794
 2367SOL    HW1 8000   2.220   3.558   0.751
 2367SOL    HW2 8001   2.243   3.719   0.737
 2368SOL     OW 8002   5.340   6.547   4.467
 2368SOL    HW1 8003   5.318   6.518   4.561
 2368SOL    HW2 8004   5.389   6.634   4.470
 2369SOL     OW 8005   1.989   0.239   4.714
 2369SOL    HW1 8006   2.006   0.280   4.803
 2369SOL    HW2 8007   1.890   0.235   4.697
 2370SOL     OW 8008   5.890   3.294   0.037
 2370SOL    HW1 8009   5.889   3.224   6.990
 2370SOL    HW2 8010   5.877   3.384   7.020
 2371SOL     OW 8011   2.074   0.251   1.892
 2371SOL    HW1 8012   2.061   0.347   1.867
 2371SOL    HW2 8013   2.170   0.234   1.915
 2372SOL     OW 8014   6.672   2.640   1.951
 2372SOL    HW1 8015   6.740   2.692   2.003
 2372SOL    HW2 8016   6.701   2.634   1.856
 2373SOL     OW 8017   1.190   3.514   5.994
 2373SOL    HW1 8018   1.287   3.513   5.973
 2373SOL    HW2 8019   1.141   3.566   5.924
 2374SOL     OW 8020   6.837   1.729   4.275
 2374SOL    HW1 8021   6.792   1.679   4.201
 2374SOL    HW2 8022   6.807   1.692   4.363
 2375SOL     OW 8023   3.229   6.032   5.568
 2375SOL    HW1 8024   3.206   5.935   5.565
 2375SOL    HW2 8025   3.298   6.048   5.638
 2376SOL     OW 8026   6.770   2.735   4.098
 2376SOL    HW1 8027   6.761   2.794   4.017
 2376SOL    HW2 8028   6.713   2.654   4.086
 2377SOL     OW 8029   3.609   4.120   3.754
 2377SOL    HW1 8030   3.699   4.090   3.724
 2377SOL    HW2 8031   3.616   4.156   3.847
 2378SOL     OW 8032   5.208   1.879   0.042
 2378SOL    HW1 8033   5.112   1.889   0.013
 2378SOL    HW2 8034   5.243   1.968   0.070
 2379SOL     OW 8035   6.684   0.843   0.516
 2379SOL    HW1 8036   6.626   0.909   0.470
 2379SOL    HW2 8037   6.658   0.838   0.613
 2380SOL     OW 8038   6.612   2.148   0.118
 2380SOL    HW1 8039   6.558   2.231   0.130
 2380SOL    HW2 8040   6.706   2.165   0.148
 2381SOL     OW 8041   2.638   5.726   3.370
 2381SOL    HW1 8042   2.589   5.804   3.330
 2381SOL    HW2 8043   2.706   5.759   3.435
 2382SOL     OW 8044   1.988   4.067   4.321
 2382SOL    HW1 8045   2.004   4.056   4.223
 2382SOL    HW2 8046   2.075   4.056   4.370
 2383SOL     OW 8047   6.135   6.838   0.738
 2383SOL    HW1 8048   6.181   6.918   0.700
 2383SOL    HW2 8049   6.133   6.764   0.670
 2384SOL     OW 8050   5.477   0.958   2.614
 2384SOL    HW1 8051   5.485   0.976   2.712
 2384SOL    HW2 8052   5.492   0.860   2.597
 2385SOL     OW 8053   0.033   0.480   0.485
 2385SOL    HW1 8054   6.999   0.450   0.560
 2385SOL    HW2 8055   0.020   0.578   0.470
 2386SOL     OW 8056   5.400   5.814   4.874
 2386SOL    HW1 8057   5.350   5.833   4.789
 2386SOL    HW2 8058   5.413   5.715   4.883
 2387SOL     OW 8059   2.310   1.497   4.175
 2387SOL    HW1 8060   2.251   1.450   4.109
 2387SOL    HW2 8061   2.358   1.572   4.129
 2388SOL     OW 8062   6.881   2.201   3.595
 2388SOL    HW1 8063   6.868   2.132   3.666
 2388SOL    HW2 8064   6.794   2.245   3.574
 2389SOL     OW 8065   4.285   4.698   3.478
 2389SOL    HW1 8066   4.300   4.652   3.390
 2389SOL    HW2 8067   4.336   4.784   3.480
 2390SOL     OW 8068   3.712   3.280   4.163
 2390SOL    HW1 8069   3.654   3.218   4.215
 2390SOL    HW2 8070   3.663   3.309   4.080
 2391SOL     OW 8071   5.243   4.399   6.296
 2391SOL    HW1 8072   5.282   4.386   6.387
 2391SOL    HW2 8073   5.213   4.312   6.259
 2392SOL     OW 8074   3.103   6.046   5.873
 2392SOL    HW1 8075   3.030   6.041   5.805
 2392SOL    HW2 8076   3.118   6.141   5.900
 2393SOL     OW 8077   5.011   3.962   6.357
 2393SOL    HW1 8078   5.072   3.977   6.435
 2393SOL    HW2 8079   4.921   3.934   6.389
 2394SOL     OW 8080   0.896   3.989   4.939
 2394SOL    HW1 8081   0.988   3.976   4.976
 2394SOL    HW2 8082   0.829   3.950   5.002
 2395SOL     OW 8083   5.034   0.125   5.965
 2395SOL    HW1 8084   5.053   0.175   5.880
 2395SOL    HW2 8085   5.028   0.027   5.945
 2396SOL     OW 8086   3.911   4.822   1.113
 2396SOL    HW1 8087   3.900   4.921   1.113
 2396SOL    HW2 8088   3.933   4.791   1.205
 2397SOL     OW 8089   0.300   4.054   5.110
 2397SOL    HW1 8090   0.258   3.966   5.130
 2397SOL    HW2 8091   0.399   4.048   5.125
 2398SOL     OW 8092   4.635   4.564   6.786
 2398SOL    HW1 8093   4.696   4.486   6.804
 2398SOL    HW2 8094   4.683   4.649   6.810
 2399SOL     OW 8095   4.988   1.069   0.974
 2399SOL    HW1 8096   4.938   1.056   1.059
 2399SOL    HW2 8097   4.981   1.165   0.945
 2400SOL     OW 8098   2.925   3.972   0.885
 2400SOL    HW1 8099   2.999   3.935   0.829
 2400SOL    HW2 8100   2.949   3.964   0.981
 2401SOL     OW 8101   5.175   6.278   0.509
 2401SOL    HW1 8102   5.174   6.179   0.498
 2401SOL    HW2 8103   5.120   6.321   0.438
 2402SOL     OW 8104   0.712   0.143   3.839
 2402SOL    HW1 8105   0.759   0.087   3.908
 2402SOL    HW2 8106   0.614   0.144   3.858
 2403SOL     OW 8107   1.812   1.966   6.451
 2403SOL    HW1 8108   1.739   2.005   6.507
 2403SOL    HW2 8109   1.821   2.018   6.366
 2404SOL     OW 8110   2.997   1.141   1.194
 2404SOL    HW1 8111   2.938   1.076   1.147
 2404SOL    HW2 8112   3.017   1.108   1.286
 2405SOL     OW 8113   3.615   3.579   2.425
 2405SOL    HW1 8114   3.590   3.546   2.516
 2405SOL    HW2 8115   3.677   3.657   2.433
 2406SOL     OW 8116   3.514   0.433   1.331
 2406SOL    HW1 8117   3.586   0.422   1.400
 2406SOL    HW2 8118   3.465   0.519   1.348
 2407SOL     OW 8119   5.913   1.864   3.112
 2407SOL    HW1 8120   5.916   1.940   3.047
 2407SOL    HW2 8121   5.911   1.901   3.205
 2408SOL     OW 8122   4.567   4.571   2.263
 2408SOL    HW1 8123   4.518   4.541   2.181
 2408SOL    HW2 8124   4.592   4.667   2.255
 2409SOL     OW 8125   2.319   4.298   2.167
 2409SOL    HW1 8126   2.362   4.219   2.123
 2409SOL    HW2 8127   2.298   4.368   2.099
 2410SOL     OW 8128   3.804   3.064   4.767
 2410SOL    HW1 8129   3.715   3.094   4.734
 2410SOL    HW2 8130   3.870   3.139   4.758
 2411SOL     OW 8131   5.386   5.976   4.211
 2411SOL    HW1 8132   5.341   6.064   4.197
 2411SOL    HW2 8133   5.436   5.977   4.298
 2412SOL     OW 8134   5.743   4.386   1.540
 2412SOL    HW1 8135   5.687   4.407   1.620
 2412SOL    HW2 8136   5.838   4.411   1.560
 2413SOL     OW 8137   6.547   0.854   1.103
 2413SOL    HW1 8138   6.506   0.907   1.178
 2413SOL    HW2 8139   6.618   0.909   1.059
 2414SOL     OW 8140   4.916   4.060   3.223
 2414SOL    HW1 8141   4.859   4.140   3.243
 2414SOL    HW2 8142   4.896   4.026   3.131
 2415SOL     OW 8143   5.864   1.512   2.844
 2415SOL    HW1 8144   5.941   1.449   2.852
 2415SOL    HW2 8145   5.870   1.562   2.758
 2416SOL     OW 8146   5.239   2.275   4.991
 2416SOL    HW1 8147   5.195   2.212   4.926
 2416SOL    HW2 8148   5.201   2.260   5.082
 2417SOL     OW 8149   3.409   3.737   4.601
 2417SOL    HW1 8150   3.321   3.731   4.554
 2417SOL    HW2 8151   3.478   3.773   4.538
 2418SOL     OW 8152   3.944   3.199   4.487
 2418SOL    HW1 8153   3.896   3.247   4.413
 2418SOL    HW2 8154   3.954   3.102   4.463
 2419SOL     OW 8155   0.124   6.421   3.828
 2419SOL    HW1 8156   0.157   6.330   3.802
 2419SOL    HW2 8157   0.193   6.466   3.885
 2420SOL     OW 8158   3.025   0.330   2.632
 2420SOL    HW1 8159   3.111   0.299   2.672
 2420SOL    HW2 8160   3.028   0.318   2.533
 2421SOL     OW 8161   2.001   2.767   4.892
 2421SOL    HW1 8162   2.056   2.742   4.971
 2421SOL    HW2 8163   1.904   2.769   4.919
 2422SOL     OW 8164   4.987   1.750   0.256
 2422SOL    HW1 8165   4.953   1.748   0.162
 2422SOL    HW2 8166   5.033   1.837   0.274
 2423SOL     OW 8167   2.070   6.458   2.238
 2423SOL    HW1 8168   2.142   6.475   2.305
 2423SOL    HW2 8169   2.077   6.525   2.164
 2424SOL     OW 8170   6.452   6.956   0.208
 2424SOL    HW1 8171   6.388   6.936   0.281
 2424SOL    HW2 8172   6.488   0.025   0.219
 2425SOL     OW 8173   5.764   0.445   3.922
 2425SOL    HW1 8174   5.683   0.452   3.864
 2425SOL    HW2 8175   5.768   0.355   3.965
 2426SOL     OW 8176   1.432   5.328   5.562
 2426SOL    HW1 8177   1.491   5.344   5.482
 2426SOL    HW2 8178   1.464   5.247   5.611
 2427SOL     OW 8179   5.778   5.717   5.686
 2427SOL    HW1 8180   5.722   5.686   5.609
 2427SOL    HW2 8181   5.853   5.775   5.653
 2428SOL     OW 8182   0.414   0.986   1.915
 2428SOL    HW1 8183   0.356   0.916   1.956
 2428SOL    HW2 8184   0.405   0.981   1.815
 2429SOL     OW 8185   5.463   5.733   1.821
 2429SOL    HW1 8186   5.500   5.702   1.733
 2429SOL    HW2 8187   5.486   5.830   1.834
 2430SOL     OW 8188   6.458   1.095   1.916
 2430SOL    HW1 8189   6.422   1.073   1.826
 2430SOL    HW2 8190   6.492   1.012   1.960
 2431SOL     OW 8191   4.294   1.246   2.180
 2431SOL    HW1 8192   4.255   1.270   2.269
 2431SOL    HW2 8193   4.348   1.323   2.145
 2432SOL     OW 8194   4.552   6.427   2.142
 2432SOL    HW1 8195   4.578   6.352   2.202
 2432SOL    HW2 8196   4.504   6.497   2.195
 2433SOL     OW 8197   4.668   1.270   6.904
 2433SOL    HW1 8198   4.715   1.328   6.970
 2433SOL    HW2 8199   4.622   1.195   6.952
 2434SOL     OW 8200   3.912   0.738   5.720
 2434SOL    HW1 8201   3.917   0.780   5.629
 2434SOL    HW2 8202   3.848   0.662   5.718
 2435SOL     OW 8203   5.596   5.594   5.193
 2435SOL    HW1 8204   5.510   5.627   5.153
 2435SOL    HW2 8205   5.630   5.518   5.138
 2436SOL     OW 8206   2.051   5.693   6.360
 2436SOL    HW1 8207   2.084   5.787   6.359
 2436SOL    HW2 8208   2.118   5.634   6.405
 2437SOL     OW 8209   6.172   6.859   6.117
 2437SOL    HW1 8210   6.125   6.770   6.124
 2437SOL    HW2 8211   6.264   6.851   6.155
 2438SOL     OW 8212   3.359   2.548   0.839
 2438SOL    HW1 8213   3.294   2.483   0.800
 2438SOL    HW2 8214   3.385   2.519   0.930
 2439SOL     OW 8215   6.883   4.398   6.280
 2439SOL    HW1 8216   6.940   4.411   6.199
 2439SOL    HW2 8217   6.794   4.443   6.266
 2440SOL     OW 8218   5.039   5.334   5.658
 2440SOL    HW1 8219   5.111   5.398   5.682
 2440SOL    HW2 8220   5.079   5.249   5.623
 2441SOL     OW 8221   6.899   1.980   0.806
 2441SOL    HW1 8222   6.825   1.914   0.790
 2441SOL    HW2 8223   6.862   2.072   0.807
 2442SOL     OW 8224   1.246   3.641   5.344
 2442SOL    HW1 8225   1.312   3.712   5.321
 2442SOL    HW2 8226   1.247   3.624   5.443
 2443SOL     OW 8227   2.763   3.721   6.698
 2443SOL    HW1 8228   2.779   3.785   6.624
 2443SOL    HW2 8229   2.778   3.766   6.786
 2444SOL     OW 8230   2.488   4.655   6.142
 2444SOL    HW1 8231   2.494   4.556   6.151
 2444SOL    HW2 8232   2.556   4.687   6.076
 2445SOL     OW 8233   0.418   0.969   0.651
 2445SOL    HW1 8234   0.351   1.035   0.618
 2445SOL    HW2 8235   0.507   1.013   0.661
 2446SOL     OW 8236   6.232   4.339   4.730
 2446SOL    HW1 8237   6.204   4.272   4.799
 2446SOL    HW2 8238   6.212   4.431   4.762
 2447SOL     OW 8239   1.304   1.943   0.674
 2447SOL    HW1 8240   1.279   1.978   0.584
 2447SOL    HW2 8241   1.268   1.850   0.684
 2448SOL     OW 8242   0.833   6.904   4.900
 2448SOL    HW1 8243   0.851   6.942   4.809
 2448SOL    HW2 8244   0.843   6.805   4.898
 2449SOL     OW 8245   6.965   3.903   6.785
 2449SOL    HW1 8246   6.945   3.811   6.817
 2449SOL    HW2 8247   7.003   3.899   6.692
 2450SOL     OW 8248   2.589   4.513   2.911
 2450SOL    HW1 8249   2.537   4.481   2.832
 2450SOL    HW2 8250   2.559   4.465   2.993
 2451SOL     OW 8251   2.278   6.047   3.699
 2451SOL    HW1 8252   2.291   5.998   3.613
 2451SOL    HW2 8253   2.322   5.997   3.774
 2452SOL     OW 8254   1.155   3.338   3.005
 2452SOL    HW1 8255   1.224   3.373   2.943
 2452SOL    HW2 8256   1.085   3.408   3.021
 2453SOL     OW 8257   6.561   4.988   1.622
 2453SOL    HW1 8258   6.461   4.986   1.623
 2453SOL    HW2 8259   6.594   4.968   1.529
 2454SOL     OW 8260   3.336   0.528   1.726
 2454SOL    HW1 8261   3.300   0.442   1.690
 2454SOL    HW2 8262   3.307   0.539   1.821
 2455SOL     OW 8263   5.013   5.827   0.692
 2455SOL    HW1 8264   4.958   5.823   0.609
 2455SOL    HW2 8265   4.976   5.898   0.752
 2456SOL     OW 8266   5.029   6.344   1.581
 2456SOL    HW1 8267   5.074   6.433   1.577
 2456SOL    HW2 8268   5.015   6.317   1.676
 2457SOL     OW 8269   5.451   6.613   1.403
 2457SOL    HW1 8270   5.370   6.589   1.351
 2457SOL    HW2 8271   5.532   6.606   1.344
 2458SOL     OW 8272   1.197   5.220   2.756
 2458SOL    HW1 8273   1.160   5.313   2.760
 2458SOL    HW2 8274   1.139   5.163   2.698
 2459SOL     OW 8275   2.336   0.515   0.661
 2459SOL    HW1 8276   2.265   0.444   0.660
 2459SOL    HW2 8277   2.331   0.565   0.748
 2460SOL     OW 8278   3.185   5.900   1.495
 2460SOL    HW1 8279   3.123   5.855   1.431
 2460SOL    HW2 8280   3.173   5.861   1.587
 2461SOL     OW 8281   5.322   0.500   1.976
 2461SOL    HW1 8282   5.306   0.511   1.878
 2461SOL    HW2 8283   5.413   0.462   1.992
 2462SOL     OW 8284   2.123   5.463   6.525
 2462SOL    HW1 8285   2.200   5.444   6.464
 2462SOL    HW2 8286   2.080   5.376   6.551
 2463SOL     OW 8287   6.188   1.854   3.338
 2463SOL    HW1 8288   6.100   1.855   3.386
 2463SOL    HW2 8289   6.198   1.767   3.290
 2464SOL     OW 8290   1.100   3.382   1.256
 2464SOL    HW1 8291   1.145   3.362   1.169
 2464SOL    HW2 8292   1.033   3.311   1.275
 2465SOL     OW 8293   6.523   5.965   3.313
 2465SOL    HW1 8294   6.616   5.928   3.317
 2465SOL    HW2 8295   6.458   5.889   3.305
 2466SOL     OW 8296   3.495   1.625   2.303
 2466SOL    HW1 8297   3.546   1.621   2.389
 2466SOL    HW2 8298   3.482   1.721   2.277
 2467SOL     OW 8299   6.683   1.150   6.007
 2467SOL    HW1 8300   6.597   1.201   6.014
 2467SOL    HW2 8301   6.710   1.145   5.910
 2468SOL     OW 8302   0.232   5.173   1.210
 2468SOL    HW1 8303   0.194   5.106   1.147
 2468SOL    HW2 8304   0.216   5.143   1.304
 2469SOL     OW 8305   2.401   2.885   5.669
 2469SOL    HW1 8306   2.486   2.835   5.686
 2469SOL    HW2 8307   2.391   2.901   5.571
 2470SOL     OW 8308   4.818   2.630   0.191
 2470SOL    HW1 8309   4.883   2.623   0.115
 2470SOL    HW2 8310   4.739   2.572   0.172
 2471SOL     OW 8311   0.921   0.073   3.045
 2471SOL    HW1 8312   0.837   0.076   2.990
 2471SOL    HW2 8313   0.966   7.010   3.033
 2472SOL     OW 8314   5.658   1.892   3.589
 2472SOL    HW1 8315   5.688   1.974   3.540
 2472SOL    HW2 8316   5.564   1.870   3.563
 2473SOL     OW 8317   0.807   5.967   4.415
 2473SOL    HW1 8318   0.719   5.984   4.459
 2473SOL    HW2 8319   0.872   6.037   4.442
 2474SOL     OW 8320   0.002   4.428   5.090
 2474SOL    HW1 8321   7.010   4.389   4.999
 2474SOL    HW2 8322   0.066   4.369   5.140
 2475SOL     OW 8323   5.027   2.584   0.023
 2475SOL    HW1 8324   4.981   2.498   7.024
 2475SOL    HW2 8325   5.100   2.602   6.982
 2476SOL     OW 8326   1.172   1.897   4.377
 2476SOL    HW1 8327   1.116   1.904   4.294
 2476SOL    HW2 8328   1.268   1.907   4.353
 2477SOL     OW 8329   4.648   5.021   0.856
 2477SOL    HW1 8330   4.575   5.086   0.875
 2477SOL    HW2 8331   4.616   4.928   0.873
 2478SOL     OW 8332   6.773   6.945   2.981
 2478SOL    HW1 8333   6.792   6.964   3.077
 2478SOL    HW2 8334   6.689   6.992   2.953
 2479SOL     OW 8335   7.014   3.149   0.294
 2479SOL    HW1 8336   0.009   3.247   0.291
 2479SOL    HW2 8337   6.950   3.130   0.369
 2480SOL     OW 8338   0.220   3.404   1.415
 2480SOL    HW1 8339   0.154   3.340   1.376
 2480SOL    HW2 8340   0.184   3.497   1.410
 2481SOL     OW 8341   4.174   5.046   2.110
 2481SOL    HW1 8342   4.243   4.992   2.062
 2481SOL    HW2 8343   4.082   5.016   2.082
 2482SOL     OW 8344   4.722   2.176   4.644
 2482SOL    HW1 8345   4.756   2.111   4.713
 2482SOL    HW2 8346   4.695   2.126   4.562
 2483SOL     OW 8347   0.862   2.064   6.342
 2483SOL    HW1 8348   0.937   2.024   6.290
 2483SOL    HW2 8349   0.845   2.009   6.424
 2484SOL     OW 8350   3.252   2.004   6.489
 2484SOL    HW1 8351   3.213   2.031   6.401
 2484SOL    HW2 8352   3.308   2.078   6.525
 2485SOL     OW 8353   0.150   6.122   2.263
 2485SOL    HW1 8354   0.093   6.055   2.217
 2485SOL    HW2 8355   0.170   6.198   2.200
 2486SOL     OW 8356   1.337   5.227   3.284
 2486SOL    HW1 8357   1.342   5.312   3.336
 2486SOL    HW2 8358   1.245   5.215   3.248
 2487SOL     OW 8359   3.716   1.213   1.255
 2487SOL    HW1 8360   3.747   1.270   1.179
 2487SOL    HW2 8361   3.617   1.222   1.265
 2488SOL     OW 8362   2.919   6.377   0.101
 2488SOL    HW1 8363   2.991   6.316   0.135
 2488SOL    HW2 8364   2.900   6.356   0.005
 2489SOL     OW 8365   0.690   5.311   4.733
 2489SOL    HW1 8366   0.737   5.268   4.656
 2489SOL    HW2 8367   0.664   5.404   4.707
 2490SOL     OW 8368   5.132   3.346   1.517
 2490SOL    HW1 8369   5.176   3.258   1.498
 2490SOL    HW2 8370   5.057   3.332   1.581
 2491SOL     OW 8371   2.012   4.811   2.107
 2491SOL    HW1 8372   1.934   4.750   2.094
 2491SOL    HW2 8373   2.065   4.816   2.022
 2492SOL     OW 8374   4.324   3.192   6.842
 2492SOL    HW1 8375   4.233   3.175   6.880
 2492SOL    HW2 8376   4.354   3.285   6.865
 2493SOL     OW 8377   6.422   1.811   3.498
 2493SOL    HW1 8378   6.348   1.816   3.431
 2493SOL    HW2 8379   6.495   1.753   3.463
 2494SOL     OW 8380   4.981   3.360   2.186
 2494SOL    HW1 8381   5.002   3.263   2.178
 2494SOL    HW2 8382   5.012   3.408   2.104
 2495SOL     OW 8383   6.041   1.100   4.685
 2495SOL    HW1 8384   5.964   1.130   4.742
 2495SOL    HW2 8385   6.112   1.171   4.686
 2496SOL     OW 8386   1.460   6.320   0.299
 2496SOL    HW1 8387   1.453   6.270   0.213
 2496SOL    HW2 8388   1.382   6.383   0.306
 2497SOL     OW 8389   5.661   1.791   5.960
 2497SOL    HW1 8390   5.629   1.841   5.879
 2497SOL    HW2 8391   5.582   1.764   6.016
 2498SOL     OW 8392   1.752   3.678   4.894
 2498SOL    HW1 8393   1.659   3.655   4.867
 2498SOL    HW2 8394   1.780   3.621   4.972
 2499SOL     OW 8395   5.987   0.132   5.099
 2499SOL    HW1 8396   6.044   0.213   5.082
 2499SOL    HW2 8397   6.003   0.099   5.192
 2500SOL     OW 8398   4.400   3.548   6.889
 2500SOL    HW1 8399   4.330   3.542   6.960
 2500SOL    HW2 8400   4.481   3.497   6.918
 2501SOL     OW 8401   6.936   4.523   0.085
 2501SOL    HW1 8402   6.879   4.551   0.008
 2501SOL    HW2 8403   6.958   4.426   0.078
 2502SOL     OW 8404   2.406   6.274   3.550
 2502SOL    HW1 8405   2.364   6.218   3.622
 2502SOL    HW2 8406   2.354   6.262   3.465
 2503SOL     OW 8407   4.456   5.039   4.805
 2503SOL    HW1 8408   4.433   5.042   4.903
 2503SOL    HW2 8409   4.550   5.007   4.793
 2504SOL     OW 8410   1.635   4.338   4.046
 2504SOL    HW1 8411   1.719   4.295   4.014
 2504SOL    HW2 8412   1.590   4.385   3.970
 2505SOL     OW 8413   4.763   5.704   3.919
 2505SOL    HW1 8414   4.714   5.639   3.861
 2505SOL    HW2 8415   4.800   5.657   3.999
 2506SOL     OW 8416   0.292   1.920   6.597
 2506SOL    HW1 8417   0.317   1.917   6.500
 2506SOL    HW2 8418   0.346   1.853   6.647
 2507SOL     OW 8419   6.934   6.091   0.441
 2507SOL    HW1 8420   6.923   6.188   0.421
 2507SOL    HW2 8421   6.999   6.050   0.376
 2508SOL     OW 8422   2.333   2.357   2.913
 2508SOL    HW1 8423   2.354   2.263   2.940
 2508SOL    HW2 8424   2.365   2.373   2.820
 2509SOL     OW 8425   5.058   2.644   3.703
 2509SOL    HW1 8426   5.028   2.553   3.733
 2509SOL    HW2 8427   5.050   2.651   3.604
 2510SOL     OW 8428   3.845   6.004   0.737
 2510SOL    HW1 8429   3.914   6.076   0.750
 2510SOL    HW2 8430   3.805   5.981   0.825
 2511SOL     OW 8431   1.646   7.008   4.962
 2511SOL    HW1 8432   1.614   0.066   4.916
 2511SOL    HW2 8433   1.593   6.929   4.929
 2512SOL     OW 8434   4.867   3.127   4.876
 2512SOL    HW1 8435   4.928   3.113   4.798
 2512SOL    HW2 8436   4.823   3.216   4.868
 2513SOL     OW 8437   0.514   3.714   0.604
 2513SOL    HW1 8438   0.605   3.697   0.641
 2513SOL    HW2 8439   0.517   3.789   0.538
 2514SOL     OW 8440   1.748   1.189   3.623
 2514SOL    HW1 8441   1.798   1.253   3.681
 2514SOL    HW2 8442   1.651   1.190   3.649
 2515SOL     OW 8443   0.728   5.176   0.245
 2515SOL    HW1 8444   0.794   5.113   0.204
 2515SOL    HW2 8445   0.762   5.269   0.239
 2516SOL     OW 8446   5.276   6.372   3.896
 2516SOL    HW1 8447   5.228   6.286   3.912
 2516SOL    HW2 8448   5.368   6.367   3.934
 2517SOL     OW 8449   2.477   4.918   0.229
 2517SOL    HW1 8450   2.424   4.839   0.261
 2517SOL    HW2 8451   2.569   4.914   0.268
 2518SOL     OW 8452   2.398   2.099   6.380
 2518SOL    HW1 8453   2.482   2.046   6.372
 2518SOL    HW2 8454   2.407   2.164   6.455
 2519SOL     OW 8455   4.768   4.102   4.152
 2519SOL    HW1 8456   4.785   4.028   4.087
 2519SOL    HW2 8457   4.732   4.063   4.237
 2520SOL     OW 8458   2.258   4.291   2.451
 2520SOL    HW1 8459   2.324   4.279   2.377
 2520SOL    HW2 8460   2.187   4.221   2.444
 2521SOL     OW 8461   5.665   6.324   5.054
 2521SOL    HW1 8462   5.761   6.301   5.036
 2521SOL    HW2 8463   5.651   6.331   5.153
 2522SOL     OW 8464   1.187   3.171   4.901
 2522SOL    HW1 8465   1.232   3.261   4.897
 2522SOL    HW2 8466   1.153   3.146   4.811
 2523SOL     OW 8467   0.423   3.100   6.783
 2523SOL    HW1 8468   0.342   3.158   6.779
 2523SOL    HW2 8469   0.417   3.028   6.714
 2524SOL     OW 8470   0.621   6.780   5.197
 2524SOL    HW1 8471   0.544   6.787   5.134
 2524SOL    HW2 8472   0.651   6.685   5.204
 2525SOL     OW 8473   1.799   3.870   3.113
 2525SOL    HW1 8474   1.722   3.824   3.158
 2525SOL    HW2 8475   1.867   3.802   3.086
 2526SOL     OW 8476   0.065   1.245   5.279
 2526SOL    HW1 8477   0.016   1.175   5.226
 2526SOL    HW2 8478   0.002   1.291   5.340
 2527SOL     OW 8479   6.333   6.470   4.005
 2527SOL    HW1 8480   6.238   6.492   4.028
 2527SOL    HW2 8481   6.387   6.554   4.002
 2528SOL     OW 8482   6.557   5.846   0.212
 2528SOL    HW1 8483   6.459   5.828   0.227
 2528SOL    HW2 8484   6.583   5.930   0.260
 2529SOL     OW 8485   5.002   3.768   4.546
 2529SOL    HW1 8486   5.006   3.739   4.642
 2529SOL    HW2 8487   5.024   3.691   4.487
 2530SOL     OW 8488   0.315   0.813   4.564
 2530SOL    HW1 8489   0.371   0.785   4.642
 2530SOL    HW2 8490   0.224   0.840   4.595
 2531SOL     OW 8491   4.463   1.508   6.453
 2531SOL    HW1 8492   4.378   1.471   6.415
 2531SOL    HW2 8493   4.446   1.540   6.546
 2532SOL     OW 8494   1.581   4.503   6.443
 2532SOL    HW1 8495   1.679   4.520   6.456
 2532SOL    HW2 8496   1.543   4.574   6.385
 2533SOL     OW 8497   5.952   6.842   5.316
 2533SOL    HW1 8498   5.876   6.782   5.290
 2533SOL    HW2 8499   6.036   6.789   5.321
 2534SOL     OW 8500   0.945   2.264   3.933
 2534SOL    HW1 8501   0.944   2.207   4.015
 2534SOL    HW2 8502   0.978   2.211   3.856
 2535SOL     OW 8503   2.109   1.000   2.856
 2535SOL    HW1 8504   2.095   0.956   2.768
 2535SOL    HW2 8505   2.052   1.082   2.862
 2536SOL     OW 8506   6.299   0.932   3.786
 2536SOL    HW1 8507   6.371   0.903   3.850
 2536SOL    HW2 8508   6.216   0.955   3.837
 2537SOL     OW 8509   4.538   5.443   1.327
 2537SOL    HW1 8510   4.618   5.386   1.311
 2537SOL    HW2 8511   4.474   5.434   1.251
 2538SOL     OW 8512   2.274   4.388   5.153
 2538SOL    HW1 8513   2.188   4.438   5.168
 2538SOL    HW2 8514   2.278   4.310   5.215
 2539SOL     OW 8515   2.626   0.322   5.258
 2539SOL    HW1 8516   2.680   0.405   5.249
 2539SOL    HW2 8517   2.653   0.257   5.188
 2540SOL     OW 8518   5.649   2.089   2.323
 2540SOL    HW1 8519   5.600   2.011   2.361
 2540SOL    HW2 8520   5.620   2.104   2.229
 2541SOL     OW 8521   1.190   6.250   6.080
 2541SOL    HW1 8522   1.188   6.159   6.038
 2541SOL    HW2 8523   1.276   6.296   6.055
 2542SOL     OW 8524   3.895   1.921   4.183
 2542SOL    HW1 8525   3.859   1.876   4.101
 2542SOL    HW2 8526   3.904   2.019   4.166
 2543SOL     OW 8527   0.429   1.880   4.782
 2543SOL    HW1 8528   0.482   1.833   4.711
 2543SOL    HW2 8529   0.384   1.960   4.742
 2544SOL     OW 8530   6.444   5.591   2.002
 2544SOL    HW1 8531   6.434   5.667   1.938
 2544SOL    HW2 8532   6.540   5.564   2.008
 2545SOL     OW 8533   6.918   1.655   1.047
 2545SOL    HW1 8534   6.841   1.598   1.019
 2545SOL    HW2 8535   6.961   1.694   0.966
 2546SOL     OW 8536   6.845   4.212   2.851
 2546SOL    HW1 8537   6.921   4.263   2.892
 2546SOL    HW2 8538   6.804   4.267   2.779
 2547SOL     OW 8539   6.091   3.375   1.085
 2547SOL    HW1 8540   5.993   3.396   1.080
 2547SOL    HW2 8541   6.143   3.460   1.084
 2548SOL     OW 8542   0.061   6.648   5.743
 2548SOL    HW1 8543   0.063   6.632   5.842
 2548SOL    HW2 8544   0.142   6.607   5.701
 2549SOL     OW 8545   2.608   2.567   0.634
 2549SOL    HW1 8546   2.663   2.603   0.558
 2549SOL    HW2 8547   2.666   2.558   0.715
 2550SOL     OW 8548   4.074   6.534   6.092
 2550SOL    HW1 8549   4.023   6.485   6.022
 2550SOL    HW2 8550   4.016   6.547   6.172
 2551SOL     OW 8551   3.292   5.304   0.837
 2551SOL    HW1 8552   3.384   5.312   0.798
 2551SOL    HW2 8553   3.242   5.231   0.791
 2552SOL     OW 8554   2.312   6.201   1.185
 2552SOL    HW1 8555   2.363   6.209   1.099
 2552SOL    HW2 8556   2.284   6.106   1.198
 2553SOL     OW 8557   4.600   1.469   6.725
 2553SOL    HW1 8558   4.669   1.540   6.740
 2553SOL    HW2 8559   4.629   1.384   6.770
 2554SOL     OW 8560   1.734   5.886   2.000
 2554SOL    HW1 8561   1.761   5.939   1.919
 2554SOL    HW2 8562   1.816   5.860   2.051
 2555SOL     OW 8563   5.665   6.650   5.117
 2555SOL    HW1 8564   5.716   6.609   5.041
 2555SOL    HW2 8565   5.572   6.613   5.118
 2556SOL     OW 8566   4.207   1.192   0.589
 2556SOL    HW1 8567   4.162   1.198   0.500
 2556SOL    HW2 8568   4.186   1.103   0.631
 2557SOL     OW 8569   3.210   0.237   6.856
 2557SOL    HW1 8570   3.171   0.149   6.832
 2557SOL    HW2 8571   3.310   0.230   6.857
 2558SOL     OW 8572   5.669   3.778   6.807
 2558SOL    HW1 8573   5.755   3.740   6.773
 2558SOL    HW2 8574   5.660   3.756   6.904
 2559SOL     OW 8575   1.333   4.561   4.858
 2559SOL    HW1 8576   1.372   4.589   4.770
 2559SOL    HW2 8577   1.267   4.487   4.843
 2560SOL     OW 8578   5.094   2.299   3.540
 2560SOL    HW1 8579   5.117   2.220   3.483
 2560SOL    HW2 8580   5.143   2.292   3.627
 2561SOL     OW 8581   3.714   0.320   4.133
 2561SOL    HW1 8582   3.735   0.404   4.183
 2561SOL    HW2 8583   3.752   0.326   4.041
 2562SOL     OW 8584   3.853   6.350   3.785
 2562SOL    HW1 8585   3.800   6.265   3.792
 2562SOL    HW2 8586   3.886   6.376   3.876
 2563SOL     OW 8587   3.633   1.981   0.370
 2563SOL    HW1 8588   3.558   2.025   0.321
 2563SOL    HW2 8589   3.606   1.968   0.466
 2564SOL     OW 8590   2.447   2.077   0.489
 2564SOL    HW1 8591   2.443   2.001   0.554
 2564SOL    HW2 8592   2.411   2.048   0.401
 2565SOL     OW 8593   1.279   2.077   0.405
 2565SOL    HW1 8594   1.311   2.041   0.317
 2565SOL    HW2 8595   1.347   2.142   0.441
 2566SOL     OW 8596   2.452   0.870   0.917
 2566SOL    HW1 8597   2.511   0.913   0.848
 2566SOL    HW2 8598   2.509   0.823   0.984
 2567SOL     OW 8599   1.779   0.552   0.137
 2567SOL    HW1 8600   1.777   0.586   0.231
 2567SOL    HW2 8601   1.713   0.477   0.128
 2568SOL     OW 8602   3.175   6.305   0.980
 2568SOL    HW1 8603   3.263   6.345   0.954
 2568SOL    HW2 8604   3.127   6.274   0.898
 2569SOL     OW 8605   1.312   0.051   1.267
 2569SOL    HW1 8606   1.304   6.981   1.298
 2569SOL    HW2 8607   1.373   0.054   1.188
 2570SOL     OW 8608   6.549   6.844   5.911
 2570SOL    HW1 8609   6.505   6.863   5.999
 2570SOL    HW2 8610   6.491   6.783   5.857
 2571SOL     OW 8611   3.440   2.951   4.086
 2571SOL    HW1 8612   3.523   2.912   4.126
 2571SOL    HW2 8613   3.364   2.940   4.150
 2572SOL     OW 8614   1.736   6.516   1.911
 2572SOL    HW1 8615   1.744   6.577   1.832
 2572SOL    HW2 8616   1.716   6.423   1.880
 2573SOL     OW 8617   6.912   2.238   4.099
 2573SOL    HW1 8618   6.844   2.268   4.032
 2573SOL    HW2 8619   6.889   2.146   4.130
 2574SOL     OW 8620   0.770   3.815   2.111
 2574SOL    HW1 8621   0.704   3.765   2.056
 2574SOL    HW2 8622   0.858   3.818   2.064
 2575SOL     OW 8623   6.150   3.581   0.299
 2575SOL    HW1 8624   6.119   3.491   0.269
 2575SOL    HW2 8625   6.074   3.632   0.340
 2576SOL     OW 8626   2.093   0.325   3.697
 2576SOL    HW1 8627   2.037   0.407   3.699
 2576SOL    HW2 8628   2.138   0.313   3.786
 2577SOL     OW 8629   2.698   6.172   2.008
 2577SOL    HW1 8630   2.632   6.170   2.083
 2577SOL    HW2 8631   2.791   6.179   2.046
 2578SOL     OW 8632   4.675   2.058   3.976
 2578SOL    HW1 8633   4.592   2.105   4.003
 2578SOL    HW2 8634   4.745   2.070   4.047
 2579SOL     OW 8635   6.944   2.201   6.620
 2579SOL    HW1 8636   6.987   2.199   6.529
 2579SOL    HW2 8637   6.993   2.140   6.682
 2580SOL     OW 8638   1.558   2.811   6.081
 2580SOL    HW1 8639   1.518   2.719   6.087
 2580SOL    HW2 8640   1.621   2.815   6.004
 2581SOL     OW 8641   6.532   6.693   4.022
 2581SOL    HW1 8642   6.619   6.702   4.072
 2581SOL    HW2 8643   6.545   6.723   3.928
 2582SOL     OW 8644   0.539   5.423   2.740
 2582SOL    HW1 8645   0.552   5.478   2.822
 2582SOL    HW2 8646   0.628   5.397   2.703
 2583SOL     OW 8647   1.816   0.678   0.369
 2583SOL    HW1 8648   1.741   0.741   0.356
 2583SOL    HW2 8649   1.903   0.725   0.354
 2584SOL     OW 8650   5.014   6.713   2.264
 2584SOL    HW1 8651   5.068   6.712   2.348
 2584SOL    HW2 8652   4.919   6.689   2.285
 2585SOL     OW 8653   3.772   0.805   1.667
 2585SOL    HW1 8654   3.758   0.894   1.710
 2585SOL    HW2 8655   3.740   0.733   1.728
 2586SOL     OW 8656   6.613   2.526   4.064
 2586SOL    HW1 8657   6.656   2.462   4.001
 2586SOL    HW2 8658   6.558   2.476   4.131
 2587SOL     OW 8659   5.746   6.539   3.152
 2587SOL    HW1 8660   5.700   6.622   3.184
 2587SOL    HW2 8661   5.678   6.473   3.120
 2588SOL     OW 8662   5.560   1.308   1.433
 2588SOL    HW1 8663   5.472   1.351   1.456
 2588SOL    HW2 8664   5.633   1.352   1.484
 2589SOL     OW 8665   6.682   6.477   7.017
 2589SOL    HW1 8666   6.679   6.378   7.001
 2589SOL    HW2 8667   6.775   6.510   7.000
 2590SOL     OW 8668   4.189   6.634   2.546
 2590SOL    HW1 8669   4.112   6.677   2.593
 2590SOL    HW2 8670   4.193   6.537   2.570
 2591SOL     OW 8671   5.701   0.051   1.342
 2591SOL    HW1 8672   5.641   0.043   1.263
 2591SOL    HW2 8673   5.706   0.147   1.371
 2592SOL     OW 8674   3.637   5.975   1.666
 2592SOL    HW1 8675   3.630   6.033   1.585
 2592SOL    HW2 8676   3.649   5.879   1.638
 2593SOL     OW 8677   2.991   6.217   2.631
 2593SOL    HW1 8678   3.084   6.216   2.596
 2593SOL    HW2 8679   2.980   6.292   2.696
 2594SOL     OW 8680   1.313   6.582   6.299
 2594SOL    HW1 8681   1.327   6.620   6.207
 2594SOL    HW2 8682   1.244   6.636   6.347
 2595SOL     OW 8683   6.178   3.521   3.981
 2595SOL    HW1 8684   6.105   3.545   4.045
 2595SOL    HW2 8685   6.200   3.600   3.925
 2596SOL     OW 8686   3.914   2.130   2.105
 2596SOL    HW1 8687   3.977   2.186   2.052
 2596SOL    HW2 8688   3.823   2.134   2.064
 2597SOL     OW 8689   2.283   2.996   6.880
 2597SOL    HW1 8690   2.247   3.086   6.856
 2597SOL    HW2 8691   2.263   2.931   6.807
 2598SOL     OW 8692   6.626   3.114   3.079
 2598SOL    HW1 8693   6.713   3.163   3.068
 2598SOL    HW2 8694   6.642   3.029   3.129
 2599SOL     OW 8695   4.353   5.346   7.022
 2599SOL    HW1 8696   4.315   5.260   6.989
 2599SOL    HW2 8697   4.453   5.341   7.022
 2600SOL     OW 8698   6.687   3.632   3.335
 2600SOL    HW1 8699   6.737   3.699   3.390
 2600SOL    HW2 8700   6.682   3.545   3.385
 2601SOL     OW 8701   3.907   3.345   5.853
 2601SOL    HW1 8702   3.842   3.277   5.818
 2601SOL    HW2 8703   3.907   3.425   5.793
 2602SOL     OW 8704   6.433   5.661   4.636
 2602SOL    HW1 8705   6.521   5.617   4.616
 2602SOL    HW2 8706   6.414   5.653   4.734
 2603SOL     OW 8707   3.078   3.014   1.278
 2603SOL    HW1 8708   3.099   3.030   1.375
 2603SOL    HW2 8709   3.150   2.958   1.237
 2604SOL     OW 8710   6.106   0.225   1.319
 2604SOL    HW1 8711   6.140   0.180   1.236
 2604SOL    HW2 8712   6.082   0.155   1.386
 2605SOL     OW 8713   4.502   4.965   4.331
 2605SOL    HW1 8714   4.589   5.003   4.363
 2605SOL    HW2 8715   4.479   4.885   4.386
 2606SOL     OW 8716   6.975   4.710   0.689
 2606SOL    HW1 8717   7.023   4.648   0.750
 2606SOL    HW2 8718   6.889   4.739   0.732
 2607SOL     OW 8719   0.499   1.198   4.400
 2607SOL    HW1 8720   0.598   1.198   4.397
 2607SOL    HW2 8721   0.468   1.181   4.493
 2608SOL     OW 8722   5.125   0.582   1.200
 2608SOL    HW1 8723   5.173   0.565   1.114
 2608SOL    HW2 8724   5.152   0.672   1.235
 2609SOL     OW 8725   1.013   2.409   3.303
 2609SOL    HW1 8726   0.992   2.506   3.314
 2609SOL    HW2 8727   1.074   2.396   3.224
 2610SOL     OW 8728   5.950   5.461   4.834
 2610SOL    HW1 8729   5.864   5.486   4.790
 2610SOL    HW2 8730   6.020   5.529   4.812
 2611SOL     OW 8731   4.136   6.169   1.589
 2611SOL    HW1 8732   4.174   6.246   1.640
 2611SOL    HW2 8733   4.044   6.149   1.622
 2612SOL     OW 8734   6.296   6.724   4.220
 2612SOL    HW1 8735   6.322   6.784   4.296
 2612SOL    HW2 8736   6.376   6.705   4.164
 2613SOL     OW 8737   3.838   0.384   1.945
 2613SOL    HW1 8738   3.907   0.422   1.884
 2613SOL    HW2 8739   3.877   0.307   1.996
 2614SOL     OW 8740   6.963   6.671   6.685
 2614SOL    HW1 8741   6.915   6.689   6.599
 2614SOL    HW2 8742   6.967   6.573   6.701
 2615SOL     OW 8743   5.232   5.248   2.060
 2615SOL    HW1 8744   5.218   5.244   2.159
 2615SOL    HW2 8745   5.321   5.290   2.040
 2616SOL     OW 8746   4.112   3.290   3.019
 2616SOL    HW1 8747   4.163   3.366   3.060
 2616SOL    HW2 8748   4.043   3.257   3.084
 2617SOL     OW 8749   4.111   0.080   1.090
 2617SOL    HW1 8750   4.155   0.022   1.160
 2617SOL    HW2 8751   4.147   0.173   1.097
 2618SOL     OW 8752   1.027   0.513   0.876
 2618SOL    HW1 8753   0.999   0.603   0.841
 2618SOL    HW2 8754   0.993   0.503   0.970
 2619SOL     OW 8755   4.617   2.490   1.478
 2619SOL    HW1 8756   4.694   2.434   1.507
 2619SOL    HW2 8757   4.588   2.461   1.386
 2620SOL     OW 8758   1.474   4.019   4.362
 2620SOL    HW1 8759   1.440   3.925   4.366
 2620SOL    HW2 8760   1.409   4.076   4.312
 2621SOL     OW 8761   0.839   5.443   3.659
 2621SOL    HW1 8762   0.900   5.421   3.583
 2621SOL    HW2 8763   0.893   5.473   3.738
 2622SOL     OW 8764   2.490   2.872   6.636
 2622SOL    HW1 8765   2.480   2.959   6.587
 2622SOL    HW2 8766   2.484   2.797   6.571
 2623SOL     OW 8767   2.882   0.720   5.552
 2623SOL    HW1 8768   2.978   0.705   5.528
 2623SOL    HW2 8769   2.874   0.805   5.603
 2624SOL     OW 8770   6.190   1.513   3.437
 2624SOL    HW1 8771   6.117   1.527   3.504
 2624SOL    HW2 8772   6.185   1.585   3.367
 2625SOL     OW 8773   3.809   1.728   5.551
 2625SOL    HW1 8774   3.857   1.799   5.603
 2625SOL    HW2 8775   3.847   1.724   5.458
 2626SOL     OW 8776   2.039   6.743   2.842
 2626SOL    HW1 8777   2.119   6.698   2.881
 2626SOL    HW2 8778   2.069   6.816   2.781
 2627SOL     OW 8779   6.876   0.128   4.489
 2627SOL    HW1 8780   6.788   0.145   4.443
 2627SOL    HW2 8781   6.920   0.049   4.445
 2628SOL     OW 8782   3.977   6.055   6.436
 2628SOL    HW1 8783   3.998   6.047   6.339
 2628SOL    HW2 8784   3.982   6.151   6.464
 2629SOL     OW 8785   3.418   4.066   1.261
 2629SOL    HW1 8786   3.454   4.105   1.347
 2629SOL    HW2 8787   3.319   4.080   1.257
 2630SOL     OW 8788   2.692   2.344   2.510
 2630SOL    HW1 8789   2.635   2.409   2.459
 2630SOL    HW2 8790   2.757   2.300   2.448
 2631SOL     OW 8791   4.983   6.247   4.367
 2631SOL    HW1 8792   4.905   6.208   4.318
 2631SOL    HW2 8793   5.048   6.174   4.390
 2632SOL     OW 8794   3.749   2.452   0.263
 2632SOL    HW1 8795   3.759   2.532   0.203
 2632SOL    HW2 8796   3.839   2.420   0.290
 2633SOL     OW 8797   5.490   2.166   6.871
 2633SOL    HW1 8798   5.549   2.180   6.791
 2633SOL    HW2 8799   5.541   2.189   6.954
 2634SOL     OW 8800   2.203   4.517   0.929
 2634SOL    HW1 8801   2.193   4.486   0.834
 2634SOL    HW2 8802   2.287   4.572   0.936
 2635SOL     OW 8803   5.455   4.445   4.569
 2635SOL    HW1 8804   5.376   4.455   4.629
 2635SOL    HW2 8805   5.529   4.399   4.618
 2636SOL     OW 8806   5.377   0.174   5.381
 2636SOL    HW1 8807   5.420   0.249   5.331
 2636SOL    HW2 8808   5.443   0.133   5.444
 2637SOL     OW 8809   5.809   0.009   2.933
 2637SOL    HW1 8810   5.794   0.102   2.898
 2637SOL    HW2 8811   5.849   0.014   3.024
 2638SOL     OW 8812   5.561   6.091   0.676
 2638SOL    HW1 8813   5.610   6.061   0.758
 2638SOL    HW2 8814   5.481   6.034   0.662
 2639SOL     OW 8815   6.106   5.827   0.642
 2639SOL    HW1 8816   6.051   5.784   0.714
 2639SOL    HW2 8817   6.177   5.884   0.684
 2640SOL     OW 8818   6.952   6.297   5.545
 2640SOL    HW1 8819   7.016   6.266   5.616
 2640SOL    HW2 8820   6.899   6.219   5.512
 2641SOL     OW 8821   5.296   4.782   0.161
 2641SOL    HW1 8822   5.351   4.796   0.243
 2641SOL    HW2 8823   5.298   4.685   0.135
 2642SOL     OW 8824   4.928   0.327   3.998
 2642SOL    HW1 8825   4.830   0.312   4.006
 2642SOL    HW2 8826   4.973   0.244   3.967
 2643SOL     OW 8827   0.901   0.599   2.468
 2643SOL    HW1 8828   0.980   0.655   2.443
 2643SOL    HW2 8829   0.824   0.659   2.488
 2644SOL     OW 8830   0.321   4.461   6.503
 2644SOL    HW1 8831   0.285   4.490   6.592
 2644SOL    HW2 8832   0.416   4.491   6.495
 2645SOL     OW 8833   5.494   5.882   6.196
 2645SOL    HW1 8834   5.444   5.968   6.207
 2645SOL    HW2 8835   5.526   5.849   6.285
 2646SOL     OW 8836   6.553   6.657   6.831
 2646SOL    HW1 8837   6.522   6.749   6.857
 2646SOL    HW2 8838   6.570   6.603   6.913
 2647SOL     OW 8839   3.566   1.877   1.473
 2647SOL    HW1 8840   3.518   1.915   1.393
 2647SOL    HW2 8841   3.597   1.784   1.451
 2648SOL     OW 8842   5.041   0.548   2.279
 2648SOL    HW1 8843   5.017   0.567   2.374
 2648SOL    HW2 8844   5.046   0.449   2.265
 2649SOL     OW 8845   3.543   1.741   6.135
 2649SOL    HW1 8846   3.615   1.721   6.202
 2649SOL    HW2 8847   3.535   1.840   6.123
 2650SOL     OW 8848   0.294   6.123   2.832
 2650SOL    HW1 8849   0.254   6.215   2.824
 2650SOL    HW2 8850   0.341   6.100   2.747
 2651SOL     OW 8851   6.563   1.278   2.761
 2651SOL    HW1 8852   6.608   1.320   2.840
 2651SOL    HW2 8853   6.531   1.351   2.699
 2652SOL     OW 8854   3.657   3.221   2.894
 2652SOL    HW1 8855   3.567   3.244   2.931
 2652SOL    HW2 8856   3.649   3.207   2.795
 2653SOL     OW 8857   6.641   6.622   6.200
 2653SOL    HW1 8858   6.665   6.567   6.119
 2653SOL    HW2 8859   6.725   6.647   6.249
 2654SOL     OW 8860   5.695   3.077   5.913
 2654SOL    HW1 8861   5.659   2.984   5.902
 2654SOL    HW2 8862   5.645   3.123   5.987
 2655SOL     OW 8863   4.886   6.467   4.552
 2655SOL    HW1 8864   4.869   6.449   4.649
 2655SOL    HW2 8865   4.951   6.399   4.517
 2656SOL     OW 8866   5.293   3.304   3.673
 2656SOL    HW1 8867   5.384   3.285   3.709
 2656SOL    HW2 8868   5.259   3.390   3.710
 2657SOL     OW 8869   1.759   3.849   6.795
 2657SOL    HW1 8870   1.705   3.933   6.790
 2657SOL    HW2 8871   1.702   3.776   6.832
 2658SOL     OW 8872   6.406   3.907   5.988
 2658SOL    HW1 8873   6.402   3.975   5.915
 2658SOL    HW2 8874   6.473   3.936   6.057
 2659SOL     OW 8875   0.001   2.508   4.193
 2659SOL    HW1 8876   0.074   2.540   4.133
 2659SOL    HW2 8877   7.006   2.412   4.173
 2660SOL     OW 8878   0.010   2.386   2.694
 2660SOL    HW1 8879   0.103   2.352   2.707
 2660SOL    HW2 8880   7.003   2.362   2.603
 2661SOL     OW 8881   4.097   6.714   1.101
 2661SOL    HW1 8882   4.180   6.676   1.060
 2661SOL    HW2 8883   4.117   6.742   1.195
 2662SOL     OW 8884   3.797   6.462   4.173
 2662SOL    HW1 8885   3.817   6.421   4.261
 2662SOL    HW2 8886   3.837   6.554   4.168
 2663SOL     OW 8887   1.677   4.290   2.740
 2663SOL    HW1 8888   1.759   4.255   2.786
 2663SOL    HW2 8889   1.703   4.355   2.669
 2664SOL     OW 8890   4.107   3.705   2.253
 2664SOL    HW1 8891   4.089   3.792   2.298
 2664SOL    HW2 8892   4.116   3.633   2.321
 2665SOL     OW 8893   3.893   1.192   4.359
 2665SOL    HW1 8894   3.865   1.277   4.313
 2665SOL    HW2 8895   3.940   1.133   4.293
 2666SOL     OW 8896   5.238   4.960   1.071
 2666SOL    HW1 8897   5.170   4.887   1.072
 2666SOL    HW2 8898   5.294   4.951   0.989
 2667SOL     OW 8899   2.443   5.542   4.117
 2667SOL    HW1 8900   2.538   5.533   4.149
 2667SOL    HW2 8901   2.410   5.453   4.085
 2668SOL     OW 8902   0.046   2.884   5.595
 2668SOL    HW1 8903   7.021   2.966   5.569
 2668SOL    HW2 8904   0.078   2.892   5.689
 2669SOL     OW 8905   4.508   4.738   5.206
 2669SOL    HW1 8906   4.430   4.788   5.166
 2669SOL    HW2 8907   4.591   4.793   5.196
 2670SOL     OW 8908   1.343   1.149   6.568
 2670SOL    HW1 8909   1.379   1.209   6.640
 2670SOL    HW2 8910   1.280   1.083   6.609
 2671SOL     OW 8911   2.210   3.360   6.532
 2671SOL    HW1 8912   2.283   3.415   6.491
 2671SOL    HW2 8913   2.160   3.312   6.461
 2672SOL     OW 8914   1.695   5.628   1.048
 2672SOL    HW1 8915   1.674   5.726   1.052
 2672SOL    HW2 8916   1.793   5.615   1.062
 2673SOL     OW 8917   3.476   2.007   2.888
 2673SOL    HW1 8918   3.465   2.046   2.796
 2673SOL    HW2 8919   3.503   1.911   2.881
 2674SOL     OW 8920   6.282   4.794   5.303
 2674SOL    HW1 8921   6.333   4.808   5.218
 2674SOL    HW2 8922   6.229   4.877   5.323
 2675SOL     OW 8923   0.100   4.534   5.538
 2675SOL    HW1 8924   0.181   4.526   5.480
 2675SOL    HW2 8925   0.127   4.546   5.633
 2676SOL     OW 8926   4.415   1.215   1.539
 2676SOL    HW1 8927   4.509   1.195   1.511
 2676SOL    HW2 8928   4.352   1.176   1.473
 2677SOL     OW 8929   2.388   5.014   2.001
 2677SOL    HW1 8930   2.345   5.052   2.083
 2677SOL    HW2 8931   2.469   5.069   1.978
 2678SOL     OW 8932   0.340   5.008   5.900
 2678SOL    HW1 8933   0.317   5.105   5.897
 2678SOL    HW2 8934   0.267   4.954   5.857
 2679SOL     OW 8935   2.982   4.867   1.213
 2679SOL    HW1 8936   3.011   4.807   1.138
 2679SOL    HW2 8937   3.020   4.958   1.199
 2680SOL     OW 8938   1.769   1.648   1.604
 2680SOL    HW1 8939   1.674   1.637   1.576
 2680SOL    HW2 8940   1.809   1.558   1.621
 2681SOL     OW 8941   1.636   2.538   3.381
 2681SOL    HW1 8942   1.658   2.503   3.290
 2681SOL    HW2 8943   1.720   2.557   3.432
 2682SOL     OW 8944   5.811   2.418   2.544
 2682SOL    HW1 8945   5.880   2.416   2.472
 2682SOL    HW2 8946   5.848   2.464   2.625
 2683SOL     OW 8947   1.019   5.898   1.143
 2683SOL    HW1 8948   1.054   5.983   1.103
 2683SOL    HW2 8949   1.092   5.854   1.196
 2684SOL     OW 8950   2.294   6.470   3.316
 2684SOL    HW1 8951   2.197   6.492   3.303
 2684SOL    HW2 8952   2.324   6.506   3.405
 2685SOL     OW 8953   5.488   6.038   5.030
 2685SOL    HW1 8954   5.529   6.018   5.119
 2685SOL    HW2 8955   5.479   5.954   4.978
 2686SOL     OW 8956   2.278   2.934   4.323
 2686SOL    HW1 8957   2.300   3.014   4.378
 2686SOL    HW2 8958   2.235   2.963   4.237
 2687SOL     OW 8959   3.934   5.329   2.586
 2687SOL    HW1 8960   3.907   5.384   2.507
 2687SOL    HW2 8961   3.882   5.244   2.587
 2688SOL     OW 8962   3.865   4.850   6.149
 2688SOL    HW1 8963   3.905   4.792   6.078
 2688SOL    HW2 8964   3.901   4.943   6.141
 2689SOL     OW 8965   0.331   3.081   4.312
 2689SOL    HW1 8966   0.411   3.089   4.253
 2689SOL    HW2 8967   0.359   3.084   4.408
 2690SOL     OW 8968   3.984   3.866   3.949
 2690SOL    HW1 8969   3.926   3.806   4.004
 2690SOL    HW2 8970   4.031   3.812   3.879
 2691SOL     OW 8971   1.598   5.913   2.323
 2691SOL    HW1 8972   1.545   5.830   2.305
 2691SOL    HW2 8973   1.538   5.982   2.364
 2692SOL     OW 8974   0.277   6.599   3.990
 2692SOL    HW1 8975   0.322   6.565   4.073
 2692SOL    HW2 8976   0.336   6.667   3.946
 2693SOL     OW 8977   1.839   3.847   3.523
 2693SOL    HW1 8978   1.923   3.827   3.572
 2693SOL    HW2 8979   1.799   3.763   3.487
 2694SOL     OW 8980   1.684   6.825   3.779
 2694SOL    HW1 8981   1.640   6.911   3.756
 2694SOL    HW2 8982   1.661   6.800   3.874
 2695SOL     OW 8983   4.437   2.373   2.692
 2695SOL    HW1 8984   4.342   2.342   2.684
 2695SOL    HW2 8985   4.497   2.295   2.704
 2696SOL     OW 8986   3.911   3.975   5.321
 2696SOL    HW1 8987   3.843   3.939   5.257
 2696SOL    HW2 8988   3.928   4.072   5.300
 2697SOL     OW 8989   2.881   1.869   4.002
 2697SOL    HW1 8990   2.897   1.966   4.022
 2697SOL    HW2 8991   2.956   1.833   3.947
 2698SOL     OW 8992   1.776   4.094   0.336
 2698SOL    HW1 8993   1.874   4.098   0.319
 2698SOL    HW2 8994   1.726   4.114   0.252
 2699SOL     OW 8995   3.540   6.380   1.372
 2699SOL    HW1 8996   3.461   6.436   1.395
 2699SOL    HW2 8997   3.596   6.367   1.454
 2700SOL     OW 8998   1.919   3.263   2.790
 2700SOL    HW1 8999   1.958   3.207   2.718
 2700SOL    HW2 9000   1.905   3.357   2.756
 2701SOL     OW 9001   3.722   6.988   6.714
 2701SOL    HW1 9002   3.764   0.053   6.724
 2701SOL    HW2 9003   3.673   6.964   6.798
 2702SOL     OW 9004   6.871   0.710   3.664
 2702SOL    HW1 9005   6.859   0.809   3.653
 2702SOL    HW2 9006   6.803   0.662   3.609
 2703SOL     OW 9007   1.684   2.038   2.525
 2703SOL    HW1 9008   1.781   2.025   2.548
 2703SOL    HW2 9009   1.677   2.067   2.430
 2704SOL     OW 9010   2.593   5.144   1.536
 2704SOL    HW1 9011   2.629   5.058   1.501
 2704SOL    HW2 9012   2.534   5.127   1.615
 2705SOL     OW 9013   6.459   5.361   3.203
 2705SOL    HW1 9014   6.479   5.396   3.294
 2705SOL    HW2 9015   6.471   5.433   3.135
 2706SOL     OW 9016   6.494   1.543   1.689
 2706SOL    HW1 9017   6.496   1.502   1.781
 2706SOL    HW2 9018   6.509   1.472   1.621
 2707SOL     OW 9019   1.916   1.293   6.271
 2707SOL    HW1 9020   1.837   1.342   6.233
 2707SOL    HW2 9021   1.994   1.303   6.209
 2708SOL     OW 9022   1.461   2.777   1.643
 2708SOL    HW1 9023   1.437   2.730   1.728
 2708SOL    HW2 9024   1.380   2.785   1.586
 2709SOL     OW 9025   4.582   5.786   0.772
 2709SOL    HW1 9026   4.489   5.807   0.803
 2709SOL    HW2 9027   4.580   5.760   0.676
 2710SOL     OW 9028   0.381   4.271   3.018
 2710SOL    HW1 9029   0.357   4.236   2.928
 2710SOL    HW2 9030   0.353   4.366   3.026
 2711SOL     OW 9031   1.191   0.574   2.303
 2711SOL    HW1 9032   1.160   0.575   2.398
 2711SOL    HW2 9033   1.216   0.481   2.277
 2712SOL     OW 9034   3.032   4.480   0.420
 2712SOL    HW1 9035   3.067   4.573   0.415
 2712SOL    HW2 9036   3.045   4.434   0.332
 2713SOL     OW 9037   2.340   3.135   5.680
 2713SOL    HW1 9038   2.371   3.040   5.675
 2713SOL    HW2 9039   2.342   3.175   5.588
 2714SOL     OW 9040   4.624   0.298   5.981
 2714SOL    HW1 9041   4.592   0.378   6.031
 2714SOL    HW2 9042   4.688   0.247   6.038
 2715SOL     OW 9043   5.591   1.214   6.948
 2715SOL    HW1 9044   5.541   1.301   6.942
 2715SOL    HW2 9045   5.526   1.139   6.961
 2716SOL     OW 9046   0.412   6.389   2.517
 2716SOL    HW1 9047   0.449   6.341   2.597
 2716SOL    HW2 9048   0.462   6.360   2.435
 2717SOL     OW 9049   1.138   0.234   3.079
 2717SOL    HW1 9050   1.104   0.325   3.057
 2717SOL    HW2 9051   1.065   0.167   3.068
 2718SOL     OW 9052   2.461   4.483   3.659
 2718SOL    HW1 9053   2.394   4.518   3.593
 2718SOL    HW2 9054   2.551   4.522   3.639
 2719SOL     OW 9055   4.154   5.227   1.740
 2719SOL    HW1 9056   4.246   5.248   1.772
 2719SOL    HW2 9057   4.130   5.134   1.766
 2720SOL     OW 9058   1.882   6.816   3.475
 2720SOL    HW1 9059   1.911   6.783   3.565
 2720SOL    HW2 9060   1.896   6.915   3.470
 2721SOL     OW 9061   3.674   0.078   4.586
 2721SOL    HW1 9062   3.694   0.117   4.496
 2721SOL    HW2 9063   3.703   0.142   4.657
 2722SOL     OW 9064   1.388   6.339   2.577
 2722SOL    HW1 9065   1.299   6.329   2.533
 2722SOL    HW2 9066   1.443   6.406   2.528
 2723SOL     OW 9067   1.544   1.306   5.719
 2723SOL    HW1 9068   1.552   1.390   5.773
 2723SOL    HW2 9069   1.449   1.295   5.689
 2724SOL     OW 9070   4.007   5.857   6.154
 2724SOL    HW1 9071   4.039   5.865   6.060
 2724SOL    HW2 9072   4.067   5.794   6.205
 2725SOL     OW 9073   4.237   5.073   3.807
 2725SOL    HW1 9074   4.202   5.104   3.896
 2725SOL    HW2 9075   4.324   5.118   3.788
 2726SOL     OW 9076   4.829   5.402   2.251
 2726SOL    HW1 9077   4.750   5.427   2.308
 2726SOL    HW2 9078   4.839   5.468   2.177
 2727SOL     OW 9079   1.068   5.618   2.425
 2727SOL    HW1 9080   1.089   5.520   2.436
 2727SOL    HW2 9081   1.105   5.650   2.338
 2728SOL     OW 9082   2.986   6.828   5.301
 2728SOL    HW1 9083   3.023   6.919   5.285
 2728SOL    HW2 9084   3.025   6.764   5.234
 2729SOL     OW 9085   5.658   5.417   2.426
 2729SOL    HW1 9086   5.588   5.371   2.480
 2729SOL    HW2 9087   5.737   5.438   2.484
 2730SOL     OW 9088   1.858   6.517   1.171
 2730SOL    HW1 9089   1.882   6.545   1.078
 2730SOL    HW2 9090   1.849   6.599   1.229
 2731SOL     OW 9091   2.960   3.779   1.975
 2731SOL    HW1 9092   2.973   3.752   2.071
 2731SOL    HW2 9093   3.028   3.733   1.918
 2732SOL     OW 9094   5.894   1.487   2.203
 2732SOL    HW1 9095   5.965   1.433   2.248
 2732SOL    HW2 9096   5.838   1.533   2.272
 2733SOL     OW 9097   1.244   6.819   5.811
 2733SOL    HW1 9098   1.144   6.823   5.818
 2733SOL    HW2 9099   1.280   6.911   5.797
 2734SOL     OW 9100   1.974   5.854   4.204
 2734SOL    HW1 9101   1.958   5.838   4.301
 2734SOL    HW2 9102   2.069   5.831   4.181
 2735SOL     OW 9103   1.556   5.193   2.877
 2735SOL    HW1 9104   1.504   5.247   2.943
 2735SOL    HW2 9105   1.645   5.235   2.863
 2736SOL     OW 9106   4.742   0.191   4.946
 2736SOL    HW1 9107   4.769   0.279   4.985
 2736SOL    HW2 9108   4.686   0.141   5.012
 2737SOL     OW 9109   4.769   3.426   6.556
 2737SOL    HW1 9110   4.818   3.342   6.534
 2737SOL    HW2 9111   4.709   3.451   6.480
 2738SOL     OW 9112   5.638   5.073   4.648
 2738SOL    HW1 9113   5.696   5.113   4.577
 2738SOL    HW2 9114   5.696   5.035   4.720
 2739SOL     OW 9115   5.676   3.656   1.333
 2739SOL    HW1 9116   5.614   3.734   1.323
 2739SOL    HW2 9117   5.659   3.590   1.260
 2740SOL     OW 9118   5.945   2.127   3.020
 2740SOL    HW1 9119   6.008   2.203   3.037
 2740SOL    HW2 9120   5.851   2.162   3.018
 2741SOL     OW 9121   0.779   2.375   6.039
 2741SOL    HW1 9122   0.804   2.372   5.943
 2741SOL    HW2 9123   0.825   2.452   6.083
 2742SOL     OW 9124   2.135   0.038   6.737
 2742SOL    HW1 9125   2.211   0.063   6.796
 2742SOL    HW2 9126   2.093   6.979   6.771
 2743SOL     OW 9127   5.400   5.048   1.283
 2743SOL    HW1 9128   5.321   5.004   1.240
 2743SOL    HW2 9129   5.473   4.981   1.295
 2744SOL     OW 9130   4.478   1.870   5.931
 2744SOL    HW1 9131   4.570   1.850   5.898
 2744SOL    HW2 9132   4.440   1.947   5.880
 2745SOL     OW 9133   2.945   6.916   0.907
 2745SOL    HW1 9134   2.984   6.858   0.979
 2745SOL    HW2 9135   2.849   6.891   0.892
 2746SOL     OW 9136   1.829   2.181   6.768
 2746SOL    HW1 9137   1.799   2.208   6.859
 2746SOL    HW2 9138   1.765   2.114   6.730
 2747SOL     OW 9139   5.022   6.529   4.236
 2747SOL    HW1 9140   4.939   6.518   4.181
 2747SOL    HW2 9141   5.019   6.468   4.315
 2748SOL     OW 9142   4.173   1.072   2.820
 2748SOL    HW1 9143   4.270   1.088   2.798
 2748SOL    HW2 9144   4.149   1.123   2.903
 2749SOL     OW 9145   4.809   5.349   3.651
 2749SOL    HW1 9146   4.768   5.345   3.742
 2749SOL    HW2 9147   4.882   5.280   3.644
 2750SOL     OW 9148   0.448   6.117   2.617
 2750SOL    HW1 9149   0.512   6.072   2.554
 2750SOL    HW2 9150   0.363   6.137   2.569
 2751SOL     OW 9151   1.462   0.180   6.823
 2751SOL    HW1 9152   1.466   0.123   6.741
 2751SOL    HW2 9153   1.411   0.264   6.804
 2752SOL     OW 9154   6.117   6.081   5.719
 2752SOL    HW1 9155   6.169   6.090   5.634
 2752SOL    HW2 9156   6.132   6.163   5.775
 2753SOL     OW 9157   3.154   5.555   6.119
 2753SOL    HW1 9158   3.120   5.503   6.040
 2753SOL    HW2 9159   3.244   5.593   6.098
 2754SOL     OW 9160   0.860   0.695   4.781
 2754SOL    HW1 9161   0.787   0.707   4.714
 2754SOL    HW2 9162   0.833   0.737   4.868
 2755SOL     OW 9163   3.165   6.315   2.126
 2755SOL    HW1 9164   3.168   6.395   2.186
 2755SOL    HW2 9165   3.199   6.235   2.175
 2756SOL     OW 9166   0.122   2.915   5.856
 2756SOL    HW1 9167   0.195   2.981   5.870
 2756SOL    HW2 9168   0.066   2.909   5.939
 2757SOL     OW 9169   4.517   3.078   6.664
 2757SOL    HW1 9170   4.535   2.996   6.719
 2757SOL    HW2 9171   4.447   3.133   6.708
 2758SOL     OW 9172   6.554   6.345   2.523
 2758SOL    HW1 9173   6.538   6.247   2.535
 2758SOL    HW2 9174   6.650   6.366   2.540
 2759SOL     OW 9175   3.104   4.072   6.057
 2759SOL    HW1 9176   3.030   4.061   6.123
 2759SOL    HW2 9177   3.188   4.031   6.093
 2760SOL     OW 9178   5.273   6.150   3.320
 2760SOL    HW1 9179   5.191   6.205   3.338
 2760SOL    HW2 9180   5.295   6.153   3.223
 2761SOL     OW 9181   1.675   3.147   3.028
 2761SOL    HW1 9182   1.664   3.245   3.012
 2761SOL    HW2 9183   1.765   3.118   2.993
 2762SOL     OW 9184   2.845   2.444   0.375
 2762SOL    HW1 9185   2.920   2.462   0.439
 2762SOL    HW2 9186   2.817   2.531   0.333
 2763SOL     OW 9187   5.470   2.125   4.801
 2763SOL    HW1 9188   5.444   2.193   4.870
 2763SOL    HW2 9189   5.570   2.125   4.791
 2764SOL     OW 9190   1.393   3.699   2.020
 2764SOL    HW1 9191   1.416   3.606   2.049
 2764SOL    HW2 9192   1.476   3.755   2.020
 2765SOL     OW 9193   6.433   6.802   6.441
 2765SOL    HW1 9194   6.523   6.830   6.476
 2765SOL    HW2 9195   6.362   6.828   6.506
 2766SOL     OW 9196   4.978   1.390   6.524
 2766SOL    HW1 9197   4.899   1.354   6.475
 2766SOL    HW2 9198   4.974   1.360   6.619
 2767SOL     OW 9199   6.996   5.156   6.020
 2767SOL    HW1 9200   6.937   5.168   5.941
 2767SOL    HW2 9201   6.998   5.059   6.046
 2768SOL     OW 9202   4.418   0.116   1.054
 2768SOL    HW1 9203   4.516   0.100   1.058
 2768SOL    HW2 9204   4.372   0.058   1.122
 2769SOL     OW 9205   1.132   4.331   5.713
 2769SOL    HW1 9206   1.188   4.290   5.640
 2769SOL    HW2 9207   1.165   4.424   5.731
 2770SOL     OW 9208   3.056   6.805   0.682
 2770SOL    HW1 9209   3.139   6.767   0.722
 2770SOL    HW2 9210   2.998   6.844   0.754
 2771SOL     OW 9211   4.927   7.005   4.320
 2771SOL    HW1 9212   5.023   0.002   4.334
 2771SOL    HW2 9213   4.897   6.938   4.387
 2772SOL     OW 9214   4.144   0.060   3.257
 2772SOL    HW1 9215   4.197   0.025   3.180
 2772SOL    HW2 9216   4.063   0.107   3.223
 2773SOL     OW 9217   5.935   2.672   4.598
 2773SOL    HW1 9218   5.939   2.764   4.558
 2773SOL    HW2 9219   5.948   2.678   4.697
 2774SOL     OW 9220   5.385   1.730   4.143
 2774SOL    HW1 9221   5.328   1.681   4.208
 2774SOL    HW2 9222   5.343   1.818   4.120
 2775SOL     OW 9223   0.661   3.531   4.364
 2775SOL    HW1 9224   0.709   3.488   4.440
 2775SOL    HW2 9225   0.687   3.486   4.278
 2776SOL     OW 9226   4.996   4.534   6.204
 2776SOL    HW1 9227   4.941   4.453   6.186
 2776SOL    HW2 9228   5.081   4.507   6.249
 2777SOL     OW 9229   3.302   1.907   6.054
 2777SOL    HW1 9230   3.348   1.975   6.110
 2777SOL    HW2 9231   3.213   1.886   6.093
 2778SOL     OW 9232   3.064   6.308   5.918
 2778SOL    HW1 9233   3.151   6.359   5.912
 2778SOL    HW2 9234   3.005   6.335   5.843
 2779SOL     OW 9235   5.687   0.324   1.382
 2779SOL    HW1 9236   5.602   0.366   1.350
 2779SOL    HW2 9237   5.760   0.341   1.315
 2780SOL     OW 9238   6.835   1.515   4.796
 2780SOL    HW1 9239   6.810   1.566   4.878
 2780SOL    HW2 9240   6.916   1.460   4.814
 2781SOL     OW 9241   5.748   1.089   2.940
 2781SOL    HW1 9242   5.807   1.026   2.990
 2781SOL    HW2 9243   5.656   1.050   2.932
 2782SOL     OW 9244   4.431   0.582   6.441
 2782SOL    HW1 9245   4.458   0.666   6.490
 2782SOL    HW2 9246   4.339   0.555   6.469
 2783SOL     OW 9247   5.859   4.440   1.843
 2783SOL    HW1 9248   5.915   4.358   1.833
 2783SOL    HW2 9249   5.774   4.418   1.890
 2784SOL     OW 9250   1.445   1.954   1.204
 2784SOL    HW1 9251   1.538   1.918   1.202
 2784SOL    HW2 9252   1.407   1.955   1.111
 2785SOL     OW 9253   5.945   2.542   1.426
 2785SOL    HW1 9254   5.902   2.630   1.403
 2785SOL    HW2 9255   5.945   2.530   1.526
 2786SOL     OW 9256   0.103   6.589   0.195
 2786SOL    HW1 9257   0.183   6.633   0.236
 2786SOL    HW2 9258   0.090   6.498   0.234
 2787SOL     OW 9259   6.596   4.912   6.408
 2787SOL    HW1 9260   6.570   4.937   6.314
 2787SOL    HW2 9261   6.612   4.995   6.461
 2788SOL     OW 9262   3.219   5.810   5.771
 2788SOL    HW1 9263   3.205   5.903   5.804
 2788SOL    HW2 9264   3.134   5.777   5.729
 2789SOL     OW 9265   1.007   2.334   5.424
 2789SOL    HW1 9266   0.956   2.256   5.459
 2789SOL    HW2 9267   1.019   2.402   5.496
 2790SOL     OW 9268   2.012   5.610   1.910
 2790SOL    HW1 9269   2.018   5.673   1.987
 2790SOL    HW2 9270   2.046   5.520   1.937
 2791SOL     OW 9271   0.563   3.778   2.955
 2791SOL    HW1 9272   0.577   3.809   2.861
 2791SOL    HW2 9273   0.486   3.827   2.996
 2792SOL     OW 9274   3.124   1.139   5.481
 2792SOL    HW1 9275   3.031   1.168   5.459
 2792SOL    HW2 9276   3.159   1.082   5.407
 2793SOL     OW 9277   3.507   4.190   0.982
 2793SOL    HW1 9278   3.473   4.145   1.065
 2793SOL    HW2 9279   3.434   4.193   0.914
 2794SOL     OW 9280   0.961   2.297   6.974
 2794SOL    HW1 9281   0.925   2.365   6.910
 2794SOL    HW2 9282   0.904   2.296   0.032
 2795SOL     OW 9283   1.135   4.833   1.589
 2795SOL    HW1 9284   1.213   4.815   1.528
 2795SOL    HW2 9285   1.166   4.834   1.684
 2796SOL     OW 9286   1.994   6.375   6.521
 2796SOL    HW1 9287   2.071   6.380   6.458
 2796SOL    HW2 9288   1.909   6.368   6.468
 2797SOL     OW 9289   5.339   6.828   3.453
 2797SOL    HW1 9290   5.341   6.771   3.535
 2797SOL    HW2 9291   5.246   6.835   3.419
 2798SOL     OW 9292   5.346   0.183   1.911
 2798SOL    HW1 9293   5.289   0.242   1.854
 2798SOL    HW2 9294   5.390   0.238   1.982
 2799SOL     OW 9295   3.333   6.020   5.188
 2799SOL    HW1 9296   3.372   6.078   5.117
 2799SOL    HW2 9297   3.316   5.929   5.152
 2800SOL     OW 9298   5.671   7.017   6.762
 2800SOL    HW1 9299   5.704   0.019   6.852
 2800SOL    HW2 9300   5.699   6.923   6.743
 2801SOL     OW 9301   0.711   4.659   5.005
 2801SOL    HW1 9302   0.696   4.650   5.104
 2801SOL    HW2 9303   0.649   4.596   4.957
 2802SOL     OW 9304   0.854   5.151   5.739
 2802SOL    HW1 9305   0.908   5.233   5.723
 2802SOL    HW2 9306   0.797   5.133   5.658
 2803SOL     OW 9307   3.657   2.314   6.502
 2803SOL    HW1 9308   3.682   2.410   6.518
 2803SOL    HW2 9309   3.739   2.264   6.473
 2804SOL     OW 9310   0.388   2.538   3.931
 2804SOL    HW1 9311   0.407   2.506   3.838
 2804SOL    HW2 9312   0.297   2.578   3.934
 2805SOL     OW 9313   4.340   3.439   1.184
 2805SOL    HW1 9314   4.301   3.494   1.258
 2805SOL    HW2 9315   4.379   3.355   1.221
 2806SOL     OW 9316   0.552   4.264   6.147
 2806SOL    HW1 9317   0.458   4.230   6.144
 2806SOL    HW2 9318   0.613   4.190   6.174
 2807SOL     OW 9319   4.004   0.131   3.772
 2807SOL    HW1 9320   4.030   0.073   3.850
 2807SOL    HW2 9321   3.961   0.074   3.702
 2808SOL     OW 9322   6.830   5.514   6.167
 2808SOL    HW1 9323   6.907   5.462   6.202
 2808SOL    HW2 9324   6.859   5.608   6.146
 2809SOL     OW 9325   6.974   5.175   1.876
 2809SOL    HW1 9326   6.936   5.151   1.786
 2809SOL    HW2 9327   6.906   5.228   1.927
 2810SOL     OW 9328   2.949   6.162   3.105
 2810SOL    HW1 9329   2.915   6.238   3.049
 2810SOL    HW2 9330   2.886   6.085   3.098
 2811SOL     OW 9331   0.773   0.779   1.507
 2811SOL    HW1 9332   0.804   0.847   1.441
 2811SOL    HW2 9333   0.770   0.820   1.598
 2812SOL     OW 9334   0.745   1.977   1.199
 2812SOL    HW1 9335   0.826   1.990   1.142
 2812SOL    HW2 9336   0.770   1.990   1.295
 2813SOL     OW 9337   0.977   2.054   1.762
 2813SOL    HW1 9338   1.038   2.129   1.788
 2813SOL    HW2 9339   0.935   2.016   1.844
 2814SOL     OW 9340   2.249   4.739   0.270
 2814SOL    HW1 9341   2.160   4.769   0.235
 2814SOL    HW2 9342   2.271   4.649   0.231
 2815SOL     OW 9343   0.515   5.285   5.749
 2815SOL    HW1 9344   0.474   5.326   5.831
 2815SOL    HW2 9345   0.602   5.328   5.730
 2816SOL     OW 9346   0.756   6.274   6.117
 2816SOL    HW1 9347   0.829   6.215   6.084
 2816SOL    HW2 9348   0.668   6.238   6.088
 2817SOL     OW 9349   4.502   0.544   1.784
 2817SOL    HW1 9350   4.544   0.482   1.718
 2817SOL    HW2 9351   4.572   0.578   1.847
 2818SOL     OW 9352   1.582   0.848   0.406
 2818SOL    HW1 9353   1.625   0.938   0.409
 2818SOL    HW2 9354   1.513   0.841   0.479
 2819SOL     OW 9355   0.548   0.613   0.461
 2819SOL    HW1 9356   0.615   0.540   0.454
 2819SOL    HW2 9357   0.460   0.575   0.491
 2820SOL     OW 9358   1.795   2.512   0.885
 2820SOL    HW1 9359   1.858   2.543   0.956
 2820SOL    HW2 9360   1.785   2.584   0.816
 2821SOL     OW 9361   2.418   3.525   6.429
 2821SOL    HW1 9362   2.507   3.482   6.416
 2821SOL    HW2 9363   2.380   3.549   6.340
 2822SOL     OW 9364   4.371   2.563   0.683
 2822SOL    HW1 9365   4.452   2.505   0.669
 2822SOL    HW2 9366   4.296   2.530   0.626
 2823SOL     OW 9367   5.486   2.315   1.591
 2823SOL    HW1 9368   5.563   2.296   1.652
 2823SOL    HW2 9369   5.486   2.412   1.566
 2824SOL     OW 9370   1.203   3.074   4.641
 2824SOL    HW1 9371   1.302   3.089   4.640
 2824SOL    HW2 9372   1.182   2.986   4.597
 2825SOL     OW 9373   5.088   1.582   5.792
 2825SOL    HW1 9374   5.126   1.533   5.714
 2825SOL    HW2 9375   5.143   1.563   5.873
 2826SOL     OW 9376   2.462   2.902   0.034
 2826SOL    HW1 9377   2.407   2.925   6.978
 2826SOL    HW2 9378   2.540   2.847   0.006
 2827SOL     OW 9379   6.020   0.930   6.448
 2827SOL    HW1 9380   5.937   0.967   6.407
 2827SOL    HW2 9381   6.093   0.999   6.443
 2828SOL     OW 9382   1.735   3.624   0.673
 2828SOL    HW1 9383   1.777   3.546   0.627
 2828SOL    HW2 9384   1.733   3.703   0.611
 2829SOL     OW 9385   2.953   3.847   2.666
 2829SOL    HW1 9386   2.967   3.917   2.736
 2829SOL    HW2 9387   2.860   3.812   2.672
 2830SOL     OW 9388   3.111   4.723   5.596
 2830SOL    HW1 9389   3.066   4.765   5.675
 2830SOL    HW2 9390   3.131   4.794   5.528
 2831SOL     OW 9391   5.703   1.688   1.220
 2831SOL    HW1 9392   5.730   1.757   1.287
 2831SOL    HW2 9393   5.637   1.626   1.262
 2832SOL     OW 9394   0.584   4.172   1.805
 2832SOL    HW1 9395   0.515   4.133   1.744
 2832SOL    HW2 9396   0.657   4.106   1.819
 2833SOL     OW 9397   2.392   2.228   2.514
 2833SOL    HW1 9398   2.422   2.276   2.431
 2833SOL    HW2 9399   2.469   2.223   2.578
 2834SOL     OW 9400   3.168   5.657   5.392
 2834SOL    HW1 9401   3.096   5.669   5.323
 2834SOL    HW2 9402   3.257   5.666   5.348
 2835SOL     OW 9403   6.890   0.427   0.690
 2835SOL    HW1 9404   6.916   0.513   0.733
 2835SOL    HW2 9405   6.821   0.445   0.620
 2836SOL     OW 9406   3.815   5.531   2.330
 2836SOL    HW1 9407   3.757   5.509   2.251
 2836SOL    HW2 9408   3.859   5.620   2.316
 2837SOL     OW 9409   5.265   4.363   1.713
 2837SOL    HW1 9410   5.170   4.336   1.695
 2837SOL    HW2 9411   5.323   4.281   1.713
 2838SOL     OW 9412   5.556   4.284   6.255
 2838SOL    HW1 9413   5.483   4.352   6.254
 2838SOL    HW2 9414   5.635   4.320   6.305
 2839SOL     OW 9415   5.795   3.098   5.047
 2839SOL    HW1 9416   5.716   3.113   5.106
 2839SOL    HW2 9417   5.870   3.058   5.101
 2840SOL     OW 9418   0.018   6.259   4.056
 2840SOL    HW1 9419   7.013   6.175   4.101
 2840SOL    HW2 9420   0.053   6.237   3.965
 2841SOL     OW 9421   6.440   3.546   2.411
 2841SOL    HW1 9422   6.460   3.556   2.313
 2841SOL    HW2 9423   6.517   3.581   2.465
 2842SOL     OW 9424   1.216   6.916   3.725
 2842SOL    HW1 9425   1.218   6.990   3.657
 2842SOL    HW2 9426   1.153   6.845   3.695
 2843SOL     OW 9427   2.040   2.739   3.895
 2843SOL    HW1 9428   1.957   2.795   3.895
 2843SOL    HW2 9429   2.117   2.794   3.862
 2844SOL     OW 9430   4.772   4.476   0.555
 2844SOL    HW1 9431   4.839   4.408   0.583
 2844SOL    HW2 9432   4.766   4.547   0.626
 2845SOL     OW 9433   3.260   2.141   3.081
 2845SOL    HW1 9434   3.185   2.176   3.025
 2845SOL    HW2 9435   3.331   2.103   3.022
 2846SOL     OW 9436   6.066   0.074   0.414
 2846SOL    HW1 9437   6.027   0.156   0.372
 2846SOL    HW2 9438   6.097   0.012   0.342
 2847SOL     OW 9439   4.609   4.730   1.910
 2847SOL    HW1 9440   4.683   4.667   1.887
 2847SOL    HW2 9441   4.538   4.680   1.960
 2848SOL     OW 9442   0.543   4.289   5.464
 2848SOL    HW1 9443   0.550   4.192   5.439
 2848SOL    HW2 9444   0.595   4.344   5.399
 2849SOL     OW 9445   4.947   6.957   2.144
 2849SOL    HW1 9446   4.954   6.952   2.044
 2849SOL    HW2 9447   4.973   6.869   2.184
 2850SOL     OW 9448   1.824   0.066   2.272
 2850SOL    HW1 9449   1.894   0.005   2.238
 2850SOL    HW2 9450   1.756   0.084   2.200
 2851SOL     OW 9451   3.689   3.484   0.974
 2851SOL    HW1 9452   3.713   3.413   1.040
 2851SOL    HW2 9453   3.685   3.444   0.882
 2852SOL     OW 9454   6.250   4.858   6.949
 2852SOL    HW1 9455   6.173   4.795   6.936
 2852SOL    HW2 9456   6.235   4.940   6.893
 2853SOL     OW 9457   6.896   4.148   6.234
 2853SOL    HW1 9458   6.967   4.126   6.167
 2853SOL    HW2 9459   6.893   4.247   6.248
 2854SOL     OW 9460   4.099   1.419   5.809
 2854SOL    HW1 9461   4.029   1.372   5.755
 2854SOL    HW2 9462   4.061   1.503   5.847
 2855SOL     OW 9463   2.266   1.837   5.620
 2855SOL    HW1 9464   2.276   1.886   5.533
 2855SOL    HW2 9465   2.168   1.825   5.640
 2856SOL     OW 9466   0.972   5.148   4.019
 2856SOL    HW1 9467   0.984   5.232   3.965
 2856SOL    HW2 9468   1.060   5.123   4.061
 2857SOL     OW 9469   0.276   3.698   0.214
 2857SOL    HW1 9470   0.357   3.757   0.216
 2857SOL    HW2 9471   0.292   3.619   0.274
 2858SOL     OW 9472   4.366   5.000   2.599
 2858SOL    HW1 9473   4.334   4.905   2.599
 2858SOL    HW2 9474   4.307   5.054   2.659
 2859SOL     OW 9475   4.923   4.833   0.838
 2859SOL    HW1 9476   4.895   4.793   0.925
 2859SOL    HW2 9477   4.998   4.779   0.799
 2860SOL     OW 9478   0.856   0.335   2.481
 2860SOL    HW1 9479   0.861   0.433   2.503
 2860SOL    HW2 9480   0.795   0.290   2.546
 2861SOL     OW 9481   4.744   5.406   6.214
 2861SOL    HW1 9482   4.784   5.488   6.173
 2861SOL    HW2 9483   4.705   5.349   6.142
 2862SOL     OW 9484   3.836   3.013   0.268
 2862SOL    HW1 9485   3.911   3.077   0.278
 2862SOL    HW2 9486   3.842   2.942   0.338
 2863SOL     OW 9487   5.590   6.814   5.431
 2863SOL    HW1 9488   5.649   6.744   5.470
 2863SOL    HW2 9489   5.494   6.790   5.446
 2864SOL     OW 9490   3.272   4.318   0.104
 2864SOL    HW1 9491   3.347   4.384   0.109
 2864SOL    HW2 9492   3.185   4.367   0.103
 2865SOL     OW 9493   5.777   5.536   4.265
 2865SOL    HW1 9494   5.690   5.526   4.218
 2865SOL    HW2 9495   5.817   5.625   4.244
 2866SOL     OW 9496   4.592   4.601   0.398
 2866SOL    HW1 9497   4.642   4.538   0.457
 2866SOL    HW2 9498   4.495   4.600   0.422
 2867SOL     OW 9499   5.351   6.439   1.790
 2867SOL    HW1 9500   5.341   6.424   1.888
 2867SOL    HW2 9501   5.376   6.353   1.746
 2868SOL     OW 9502   0.966   1.079   5.720
 2868SOL    HW1 9503   1.031   1.004   5.725
 2868SOL    HW2 9504   0.905   1.076   5.799
 2869SOL     OW 9505   6.298   5.128   5.081
 2869SOL    HW1 9506   6.386   5.172   5.100
 2869SOL    HW2 9507   6.235   5.146   5.156
 2870SOL     OW 9508   6.889   2.261   1.536
 2870SOL    HW1 9509   6.972   2.316   1.547
 2870SOL    HW2 9510   6.830   2.272   1.616
 2871SOL     OW 9511   5.630   1.156   1.956
 2871SOL    HW1 9512   5.594   1.227   2.016
 2871SOL    HW2 9513   5.727   1.172   1.938
 2872SOL     OW 9514   2.668   2.264   2.190
 2872SOL    HW1 9515   2.759   2.289   2.157
 2872SOL    HW2 9516   2.615   2.348   2.208
 2873SOL     OW 9517   0.963   6.641   1.554
 2873SOL    HW1 9518   0.979   6.569   1.487
 2873SOL    HW2 9519   0.866   6.645   1.577
 2874SOL     OW 9520   2.695   0.534   2.468
 2874SOL    HW1 9521   2.625   0.549   2.399
 2874SOL    HW2 9522   2.698   0.437   2.493
 2875SOL     OW 9523   2.675   6.842   2.913
 2875SOL    HW1 9524   2.746   6.842   2.842
 2875SOL    HW2 9525   2.705   6.785   2.990
 2876SOL     OW 9526   1.349   6.981   2.352
 2876SOL    HW1 9527   1.268   6.924   2.339
 2876SOL    HW2 9528   1.431   6.925   2.339
 2877SOL     OW 9529   1.348   2.119   6.943
 2877SOL    HW1 9530   1.340   2.192   7.011
 2877SOL    HW2 9531   1.293   2.141   6.863
 2878SOL     OW 9532   4.024   3.475   3.988
 2878SOL    HW1 9533   4.079   3.503   4.067
 2878SOL    HW2 9534   4.030   3.375   3.977
 2879SOL     OW 9535   4.079   3.860   0.169
 2879SOL    HW1 9536   4.134   3.842   0.088
 2879SOL    HW2 9537   4.017   3.784   0.185
 2880SOL     OW 9538   2.046   1.225   4.282
 2880SOL    HW1 9539   1.961   1.278   4.291
 2880SOL    HW2 9540   2.024   1.133   4.251
 2881SOL     OW 9541   4.727   5.965   6.583
 2881SOL    HW1 9542   4.691   6.027   6.513
 2881SOL    HW2 9543   4.669   5.884   6.589
 2882SOL     OW 9544   4.490   6.419   0.629
 2882SOL    HW1 9545   4.445   6.499   0.669
 2882SOL    HW2 9546   4.454   6.402   0.538
 2883SOL     OW 9547   6.115   5.987   4.075
 2883SOL    HW1 9548   6.178   6.064   4.082
 2883SOL    HW2 9549   6.152   5.910   4.128
 2884SOL     OW 9550   6.781   4.930   3.669
 2884SOL    HW1 9551   6.787   4.993   3.746
 2884SOL    HW2 9552   6.721   4.853   3.694
 2885SOL     OW 9553   1.198   2.870   3.095
 2885SOL    HW1 9554   1.120   2.932   3.086
 2885SOL    HW2 9555   1.244   2.887   3.183
 2886SOL     OW 9556   1.810   4.526   5.936
 2886SOL    HW1 9557   1.755   4.581   5.998
 2886SOL    HW2 9558   1.782   4.430   5.943
 2887SOL     OW 9559   0.498   5.505   3.567
 2887SOL    HW1 9560   0.423   5.485   3.504
 2887SOL    HW2 9561   0.531   5.420   3.607
 2888SOL     OW 9562   6.432   6.681   0.127
 2888SOL    HW1 9563   6.501   6.649   0.192
 2888SOL    HW2 9564   6.427   6.781   0.129
 2889SOL     OW 9565   3.405   6.802   2.509
 2889SOL    HW1 9566   3.338   6.862   2.553
 2889SOL    HW2 9567   3.462   6.856   2.447
 2890SOL     OW 9568   1.802   1.105   1.435
 2890SOL    HW1 9569   1.840   1.029   1.487
 2890SOL    HW2 9570   1.876   1.165   1.406
 2891SOL     OW 9571   0.985   2.135   4.636
 2891SOL    HW1 9572   0.957   2.155   4.730
 2891SOL    HW2 9573   0.918   2.075   4.594
 2892SOL     OW 9574   6.564   4.221   2.894
 2892SOL    HW1 9575   6.540   4.306   2.848
 2892SOL    HW2 9576   6.658   4.196   2.873
 2893SOL     OW 9577   6.871   5.209   4.990
 2893SOL    HW1 9578   6.805   5.236   4.920
 2893SOL    HW2 9579   6.884   5.110   4.988
 2894SOL     OW 9580   1.778   5.899   2.546
 2894SOL    HW1 9581   1.733   5.903   2.457
 2894SOL    HW2 9582   1.835   5.980   2.559
 2895SOL     OW 9583   4.155   6.798   6.442
 2895SOL    HW1 9584   4.091   6.727   6.473
 2895SOL    HW2 9585   4.247   6.760   6.437
 2896SOL     OW 9586   5.177   6.077   4.999
 2896SOL    HW1 9587   5.269   6.043   5.018
 2896SOL    HW2 9588   5.113   6.040   5.067
 2897SOL     OW 9589   3.823   4.964   3.250
 2897SOL    HW1 9590   3.809   4.984   3.347
 2897SOL    HW2 9591   3.773   5.031   3.195
 2898SOL     OW 9592   5.492   2.747   2.833
 2898SOL    HW1 9593   5.453   2.784   2.749
 2898SOL    HW2 9594   5.420   2.735   2.901
 2899SOL     OW 9595   0.064   3.584   1.033
 2899SOL    HW1 9596   0.044   3.579   0.935
 2899SOL    HW2 9597   0.068   3.680   1.060
 2900SOL     OW 9598   2.667   2.701   6.142
 2900SOL    HW1 9599   2.579   2.722   6.101
 2900SOL    HW2 9600   2.727   2.781   6.136
 2901SOL     OW 9601   0.855   3.925   3.783
 2901SOL    HW1 9602   0.910   3.854   3.739
 2901SOL    HW2 9603   0.795   3.968   3.715
 2902SOL     OW 9604   6.616   6.150   3.586
 2902SOL    HW1 9605   6.700   6.096   3.578
 2902SOL    HW2 9606   6.612   6.216   3.511
 2903SOL     OW 9607   4.163   5.161   0.257
 2903SOL    HW1 9608   4.197   5.255   0.256
 2903SOL    HW2 9609   4.235   5.098   0.226
 2904SOL     OW 9610   2.268   4.187   5.351
 2904SOL    HW1 9611   2.330   4.192   5.430
 2904SOL    HW2 9612   2.301   4.118   5.287
 2905SOL     OW 9613   0.595   6.045   1.535
 2905SOL    HW1 9614   0.658   6.019   1.462
 2905SOL    HW2 9615   0.510   6.081   1.495
 2906SOL     OW 9616   6.162   6.366   3.628
 2906SOL    HW1 9617   6.077   6.316   3.612
 2906SOL    HW2 9618   6.228   6.305   3.672
 2907SOL     OW 9619   0.490   0.787   3.903
 2907SOL    HW1 9620   0.494   0.876   3.948
 2907SOL    HW2 9621   0.503   0.799   3.804
 2908SOL     OW 9622   3.965   6.332   2.795
 2908SOL    HW1 9623   3.889   6.373   2.845
 2908SOL    HW2 9624   4.003   6.256   2.849
 2909SOL     OW 9625   0.624   6.274   2.392
 2909SOL    HW1 9626   0.613   6.176   2.401
 2909SOL    HW2 9627   0.677   6.294   2.309
 2910SOL     OW 9628   6.643   0.643   4.113
 2910SOL    HW1 9629   6.600   0.682   4.195
 2910SOL    HW2 9630   6.663   0.716   4.048
 2911SOL     OW 9631   6.755   4.091   5.065
 2911SOL    HW1 9632   6.662   4.111   5.096
 2911SOL    HW2 9633   6.807   4.176   5.057
 2912SOL     OW 9634   0.300   0.520   1.405
 2912SOL    HW1 9635   0.250   0.603   1.382
 2912SOL    HW2 9636   0.382   0.514   1.347
 2913SOL     OW 9637   2.644   6.733   1.389
 2913SOL    HW1 9638   2.587   6.716   1.469
 2913SOL    HW2 9639   2.723   6.787   1.415
 2914SOL     OW 9640   4.312   5.602   0.671
 2914SOL    HW1 9641   4.321   5.603   0.571
 2914SOL    HW2 9642   4.349   5.516   0.706
 2915SOL     OW 9643   2.683   0.183   2.247
 2915SOL    HW1 9644   2.767   0.235   2.231
 2915SOL    HW2 9645   2.706   0.087   2.266
 2916SOL     OW 9646   2.230   5.942   1.126
 2916SOL    HW1 9647   2.135   5.942   1.156
 2916SOL    HW2 9648   2.269   5.850   1.136
 2917SOL     OW 9649   2.442   6.213   4.432
 2917SOL    HW1 9650   2.488   6.296   4.465
 2917SOL    HW2 9651   2.347   6.212   4.465
 2918SOL     OW 9652   5.097   3.076   1.736
 2918SOL    HW1 9653   5.069   2.986   1.770
 2918SOL    HW2 9654   5.018   3.121   1.693
 2919SOL     OW 9655   0.900   5.504   4.533
 2919SOL    HW1 9656   0.892   5.407   4.509
 2919SOL    HW2 9657   0.836   5.557   4.478
 2920SOL     OW 9658   1.047   2.574   2.547
 2920SOL    HW1 9659   1.145   2.574   2.526
 2920SOL    HW2 9660   1.032   2.524   2.632
 2921SOL     OW 9661   1.195   0.235   4.293
 2921SOL    HW1 9662   1.109   0.223   4.343
 2921SOL    HW2 9663   1.243   0.148   4.286
 2922SOL     OW 9664   3.846   6.540   3.550
 2922SOL    HW1 9665   3.784   6.480   3.500
 2922SOL    HW2 9666   3.867   6.500   3.639
 2923SOL     OW 9667   6.559   6.062   4.960
 2923SOL    HW1 9668   6.646   6.061   4.912
 2923SOL    HW2 9669   6.552   6.147   5.014
 2924SOL     OW 9670   6.089   2.354   4.985
 2924SOL    HW1 9671   6.176   2.403   4.996
 2924SOL    HW2 9672   6.081   2.321   4.891
 2925SOL     OW 9673   5.063   6.856   6.345
 2925SOL    HW1 9674   5.100   6.798   6.272
 2925SOL    HW2 9675   5.138   6.906   6.389
 2926SOL     OW 9676   6.843   2.516   3.822
 2926SOL    HW1 9677   6.925   2.521   3.765
 2926SOL    HW2 9678   6.775   2.581   3.789
 2927SOL     OW 9679   1.356   2.419   2.029
 2927SOL    HW1 9680   1.340   2.333   1.982
 2927SOL    HW2 9681   1.428   2.407   2.098
 2928SOL     OW 9682   6.695   2.547   6.914
 2928SOL    HW1 9683   6.701   2.646   6.917
 2928SOL    HW2 9684   6.751   2.513   6.838
 2929SOL     OW 9685   2.622   2.364   4.608
 2929SOL    HW1 9686   2.592   2.302   4.535
 2929SOL    HW2 9687   2.544   2.421   4.637
 2930SOL     OW 9688   6.756   4.405   4.934
 2930SOL    HW1 9689   6.735   4.468   5.009
 2930SOL    HW2 9690   6.675   4.350   4.913
 2931SOL     OW 9691   5.078   4.196   5.417
 2931SOL    HW1 9692   5.099   4.200   5.319
 2931SOL    HW2 9693   5.021   4.116   5.436
 2932SOL     OW 9694   6.801   5.553   0.669
 2932SOL    HW1 9695   6.733   5.545   0.742
 2932SOL    HW2 9696   6.800   5.469   0.614
 2933SOL     OW 9697   1.477   0.470   0.782
 2933SOL    HW1 9698   1.465   0.450   0.879
 2933SOL    HW2 9699   1.422   0.550   0.757
 2934SOL     OW 9700   4.264   4.461   0.147
 2934SOL    HW1 9701   4.211   4.409   0.079
 2934SOL    HW2 9702   4.314   4.398   0.205
 2935SOL     OW 9703   6.695   2.167   6.537
 2935SOL    HW1 9704   6.699   2.170   6.437
 2935SOL    HW2 9705   6.784   2.192   6.575
 2936SOL     OW 9706   4.012   6.237   0.751
 2936SOL    HW1 9707   4.109   6.261   0.758
 2936SOL    HW2 9708   3.957   6.308   0.795
 2937SOL     OW 9709   4.628   5.037   2.452
 2937SOL    HW1 9710   4.536   5.047   2.490
 2937SOL    HW2 9711   4.642   5.103   2.379
 2938SOL     OW 9712   6.608   5.737   6.839
 2938SOL    HW1 9713   6.575   5.766   6.749
 2938SOL    HW2 9714   6.654   5.649   6.832
 2939SOL     OW 9715   0.494   5.859   1.741
 2939SOL    HW1 9716   0.491   5.849   1.642
 2939SOL    HW2 9717   0.542   5.943   1.765
 2940SOL     OW 9718   4.445   6.388   3.835
 2940SOL    HW1 9719   4.421   6.483   3.857
 2940SOL    HW2 9720   4.473   6.340   3.918
 2941SOL     OW 9721   1.649   4.005   3.667
 2941SOL    HW1 9722   1.654   3.989   3.765
 2941SOL    HW2 9723   1.730   3.966   3.622
 2942SOL     OW 9724   3.393   1.487   1.439
 2942SOL    HW1 9725   3.329   1.533   1.378
 2942SOL    HW2 9726   3.349   1.472   1.528
 2943SOL     OW 9727   6.164   3.804   3.176
 2943SOL    HW1 9728   6.244   3.862   3.190
 2943SOL    HW2 9729   6.188   3.726   3.117
 2944SOL     OW 9730   1.849   5.711   2.719
 2944SOL    HW1 9731   1.902   5.756   2.791
 2944SOL    HW2 9732   1.817   5.779   2.653
 2945SOL     OW 9733   4.996   4.250   1.711
 2945SOL    HW1 9734   4.952   4.219   1.795
 2945SOL    HW2 9735   4.959   4.199   1.633
 2946SOL     OW 9736   3.516   4.020   5.509
 2946SOL    HW1 9737   3.461   3.956   5.455
 2946SOL    HW2 9738   3.503   3.999   5.606
 2947SOL     OW 9739   6.444   6.657   0.617
 2947SOL    HW1 9740   6.412   6.564   0.598
 2947SOL    HW2 9741   6.423   6.681   0.712
 2948SOL     OW 9742   6.434   3.667   1.780
 2948SOL    HW1 9743   6.452   3.569   1.792
 2948SOL    HW2 9744   6.508   3.708   1.726
 2949SOL     OW 9745   1.503   0.158   0.705
 2949SOL    HW1 9746   1.483   0.255   0.715
 2949SOL    HW2 9747   1.436   0.104   0.756
 2950SOL     OW 9748   5.846   4.714   3.034
 2950SOL    HW1 9749   5.893   4.779   2.974
 2950SOL    HW2 9750   5.794   4.765   3.103
 2951SOL     OW 9751   6.891   0.954   1.878
 2951SOL    HW1 9752   6.988   0.976   1.865
 2951SOL    HW2 9753   6.848   1.026   1.932
 2952SOL     OW 9754   5.953   1.970   3.707
 2952SOL    HW1 9755   5.930   1.932   3.797
 2952SOL    HW2 9756   5.926   2.067   3.704
 2953SOL     OW 9757   1.002   5.200   4.418
 2953SOL    HW1 9758   1.014   5.257   4.336
 2953SOL    HW2 9759   1.091   5.167   4.449
 2954SOL     OW 9760   0.032   4.461   6.475
 2954SOL    HW1 9761   7.002   4.435   6.396
 2954SOL    HW2 9762   0.129   4.446   6.456
 2955SOL     OW 9763   1.895   4.509   6.386
 2955SOL    HW1 9764   1.876   4.416   6.355
 2955SOL    HW2 9765   1.948   4.557   6.316
 2956SOL     OW 9766   5.992   5.001   3.162
 2956SOL    HW1 9767   6.009   4.956   3.074
 2956SOL    HW2 9768   5.952   4.935   3.226
 2957SOL     OW 9769   2.313   5.327   1.056
 2957SOL    HW1 9770   2.275   5.380   1.132
 2957SOL    HW2 9771   2.281   5.232   1.062
 2958SOL     OW 9772   1.827   5.627   2.303
 2958SOL    HW1 9773   1.742   5.678   2.317
 2958SOL    HW2 9774   1.821   5.538   2.349
 2959SOL     OW 9775   0.151   3.676   2.951
 2959SOL    HW1 9776   0.110   3.585   2.960
 2959SOL    HW2 9777   0.147   3.706   2.855
 2960SOL     OW 9778   5.216   0.337   0.460
 2960SOL    HW1 9779   5.191   0.429   0.428
 2960SOL    HW2 9780   5.231   0.278   0.381
 2961SOL     OW 9781   5.483   4.191   1.918
 2961SOL    HW1 9782   5.416   4.146   1.977
 2961SOL    HW2 9783   5.538   4.255   1.972
 2962SOL     OW 9784   6.880   0.433   3.068
 2962SOL    HW1 9785   6.943   0.510   3.069
 2962SOL    HW2 9786   6.786   0.466   3.084
 2963SOL     OW 9787   2.046   0.918   5.110
 2963SOL    HW1 9788   1.949   0.935   5.128
 2963SOL    HW2 9789   2.099   0.940   5.192
 2964SOL     OW 9790   1.848   1.443   0.213
 2964SOL    HW1 9791   1.768   1.455   0.271
 2964SOL    HW2 9792   1.820   1.420   0.120
 2965SOL     OW 9793   0.245   6.804   5.305
 2965SOL    HW1 9794   0.289   6.863   5.237
 2965SOL    HW2 9795   0.255   6.845   5.396
 2966SOL     OW 9796   3.265   6.445   2.572
 2966SOL    HW1 9797   3.213   6.522   2.535
 2966SOL    HW2 9798   3.320   6.476   2.649
 2967SOL     OW 9799   5.580   0.042   5.550
 2967SOL    HW1 9800   5.624   0.028   5.640
 2967SOL    HW2 9801   5.575   6.979   5.503
 2968SOL     OW 9802   2.310   3.221   0.958
 2968SOL    HW1 9803   2.308   3.233   1.057
 2968SOL    HW2 9804   2.316   3.124   0.936
 2969SOL     OW 9805   5.082   3.524   4.433
 2969SOL    HW1 9806   5.116   3.570   4.351
 2969SOL    HW2 9807   5.147   3.453   4.461
 2970SOL     OW 9808   2.258   1.734   4.340
 2970SOL    HW1 9809   2.264   1.641   4.302
 2970SOL    HW2 9810   2.194   1.788   4.286
 2971SOL     OW 9811   5.180   2.836   6.442
 2971SOL    HW1 9812   5.129   2.802   6.363
 2971SOL    HW2 9813   5.233   2.761   6.482
 2972SOL     OW 9814   5.788   5.691   6.755
 2972SOL    HW1 9815   5.840   5.685   6.670
 2972SOL    HW2 9816   5.715   5.759   6.745
 2973SOL     OW 9817   4.602   1.538   2.829
 2973SOL    HW1 9818   4.680   1.484   2.862
 2973SOL    HW2 9819   4.629   1.633   2.818
 2974SOL     OW 9820   5.071   6.292   2.706
 2974SOL    HW1 9821   5.155   6.251   2.671
 2974SOL    HW2 9822   5.023   6.226   2.764
 2975SOL     OW 9823   4.688   4.283   3.309
 2975SOL    HW1 9824   4.750   4.361   3.321
 2975SOL    HW2 9825   4.660   4.248   3.398
 2976SOL     OW 9826   4.118   2.281   1.962
 2976SOL    HW1 9827   4.041   2.342   1.945
 2976SOL    HW2 9828   4.149   2.241   1.875
 2977SOL     OW 9829   1.394   1.067   1.541
 2977SOL    HW1 9830   1.455   1.046   1.618
 2977SOL    HW2 9831   1.368   0.981   1.495
 2978SOL     OW 9832   4.625   5.086   6.218
 2978SOL    HW1 9833   4.630   5.073   6.118
 2978SOL    HW2 9834   4.717   5.080   6.256
 2979SOL     OW 9835   3.372   0.629   4.164
 2979SOL    HW1 9836   3.394   0.536   4.194
 2979SOL    HW2 9837   3.390   0.638   4.066
 2980SOL     OW 9838   3.875   3.357   5.334
 2980SOL    HW1 9839   3.883   3.340   5.236
 2980SOL    HW2 9840   3.792   3.314   5.369
 2981SOL     OW 9841   1.916   1.423   1.630
 2981SOL    HW1 9842   2.000   1.468   1.659
 2981SOL    HW2 9843   1.937   1.354   1.561
 2982SOL     OW 9844   0.979   0.437   1.577
 2982SOL    HW1 9845   0.957   0.518   1.523
 2982SOL    HW2 9846   0.943   0.448   1.670
 2983SOL     OW 9847   6.440   3.411   5.858
 2983SOL    HW1 9848   6.414   3.508   5.857
 2983SOL    HW2 9849   6.428   3.374   5.951
 2984SOL     OW 9850   1.015   4.912   1.209
 2984SOL    HW1 9851   1.084   4.957   1.152
 2984SOL    HW2 9852   0.945   4.870   1.150
 2985SOL     OW 9853   0.285   6.906   5.815
 2985SOL    HW1 9854   0.299   6.897   5.716
 2985SOL    HW2 9855   0.255   6.999   5.836
 2986SOL     OW 9856   3.804   3.341   2.329
 2986SOL    HW1 9857   3.786   3.414   2.262
 2986SOL    HW2 9858   3.767   3.369   2.418
 2987SOL     OW 9859   2.094   0.068   5.059
 2987SOL    HW1 9860   2.158   0.065   4.982
 2987SOL    HW2 9861   2.022   0.000   5.046
 2988SOL     OW 9862   0.182   1.483   6.504
 2988SOL    HW1 9863   0.135   1.536   6.575
 2988SOL    HW2 9864   0.275   1.463   6.534
 2989SOL     OW 9865   4.919   3.852   4.304
 2989SOL    HW1 9866   4.940   3.831   4.399
 2989SOL    HW2 9867   4.918   3.768   4.250
 2990SOL     OW 9868   5.539   1.527   4.239
 2990SOL    HW1 9869   5.508   1.610   4.193
 2990SOL    HW2 9870   5.606   1.551   4.310
 2991SOL     OW 9871   0.216   4.195   1.360
 2991SOL    HW1 9872   0.258   4.226   1.275
 2991SOL    HW2 9873   0.267   4.232   1.438
 2992SOL     OW 9874   0.210   3.312   5.586
 2992SOL    HW1 9875   0.241   3.359   5.668
 2992SOL    HW2 9876   0.284   3.307   5.519
 2993SOL     OW 9877   1.461   4.479   0.414
 2993SOL    HW1 9878   1.424   4.564   0.451
 2993SOL    HW2 9879   1.388   4.429   0.366
 2994SOL     OW 9880   4.273   6.002   6.378
 2994SOL    HW1 9881   4.203   5.938   6.410
 2994SOL    HW2 9882   4.349   5.950   6.339
 2995SOL     OW 9883   5.041   0.797   0.896
 2995SOL    HW1 9884   5.126   0.786   0.947
 2995SOL    HW2 9885   5.007   0.890   0.907
 2996SOL     OW 9886   6.652   0.588   4.475
 2996SOL    HW1 9887   6.605   0.669   4.440
 2996SOL    HW2 9888   6.742   0.581   4.432
 2997SOL     OW 9889   5.441   6.994   3.920
 2997SOL    HW1 9890   5.408   0.039   3.983
 2997SOL    HW2 9891   5.501   6.930   3.969
 2998SOL     OW 9892   2.775   1.391   3.045
 2998SOL    HW1 9893   2.765   1.292   3.036
 2998SOL    HW2 9894   2.764   1.417   3.141
 2999SOL     OW 9895   2.467   4.254   0.675
 2999SOL    HW1 9896   2.555   4.249   0.627
 2999SOL    HW2 9897   2.445   4.349   0.694
 3000SOL     OW 9898   2.927   3.896   5.318
 3000SOL    HW1 9899   3.012   3.948   5.322
 3000SOL    HW2 9900   2.865   3.928   5.390
 3001SOL     OW 9901   5.791   0.372   5.721
 3001SOL    HW1 9902   5.713   0.435   5.714
 3001SOL    HW2 9903   5.765   0.293   5.776
 3002SOL     OW 9904   1.827   2.115   1.719
 3002SOL    HW1 9905   1.771   2.190   1.757
 3002SOL    HW2 9906   1.780   2.076   1.639
 3003SOL     OW 9907   1.703   6.449   0.781
 3003SOL    HW1 9908   1.703   6.528   0.720
 3003SOL    HW2 9909   1.691   6.365   0.727
 3004SOL     OW 9910   2.597   6.173   4.011
 3004SOL    HW1 9911   2.521   6.128   4.059
 3004SOL    HW2 9912   2.668   6.106   3.991
 3005SOL     OW 9913   1.050   2.361   6.237
 3005SOL    HW1 9914   0.994   2.359   6.320
 3005SOL    HW2 9915   1.063   2.456   6.208
 3006SOL     OW 9916   5.102   1.098   5.478
 3006SOL    HW1 9917   5.003   1.085   5.487
 3006SOL    HW2 9918   5.147   1.008   5.476
 3007SOL     OW 9919   5.039   5.640   0.146
 3007SOL    HW1 9920   5.041   5.737   0.167
 3007SOL    HW2 9921   5.044   5.627   0.047
 3008SOL     OW 9922   4.937   3.341   5.955
 3008SOL    HW1 9923   4.844   3.302   5.955
 3008SOL    HW2 9924   4.931   3.441   5.954
 3009SOL     OW 9925   6.833   3.495   2.241
 3009SOL    HW1 9926   6.868   3.498   2.147
 3009SOL    HW2 9927   6.831   3.401   2.273
 3010SOL     OW 9928   3.649   5.698   0.024
 3010SOL    HW1 9929   3.620   5.618   0.076
 3010SOL    HW2 9930   3.716   5.671   6.980
 3011SOL     OW 9931   6.618   6.987   1.130
 3011SOL    HW1 9932   6.613   6.934   1.215
 3011SOL    HW2 9933   6.680   0.040   1.143
 3012SOL     OW 9934   2.322   2.098   5.408
 3012SOL    HW1 9935   2.281   2.182   5.446
 3012SOL    HW2 9936   2.310   2.097   5.309
 3013SOL     OW 9937   1.136   4.370   5.279
 3013SOL    HW1 9938   1.153   4.280   5.238
 3013SOL    HW2 9939   1.218   4.427   5.270
 3014SOL     OW 9940   5.228   6.706   6.181
 3014SOL    HW1 9941   5.285   6.631   6.213
 3014SOL    HW2 9942   5.279   6.762   6.116
 3015SOL     OW 9943   1.028   0.711   6.882
 3015SOL    HW1 9944   1.043   0.625   6.930
 3015SOL    HW2 9945   1.027   0.694   6.784
 3016SOL     OW 9946   1.866   6.160   4.175
 3016SOL    HW1 9947   1.831   6.211   4.096
 3016SOL    HW2 9948   1.859   6.062   4.156
 3017SOL     OW 9949   0.614   5.005   0.863
 3017SOL    HW1 9950   0.686   5.073   0.874
 3017SOL    HW2 9951   0.531   5.050   0.830
 3018SOL     OW 9952   3.387   0.009   0.925
 3018SOL    HW1 9953   3.357   0.095   0.886
 3018SOL    HW2 9954   3.481   0.018   0.958
 3019SOL     OW 9955   2.035   1.245   5.863
 3019SOL    HW1 9956   2.112   1.221   5.805
 3019SOL    HW2 9957   1.976   1.165   5.876
 3020SOL     OW 9958   6.460   4.044   6.790
 3020SOL    HW1 9959   6.542   4.035   6.847
 3020SOL    HW2 9960   6.420   4.135   6.803
 3021SOL     OW 9961   4.556   6.895   4.724
 3021SOL    HW1 9962   4.628   6.834   4.758
 3021SOL    HW2 9963   4.581   6.929   4.633
 3022SOL     OW 9964   3.688   5.739   3.876
 3022SOL    HW1 9965   3.737   5.823   3.898
 3022SOL    HW2 9966   3.736   5.661   3.915
 3023SOL     OW 9967   5.114   5.951   3.604
 3023SOL    HW1 9968   5.117   6.051   3.613
 3023SOL    HW2 9969   5.160   5.909   3.681
 3024SOL     OW 9970   0.488   6.769   6.915
 3024SOL    HW1 9971   0.496   6.810   7.006
 3024SOL    HW2 9972   0.533   6.680   6.914
 3025SOL     OW 9973   3.618   5.017   0.129
 3025SOL    HW1 9974   3.520   4.998   0.121
 3025SOL    HW2 9975   3.636   5.112   0.102
 3026SOL     OW 9976   6.714   1.060   1.649
 3026SOL    HW1 9977   6.728   1.157   1.632
 3026SOL    HW2 9978   6.730   1.040   1.746
 3027SOL     OW 9979   4.762   1.363   0.977
 3027SOL    HW1 9980   4.816   1.367   0.893
 3027SOL    HW2 9981   4.726   1.270   0.988
 3028SOL     OW 9982   2.922   3.368   5.761
 3028SOL    HW1 9983   2.995   3.436   5.759
 3028SOL    HW2 9984   2.944   3.292   5.699
 3029SOL     OW 9985   0.243   2.958   4.553
 3029SOL    HW1 9986   0.154   2.981   4.513
 3029SOL    HW2 9987   0.292   2.895   4.493
 3030SOL     OW 9988   2.560   3.314   0.723
 3030SOL    HW1 9989   2.555   3.268   0.634
 3030SOL    HW2 9990   2.467   3.326   0.760
 3031SOL     OW 9991   1.184   6.444   0.798
 3031SOL    HW1 9992   1.186   6.429   0.896
 3031SOL    HW2 9993   1.267   6.405   0.756
 3032SOL     OW 9994   2.420   0.440   2.605
 3032SOL    HW1 9995   2.504   0.389   2.588
 3032SOL    HW2 9996   2.440   0.521   2.660
 3033SOL     OW 9997   0.173   2.219   4.773
 3033SOL    HW1 9998   0.123   2.302   4.797
 3033SOL    HW2 9999   0.256   2.212   4.828
 3034SOL     OW10000   6.674   4.934   2.912
 3034SOL    HW110001   6.605   4.862   2.909
 3034SOL    HW210002   6.729   4.924   2.994
 3035SOL     OW10003   1.150   2.736   0.203
 3035SOL    HW110004   1.135   2.695   0.292
 3035SOL    HW210005   1.092   2.817   0.193
 3036SOL     OW10006   3.398   2.097   6.228
 3036SOL    HW110007   3.302   2.073   6.242
 3036SOL    HW210008   3.404   2.187   6.186
 3037SOL     OW10009   0.516   6.072   0.132
 3037SOL    HW110010   0.490   5.999   0.069
 3037SOL    HW210011   0.473   6.158   0.103
 3038SOL     OW10012   5.880   4.544   6.731
 3038SOL    HW110013   5.864   4.469   6.795
 3038SOL    HW210014   5.970   4.535   6.690
 3039SOL     OW10015   6.993   3.533   6.523
 3039SOL    HW110016   7.020   3.530   6.427
 3039SOL    HW210017   6.972   3.440   6.555
 3040SOL     OW10018   4.965   4.650   5.887
 3040SOL    HW110019   5.023   4.600   5.823
 3040SOL    HW210020   4.991   4.627   5.981
 3041SOL     OW10021   1.578   4.601   5.790
 3041SOL    HW110022   1.668   4.560   5.775
 3041SOL    HW210023   1.519   4.536   5.839
 3042SOL     OW10024   6.745   5.188   3.154
 3042SOL    HW110025   6.715   5.099   3.188
 3042SOL    HW210026   6.723   5.258   3.221
 3043SOL     OW10027   2.740   5.031   0.645
 3043SOL    HW110028   2.725   4.960   0.714
 3043SOL    HW210029   2.759   5.119   0.691
 3044SOL     OW10030   3.846   3.595   5.013
 3044SOL    HW110031   3.859   3.610   5.111
 3044SOL    HW210032   3.839   3.684   4.967
 3045SOL     OW10033   4.417   1.770   2.015
 3045SOL    HW110034   4.395   1.675   1.992
 3045SOL    HW210035   4.336   1.827   2.000
 3046SOL     OW10036   5.083   6.249   0.769
 3046SOL    HW110037   5.010   6.181   0.757
 3046SOL    HW210038   5.141   6.250   0.687
 3047SOL     OW10039   5.873   1.381   5.059
 3047SOL    HW110040   5.853   1.477   5.040
 3047SOL    HW210041   5.881   1.368   5.158
 3048SOL     OW10042   3.716   4.413   0.826
 3048SOL    HW110043   3.731   4.370   0.737
 3048SOL    HW210044   3.729   4.512   0.818
 3049SOL     OW10045   1.130   1.316   3.095
 3049SOL    HW110046   1.104   1.323   3.191
 3049SOL    HW210047   1.229   1.307   3.088
 3050SOL     OW10048   3.310   2.166   0.958
 3050SOL    HW110049   3.230   2.223   0.977
 3050SOL    HW210050   3.393   2.218   0.978
 3051SOL     OW10051   2.068   5.463   5.372
 3051SOL    HW110052   2.042   5.464   5.276
 3051SOL    HW210053   1.986   5.463   5.429
 3052SOL     OW10054   6.837   6.715   2.241
 3052SOL    HW110055   6.832   6.769   2.324
 3052SOL    HW210056   6.902   6.757   2.177
 3053SOL     OW10057   0.976   4.301   0.198
 3053SOL    HW110058   1.007   4.369   0.265
 3053SOL    HW210059   0.876   4.304   0.192
 3054SOL     OW10060   5.489   0.482   2.324
 3054SOL    HW110061   5.452   0.421   2.394
 3054SOL    HW210062   5.420   0.550   2.299
 3055SOL     OW10063   5.753   6.052   6.572
 3055SOL    HW110064   5.837   6.091   6.534
 3055SOL    HW210065   5.766   6.033   6.669
 3056SOL     OW10066   5.078   1.709   5.351
 3056SOL    HW110067   5.144   1.725   5.424
 3056SOL    HW210068   5.062   1.611   5.341
 3057SOL     OW10069   5.431   3.986   3.477
 3057SOL    HW110070   5.353   3.954   3.531
 3057SOL    HW210071   5.399   4.032   3.395
 3058SOL     OW10072   0.293   4.438   6.887
 3058SOL    HW110073   0.203   4.398   6.904
 3058SOL    HW210074   0.283   4.519   6.828
 3059SOL     OW10075   1.897   2.115   3.849
 3059SOL    HW110076   1.828   2.182   3.822
 3059SOL    HW210077   1.888   2.033   3.793
 3060SOL     OW10078   5.698   5.373   5.023
 3060SOL    HW110079   5.644   5.316   4.961
 3060SOL    HW210080   5.783   5.326   5.046
 3061SOL     OW10081   5.927   5.947   4.795
 3061SOL    HW110082   5.844   5.916   4.749
 3061SOL    HW210083   5.966   6.024   4.745
 3062SOL     OW10084   4.169   4.416   1.232
 3062SOL    HW110085   4.186   4.356   1.310
 3062SOL    HW210086   4.229   4.495   1.236
 3063SOL     OW10087   0.302   4.327   1.838
 3063SOL    HW110088   0.398   4.296   1.841
 3063SOL    HW210089   0.243   4.251   1.865
 3064SOL     OW10090   4.988   2.049   6.472
 3064SOL    HW110091   4.978   1.989   6.551
 3064SOL    HW210092   5.069   2.106   6.483
 3065SOL     OW10093   6.481   1.141   6.625
 3065SOL    HW110094   6.477   1.233   6.664
 3065SOL    HW210095   6.535   1.082   6.684
 3066SOL     OW10096   4.998   6.082   5.851
 3066SOL    HW110097   5.005   6.091   5.951
 3066SOL    HW210098   5.067   6.141   5.808
 3067SOL     OW10099   1.593   2.178   6.120
 3067SOL    HW110100   1.546   2.101   6.076
 3067SOL    HW210101   1.526   2.232   6.171
 3068SOL     OW10102   0.573   1.267   0.397
 3068SOL    HW110103   0.581   1.193   0.464
 3068SOL    HW210104   0.529   1.232   0.314
 3069SOL     OW10105   5.300   6.724   2.884
 3069SOL    HW110106   5.329   6.637   2.846
 3069SOL    HW210107   5.381   6.779   2.908
 3070SOL     OW10108   2.107   1.119   0.723
 3070SOL    HW110109   2.150   1.033   0.694
 3070SOL    HW210110   2.141   1.194   0.667
 3071SOL     OW10111   6.347   4.031   4.107
 3071SOL    HW110112   6.384   4.068   4.193
 3071SOL    HW210113   6.259   3.987   4.125
 3072SOL     OW10114   1.866   0.134   6.795
 3072SOL    HW110115   1.801   0.192   6.746
 3072SOL    HW210116   1.951   0.127   6.743
 3073SOL     OW10117   6.268   5.074   1.267
 3073SOL    HW110118   6.332   5.008   1.305
 3073SOL    HW210119   6.250   5.052   1.171
 3074SOL     OW10120   2.250   3.248   1.740
 3074SOL    HW110121   2.164   3.252   1.791
 3074SOL    HW210122   2.316   3.310   1.781
 3075SOL     OW10123   3.321   5.465   2.216
 3075SOL    HW110124   3.344   5.368   2.200
 3075SOL    HW210125   3.223   5.473   2.234
 3076SOL     OW10126   0.938   0.200   5.084
 3076SOL    HW110127   0.932   0.205   4.984
 3076SOL    HW210128   0.882   0.124   5.117
 3077SOL     OW10129   6.850   3.979   2.696
 3077SOL    HW110130   6.896   3.901   2.738
 3077SOL    HW210131   6.859   4.059   2.754
 3078SOL     OW10132   6.934   3.563   2.015
 3078SOL    HW110133   0.006   3.588   2.019
 3078SOL    HW210134   6.882   3.641   1.980
 3079SOL     OW10135   2.234   3.550   5.192
 3079SOL    HW110136   2.167   3.619   5.222
 3079SOL    HW210137   2.326   3.581   5.215
 3080SOL     OW10138   3.843   4.713   0.552
 3080SOL    HW110139   3.939   4.690   0.568
 3080SOL    HW210140   3.825   4.708   0.454
 3081SOL     OW10141   1.207   3.903   0.268
 3081SOL    HW110142   1.253   3.823   0.306
 3081SOL    HW210143   1.140   3.873   0.201
 3082SOL     OW10144   4.340   5.157   4.251
 3082SOL    HW110145   4.297   5.200   4.330
 3082SOL    HW210146   4.396   5.080   4.281
 3083SOL     OW10147   3.502   6.061   1.927
 3083SOL    HW110148   3.521   6.034   1.832
 3083SOL    HW210149   3.577   6.030   1.985
 3084SOL     OW10150   0.306   3.939   4.244
 3084SOL    HW110151   0.231   3.945   4.309
 3084SOL    HW210152   0.357   3.854   4.259
 3085SOL     OW10153   5.462   4.915   0.369
 3085SOL    HW110154   5.523   4.972   0.314
 3085SOL    HW210155   5.404   4.973   0.426
 3086SOL     OW10156   6.467   6.812   6.171
 3086SOL    HW110157   6.440   6.835   6.265
 3086SOL    HW210158   6.547   6.753   6.172
 3087SOL     OW10159   3.365   6.568   1.694
 3087SOL    HW110160   3.310   6.504   1.749
 3087SOL    HW210161   3.414   6.631   1.755
 3088SOL     OW10162   1.975   2.952   5.967
 3088SOL    HW110163   1.985   2.974   5.870
 3088SOL    HW210164   1.970   3.037   6.020
 3089SOL     OW10165   4.147   6.188   5.077
 3089SOL    HW110166   4.216   6.258   5.096
 3089SOL    HW210167   4.100   6.164   5.162
 3090SOL     OW10168   1.174   2.224   2.389
 3090SOL    HW110169   1.183   2.126   2.374
 3090SOL    HW210170   1.258   2.270   2.357
 3091SOL     OW10171   1.192   2.426   1.052
 3091SOL    HW110172   1.177   2.340   1.004
 3091SOL    HW210173   1.289   2.434   1.076
 3092SOL     OW10174   5.676   1.130   2.489
 3092SOL    HW110175   5.597   1.083   2.528
 3092SOL    HW210176   5.691   1.098   2.396
 3093SOL     OW10177   6.021   5.576   0.195
 3093SOL    HW110178   5.980   5.492   0.160
 3093SOL    HW210179   5.986   5.595   0.287
 3094SOL     OW10180   2.879   1.769   6.621
 3094SOL    HW110181   2.971   1.802   6.641
 3094SOL    HW210182   2.824   1.770   6.705
 3095SOL     OW10183   1.340   3.828   4.731
 3095SOL    HW110184   1.336   3.918   4.686
 3095SOL    HW210185   1.426   3.783   4.707
 3096SOL     OW10186   0.539   3.169   4.160
 3096SOL    HW110187   0.505   3.248   4.109
 3096SOL    HW210188   0.564   3.096   4.095
 3097SOL     OW10189   5.389   2.869   5.456
 3097SOL    HW110190   5.387   2.941   5.524
 3097SOL    HW210191   5.307   2.812   5.466
 3098SOL     OW10192   1.844   3.226   2.221
 3098SOL    HW110193   1.826   3.244   2.124
 3098SOL    HW210194   1.810   3.134   2.243
 3099SOL     OW10195   0.281   6.040   4.260
 3099SOL    HW110196   0.324   6.110   4.202
 3099SOL    HW210197   0.186   6.065   4.277
 3100SOL     OW10198   6.310   4.892   1.950
 3100SOL    HW110199   6.252   4.920   2.026
 3100SOL    HW210200   6.272   4.810   1.907
 3101SOL     OW10201   3.262   6.594   5.333
 3101SOL    HW110202   3.308   6.506   5.317
 3101SOL    HW210203   3.212   6.590   5.419
 3102SOL     OW10204   6.893   4.892   0.907
 3102SOL    HW110205   6.928   4.844   0.987
 3102SOL    HW210206   6.817   4.840   0.868
 3103SOL     OW10207   3.215   1.337   1.137
 3103SOL    HW110208   3.141   1.271   1.144
 3103SOL    HW210209   3.299   1.299   1.176
 3104SOL     OW10210   4.667   0.958   5.637
 3104SOL    HW110211   4.574   0.932   5.661
 3104SOL    HW210212   4.727   0.947   5.716
 3105SOL     OW10213   6.044   3.747   0.747
 3105SOL    HW110214   6.137   3.768   0.780
 3105SOL    HW210215   6.019   3.813   0.676
 3106SOL     OW10216   6.121   0.461   6.505
 3106SOL    HW110217   6.023   0.450   6.517
 3106SOL    HW210218   6.139   0.537   6.442
 3107SOL     OW10219   3.870   1.248   5.677
 3107SOL    HW110220   3.829   1.184   5.742
 3107SOL    HW210221   3.853   1.342   5.707
 3108SOL     OW10222   2.371   4.325   3.888
 3108SOL    HW110223   2.437   4.355   3.819
 3108SOL    HW210224   2.361   4.226   3.885
 3109SOL     OW10225   6.466   5.968   4.309
 3109SOL    HW110226   6.525   5.898   4.350
 3109SOL    HW210227   6.399   5.923   4.249
 3110SOL     OW10228   0.668   4.258   3.004
 3110SOL    HW110229   0.595   4.294   3.061
 3110SOL    HW210230   0.747   4.319   3.008
 3111SOL     OW10231   6.048   4.532   4.223
 3111SOL    HW110232   6.085   4.478   4.300
 3111SOL    HW210233   5.962   4.491   4.192
 3112SOL     OW10234   4.208   1.946   6.198
 3112SOL    HW110235   4.273   1.876   6.167
 3112SOL    HW210236   4.257   2.032   6.214
 3113SOL     OW10237   2.791   5.927   3.122
 3113SOL    HW110238   2.703   5.924   3.168
 3113SOL    HW210239   2.833   5.836   3.125
 3114SOL     OW10240   4.621   1.094   5.982
 3114SOL    HW110241   4.630   1.192   5.966
 3114SOL    HW210242   4.692   1.045   5.930
 3115SOL     OW10243   4.836   5.315   5.064
 3115SOL    HW110244   4.769   5.253   5.105
 3115SOL    HW210245   4.791   5.400   5.037
 3116SOL     OW10246   0.769   1.252   1.027
 3116SOL    HW110247   0.708   1.299   0.964
 3116SOL    HW210248   0.726   1.167   1.058
 3117SOL     OW10249   5.177   1.237   5.705
 3117SOL    HW110250   5.149   1.201   5.616
 3117SOL    HW210251   5.273   1.263   5.703
 3118SOL     OW10252   1.176   0.963   3.127
 3118SOL    HW110253   1.123   0.969   3.043
 3118SOL    HW210254   1.124   0.913   3.196
 3119SOL     OW10255   4.411   5.076   5.063
 3119SOL    HW110256   4.349   5.152   5.043
 3119SOL    HW210257   4.358   4.993   5.082
 3120SOL     OW10258   1.420   6.014   5.380
 3120SOL    HW110259   1.368   6.029   5.295
 3120SOL    HW210260   1.517   6.001   5.358
 3121SOL     OW10261   4.478   1.369   4.303
 3121SOL    HW110262   4.534   1.415   4.372
 3121SOL    HW210263   4.535   1.304   4.252
 3122SOL     OW10264   4.922   5.446   4.495
 3122SOL    HW110265   4.922   5.545   4.508
 3122SOL    HW210266   4.974   5.403   4.569
 3123SOL     OW10267   2.457   1.401   3.568
 3123SOL    HW110268   2.512   1.323   3.538
 3123SOL    HW210269   2.438   1.393   3.666
 3124SOL     OW10270   4.791   6.975   3.881
 3124SOL    HW110271   4.731   6.945   3.807
 3124SOL    HW210272   4.806   6.900   3.945
 3125SOL     OW10273   1.024   1.169   5.245
 3125SOL    HW110274   1.015   1.195   5.341
 3125SOL    HW210275   1.034   1.251   5.188
 3126SOL     OW10276   5.581   5.613   5.466
 3126SOL    HW110277   5.547   5.527   5.503
 3126SOL    HW210278   5.556   5.620   5.369
 3127SOL     OW10279   0.435   0.966   5.155
 3127SOL    HW110280   0.437   0.988   5.253
 3127SOL    HW210281   0.410   0.870   5.143
 3128SOL     OW10282   4.545   0.591   0.281
 3128SOL    HW110283   4.457   0.581   0.235
 3128SOL    HW210284   4.536   0.562   0.376
 3129SOL     OW10285   4.642   3.873   0.143
 3129SOL    HW110286   4.741   3.864   0.157
 3129SOL    HW210287   4.610   3.799   0.083
 3130SOL     OW10288   0.657   4.219   2.277
 3130SOL    HW110289   0.603   4.274   2.214
 3130SOL    HW210290   0.725   4.166   2.226
 3131SOL     OW10291   6.421   4.013   3.254
 3131SOL    HW110292   6.423   4.066   3.339
 3131SOL    HW210293   6.483   3.935   3.262
 3132SOL     OW10294   4.237   5.123   6.885
 3132SOL    HW110295   4.288   5.041   6.908
 3132SOL    HW210296   4.192   5.111   6.796
 3133SOL     OW10297   4.053   0.089   4.270
 3133SOL    HW110298   4.118   0.143   4.323
 3133SOL    HW210299   4.080   7.017   4.274
 3134SOL     OW10300   4.554   5.132   2.915
 3134SOL    HW110301   4.458   5.122   2.940
 3134SOL    HW210302   4.596   5.041   2.905
 3135SOL     OW10303   4.746   6.240   6.706
 3135SOL    HW110304   4.785   6.159   6.662
 3135SOL    HW210305   4.650   6.222   6.729
 3136SOL     OW10306   6.406   1.729   2.534
 3136SOL    HW110307   6.400   1.819   2.576
 3136SOL    HW210308   6.489   1.724   2.477
 3137SOL     OW10309   5.767   6.751   6.764
 3137SOL    HW110310   5.818   6.762   6.849
 3137SOL    HW210311   5.820   6.695   6.699
 3138SOL     OW10312   5.577   5.774   3.464
 3138SOL    HW110313   5.516   5.745   3.537
 3138SOL    HW210314   5.669   5.788   3.501
 3139SOL     OW10315   2.853   5.094   1.777
 3139SOL    HW110316   2.799   5.144   1.844
 3139SOL    HW210317   2.833   4.996   1.784
 3140SOL     OW10318   6.810   0.182   6.375
 3140SOL    HW110319   6.804   0.272   6.332
 3140SOL    HW210320   6.775   0.112   6.313
 3141SOL     OW10321   6.511   2.298   6.038
 3141SOL    HW110322   6.506   2.341   6.129
 3141SOL    HW210323   6.577   2.348   5.982
 3142SOL     OW10324   4.557   1.449   3.112
 3142SOL    HW110325   4.538   1.351   3.107
 3142SOL    HW210326   4.540   1.492   3.023
 3143SOL     OW10327   6.190   1.185   0.542
 3143SOL    HW110328   6.162   1.277   0.514
 3143SOL    HW210329   6.287   1.172   0.523
 3144SOL     OW10330   3.861   3.703   6.254
 3144SOL    HW110331   3.765   3.711   6.277
 3144SOL    HW210332   3.908   3.789   6.275
 3145SOL     OW10333   0.532   6.359   0.950
 3145SOL    HW110334   0.571   6.342   1.041
 3145SOL    HW210335   0.505   6.273   0.909
 3146SOL     OW10336   0.300   6.922   5.542
 3146SOL    HW110337   0.390   6.965   5.531
 3146SOL    HW210338   0.229   6.992   5.531
 3147SOL     OW10339   3.959   5.122   7.004
 3147SOL    HW110340   4.005   5.192   6.950
 3147SOL    HW210341   3.913   5.165   0.058
 3148SOL     OW10342   6.919   5.072   2.358
 3148SOL    HW110343   6.855   5.108   2.427
 3148SOL    HW210344   7.005   5.123   2.363
 3149SOL     OW10345   3.356   1.625   0.456
 3149SOL    HW110346   3.296   1.684   0.509
 3149SOL    HW210347   3.336   1.529   0.478
 3150SOL     OW10348   6.808   6.093   4.845
 3150SOL    HW110349   6.895   6.077   4.892
 3150SOL    HW210350   6.803   6.034   4.764
 3151SOL     OW10351   6.879   1.531   5.629
 3151SOL    HW110352   6.918   1.607   5.578
 3151SOL    HW210353   6.870   1.451   5.569
 3152SOL     OW10354   1.110   3.382   6.253
 3152SOL    HW110355   1.184   3.357   6.316
 3152SOL    HW210356   1.149   3.410   6.165
 3153SOL     OW10357   6.252   5.359   1.022
 3153SOL    HW110358   6.253   5.259   1.011
 3153SOL    HW210359   6.292   5.382   1.110
 3154SOL     OW10360   4.723   1.395   0.130
 3154SOL    HW110361   4.665   1.474   0.114
 3154SOL    HW210362   4.730   1.378   0.229
 3155SOL     OW10363   0.972   5.037   0.932
 3155SOL    HW110364   0.934   4.954   0.891
 3155SOL    HW210365   0.905   5.111   0.925
 3156SOL     OW10366   3.699   4.230   1.882
 3156SOL    HW110367   3.622   4.263   1.937
 3156SOL    HW210368   3.769   4.190   1.942
 3157SOL     OW10369   0.785   1.476   5.497
 3157SOL    HW110370   0.722   1.458   5.422
 3157SOL    HW210371   0.826   1.566   5.485
 3158SOL     OW10372   1.751   1.202   6.023
 3158SOL    HW110373   1.779   1.112   6.056
 3158SOL    HW210374   1.658   1.197   5.988
 3159SOL     OW10375   6.313   6.818   0.437
 3159SOL    HW110376   6.277   6.899   0.483
 3159SOL    HW210377   6.377   6.771   0.498
 3160SOL     OW10378   1.805   0.906   6.523
 3160SOL    HW110379   1.873   0.883   6.453
 3160SOL    HW210380   1.840   0.880   6.613
 3161SOL     OW10381   1.910   2.370   2.846
 3161SOL    HW110382   1.924   2.335   2.754
 3161SOL    HW210383   1.980   2.439   2.867
 3162SOL     OW10384   1.847   5.355   0.951
 3162SOL    HW110385   1.752   5.325   0.943
 3162SOL    HW210386   1.870   5.368   1.047
 3163SOL     OW10387   4.077   4.108   0.071
 3163SOL    HW110388   4.076   4.016   0.109
 3163SOL    HW210389   4.169   4.130   0.039
 3164SOL     OW10390   2.978   6.410   2.806
 3164SOL    HW110391   2.985   6.506   2.778
 3164SOL    HW210392   2.886   6.392   2.840
 3165SOL     OW10393   1.186   6.488   6.756
 3165SOL    HW110394   1.126   6.410   6.774
 3165SOL    HW210395   1.159   6.531   6.670
 3166SOL     OW10396   4.442   0.781   5.116
 3166SOL    HW110397   4.452   0.743   5.208
 3166SOL    HW210398   4.358   0.745   5.075
 3167SOL     OW10399   5.556   3.284   0.619
 3167SOL    HW110400   5.597   3.361   0.570
 3167SOL    HW210401   5.606   3.200   0.597
 3168SOL     OW10402   5.055   1.937   0.611
 3168SOL    HW110403   4.964   1.972   0.634
 3168SOL    HW210404   5.062   1.924   0.512
 3169SOL     OW10405   1.908   4.429   1.828
 3169SOL    HW110406   1.873   4.495   1.895
 3169SOL    HW210407   1.876   4.337   1.852
 3170SOL     OW10408   2.436   4.999   3.119
 3170SOL    HW110409   2.458   5.045   3.033
 3170SOL    HW210410   2.488   4.913   3.125
 3171SOL     OW10411   5.052   2.668   3.382
 3171SOL    HW110412   4.969   2.611   3.385
 3171SOL    HW210413   5.040   2.741   3.315
 3172SOL     OW10414   0.146   4.566   1.330
 3172SOL    HW110415   0.089   4.648   1.330
 3172SOL    HW210416   0.216   4.574   1.401
 3173SOL     OW10417   3.910   2.633   0.655
 3173SOL    HW110418   3.924   2.539   0.688
 3173SOL    HW210419   3.819   2.664   0.680
 3174SOL     OW10420   2.901   3.782   5.699
 3174SOL    HW110421   2.827   3.743   5.754
 3174SOL    HW210422   2.866   3.859   5.646
 3175SOL     OW10423   6.376   0.481   4.200
 3175SOL    HW110424   6.348   0.426   4.122
 3175SOL    HW210425   6.468   0.453   4.229
 3176SOL     OW10426   1.243   4.743   5.042
 3176SOL    HW110427   1.273   4.676   4.974
 3176SOL    HW210428   1.259   4.835   5.007
 3177SOL     OW10429   5.627   3.156   3.694
 3177SOL    HW110430   5.652   3.112   3.780
 3177SOL    HW210431   5.642   3.255   3.701
 3178SOL     OW10432   6.795   0.149   1.209
 3178SOL    HW110433   6.817   0.136   1.306
 3178SOL    HW210434   6.876   0.182   1.160
 3179SOL     OW10435   1.242   1.831   2.104
 3179SOL    HW110436   1.207   1.832   2.197
 3179SOL    HW210437   1.189   1.767   2.048
 3180SOL     OW10438   6.761   5.816   0.032
 3180SOL    HW110439   6.680   5.822   0.091
 3180SOL    HW210440   6.732   5.803   6.962
 3181SOL     OW10441   0.818   0.215   4.784
 3181SOL    HW110442   0.806   0.313   4.800
 3181SOL    HW210443   0.897   0.201   4.724
 3182SOL     OW10444   3.093   1.085   0.802
 3182SOL    HW110445   3.124   0.994   0.830
 3182SOL    HW210446   3.048   1.079   0.713
 3183SOL     OW10447   4.265   4.443   1.691
 3183SOL    HW110448   4.338   4.505   1.664
 3183SOL    HW210449   4.305   4.364   1.738
 3184SOL     OW10450   0.189   2.025   5.591
 3184SOL    HW110451   0.152   2.115   5.568
 3184SOL    HW210452   0.221   1.979   5.508
 3185SOL     OW10453   0.622   5.330   6.166
 3185SOL    HW110454   0.707   5.315   6.116
 3185SOL    HW210455   0.569   5.245   6.169
 3186SOL     OW10456   6.871   1.603   6.470
 3186SOL    HW110457   6.958   1.639   6.437
 3186SOL    HW210458   6.868   1.609   6.570
 3187SOL     OW10459   4.031   5.918   2.554
 3187SOL    HW110460   4.058   5.893   2.647
 3187SOL    HW210461   3.970   5.997   2.558
 3188SOL     OW10462   2.214   4.545   5.883
 3188SOL    HW110463   2.292   4.593   5.924
 3188SOL    HW210464   2.245   4.491   5.805
 3189SOL     OW10465   3.300   1.742   6.569
 3189SOL    HW110466   3.284   1.833   6.531
 3189SOL    HW210467   3.389   1.740   6.615
 3190SOL     OW10468   6.438   5.356   4.845
 3190SOL    HW110469   6.473   5.417   4.917
 3190SOL    HW210470   6.340   5.343   4.858
 3191SOL     OW10471   4.557   5.733   2.172
 3191SOL    HW110472   4.525   5.773   2.086
 3191SOL    HW210473   4.512   5.779   2.249
 3192SOL     OW10474   6.294   2.411   2.391
 3192SOL    HW110475   6.199   2.441   2.387
 3192SOL    HW210476   6.307   2.334   2.328
 3193SOL     OW10477   4.027   0.272   5.345
 3193SOL    HW110478   3.972   0.194   5.375
 3193SOL    HW210479   4.053   0.327   5.424
 3194SOL     OW10480   1.176   1.167   6.351
 3194SOL    HW110481   1.220   1.216   6.275
 3194SOL    HW210482   1.246   1.141   6.418
 3195SOL     OW10483   0.525   2.147   1.652
 3195SOL    HW110484   0.589   2.164   1.577
 3195SOL    HW210485   0.575   2.114   1.732
 3196SOL     OW10486   6.404   0.227   4.565
 3196SOL    HW110487   6.474   0.199   4.499
 3196SOL    HW210488   6.318   0.182   4.542
 3197SOL     OW10489   1.657   1.042   6.280
 3197SOL    HW110490   1.718   1.075   6.352
 3197SOL    HW210491   1.566   1.081   6.292
 3198SOL     OW10492   6.110   2.918   3.357
 3198SOL    HW110493   6.173   2.992   3.335
 3198SOL    HW210494   6.086   2.868   3.273
 3199SOL     OW10495   5.789   4.350   3.321
 3199SOL    HW110496   5.705   4.403   3.328
 3199SOL    HW210497   5.770   4.254   3.345
 3200SOL     OW10498   5.549   3.327   4.000
 3200SOL    HW110499   5.590   3.236   4.006
 3200SOL    HW210500   5.584   3.374   3.919
 3201SOL     OW10501   5.861   4.244   2.993
 3201SOL    HW110502   5.899   4.240   2.901
 3201SOL    HW210503   5.885   4.331   3.035
 3202SOL     OW10504   1.329   4.692   7.010
 3202SOL    HW110505   1.250   4.719   6.954
 3202SOL    HW210506   1.299   4.673   0.079
 3203SOL     OW10507   3.913   0.058   0.904
 3203SOL    HW110508   3.867   0.145   0.919
 3203SOL    HW210509   3.995   0.053   0.961
 3204SOL     OW10510   2.672   1.245   3.747
 3204SOL    HW110511   2.691   1.148   3.731
 3204SOL    HW210512   2.641   1.258   3.841
 3205SOL     OW10513   5.700   3.426   5.490
 3205SOL    HW110514   5.720   3.441   5.587
 3205SOL    HW210515   5.662   3.333   5.479
 3206SOL     OW10516   2.729   3.250   1.357
 3206SOL    HW110517   2.687   3.308   1.288
 3206SOL    HW210518   2.809   3.295   1.396
 3207SOL     OW10519   0.964   6.003   5.417
 3207SOL    HW110520   0.878   6.018   5.369
 3207SOL    HW210521   0.950   5.937   5.491
 3208SOL     OW10522   6.215   5.420   6.010
 3208SOL    HW110523   6.163   5.412   6.096
 3208SOL    HW210524   6.251   5.330   5.986
 3209SOL     OW10525   4.868   5.845   6.345
 3209SOL    HW110526   4.796   5.841   6.275
 3209SOL    HW210527   4.836   5.901   6.421
 3210SOL     OW10528   6.602   5.247   1.515
 3210SOL    HW110529   6.603   5.155   1.554
 3210SOL    HW210530   6.539   5.305   1.567
 3211SOL     OW10531   0.748   5.358   6.419
 3211SOL    HW110532   0.844   5.379   6.398
 3211SOL    HW210533   0.696   5.355   6.334
 3212SOL     OW10534   2.206   0.012   3.054
 3212SOL    HW110535   2.137   0.080   3.029
 3212SOL    HW210536   2.282   0.058   3.101
 3213SOL     OW10537   1.496   0.403   5.967
 3213SOL    HW110538   1.465   0.424   6.059
 3213SOL    HW210539   1.554   0.322   5.969
 3214SOL     OW10540   3.609   0.846   2.434
 3214SOL    HW110541   3.643   0.939   2.419
 3214SOL    HW210542   3.542   0.847   2.508
 3215SOL     OW10543   1.536   3.125   1.079
 3215SOL    HW110544   1.600   3.162   1.147
 3215SOL    HW210545   1.585   3.111   0.993
 3216SOL     OW10546   5.623   4.451   0.581
 3216SOL    HW110547   5.589   4.433   0.673
 3216SOL    HW210548   5.550   4.433   0.515
 3217SOL     OW10549   0.834   5.354   3.201
 3217SOL    HW110550   0.831   5.255   3.218
 3217SOL    HW210551   0.920   5.377   3.156
 3218SOL     OW10552   6.167   1.042   3.051
 3218SOL    HW110553   6.112   1.027   3.134
 3218SOL    HW210554   6.263   1.055   3.076
 3219SOL     OW10555   6.032   0.682   5.470
 3219SOL    HW110556   5.933   0.667   5.465
 3219SOL    HW210557   6.058   0.706   5.563
 3220SOL     OW10558   6.937   4.891   6.750
 3220SOL    HW110559   6.983   4.815   6.703
 3220SOL    HW210560   6.885   4.856   6.827
 3221SOL     OW10561   3.569   0.241   1.711
 3221SOL    HW110562   3.532   0.261   1.802
 3221SOL    HW210563   3.518   0.164   1.671
 3222SOL     OW10564   3.400   1.324   3.107
 3222SOL    HW110565   3.344   1.331   3.189
 3222SOL    HW210566   3.371   1.245   3.053
 3223SOL     OW10567   1.523   0.080   1.009
 3223SOL    HW110568   1.508   7.006   1.001
 3223SOL    HW210569   1.612   0.103   0.971
 3224SOL     OW10570   4.177   2.019   4.174
 3224SOL    HW110571   4.110   1.946   4.190
 3224SOL    HW210572   4.231   1.998   4.093
 3225SOL     OW10573   4.142   0.467   4.320
 3225SOL    HW110574   4.119   0.452   4.417
 3225SOL    HW210575   4.227   0.418   4.298
 3226SOL     OW10576   0.407   0.205   1.181
 3226SOL    HW110577   0.417   0.264   1.261
 3226SOL    HW210578   0.485   0.219   1.120
 3227SOL     OW10579   4.839   3.700   5.381
 3227SOL    HW110580   4.878   3.612   5.406
 3227SOL    HW210581   4.742   3.689   5.360
 3228SOL     OW10582   1.976   4.309   0.448
 3228SOL    HW110583   1.907   4.367   0.492
 3228SOL    HW210584   2.002   4.348   0.360
 3229SOL     OW10585   2.203   1.365   0.634
 3229SOL    HW110586   2.154   1.398   0.554
 3229SOL    HW210587   2.162   1.403   0.717
 3230SOL     OW10588   2.107   5.602   5.758
 3230SOL    HW110589   2.174   5.655   5.811
 3230SOL    HW210590   2.026   5.658   5.743
 3231SOL     OW10591   2.484   0.833   1.561
 3231SOL    HW110592   2.468   0.786   1.473
 3231SOL    HW210593   2.519   0.924   1.544
 3232SOL     OW10594   4.103   5.694   4.127
 3232SOL    HW110595   4.202   5.691   4.114
 3232SOL    HW210596   4.061   5.752   4.057
 3233SOL     OW10597   0.458   2.593   0.464
 3233SOL    HW110598   0.410   2.507   0.447
 3233SOL    HW210599   0.403   2.669   0.429
 3234SOL     OW10600   2.866   2.943   0.786
 3234SOL    HW110601   2.790   3.000   0.755
 3234SOL    HW210602   2.879   2.955   0.884
 3235SOL     OW10603   0.339   6.940   2.183
 3235SOL    HW110604   0.353   6.965   2.087
 3235SOL    HW210605   0.426   6.916   2.225
 3236SOL     OW10606   3.204   3.883   0.406
 3236SOL    HW110607   3.192   3.981   0.397
 3236SOL    HW210608   3.258   3.848   0.329
 3237SOL     OW10609   5.729   1.076   5.218
 3237SOL    HW110610   5.687   1.039   5.135
 3237SOL    HW210611   5.695   1.169   5.233
 3238SOL     OW10612   6.982   5.432   1.658
 3238SOL    HW110613   6.970   5.355   1.721
 3238SOL    HW210614   0.004   5.506   1.705
 3239SOL     OW10615   6.660   0.095   4.012
 3239SOL    HW110616   6.590   0.054   4.071
 3239SOL    HW210617   6.737   0.127   4.069
 3240SOL     OW10618   0.198   1.073   6.756
 3240SOL    HW110619   0.297   1.070   6.756
 3240SOL    HW210620   0.167   1.164   6.730
 3241SOL     OW10621   5.896   1.702   6.116
 3241SOL    HW110622   5.967   1.663   6.058
 3241SOL    HW210623   5.833   1.756   6.060
 3242SOL     OW10624   5.288   4.848   5.023
 3242SOL    HW110625   5.281   4.771   5.087
 3242SOL    HW210626   5.315   4.930   5.072
 3243SOL     OW10627   5.662   5.244   5.387
 3243SOL    HW110628   5.589   5.307   5.414
 3243SOL    HW210629   5.716   5.285   5.314
 3244SOL     OW10630   5.521   6.057   0.297
 3244SOL    HW110631   5.617   6.048   0.269
 3244SOL    HW210632   5.461   6.025   0.224
 3245SOL     OW10633   4.211   1.432   4.315
 3245SOL    HW110634   4.191   1.520   4.273
 3245SOL    HW210635   4.310   1.420   4.323
 3246SOL     OW10636   0.202   0.627   2.872
 3246SOL    HW110637   0.104   0.618   2.888
 3246SOL    HW210638   0.220   0.710   2.820
 3247SOL     OW10639   0.510   4.266   3.290
 3247SOL    HW110640   0.468   4.318   3.215
 3247SOL    HW210641   0.460   4.180   3.302
 3248SOL     OW10642   5.562   2.078   3.161
 3248SOL    HW110643   5.575   2.177   3.154
 3248SOL    HW210644   5.467   2.058   3.184
 3249SOL     OW10645   3.185   3.519   3.580
 3249SOL    HW110646   3.211   3.582   3.653
 3249SOL    HW210647   3.264   3.465   3.552
 3250SOL     OW10648   5.175   5.278   2.331
 3250SOL    HW110649   5.089   5.244   2.368
 3250SOL    HW210650   5.248   5.263   2.397
 3251SOL     OW10651   2.803   1.158   3.405
 3251SOL    HW110652   2.789   1.091   3.332
 3251SOL    HW210653   2.714   1.191   3.438
 3252SOL     OW10654   2.127   1.370   4.014
 3252SOL    HW110655   2.049   1.432   4.014
 3252SOL    HW210656   2.116   1.304   4.089
 3253SOL     OW10657   6.295   3.793   0.834
 3253SOL    HW110658   6.329   3.852   0.907
 3253SOL    HW210659   6.366   3.783   0.764
 3254SOL     OW10660   5.886   0.671   0.806
 3254SOL    HW110661   5.965   0.628   0.763
 3254SOL    HW210662   5.820   0.601   0.833
 3255SOL     OW10663   5.083   5.164   1.239
 3255SOL    HW110664   5.125   5.090   1.185
 3255SOL    HW210665   5.035   5.227   1.177
 3256SOL     OW10666   5.142   2.107   0.873
 3256SOL    HW110667   5.232   2.070   0.894
 3256SOL    HW210668   5.071   2.042   0.902
 3257SOL     OW10669   2.640   1.838   3.041
 3257SOL    HW110670   2.738   1.843   3.062
 3257SOL    HW210671   2.613   1.919   2.989
 3258SOL     OW10672   2.148   6.136   3.304
 3258SOL    HW110673   2.170   6.190   3.223
 3258SOL    HW210674   2.188   6.045   3.295
 3259SOL     OW10675   4.622   4.343   3.789
 3259SOL    HW110676   4.653   4.250   3.807
 3259SOL    HW210677   4.649   4.402   3.864
 3260SOL     OW10678   1.331   4.517   1.812
 3260SOL    HW110679   1.264   4.584   1.843
 3260SOL    HW210680   1.285   4.435   1.780
 3261SOL     OW10681   4.730   6.989   3.080
 3261SOL    HW110682   4.708   6.916   3.144
 3261SOL    HW210683   4.824   7.020   3.096
 3262SOL     OW10684   3.208   2.150   2.475
 3262SOL    HW110685   3.248   2.083   2.412
 3262SOL    HW210686   3.180   2.231   2.424
 3263SOL     OW10687   1.333   1.425   2.756
 3263SOL    HW110688   1.367   1.338   2.720
 3263SOL    HW210689   1.321   1.417   2.855
 3264SOL     OW10690   2.148   5.783   0.653
 3264SOL    HW110691   2.140   5.686   0.631
 3264SOL    HW210692   2.066   5.813   0.702
 3265SOL     OW10693   5.395   4.915   5.563
 3265SOL    HW110694   5.491   4.942   5.573
 3265SOL    HW210695   5.386   4.816   5.569
 3266SOL     OW10696   3.152   5.126   6.484
 3266SOL    HW110697   3.117   5.042   6.442
 3266SOL    HW210698   3.245   5.110   6.517
 3267SOL     OW10699   4.151   0.130   0.314
 3267SOL    HW110700   4.220   0.066   0.281
 3267SOL    HW210701   4.181   0.171   0.400
 3268SOL     OW10702   6.769   5.319   1.978
 3268SOL    HW110703   6.734   5.408   1.949
 3268SOL    HW210704   6.716   5.286   2.056
 3269SOL     OW10705   1.951   5.056   2.491
 3269SOL    HW110706   1.862   5.032   2.453
 3269SOL    HW210707   2.023   5.025   2.429
 3270SOL     OW10708   0.667   2.418   5.501
 3270SOL    HW110709   0.613   2.443   5.421
 3270SOL    HW210710   0.697   2.501   5.548
 3271SOL     OW10711   0.945   3.742   2.699
 3271SOL    HW110712   0.901   3.745   2.789
 3271SOL    HW210713   1.039   3.709   2.709
 3272SOL     OW10714   4.555   6.579   0.381
 3272SOL    HW110715   4.647   6.540   0.387
 3272SOL    HW210716   4.487   6.507   0.397
 3273SOL     OW10717   4.673   2.530   6.872
 3273SOL    HW110718   4.655   2.566   6.964
 3273SOL    HW210719   4.587   2.503   6.829
 3274SOL     OW10720   5.478   0.555   6.918
 3274SOL    HW110721   5.522   0.497   6.986
 3274SOL    HW210722   5.394   0.593   6.957
 3275SOL     OW10723   4.769   0.014   1.241
 3275SOL    HW110724   4.726   0.102   1.222
 3275SOL    HW210725   4.726   6.997   1.322
 3276SOL     OW10726   4.930   6.686   0.041
 3276SOL    HW110727   4.840   6.703   0.000
 3276SOL    HW210728   5.000   6.737   7.015
 3277SOL     OW10729   3.306   1.958   2.320
 3277SOL    HW110730   3.246   1.907   2.259
 3277SOL    HW210731   3.399   1.959   2.282
 3278SOL     OW10732   6.720   6.992   0.025
 3278SOL    HW110733   6.774   6.922   0.072
 3278SOL    HW210734   6.779   0.045   0.002
 3279SOL     OW10735   3.745   6.878   0.984
 3279SOL    HW110736   3.688   6.948   1.028
 3279SOL    HW210737   3.821   6.922   0.937
 3280SOL     OW10738   5.448   3.646   4.642
 3280SOL    HW110739   5.504   3.635   4.724
 3280SOL    HW210740   5.435   3.557   4.598
 3281SOL     OW10741   6.012   3.665   1.901
 3281SOL    HW110742   6.057   3.738   1.953
 3281SOL    HW210743   6.080   3.594   1.878
 3282SOL     OW10744   0.311   4.340   4.815
 3282SOL    HW110745   0.307   4.409   4.742
 3282SOL    HW210746   0.293   4.250   4.776
 3283SOL     OW10747   3.898   1.501   1.213
 3283SOL    HW110748   3.848   1.461   1.136
 3283SOL    HW210749   3.963   1.569   1.179
 3284SOL     OW10750   1.295   5.550   4.698
 3284SOL    HW110751   1.361   5.581   4.766
 3284SOL    HW210752   1.344   5.522   4.615
 3285SOL     OW10753   4.870   1.277   4.921
 3285SOL    HW110754   4.828   1.216   4.987
 3285SOL    HW210755   4.905   1.224   4.844
 3286SOL     OW10756   3.072   1.475   1.458
 3286SOL    HW110757   3.007   1.442   1.390
 3286SOL    HW210758   3.115   1.397   1.504
 3287SOL     OW10759   2.442   0.292   6.604
 3287SOL    HW110760   2.525   0.324   6.649
 3287SOL    HW210761   2.363   0.344   6.637
 3288SOL     OW10762   1.774   6.715   1.351
 3288SOL    HW110763   1.722   6.630   1.363
 3288SOL    HW210764   1.714   6.793   1.364
 3289SOL     OW10765   3.891   1.928   6.828
 3289SOL    HW110766   3.880   1.835   6.792
 3289SOL    HW210767   3.816   1.986   6.794
 3290SOL     OW10768   6.485   4.857   0.818
 3290SOL    HW110769   6.403   4.800   0.824
 3290SOL    HW210770   6.470   4.943   0.865
 3291SOL     OW10771   5.004   6.894   5.201
 3291SOL    HW110772   5.005   6.910   5.102
 3291SOL    HW210773   5.011   6.981   5.249
 3292SOL     OW10774   0.049   1.859   1.625
 3292SOL    HW110775   0.038   1.865   1.526
 3292SOL    HW210776   0.116   1.927   1.656
 3293SOL     OW10777   6.254   5.159   3.218
 3293SOL    HW110778   6.327   5.228   3.216
 3293SOL    HW210779   6.217   5.147   3.127
 3294SOL     OW10780   4.889   2.735   5.094
 3294SOL    HW110781   4.827   2.810   5.072
 3294SOL    HW210782   4.923   2.695   5.009
 3295SOL     OW10783   1.697   3.034   2.011
 3295SOL    HW110784   1.742   3.117   1.979
 3295SOL    HW210785   1.746   2.997   2.090
 3296SOL     OW10786   1.341   6.877   6.291
 3296SOL    HW110787   1.411   6.912   6.353
 3296SOL    HW210788   1.258   6.857   6.343
 3297SOL     OW10789   3.084   1.848   4.917
 3297SOL    HW110790   3.039   1.817   5.001
 3297SOL    HW210791   3.165   1.793   4.900
 3298SOL     OW10792   5.499   4.391   5.638
 3298SOL    HW110793   5.584   4.340   5.644
 3298SOL    HW210794   5.428   4.332   5.598
 3299SOL     OW10795   2.908   4.852   4.651
 3299SOL    HW110796   2.821   4.861   4.603
 3299SOL    HW210797   2.892   4.817   4.744
 3300SOL     OW10798   2.081   7.020   4.595
 3300SOL    HW110799   2.069   0.040   4.684
 3300SOL    HW210800   2.173   0.012   4.561
 3301SOL     OW10801   2.190   2.227   3.415
 3301SOL    HW110802   2.157   2.142   3.373
 3301SOL    HW210803   2.175   2.303   3.352
 3302SOL     OW10804   2.393   4.874   6.259
 3302SOL    HW110805   2.410   4.788   6.211
 3302SOL    HW210806   2.353   4.941   6.196
 3303SOL     OW10807   3.485   3.350   0.720
 3303SOL    HW110808   3.504   3.252   0.711
 3303SOL    HW210809   3.386   3.366   0.714
 3304SOL     OW10810   2.705   4.823   6.041
 3304SOL    HW110811   2.784   4.762   6.035
 3304SOL    HW210812   2.672   4.827   6.135
 3305SOL     OW10813   3.554   1.366   0.848
 3305SOL    HW110814   3.593   1.404   0.764
 3305SOL    HW210815   3.474   1.311   0.825
 3306SOL     OW10816   1.628   0.821   7.017
 3306SOL    HW110817   1.652   0.741   0.047
 3306SOL    HW210818   1.530   0.837   7.020
 3307SOL     OW10819   1.491   0.183   4.864
 3307SOL    HW110820   1.474   0.269   4.910
 3307SOL    HW210821   1.408   0.153   4.815
 3308SOL     OW10822   3.591   4.447   1.116
 3308SOL    HW110823   3.493   4.461   1.098
 3308SOL    HW210824   3.614   4.486   1.206
 3309SOL     OW10825   5.634   3.604   3.359
 3309SOL    HW110826   5.581   3.635   3.438
 3309SOL    HW210827   5.658   3.508   3.370
 3310SOL     OW10828   6.714   5.464   5.537
 3310SOL    HW110829   6.744   5.535   5.473
 3310SOL    HW210830   6.785   5.394   5.545
 3311SOL     OW10831   3.735   3.808   0.283
 3311SOL    HW110832   3.774   3.835   0.372
 3311SOL    HW210833   3.646   3.853   0.271
 3312SOL     OW10834   4.887   2.566   5.850
 3312SOL    HW110835   4.910   2.543   5.755
 3312SOL    HW210836   4.799   2.613   5.853
 3313SOL     OW10837   1.599   0.744   3.422
 3313SOL    HW110838   1.502   0.764   3.428
 3313SOL    HW210839   1.614   0.667   3.359
 3314SOL     OW10840   2.075   5.742   2.579
 3314SOL    HW110841   1.985   5.727   2.621
 3314SOL    HW210842   2.137   5.781   2.647
 3315SOL     OW10843   6.909   4.656   5.417
 3315SOL    HW110844   6.815   4.631   5.440
 3315SOL    HW210845   6.971   4.585   5.451
 3316SOL     OW10846   3.295   1.581   6.158
 3316SOL    HW110847   3.291   1.503   6.096
 3316SOL    HW210848   3.371   1.641   6.132
 3317SOL     OW10849   5.550   2.480   2.791
 3317SOL    HW110850   5.468   2.427   2.770
 3317SOL    HW210851   5.525   2.576   2.802
 3318SOL     OW10852   2.967   2.172   0.295
 3318SOL    HW110853   2.929   2.263   0.315
 3318SOL    HW210854   3.034   2.180   0.221
 3319SOL     OW10855   6.792   6.516   3.391
 3319SOL    HW110856   6.879   6.468   3.387
 3319SOL    HW210857   6.805   6.607   3.429
 3320SOL     OW10858   6.239   0.111   1.083
 3320SOL    HW110859   6.319   0.171   1.074
 3320SOL    HW210860   6.200   0.094   0.993
 3321SOL     OW10861   5.272   1.622   0.067
 3321SOL    HW110862   5.366   1.600   0.039
 3321SOL    HW210863   5.265   1.721   0.083
 3322SOL     OW10864   6.745   3.934   1.188
 3322SOL    HW110865   6.745   4.033   1.205
 3322SOL    HW210866   6.789   3.887   1.264
 3323SOL     OW10867   1.624   1.544   1.947
 3323SOL    HW110868   1.719   1.563   1.922
 3323SOL    HW210869   1.615   1.543   2.047
 3324SOL     OW10870   5.230   5.505   5.738
 3324SOL    HW110871   5.313   5.547   5.773
 3324SOL    HW210872   5.169   5.575   5.701
 3325SOL     OW10873   1.612   3.665   6.914
 3325SOL    HW110874   1.516   3.636   6.912
 3325SOL    HW210875   1.647   3.658   7.008
 3326SOL     OW10876   4.863   1.515   2.914
 3326SOL    HW110877   4.815   1.600   2.892
 3326SOL    HW210878   4.887   1.468   2.829
 3327SOL     OW10879   1.499   5.921   1.634
 3327SOL    HW110880   1.479   6.002   1.690
 3327SOL    HW210881   1.469   5.839   1.683
 3328SOL     OW10882   4.471   2.252   0.584
 3328SOL    HW110883   4.417   2.242   0.667
 3328SOL    HW210884   4.414   2.229   0.504
 3329SOL     OW10885   5.849   5.597   5.929
 3329SOL    HW110886   5.850   5.673   5.864
 3329SOL    HW210887   5.787   5.526   5.896
 3330SOL     OW10888   6.215   3.368   2.450
 3330SOL    HW110889   6.285   3.437   2.431
 3330SOL    HW210890   6.258   3.288   2.492
 3331SOL     OW10891   2.143   2.788   1.542
 3331SOL    HW110892   2.085   2.753   1.615
 3331SOL    HW210893   2.190   2.712   1.497
 3332SOL     OW10894   6.078   4.598   0.709
 3332SOL    HW110895   6.007   4.568   0.647
 3332SOL    HW210896   6.167   4.567   0.676
 3333SOL     OW10897   4.307   5.102   5.676
 3333SOL    HW110898   4.278   5.051   5.595
 3333SOL    HW210899   4.318   5.039   5.753
 3334SOL     OW10900   2.544   4.351   1.728
 3334SOL    HW110901   2.600   4.294   1.668
 3334SOL    HW210902   2.471   4.295   1.767
 3335SOL     OW10903   5.005   4.443   5.496
 3335SOL    HW110904   4.917   4.454   5.541
 3335SOL    HW210905   5.028   4.346   5.491
 3336SOL     OW10906   3.910   5.149   6.132
 3336SOL    HW110907   3.964   5.171   6.213
 3336SOL    HW210908   3.855   5.228   6.107
 3337SOL     OW10909   3.516   2.660   1.314
 3337SOL    HW110910   3.465   2.593   1.368
 3337SOL    HW210911   3.562   2.724   1.375
 3338SOL     OW10912   0.232   4.130   0.650
 3338SOL    HW110913   0.189   4.046   0.617
 3338SOL    HW210914   0.323   4.109   0.687
 3339SOL     OW10915   6.647   5.748   6.404
 3339SOL    HW110916   6.579   5.734   6.476
 3339SOL    HW210917   6.739   5.746   6.444
 3340SOL     OW10918   3.451   6.248   1.633
 3340SOL    HW110919   3.358   6.212   1.624
 3340SOL    HW210920   3.455   6.313   1.708
 3341SOL     OW10921   0.735   1.215   2.784
 3341SOL    HW110922   0.794   1.223   2.703
 3341SOL    HW210923   0.765   1.280   2.854
 3342SOL     OW10924   1.885   6.886   3.983
 3342SOL    HW110925   1.911   6.982   3.974
 3342SOL    HW210926   1.874   6.846   3.892
 3343SOL     OW10927   5.078   3.071   0.701
 3343SOL    HW110928   5.174   3.096   0.688
 3343SOL    HW210929   5.072   2.975   0.728
 3344SOL     OW10930   6.384   3.330   6.104
 3344SOL    HW110931   6.396   3.249   6.161
 3344SOL    HW210932   6.361   3.409   6.161
 3345SOL     OW10933   2.719   3.100   6.156
 3345SOL    HW110934   2.623   3.081   6.134
 3345SOL    HW210935   2.742   3.191   6.122
 3346SOL     OW10936   0.228   0.384   1.621
 3346SOL    HW110937   0.290   0.306   1.612
 3346SOL    HW210938   0.241   0.447   1.544
 3347SOL     OW10939   5.786   3.793   4.598
 3347SOL    HW110940   5.879   3.771   4.566
 3347SOL    HW210941   5.752   3.719   4.655
 3348SOL     OW10942   3.706   2.892   4.163
 3348SOL    HW110943   3.789   2.948   4.168
 3348SOL    HW210944   3.682   2.860   4.254
 3349SOL     OW10945   6.284   3.671   4.230
 3349SOL    HW110946   6.190   3.701   4.211
 3349SOL    HW210947   6.338   3.677   4.146
 3350SOL     OW10948   1.643   1.051   1.046
 3350SOL    HW110949   1.545   1.067   1.057
 3350SOL    HW210950   1.690   1.139   1.040
 3351SOL     OW10951   5.183   1.754   1.311
 3351SOL    HW110952   5.097   1.803   1.298
 3351SOL    HW210953   5.260   1.818   1.302
 3352SOL     OW10954   0.683   3.309   0.617
 3352SOL    HW110955   0.740   3.381   0.579
 3352SOL    HW210956   0.675   3.323   0.716
 3353SOL     OW10957   2.176   0.116   6.457
 3353SOL    HW110958   2.234   0.040   6.427
 3353SOL    HW210959   2.169   0.116   6.556
 3354SOL     OW10960   0.371   2.832   3.770
 3354SOL    HW110961   0.336   2.755   3.717
 3354SOL    HW210962   0.297   2.898   3.786
 3355SOL     OW10963   6.736   1.136   1.999
 3355SOL    HW110964   6.792   1.180   2.069
 3355SOL    HW210965   6.640   1.137   2.026
 3356SOL     OW10966   2.886   3.787   0.246
 3356SOL    HW110967   2.816   3.738   0.298
 3356SOL    HW210968   2.964   3.726   0.230
 3357SOL     OW10969   2.983   5.245   2.129
 3357SOL    HW110970   2.938   5.273   2.045
 3357SOL    HW210971   2.983   5.322   2.194
 3358SOL     OW10972   5.034   5.864   2.572
 3358SOL    HW110973   5.084   5.829   2.650
 3358SOL    HW210974   4.972   5.937   2.601
 3359SOL     OW10975   2.030   0.449   2.690
 3359SOL    HW110976   1.932   0.449   2.708
 3359SOL    HW210977   2.070   0.362   2.719
 3360SOL     OW10978   0.854   0.604   0.230
 3360SOL    HW110979   0.775   0.660   0.254
 3360SOL    HW210980   0.929   0.623   0.294
 3361SOL     OW10981   5.996   6.150   3.154
 3361SOL    HW110982   5.959   6.241   3.140
 3361SOL    HW210983   6.035   6.116   3.068
 3362SOL     OW10984   2.036   1.245   5.253
 3362SOL    HW110985   2.062   1.328   5.303
 3362SOL    HW210986   1.942   1.253   5.221
 3363SOL     OW10987   6.856   1.927   0.158
 3363SOL    HW110988   6.824   1.972   0.074
 3363SOL    HW210989   6.810   1.839   0.168
 3364SOL     OW10990   1.785   5.300   6.240
 3364SOL    HW110991   1.831   5.244   6.171
 3364SOL    HW210992   1.732   5.242   6.300
 3365SOL     OW10993   6.085   2.293   4.723
 3365SOL    HW110994   6.054   2.214   4.670
 3365SOL    HW210995   6.019   2.368   4.712
 3366SOL     OW10996   5.559   0.520   5.716
 3366SOL    HW110997   5.478   0.485   5.669
 3366SOL    HW210998   5.549   0.507   5.814
 3367SOL     OW10999   1.511   1.622   2.695
 3367SOL    HW111000   1.593   1.623   2.752
 3367SOL    HW211001   1.447   1.553   2.729
 3368SOL     OW11002   6.280   5.784   6.234
 3368SOL    HW111003   6.357   5.775   6.170
 3368SOL    HW211004   6.200   5.819   6.185
 3369SOL     OW11005   3.993   0.322   0.069
 3369SOL    HW111006   4.001   0.329   6.994
 3369SOL    HW211007   3.967   0.228   0.094
 3370SOL     OW11008   6.202   6.726   5.333
 3370SOL    HW111009   6.245   6.754   5.419
 3370SOL    HW211010   6.253   6.765   5.256
 3371SOL     OW11011   0.651   5.286   2.315
 3371SOL    HW111012   0.668   5.335   2.230
 3371SOL    HW211013   0.682   5.191   2.305
 3372SOL     OW11014   1.062   0.414   2.872
 3372SOL    HW111015   1.080   0.376   2.781
 3372SOL    HW211016   1.080   0.513   2.871
 3373SOL     OW11017   6.607   2.198   5.006
 3373SOL    HW111018   6.550   2.131   4.959
 3373SOL    HW211019   6.661   2.249   4.938
 3374SOL     OW11020   2.864   5.259   5.991
 3374SOL    HW111021   2.814   5.238   5.907
 3374SOL    HW211022   2.960   5.277   5.968
 3375SOL     OW11023   4.913   4.467   5.238
 3375SOL    HW111024   4.950   4.482   5.330
 3375SOL    HW211025   4.956   4.386   5.198
 3376SOL     OW11026   3.459   3.553   2.218
 3376SOL    HW111027   3.427   3.639   2.180
 3376SOL    HW211028   3.523   3.570   2.292
 3377SOL     OW11029   1.392   6.579   5.429
 3377SOL    HW111030   1.357   6.626   5.347
 3377SOL    HW211031   1.397   6.644   5.504
 3378SOL     OW11032   6.999   1.485   1.264
 3378SOL    HW111033   6.976   1.551   1.193
 3378SOL    HW211034   0.052   1.519   1.318
 3379SOL     OW11035   0.397   4.502   5.731
 3379SOL    HW111036   0.459   4.439   5.778
 3379SOL    HW211037   0.407   4.490   5.632
 3380SOL     OW11038   6.762   4.554   6.730
 3380SOL    HW111039   6.857   4.549   6.760
 3380SOL    HW211040   6.702   4.553   6.811
 3381SOL     OW11041   3.058   2.525   0.520
 3381SOL    HW111042   3.143   2.559   0.480
 3381SOL    HW211043   3.010   2.601   0.565
 3382SOL     OW11044   0.173   1.698   1.203
 3382SOL    HW111045   0.261   1.658   1.229
 3382SOL    HW211046   0.136   1.649   1.124
 3383SOL     OW11047   5.959   5.054   2.627
 3383SOL    HW111048   5.954   5.048   2.527
 3383SOL    HW211049   5.875   5.094   2.662
 3384SOL     OW11050   3.603   2.843   4.416
 3384SOL    HW111051   3.550   2.762   4.388
 3384SOL    HW211052   3.578   2.868   4.510
 3385SOL     OW11053   6.482   3.880   3.602
 3385SOL    HW111054   6.490   3.919   3.694
 3385SOL    HW211055   6.557   3.915   3.545
 3386SOL     OW11056   6.205   4.500   5.311
 3386SOL    HW111057   6.208   4.594   5.277
 3386SOL    HW211058   6.262   4.492   5.392
 3387SOL     OW11059   2.458   1.865   3.218
 3387SOL    HW111060   2.440   1.963   3.211
 3387SOL    HW211061   2.534   1.840   3.159
 3388SOL     OW11062   5.375   1.927   1.386
 3388SOL    HW111063   5.356   1.945   1.483
 3388SOL    HW211064   5.468   1.954   1.364
 3389SOL     OW11065   4.818   4.555   3.476
 3389SOL    HW111066   4.735   4.609   3.463
 3389SOL    HW211067   4.876   4.564   3.396
 3390SOL     OW11068   4.854   3.023   5.583
 3390SOL    HW111069   4.831   3.049   5.489
 3390SOL    HW211070   4.869   2.925   5.587
 3391SOL     OW11071   3.704   2.037   4.848
 3391SOL    HW111072   3.688   2.005   4.941
 3391SOL    HW211073   3.802   2.053   4.835
 3392SOL     OW11074   3.067   0.599   3.920
 3392SOL    HW111075   3.035   0.654   3.997
 3392SOL    HW211076   3.017   0.625   3.838
 3393SOL     OW11077   6.675   6.611   6.583
 3393SOL    HW111078   6.684   6.708   6.557
 3393SOL    HW211079   6.629   6.605   6.672
 3394SOL     OW11080   6.229   2.581   1.380
 3394SOL    HW111081   6.268   2.531   1.303
 3394SOL    HW211082   6.130   2.585   1.371
 3395SOL     OW11083   0.983   3.036   4.354
 3395SOL    HW111084   0.985   2.936   4.365
 3395SOL    HW211085   1.076   3.068   4.333
 3396SOL     OW11086   7.009   3.834   3.943
 3396SOL    HW111087   6.956   3.817   4.026
 3396SOL    HW211088   0.028   3.749   3.913
 3397SOL     OW11089   3.577   6.362   5.845
 3397SOL    HW111090   3.535   6.299   5.911
 3397SOL    HW211091   3.616   6.310   5.769
 3398SOL     OW11092   1.292   7.004   4.300
 3398SOL    HW111093   1.372   7.011   4.240
 3398SOL    HW211094   1.259   6.909   4.300
 3399SOL     OW11095   5.265   4.941   3.756
 3399SOL    HW111096   5.360   4.954   3.729
 3399SOL    HW211097   5.208   4.930   3.674
 3400SOL     OW11098   4.936   2.443   6.809
 3400SOL    HW111099   4.843   2.473   6.831
 3400SOL    HW211100   4.941   2.343   6.815
 3401SOL     OW11101   5.935   4.220   0.724
 3401SOL    HW111102   6.030   4.220   0.755
 3401SOL    HW211103   5.931   4.248   0.628
 3402SOL     OW11104   5.054   5.695   1.056
 3402SOL    HW111105   5.007   5.783   1.057
 3402SOL    HW211106   5.018   5.637   1.129
 3403SOL     OW11107   3.495   0.600   4.865
 3403SOL    HW111108   3.541   0.608   4.777
 3403SOL    HW211109   3.487   0.691   4.907
 3404SOL     OW11110   4.935   1.344   0.750
 3404SOL    HW111111   5.004   1.406   0.711
 3404SOL    HW211112   4.911   1.275   0.682
 3405SOL     OW11113   6.509   3.865   6.562
 3405SOL    HW111114   6.596   3.816   6.559
 3405SOL    HW211115   6.514   3.937   6.631
 3406SOL     OW11116   2.157   3.895   2.248
 3406SOL    HW111117   2.185   3.969   2.188
 3406SOL    HW211118   2.137   3.813   2.194
 3407SOL     OW11119   1.160   5.680   1.882
 3407SOL    HW111120   1.219   5.723   1.951
 3407SOL    HW211121   1.091   5.624   1.928
 3408SOL     OW11122   5.209   4.318   2.092
 3408SOL    HW111123   5.145   4.351   2.022
 3408SOL    HW211124   5.160   4.306   2.178
 3409SOL     OW11125   3.514   0.196   5.834
 3409SOL    HW111126   3.556   0.266   5.892
 3409SOL    HW211127   3.546   0.106   5.863
 3410SOL     OW11128   6.590   6.343   0.228
 3410SOL    HW111129   6.574   6.435   0.193
 3410SOL    HW211130   6.687   6.321   0.220
 3411SOL     OW11131   4.451   1.669   2.540
 3411SOL    HW111132   4.469   1.574   2.566
 3411SOL    HW211133   4.438   1.724   2.623
 3412SOL     OW11134   3.802   3.672   6.978
 3412SOL    HW111135   3.861   3.650   6.900
 3412SOL    HW211136   3.840   3.631   0.036
 3413SOL     OW11137   3.880   1.431   3.465
 3413SOL    HW111138   3.832   1.510   3.426
 3413SOL    HW211139   3.834   1.347   3.437
 3414SOL     OW11140   2.983   2.389   5.359
 3414SOL    HW111141   2.903   2.396   5.300
 3414SOL    HW211142   3.066   2.395   5.303
 3415SOL     OW11143   0.404   4.784   4.245
 3415SOL    HW111144   0.477   4.816   4.305
 3415SOL    HW211145   0.422   4.815   4.152
 3416SOL     OW11146   0.598   4.963   5.265
 3416SOL    HW111147   0.518   4.917   5.229
 3416SOL    HW211148   0.675   4.899   5.269
 3417SOL     OW11149   0.058   6.868   2.502
 3417SOL    HW111150   0.100   6.779   2.519
 3417SOL    HW211151   0.128   6.934   2.476
 3418SOL     OW11152   2.806   1.460   5.322
 3418SOL    HW111153   2.901   1.489   5.333
 3418SOL    HW211154   2.784   1.454   5.225
 3419SOL     OW11155   4.179   4.558   6.705
 3419SOL    HW111156   4.095   4.547   6.758
 3419SOL    HW211157   4.162   4.623   6.630
 3420SOL     OW11158   4.435   2.176   4.083
 3420SOL    HW111159   4.420   2.273   4.063
 3420SOL    HW211160   4.358   2.122   4.050
 3421SOL     OW11161   0.186   5.879   5.806
 3421SOL    HW111162   0.182   5.780   5.800
 3421SOL    HW211163   0.093   5.916   5.808
 3422SOL     OW11164   3.597   0.591   1.776
 3422SOL    HW111165   3.509   0.606   1.729
 3422SOL    HW211166   3.641   0.509   1.739
 3423SOL     OW11167   2.550   1.053   0.671
 3423SOL    HW111168   2.518   1.109   0.595
 3423SOL    HW211169   2.535   1.102   0.757
 3424SOL     OW11170   4.240   0.953   2.568
 3424SOL    HW111171   4.140   0.948   2.575
 3424SOL    HW211172   4.282   0.905   2.644
 3425SOL     OW11173   4.729   4.263   2.186
 3425SOL    HW111174   4.658   4.231   2.124
 3425SOL    HW211175   4.696   4.343   2.237
 3426SOL     OW11176   3.998   3.640   0.536
 3426SOL    HW111177   4.010   3.728   0.490
 3426SOL    HW211178   4.003   3.653   0.635
 3427SOL     OW11179   6.907   0.986   0.485
 3427SOL    HW111180   6.833   0.919   0.475
 3427SOL    HW211181   6.952   1.000   0.397
 3428SOL     OW11182   4.206   4.743   2.434
 3428SOL    HW111183   4.225   4.722   2.338
 3428SOL    HW211184   4.116   4.787   2.441
 3429SOL     OW11185   1.013   3.408   0.835
 3429SOL    HW111186   1.106   3.423   0.868
 3429SOL    HW211187   0.985   3.314   0.856
 3430SOL     OW11188   1.692   6.935   0.643
 3430SOL    HW111189   1.745   6.855   0.615
 3430SOL    HW211190   1.607   6.940   0.590
 3431SOL     OW11191   1.676   6.104   1.469
 3431SOL    HW111192   1.657   6.190   1.516
 3431SOL    HW211193   1.748   6.118   1.401
 3432SOL     OW11194   3.780   1.490   5.678
 3432SOL    HW111195   3.683   1.469   5.669
 3432SOL    HW211196   3.801   1.573   5.627
 3433SOL     OW11197   3.618   1.155   5.283
 3433SOL    HW111198   3.532   1.203   5.296
 3433SOL    HW211199   3.672   1.201   5.212
 3434SOL     OW11200   4.619   2.757   1.469
 3434SOL    HW111201   4.641   2.799   1.557
 3434SOL    HW211202   4.649   2.662   1.469
 3435SOL     OW11203   6.941   2.300   2.413
 3435SOL    HW111204   6.910   2.363   2.342
 3435SOL    HW211205   0.001   2.254   2.384
 3436SOL     OW11206   4.580   6.951   4.992
 3436SOL    HW111207   4.506   6.991   5.046
 3436SOL    HW211208   4.561   6.963   4.895
 3437SOL     OW11209   4.336   0.036   5.039
 3437SOL    HW111210   4.302   0.055   5.131
 3437SOL    HW211211   4.322   0.116   4.981
 3438SOL     OW11212   1.609   2.507   6.442
 3438SOL    HW111213   1.587   2.595   6.484
 3438SOL    HW211214   1.681   2.519   6.374
 3439SOL     OW11215   2.702   6.704   4.764
 3439SOL    HW111216   2.770   6.643   4.803
 3439SOL    HW211217   2.725   6.799   4.788
 3440SOL     OW11218   4.601   3.189   1.093
 3440SOL    HW111219   4.676   3.230   1.041
 3440SOL    HW211220   4.599   3.090   1.076
 3441SOL     OW11221   3.528   6.725   4.081
 3441SOL    HW111222   3.608   6.734   4.141
 3441SOL    HW211223   3.552   6.666   4.004
 3442SOL     OW11224   1.963   5.119   3.489
 3442SOL    HW111225   1.985   5.209   3.525
 3442SOL    HW211226   2.022   5.050   3.532
 3443SOL     OW11227   5.874   1.968   2.586
 3443SOL    HW111228   5.959   2.014   2.609
 3443SOL    HW211229   5.894   1.875   2.552
 3444SOL     OW11230   4.926   5.270   6.735
 3444SOL    HW111231   4.836   5.242   6.702
 3444SOL    HW211232   4.923   5.284   6.834
 3445SOL     OW11233   6.266   4.653   3.721
 3445SOL    HW111234   6.361   4.672   3.744
 3445SOL    HW211235   6.216   4.627   3.804
 3446SOL     OW11236   4.347   0.228   3.052
 3446SOL    HW111237   4.273   0.294   3.068
 3446SOL    HW211238   4.308   0.135   3.050
 3447SOL     OW11239   5.967   5.985   0.096
 3447SOL    HW111240   5.934   5.899   0.057
 3447SOL    HW211241   6.001   5.968   0.188
 3448SOL     OW11242   3.221   0.757   1.147
 3448SOL    HW111243   3.200   0.805   1.063
 3448SOL    HW211244   3.145   0.695   1.170
 3449SOL     OW11245   0.025   0.050   2.141
 3449SOL    HW111246   0.073   0.031   2.226
 3449SOL    HW211247   6.994   0.132   2.151
 3450SOL     OW11248   1.091   1.822   1.658
 3450SOL    HW111249   1.183   1.799   1.691
 3450SOL    HW211250   1.070   1.916   1.684
 3451SOL     OW11251   1.376   5.558   3.921
 3451SOL    HW111252   1.400   5.652   3.894
 3451SOL    HW211253   1.276   5.549   3.924
 3452SOL     OW11254   6.654   0.989   6.763
 3452SOL    HW111255   6.697   0.907   6.727
 3452SOL    HW211256   6.709   1.026   6.838
 3453SOL     OW11257   5.422   5.506   4.957
 3453SOL    HW111258   5.473   5.423   4.978
 3453SOL    HW211259   5.324   5.490   4.968
 3454SOL     OW11260   1.422   1.636   1.061
 3454SOL    HW111261   1.457   1.719   1.018
 3454SOL    HW211262   1.336   1.610   1.017
 3455SOL     OW11263   1.584   3.019   4.437
 3455SOL    HW111264   1.537   3.072   4.366
 3455SOL    HW211265   1.660   2.969   4.396
 3456SOL     OW11266   5.822   6.621   1.657
 3456SOL    HW111267   5.865   6.532   1.639
 3456SOL    HW211268   5.722   6.610   1.657
 3457SOL     OW11269   2.538   4.956   3.429
 3457SOL    HW111270   2.562   4.954   3.332
 3457SOL    HW211271   2.596   5.021   3.476
 3458SOL     OW11272   6.013   6.681   0.224
 3458SOL    HW111273   5.954   6.737   0.282
 3458SOL    HW211274   6.091   6.648   0.278
 3459SOL     OW11275   0.426   4.144   3.589
 3459SOL    HW111276   0.435   4.075   3.662
 3459SOL    HW211277   0.364   4.110   3.519
 3460SOL     OW11278   3.274   2.779   0.173
 3460SOL    HW111279   3.227   2.760   0.087
 3460SOL    HW211280   3.367   2.742   0.169
 3461SOL     OW11281   3.850   5.553   4.540
 3461SOL    HW111282   3.754   5.530   4.529
 3461SOL    HW211283   3.907   5.474   4.516
 3462SOL     OW11284   5.610   2.998   3.038
 3462SOL    HW111285   5.540   3.030   3.101
 3462SOL    HW211286   5.568   2.975   2.950
 3463SOL     OW11287   1.811   3.323   1.969
 3463SOL    HW111288   1.904   3.339   1.934
 3463SOL    HW211289   1.745   3.337   1.895
 3464SOL     OW11290   5.201   3.101   6.617
 3464SOL    HW111291   5.182   3.022   6.559
 3464SOL    HW211292   5.262   3.164   6.569
 3465SOL     OW11293   2.225   3.807   1.849
 3465SOL    HW111294   2.175   3.748   1.913
 3465SOL    HW211295   2.253   3.891   1.896
 3466SOL     OW11296   5.536   4.459   5.313
 3466SOL    HW111297   5.497   4.371   5.285
 3466SOL    HW211298   5.479   4.500   5.384
 3467SOL     OW11299   3.199   2.339   0.720
 3467SOL    HW111300   3.161   2.394   0.646
 3467SOL    HW211301   3.126   2.282   0.760
 3468SOL     OW11302   4.576   1.470   1.135
 3468SOL    HW111303   4.545   1.383   1.173
 3468SOL    HW211304   4.649   1.453   1.068
 3469SOL     OW11305   4.347   6.974   6.045
 3469SOL    HW111306   4.381   6.881   6.031
 3469SOL    HW211307   4.387   0.010   5.976
 3470SOL     OW11308   0.292   2.579   1.062
 3470SOL    HW111309   0.274   2.574   0.964
 3470SOL    HW211310   0.391   2.583   1.077
 3471SOL     OW11311   4.313   4.672   3.184
 3471SOL    HW111312   4.380   4.621   3.238
 3471SOL    HW211313   4.359   4.722   3.111
 3472SOL     OW11314   4.332   2.388   3.184
 3472SOL    HW111315   4.364   2.465   3.240
 3472SOL    HW211316   4.249   2.350   3.226
 3473SOL     OW11317   0.143   3.609   3.884
 3473SOL    HW111318   0.173   3.548   3.958
 3473SOL    HW211319   0.213   3.613   3.813
 3474SOL     OW11320   0.067   4.561   4.304
 3474SOL    HW111321   0.084   4.614   4.221
 3474SOL    HW211322   0.087   4.464   4.286
 3475SOL     OW11323   6.697   4.301   4.423
 3475SOL    HW111324   6.673   4.329   4.330
 3475SOL    HW211325   6.634   4.344   4.487
 3476SOL     OW11326   1.932   1.851   3.713
 3476SOL    HW111327   1.888   1.763   3.692
 3476SOL    HW211328   2.023   1.834   3.751
 3477SOL     OW11329   0.101   4.020   1.615
 3477SOL    HW111330   0.040   4.073   1.555
 3477SOL    HW211331   0.083   3.922   1.601
 3478SOL     OW11332   2.487   0.204   0.194
 3478SOL    HW111333   2.453   0.289   0.154
 3478SOL    HW211334   2.587   0.209   0.203
 3479SOL     OW11335   0.663   3.047   3.565
 3479SOL    HW111336   0.693   2.954   3.543
 3479SOL    HW211337   0.565   3.046   3.587
 3480SOL     OW11338   1.363   5.763   6.607
 3480SOL    HW111339   1.424   5.708   6.664
 3480SOL    HW211340   1.391   5.859   6.611
 3481SOL     OW11341   5.531   0.429   0.137
 3481SOL    HW111342   5.461   0.357   0.145
 3481SOL    HW211343   5.496   0.514   0.176
 3482SOL     OW11344   5.843   2.624   4.281
 3482SOL    HW111345   5.845   2.715   4.241
 3482SOL    HW211346   5.773   2.620   4.352
 3483SOL     OW11347   4.620   2.383   3.276
 3483SOL    HW111348   4.699   2.337   3.314
 3483SOL    HW211349   4.553   2.401   3.348
 3484SOL     OW11350   1.865   3.553   6.389
 3484SOL    HW111351   1.798   3.499   6.337
 3484SOL    HW211352   1.817   3.616   6.450
 3485SOL     OW11353   6.701   1.816   5.122
 3485SOL    HW111354   6.769   1.767   5.177
 3485SOL    HW211355   6.723   1.914   5.121
 3486SOL     OW11356   1.889   6.936   5.045
 3486SOL    HW111357   1.806   6.982   5.012
 3486SOL    HW211358   1.915   6.864   4.980
 3487SOL     OW11359   5.813   1.511   6.675
 3487SOL    HW111360   5.895   1.560   6.647
 3487SOL    HW211361   5.836   1.445   6.746
 3488SOL     OW11362   5.532   0.211   4.845
 3488SOL    HW111363   5.586   0.171   4.919
 3488SOL    HW211364   5.482   0.139   4.797
 3489SOL     OW11365   3.156   6.828   1.070
 3489SOL    HW111366   3.209   6.848   0.988
 3489SOL    HW211367   3.188   6.741   1.110
 3490SOL     OW11368   4.036   4.641   0.912
 3490SOL    HW111369   3.976   4.691   0.975
 3490SOL    HW211370   4.053   4.549   0.948
 3491SOL     OW11371   5.356   3.819   0.118
 3491SOL    HW111372   5.315   3.749   0.177
 3491SOL    HW211373   5.304   3.824   0.032
 3492SOL     OW11374   6.684   4.131   2.336
 3492SOL    HW111375   6.616   4.199   2.310
 3492SOL    HW211376   6.638   4.051   2.375
 3493SOL     OW11377   6.455   3.712   3.990
 3493SOL    HW111378   6.454   3.668   3.900
 3493SOL    HW211379   6.529   3.779   3.994
 3494SOL     OW11380   2.871   1.808   2.716
 3494SOL    HW111381   2.936   1.776   2.647
 3494SOL    HW211382   2.813   1.879   2.676
 3495SOL     OW11383   1.293   4.044   2.278
 3495SOL    HW111384   1.212   3.997   2.311
 3495SOL    HW211385   1.293   4.139   2.310
 3496SOL     OW11386   5.995   4.696   0.343
 3496SOL    HW111387   6.050   4.778   0.360
 3496SOL    HW211388   5.915   4.697   0.403
 3497SOL     OW11389   3.736   0.465   3.489
 3497SOL    HW111390   3.680   0.543   3.518
 3497SOL    HW211391   3.802   0.495   3.420
 3498SOL     OW11392   2.388   1.550   2.347
 3498SOL    HW111393   2.461   1.506   2.295
 3498SOL    HW211394   2.309   1.564   2.288
 3499SOL     OW11395   5.792   6.102   5.667
 3499SOL    HW111396   5.736   6.039   5.613
 3499SOL    HW211397   5.873   6.055   5.700
 3500SOL     OW11398   1.554   1.720   3.921
 3500SOL    HW111399   1.585   1.659   3.994
 3500SOL    HW211400   1.605   1.701   3.837
 3501SOL     OW11401   2.495   6.930   6.752
 3501SOL    HW111402   2.544   6.990   6.815
 3501SOL    HW211403   2.490   6.974   6.662
 3502SOL     OW11404   5.678   3.091   1.839
 3502SOL    HW111405   5.591   3.056   1.806
 3502SOL    HW211406   5.730   3.018   1.883
 3503SOL     OW11407   0.287   5.970   6.071
 3503SOL    HW111408   0.243   5.921   5.996
 3503SOL    HW211409   0.375   5.928   6.092
 3504SOL     OW11410   1.440   0.916   1.975
 3504SOL    HW111411   1.385   0.835   1.953
 3504SOL    HW211412   1.384   0.998   1.965
 3505SOL     OW11413   5.472   5.595   5.857
 3505SOL    HW111414   5.546   5.529   5.861
 3505SOL    HW211415   5.450   5.626   5.950
 3506SOL     OW11416   5.678   4.242   5.096
 3506SOL    HW111417   5.691   4.167   5.031
 3506SOL    HW211418   5.764   4.262   5.143
 3507SOL     OW11419   2.462   0.447   0.981
 3507SOL    HW111420   2.513   0.479   0.901
 3507SOL    HW211421   2.365   0.467   0.968
 3508SOL     OW11422   3.244   2.622   5.573
 3508SOL    HW111423   3.153   2.633   5.533
 3508SOL    HW211424   3.250   2.532   5.617
 3509SOL     OW11425   4.695   6.769   0.552
 3509SOL    HW111426   4.744   6.694   0.597
 3509SOL    HW211427   4.610   6.733   0.513
 3510SOL     OW11428   2.302   1.066   1.661
 3510SOL    HW111429   2.279   1.051   1.565
 3510SOL    HW211430   2.334   0.981   1.702
 3511SOL     OW11431   1.812   4.483   1.188
 3511SOL    HW111432   1.911   4.481   1.206
 3511SOL    HW211433   1.794   4.451   1.095
 3512SOL     OW11434   0.774   3.877   0.024
 3512SOL    HW111435   0.752   3.787   7.010
 3512SOL    HW211436   0.692   3.935   0.022
 3513SOL     OW11437   6.747   2.178   1.041
 3513SOL    HW111438   6.700   2.097   1.076
 3513SOL    HW211439   6.748   2.249   1.111
 3514SOL     OW11440   5.393   0.730   2.800
 3514SOL    HW111441   5.386   0.682   2.713
 3514SOL    HW211442   5.482   0.708   2.842
 3515SOL     OW11443   5.755   6.140   3.885
 3515SOL    HW111444   5.805   6.128   3.971
 3515SOL    HW211445   5.752   6.237   3.861
 3516SOL     OW11446   4.902   0.029   0.963
 3516SOL    HW111447   4.837   0.017   1.038
 3516SOL    HW211448   4.994   0.009   0.996
 3517SOL     OW11449   6.937   1.000   1.289
 3517SOL    HW111450   6.930   0.992   1.190
 3517SOL    HW211451   6.857   0.957   1.332
 3518SOL     OW11452   5.869   1.923   4.691
 3518SOL    HW111453   5.818   1.943   4.775
 3518SOL    HW211454   5.805   1.890   4.621
 3519SOL     OW11455   2.787   0.887   6.712
 3519SOL    HW111456   2.730   0.970   6.713
 3519SOL    HW211457   2.836   0.881   6.626
 3520SOL     OW11458   3.460   5.545   5.679
 3520SOL    HW111459   3.493   5.462   5.725
 3520SOL    HW211460   3.369   5.527   5.641
 3521SOL     OW11461   3.271   2.882   6.692
 3521SOL    HW111462   3.363   2.856   6.661
 3521SOL    HW211463   3.277   2.961   6.753
 3522SOL     OW11464   6.466   5.141   6.319
 3522SOL    HW111465   6.367   5.137   6.314
 3522SOL    HW211466   6.494   5.207   6.389
 3523SOL     OW11467   0.996   4.976   5.136
 3523SOL    HW111468   1.080   4.935   5.102
 3523SOL    HW211469   1.000   5.076   5.123
 3524SOL     OW11470   5.476   1.894   2.441
 3524SOL    HW111471   5.462   1.982   2.485
 3524SOL    HW211472   5.488   1.823   2.511
 3525SOL     OW11473   6.096   3.913   3.940
 3525SOL    HW111474   6.095   3.887   4.036
 3525SOL    HW211475   6.011   3.960   3.917
 3526SOL     OW11476   1.295   5.555   3.163
 3526SOL    HW111477   1.301   5.525   3.258
 3526SOL    HW211478   1.215   5.514   3.120
 3527SOL     OW11479   6.021   2.753   6.074
 3527SOL    HW111480   5.980   2.757   5.984
 3527SOL    HW211481   6.029   2.845   6.112
 3528SOL     OW11482   2.465   6.063   4.786
 3528SOL    HW111483   2.531   6.138   4.787
 3528SOL    HW211484   2.485   6.001   4.711
 3529SOL     OW11485   4.233   6.004   6.683
 3529SOL    HW111486   4.243   5.905   6.673
 3529SOL    HW211487   4.190   6.041   6.600
 3530SOL     OW11488   0.122   4.979   1.912
 3530SOL    HW111489   0.208   5.021   1.881
 3530SOL    HW211490   0.058   5.051   1.939
 3531SOL     OW11491   5.089   1.888   1.842
 3531SOL    HW111492   5.050   1.804   1.803
 3531SOL    HW211493   5.084   1.883   1.942
 3532SOL     OW11494   2.362   1.156   2.294
 3532SOL    HW111495   2.452   1.201   2.294
 3532SOL    HW211496   2.356   1.094   2.372
 3533SOL     OW11497   0.068   2.026   2.717
 3533SOL    HW111498   0.097   1.938   2.754
 3533SOL    HW211499   0.136   2.096   2.740
 3534SOL     OW11500   0.509   2.521   2.330
 3534SOL    HW111501   0.601   2.557   2.318
 3534SOL    HW211502   0.443   2.597   2.332
 3535SOL     OW11503   2.769   5.148   5.348
 3535SOL    HW111504   2.679   5.173   5.313
 3535SOL    HW211505   2.773   5.049   5.360
 3536SOL     OW11506   3.692   1.807   3.115
 3536SOL    HW111507   3.654   1.775   3.202
 3536SOL    HW211508   3.623   1.801   3.043
 3537SOL     OW11509   1.142   5.856   2.772
 3537SOL    HW111510   1.154   5.879   2.676
 3537SOL    HW211511   1.209   5.786   2.798
 3538SOL     OW11512   3.084   5.591   5.027
 3538SOL    HW111513   3.176   5.629   5.034
 3538SOL    HW211514   3.019   5.666   5.013
 3539SOL     OW11515   3.730   3.853   4.531
 3539SOL    HW111516   3.821   3.894   4.539
 3539SOL    HW211517   3.695   3.867   4.438
 3540SOL     OW11518   2.105   2.063   4.018
 3540SOL    HW111519   2.075   2.110   4.101
 3540SOL    HW211520   2.040   2.081   3.944
 3541SOL     OW11521   2.996   3.166   5.606
 3541SOL    HW111522   3.008   3.153   5.508
 3541SOL    HW211523   2.979   3.078   5.650
 3542SOL     OW11524   1.837   4.789   2.913
 3542SOL    HW111525   1.891   4.705   2.913
 3542SOL    HW211526   1.752   4.774   2.963
 3543SOL     OW11527   5.112   2.456   4.093
 3543SOL    HW111528   5.206   2.487   4.085
 3543SOL    HW211529   5.054   2.532   4.124
 3544SOL     OW11530   1.914   4.179   6.789
 3544SOL    HW111531   1.835   4.118   6.792
 3544SOL    HW211532   1.889   4.264   6.742
 3545SOL     OW11533   3.955   6.228   6.175
 3545SOL    HW111534   3.871   6.179   6.153
 3545SOL    HW211535   3.932   6.324   6.196
 3546SOL     OW11536   0.120   5.829   3.386
 3546SOL    HW111537   0.063   5.907   3.359
 3546SOL    HW211538   0.173   5.797   3.308
 3547SOL     OW11539   4.011   5.442   4.075
 3547SOL    HW111540   4.048   5.533   4.089
 3547SOL    HW211541   3.929   5.448   4.017
 3548SOL     OW11542   4.943   2.455   5.594
 3548SOL    HW111543   4.912   2.378   5.539
 3548SOL    HW211544   4.919   2.541   5.549
 3549SOL     OW11545   6.533   4.963   3.949
 3549SOL    HW111546   6.569   4.937   4.039
 3549SOL    HW211547   6.575   5.049   3.920
 3550SOL     OW11548   5.344   2.307   3.372
 3550SOL    HW111549   5.275   2.351   3.314
 3550SOL    HW211550   5.391   2.235   3.321
 3551SOL     OW11551   3.625   6.245   3.185
 3551SOL    HW111552   3.653   6.156   3.221
 3551SOL    HW211553   3.592   6.302   3.261
 3552SOL     OW11554   5.536   5.367   3.115
 3552SOL    HW111555   5.522   5.451   3.167
 3552SOL    HW211556   5.590   5.387   3.033
 3553SOL     OW11557   5.473   2.675   2.182
 3553SOL    HW111558   5.377   2.700   2.174
 3553SOL    HW211559   5.529   2.757   2.172
 3554SOL     OW11560   4.017   3.969   6.728
 3554SOL    HW111561   3.984   3.999   6.639
 3554SOL    HW211562   4.079   4.038   6.766
 3555SOL     OW11563   0.857   3.447   3.043
 3555SOL    HW111564   0.841   3.391   2.961
 3555SOL    HW211565   0.806   3.408   3.120
 3556SOL     OW11566   3.344   0.578   5.707
 3556SOL    HW111567   3.269   0.644   5.698
 3556SOL    HW211568   3.378   0.579   5.802
 3557SOL     OW11569   1.195   0.548   5.017
 3557SOL    HW111570   1.178   0.524   4.921
 3557SOL    HW211571   1.292   0.534   5.037
 3558SOL     OW11572   0.126   5.640   1.737
 3558SOL    HW111573   0.101   5.732   1.706
 3558SOL    HW211574   0.224   5.639   1.759
 3559SOL     OW11575   0.187   0.147   5.268
 3559SOL    HW111576   0.215   0.086   5.194
 3559SOL    HW211577   0.249   0.225   5.272
 3560SOL     OW11578   1.406   6.107   1.412
 3560SOL    HW111579   1.388   6.038   1.342
 3560SOL    HW211580   1.500   6.098   1.445
 3561SOL     OW11581   4.805   4.783   5.561
 3561SOL    HW111582   4.731   4.847   5.543
 3561SOL    HW211583   4.768   4.690   5.569
 3562SOL     OW11584   5.214   0.268   3.828
 3562SOL    HW111585   5.161   0.321   3.762
 3562SOL    HW211586   5.158   0.193   3.863
 3563SOL     OW11587   5.608   1.302   1.174
 3563SOL    HW111588   5.599   1.278   1.270
 3563SOL    HW211589   5.567   1.392   1.158
 3564SOL     OW11590   0.681   4.260   5.055
 3564SOL    HW111591   0.760   4.262   4.993
 3564SOL    HW211592   0.640   4.169   5.054
 3565SOL     OW11593   2.729   0.191   4.460
 3565SOL    HW111594   2.779   0.140   4.530
 3565SOL    HW211595   2.785   0.268   4.429
 3566SOL     OW11596   6.925   3.079   5.466
 3566SOL    HW111597   6.890   3.160   5.512
 3566SOL    HW211598   6.850   3.031   5.421
 3567SOL     OW11599   0.578   2.901   0.699
 3567SOL    HW111600   0.664   2.852   0.685
 3567SOL    HW211601   0.565   2.919   0.796
 3568SOL     OW11602   4.931   4.905   2.448
 3568SOL    HW111603   4.832   4.900   2.452
 3568SOL    HW211604   4.959   4.991   2.406
 3569SOL     OW11605   3.055   3.180   4.403
 3569SOL    HW111606   3.056   3.158   4.500
 3569SOL    HW211607   2.962   3.167   4.367
 3570SOL     OW11608   6.199   1.772   5.517
 3570SOL    HW111609   6.241   1.702   5.576
 3570SOL    HW211610   6.269   1.810   5.456
 3571SOL     OW11611   1.960   0.497   5.271
 3571SOL    HW111612   1.909   0.546   5.200
 3571SOL    HW211613   1.920   0.406   5.283
 3572SOL     OW11614   5.342   4.037   2.123
 3572SOL    HW111615   5.328   3.962   2.188
 3572SOL    HW211616   5.305   4.121   2.161
 3573SOL     OW11617   6.383   4.180   2.356
 3573SOL    HW111618   6.421   4.099   2.400
 3573SOL    HW211619   6.326   4.229   2.422
 3574SOL     OW11620   2.352   3.260   6.239
 3574SOL    HW111621   2.312   3.346   6.206
 3574SOL    HW211622   2.357   3.194   6.163
 3575SOL     OW11623   4.874   6.052   0.769
 3575SOL    HW111624   4.811   6.098   0.706
 3575SOL    HW211625   4.834   6.050   0.861
 3576SOL     OW11626   0.218   3.271   6.795
 3576SOL    HW111627   0.191   3.240   6.886
 3576SOL    HW211628   0.194   3.368   6.785
 3577SOL     OW11629   2.149   2.717   5.109
 3577SOL    HW111630   2.247   2.701   5.117
 3577SOL    HW211631   2.125   2.803   5.155
 3578SOL     OW11632   3.269   3.041   0.300
 3578SOL    HW111633   3.171   3.056   0.305
 3578SOL    HW211634   3.287   2.957   0.247
 3579SOL     OW11635   0.224   3.369   2.248
 3579SOL    HW111636   0.141   3.360   2.304
 3579SOL    HW211637   0.298   3.404   2.305
 3580SOL     OW11638   0.457   3.202   1.274
 3580SOL    HW111639   0.517   3.261   1.328
 3580SOL    HW211640   0.460   3.109   1.311
 3581SOL     OW11641   0.806   0.495   3.031
 3581SOL    HW111642   0.746   0.431   3.079
 3581SOL    HW211643   0.803   0.476   2.933
 3582SOL     OW11644   3.435   4.030   5.783
 3582SOL    HW111645   3.348   3.984   5.800
 3582SOL    HW211646   3.418   4.126   5.761
 3583SOL     OW11647   0.253   4.865   0.716
 3583SOL    HW111648   0.179   4.906   0.661
 3583SOL    HW211649   0.251   4.766   0.706
 3584SOL     OW11650   5.481   4.441   5.011
 3584SOL    HW111651   5.417   4.383   4.962
 3584SOL    HW211652   5.566   4.391   5.028
 3585SOL     OW11653   2.526   2.191   4.400
 3585SOL    HW111654   2.468   2.168   4.322
 3585SOL    HW211655   2.571   2.108   4.433
 3586SOL     OW11656   6.718   2.906   3.883
 3586SOL    HW111657   6.704   2.825   3.826
 3586SOL    HW211658   6.631   2.935   3.921
 3587SOL     OW11659   3.636   6.644   6.059
 3587SOL    HW111660   3.724   6.598   6.070
 3587SOL    HW211661   3.621   6.666   5.962
 3588SOL     OW11662   6.276   4.114   4.556
 3588SOL    HW111663   6.311   4.052   4.626
 3588SOL    HW211664   6.260   4.204   4.595
 3589SOL     OW11665   0.032   0.184   6.071
 3589SOL    HW111666   0.084   0.112   6.117
 3589SOL    HW211667   0.047   0.271   6.118
 3590SOL     OW11668   0.402   4.249   0.446
 3590SOL    HW111669   0.403   4.149   0.449
 3590SOL    HW211670   0.333   4.283   0.510
 3591SOL     OW11671   5.505   2.436   6.636
 3591SOL    HW111672   5.559   2.404   6.558
 3591SOL    HW211673   5.564   2.485   6.699
 3592SOL     OW11674   0.980   0.730   1.872
 3592SOL    HW111675   0.971   0.829   1.864
 3592SOL    HW211676   1.060   0.708   1.928
 3593SOL     OW11677   5.894   3.753   5.799
 3593SOL    HW111678   5.976   3.743   5.742
 3593SOL    HW211679   5.827   3.684   5.772
 3594SOL     OW11680   3.906   5.582   4.922
 3594SOL    HW111681   3.946   5.621   4.839
 3594SOL    HW211682   3.893   5.655   4.990
 3595SOL     OW11683   5.564   5.884   6.449
 3595SOL    HW111684   5.616   5.803   6.423
 3595SOL    HW211685   5.621   5.945   6.503
 3596SOL     OW11686   3.772   1.196   2.760
 3596SOL    HW111687   3.851   1.219   2.703
 3596SOL    HW211688   3.761   1.097   2.762
 3597SOL     OW11689   1.736   3.256   4.757
 3597SOL    HW111690   1.803   3.182   4.745
 3597SOL    HW211691   1.758   3.331   4.694
 3598SOL     OW11692   1.450   5.680   4.863
 3598SOL    HW111693   1.417   5.687   4.957
 3598SOL    HW211694   1.524   5.745   4.848
 3599SOL     OW11695   4.635   1.781   5.686
 3599SOL    HW111696   4.583   1.707   5.729
 3599SOL    HW211697   4.691   1.827   5.755
 3600SOL     OW11698   3.653   3.840   0.800
 3600SOL    HW111699   3.581   3.853   0.868
 3600SOL    HW211700   3.650   3.746   0.766
 3601SOL     OW11701   4.849   0.884   5.153
 3601SOL    HW111702   4.898   0.800   5.130
 3601SOL    HW211703   4.819   0.881   5.249
 3602SOL     OW11704   1.881   2.467   1.506
 3602SOL    HW111705   1.896   2.530   1.582
 3602SOL    HW211706   1.966   2.419   1.485
 3603SOL     OW11707   3.144   0.745   5.939
 3603SOL    HW111708   3.092   0.815   5.988
 3603SOL    HW211709   3.114   0.654   5.969
 3604SOL     OW11710   6.680   0.671   3.452
 3604SOL    HW111711   6.623   0.648   3.373
 3604SOL    HW211712   6.626   0.726   3.516
 3605SOL     OW11713   0.830   5.095   3.272
 3605SOL    HW111714   0.796   5.063   3.361
 3605SOL    HW211715   0.839   5.016   3.210
 3606SOL     OW11716   2.281   6.745   1.785
 3606SOL    HW111717   2.378   6.757   1.763
 3606SOL    HW211718   2.259   6.648   1.790
 3607SOL     OW11719   5.325   2.391   2.604
 3607SOL    HW111720   5.376   2.471   2.572
 3607SOL    HW211721   5.251   2.370   2.539
 3608SOL     OW11722   4.193   2.303   4.266
 3608SOL    HW111723   4.200   2.287   4.364
 3608SOL    HW211724   4.192   2.215   4.218
 3609SOL     OW11725   2.317   0.098   4.556
 3609SOL    HW111726   2.375   0.046   4.618
 3609SOL    HW211727   2.373   0.150   4.493
 3610SOL     OW11728   2.210   0.076   5.551
 3610SOL    HW111729   2.117   0.053   5.522
 3610SOL    HW211730   2.267   0.089   5.470
 3611SOL     OW11731   4.509   4.579   3.693
 3611SOL    HW111732   4.544   4.493   3.729
 3611SOL    HW211733   4.571   4.615   3.623
 3612SOL     OW11734   5.435   1.586   6.723
 3612SOL    HW111735   5.523   1.632   6.717
 3612SOL    HW211736   5.405   1.559   6.631
 3613SOL     OW11737   3.146   5.114   1.196
 3613SOL    HW111738   3.182   5.120   1.289
 3613SOL    HW211739   3.222   5.111   1.131
 3614SOL     OW11740   3.547   4.352   6.483
 3614SOL    HW111741   3.556   4.253   6.490
 3614SOL    HW211742   3.637   4.395   6.487
 3615SOL     OW11743   6.403   2.778   5.398
 3615SOL    HW111744   6.353   2.763   5.484
 3615SOL    HW211745   6.370   2.713   5.329
 3616SOL     OW11746   1.826   1.834   6.952
 3616SOL    HW111747   1.823   1.869   6.858
 3616SOL    HW211748   1.787   1.901   7.015
 3617SOL     OW11749   3.972   0.010   5.684
 3617SOL    HW111750   3.969   6.952   5.740
 3617SOL    HW211751   3.947   0.089   5.740
 3618SOL     OW11752   1.690   4.130   4.575
 3618SOL    HW111753   1.752   4.057   4.603
 3618SOL    HW211754   1.637   4.100   4.496
 3619SOL     OW11755   6.405   2.498   0.992
 3619SOL    HW111756   6.398   2.596   0.973
 3619SOL    HW211757   6.494   2.464   0.962
 3620SOL     OW11758   6.453   6.659   4.770
 3620SOL    HW111759   6.472   6.638   4.866
 3620SOL    HW211760   6.534   6.700   4.729
 3621SOL     OW11761   3.701   2.937   3.888
 3621SOL    HW111762   3.701   2.896   3.979
 3621SOL    HW211763   3.607   2.956   3.859
 3622SOL     OW11764   1.049   6.750   0.374
 3622SOL    HW111765   1.000   6.823   0.326
 3622SOL    HW211766   0.989   6.709   0.443
 3623SOL     OW11767   1.213   5.554   6.117
 3623SOL    HW111768   1.122   5.515   6.128
 3623SOL    HW211769   1.279   5.499   6.168
 3624SOL     OW11770   3.220   0.585   1.987
 3624SOL    HW111771   3.205   0.661   2.050
 3624SOL    HW211772   3.133   0.539   1.968
 3625SOL     OW11773   6.644   2.734   6.635
 3625SOL    HW111774   6.547   2.755   6.643
 3625SOL    HW211775   6.656   2.651   6.581
 3626SOL     OW11776   0.839   2.688   5.400
 3626SOL    HW111777   0.765   2.751   5.375
 3626SOL    HW211778   0.854   2.623   5.325
 3627SOL     OW11779   4.380   2.914   1.057
 3627SOL    HW111780   4.344   2.838   1.003
 3627SOL    HW211781   4.374   2.891   1.155
 3628SOL     OW11782   0.287   1.219   2.413
 3628SOL    HW111783   0.357   1.275   2.457
 3628SOL    HW211784   0.320   1.187   2.324
 3629SOL     OW11785   1.295   1.318   4.374
 3629SOL    HW111786   1.338   1.349   4.459
 3629SOL    HW211787   1.348   1.242   4.336
 3630SOL     OW11788   6.698   2.790   3.367
 3630SOL    HW111789   6.717   2.692   3.372
 3630SOL    HW211790   6.601   2.806   3.385
 3631SOL     OW11791   1.765   6.780   2.524
 3631SOL    HW111792   1.673   6.739   2.526
 3631SOL    HW211793   1.813   6.748   2.442
 3632SOL     OW11794   4.496   3.459   0.748
 3632SOL    HW111795   4.517   3.506   0.834
 3632SOL    HW211796   4.506   3.360   0.761
 3633SOL     OW11797   3.689   2.814   6.242
 3633SOL    HW111798   3.647   2.769   6.321
 3633SOL    HW211799   3.776   2.854   6.269
 3634SOL     OW11800   3.073   5.428   5.866
 3634SOL    HW111801   3.045   5.471   5.779
 3634SOL    HW211802   3.137   5.354   5.847
 3635SOL     OW11803   2.642   1.042   1.643
 3635SOL    HW111804   2.645   1.124   1.586
 3635SOL    HW211805   2.609   1.065   1.735
 3636SOL     OW11806   0.732   5.511   6.996
 3636SOL    HW111807   0.662   5.439   6.995
 3636SOL    HW211808   0.757   5.531   0.065
 3637SOL     OW11809   6.899   2.950   6.794
 3637SOL    HW111810   6.970   2.977   6.859
 3637SOL    HW211811   6.930   2.870   6.742
 3638SOL     OW11812   5.825   4.818   2.254
 3638SOL    HW111813   5.756   4.862   2.197
 3638SOL    HW211814   5.809   4.719   2.256
 3639SOL     OW11815   3.302   4.084   4.288
 3639SOL    HW111816   3.313   4.127   4.198
 3639SOL    HW211817   3.374   4.016   4.300
 3640SOL     OW11818   5.418   2.227   0.457
 3640SOL    HW111819   5.325   2.261   0.473
 3640SOL    HW211820   5.481   2.305   0.448
 3641SOL     OW11821   6.747   4.348   1.810
 3641SOL    HW111822   6.734   4.434   1.858
 3641SOL    HW211823   6.837   4.346   1.766
 3642SOL     OW11824   6.026   2.499   6.698
 3642SOL    HW111825   5.972   2.522   6.618
 3642SOL    HW211826   6.123   2.504   6.675
 3643SOL     OW11827   3.765   5.450   5.539
 3643SOL    HW111828   3.791   5.419   5.448
 3643SOL    HW211829   3.722   5.540   5.532
 3644SOL     OW11830   3.344   0.837   1.778
 3644SOL    HW111831   3.319   0.807   1.686
 3644SOL    HW211832   3.295   0.782   1.846
 3645SOL     OW11833   1.692   4.015   4.184
 3645SOL    HW111834   1.782   4.016   4.228
 3645SOL    HW211835   1.626   3.972   4.246
 3646SOL     OW11836   2.433   4.631   5.131
 3646SOL    HW111837   2.523   4.641   5.174
 3646SOL    HW211838   2.412   4.534   5.119
 3647SOL     OW11839   2.625   0.438   0.423
 3647SOL    HW111840   2.585   0.489   0.348
 3647SOL    HW211841   2.725   0.434   0.412
 3648SOL     OW11842   4.485   5.177   3.740
 3648SOL    HW111843   4.517   5.217   3.654
 3648SOL    HW211844   4.541   5.211   3.816
 3649SOL     OW11845   5.909   2.981   0.449
 3649SOL    HW111846   5.992   3.034   0.432
 3649SOL    HW211847   5.868   2.953   0.362
 3650SOL     OW11848   5.557   5.292   0.130
 3650SOL    HW111849   5.472   5.272   0.177
 3650SOL    HW211850   5.590   5.383   0.156
 3651SOL     OW11851   1.309   2.472   5.898
 3651SOL    HW111852   1.357   2.512   5.820
 3651SOL    HW211853   1.257   2.392   5.868
 3652SOL     OW11854   5.108   1.619   2.057
 3652SOL    HW111855   5.102   1.714   2.088
 3652SOL    HW211856   5.121   1.559   2.136
 3653SOL     OW11857   0.319   1.345   1.314
 3653SOL    HW111858   0.359   1.326   1.404
 3653SOL    HW211859   0.265   1.266   1.284
 3654SOL     OW11860   6.258   0.032   0.607
 3654SOL    HW111861   6.188   0.056   0.540
 3654SOL    HW211862   6.343   0.080   0.586
 3655SOL     OW11863   1.841   2.219   4.580
 3655SOL    HW111864   1.784   2.244   4.658
 3655SOL    HW211865   1.862   2.121   4.585
 3656SOL     OW11866   0.100   5.949   1.103
 3656SOL    HW111867   0.168   5.918   1.037
 3656SOL    HW211868   0.088   5.880   1.174
 3657SOL     OW11869   4.820   5.830   4.755
 3657SOL    HW111870   4.811   5.795   4.662
 3657SOL    HW211871   4.895   5.783   4.802
 3658SOL     OW11872   1.397   5.333   6.188
 3658SOL    HW111873   1.470   5.394   6.160
 3658SOL    HW211874   1.436   5.246   6.218
 3659SOL     OW11875   6.708   1.732   6.301
 3659SOL    HW111876   6.704   1.677   6.218
 3659SOL    HW211877   6.777   1.695   6.362
 3660SOL     OW11878   5.486   5.209   5.989
 3660SOL    HW111879   5.421   5.157   5.934
 3660SOL    HW211880   5.436   5.255   6.063
 3661SOL     OW11881   0.202   1.514   4.579
 3661SOL    HW111882   0.127   1.565   4.537
 3661SOL    HW211883   0.167   1.461   4.657
 3662SOL     OW11884   3.330   0.895   5.362
 3662SOL    HW111885   3.395   0.824   5.338
 3662SOL    HW211886   3.271   0.915   5.284
 3663SOL     OW11887   2.061   2.742   6.371
 3663SOL    HW111888   2.083   2.839   6.382
 3663SOL    HW211889   2.079   2.714   6.277
 3664SOL     OW11890   3.787   1.681   2.200
 3664SOL    HW111891   3.833   1.594   2.182
 3664SOL    HW211892   3.704   1.686   2.144
 3665SOL     OW11893   1.314   6.089   5.681
 3665SOL    HW111894   1.299   6.100   5.582
 3665SOL    HW211895   1.403   6.046   5.696
 3666SOL     OW11896   2.478   1.849   5.010
 3666SOL    HW111897   2.571   1.815   5.027
 3666SOL    HW211898   2.482   1.947   4.991
 3667SOL     OW11899   2.500   0.594   2.811
 3667SOL    HW111900   2.445   0.648   2.874
 3667SOL    HW211901   2.591   0.634   2.803
 3668SOL     OW11902   0.508   0.781   1.462
 3668SOL    HW111903   0.483   0.803   1.368
 3668SOL    HW211904   0.606   0.766   1.469
 3669SOL     OW11905   6.895   1.124   3.903
 3669SOL    HW111906   6.899   1.027   3.879
 3669SOL    HW211907   6.973   1.172   3.861
 3670SOL     OW11908   3.417   5.480   1.910
 3670SOL    HW111909   3.429   5.385   1.883
 3670SOL    HW211910   3.411   5.486   2.009
 3671SOL     OW11911   0.333   0.264   3.244
 3671SOL    HW111912   0.371   0.321   3.317
 3671SOL    HW211913   0.236   0.249   3.261
 3672SOL     OW11914   4.420   0.024   2.681
 3672SOL    HW111915   4.483   7.018   2.753
 3672SOL    HW211916   4.447   7.008   2.594
 3673SOL     OW11917   4.827   6.220   1.417
 3673SOL    HW111918   4.779   6.273   1.348
 3673SOL    HW211919   4.892   6.278   1.465
 3674SOL     OW11920   1.619   5.219   5.950
 3674SOL    HW111921   1.559   5.174   5.884
 3674SOL    HW211922   1.593   5.193   6.043
 3675SOL     OW11923   0.609   0.804   3.657
 3675SOL    HW111924   0.566   0.826   3.570
 3675SOL    HW211925   0.689   0.862   3.670
 3676SOL     OW11926   4.189   1.761   3.536
 3676SOL    HW111927   4.173   1.662   3.536
 3676SOL    HW211928   4.181   1.796   3.442
 3677SOL     OW11929   1.813   0.314   4.030
 3677SOL    HW111930   1.717   0.311   4.056
 3677SOL    HW211931   1.843   0.409   4.020
 3678SOL     OW11932   1.331   0.580   3.822
 3678SOL    HW111933   1.339   0.679   3.812
 3678SOL    HW211934   1.241   0.550   3.791
 3679SOL     OW11935   4.967   0.969   2.276
 3679SOL    HW111936   5.029   0.968   2.198
 3679SOL    HW211937   4.914   1.054   2.275
 3680SOL     OW11938   4.288   1.165   3.981
 3680SOL    HW111939   4.221   1.233   4.014
 3680SOL    HW211940   4.337   1.127   4.059
 3681SOL     OW11941   1.164   6.624   4.734
 3681SOL    HW111942   1.181   6.715   4.697
 3681SOL    HW211943   1.120   6.568   4.664
 3682SOL     OW11944   5.562   2.271   1.326
 3682SOL    HW111945   5.522   2.263   1.417
 3682SOL    HW211946   5.568   2.368   1.301
 3683SOL     OW11947   6.379   0.581   5.831
 3683SOL    HW111948   6.390   0.530   5.746
 3683SOL    HW211949   6.285   0.570   5.864
 3684SOL     OW11950   2.203   6.869   5.178
 3684SOL    HW111951   2.142   6.943   5.150
 3684SOL    HW211952   2.298   6.893   5.155
 3685SOL     OW11953   2.190   6.326   5.544
 3685SOL    HW111954   2.231   6.417   5.549
 3685SOL    HW211955   2.152   6.301   5.633
 3686SOL     OW11956   0.726   4.636   3.936
 3686SOL    HW111957   0.683   4.549   3.913
 3686SOL    HW211958   0.775   4.627   4.023
 3687SOL     OW11959   5.525   5.824   3.850
 3687SOL    HW111960   5.552   5.920   3.855
 3687SOL    HW211961   5.452   5.813   3.782
 3688SOL     OW11962   5.744   3.068   0.654
 3688SOL    HW111963   5.827   3.053   0.601
 3688SOL    HW211964   5.724   2.986   0.709
 3689SOL     OW11965   1.912   0.157   5.973
 3689SOL    HW111966   1.984   0.162   5.904
 3689SOL    HW211967   1.952   0.135   6.062
 3690SOL     OW11968   4.775   4.612   1.039
 3690SOL    HW111969   4.711   4.688   1.029
 3690SOL    HW211970   4.784   4.589   1.136
 3691SOL     OW11971   2.631   2.334   0.242
 3691SOL    HW111972   2.686   2.381   0.311
 3691SOL    HW211973   2.628   2.237   0.263
 3692SOL     OW11974   0.667   3.679   6.140
 3692SOL    HW111975   0.720   3.707   6.220
 3692SOL    HW211976   0.628   3.588   6.155
 3693SOL     OW11977   0.428   1.588   2.618
 3693SOL    HW111978   0.346   1.587   2.561
 3693SOL    HW211979   0.509   1.589   2.560
 3694SOL     OW11980   6.935   0.016   1.462
 3694SOL    HW111981   6.982   0.099   1.432
 3694SOL    HW211982   7.002   6.967   1.471
 3695SOL     OW11983   6.569   2.720   2.251
 3695SOL    HW111984   6.633   2.698   2.177
 3695SOL    HW211985   6.620   2.733   2.336
 3696SOL     OW11986   4.634   0.827   4.414
 3696SOL    HW111987   4.674   0.801   4.326
 3696SOL    HW211988   4.656   0.757   4.482
 3697SOL     OW11989   6.952   6.331   3.549
 3697SOL    HW111990   6.919   6.352   3.641
 3697SOL    HW211991   0.027   6.343   3.546
 3698SOL     OW11992   2.233   0.463   3.247
 3698SOL    HW111993   2.146   0.511   3.242
 3698SOL    HW211994   2.245   0.407   3.165
 3699SOL     OW11995   2.546   2.493   3.508
 3699SOL    HW111996   2.558   2.506   3.410
 3699SOL    HW211997   2.497   2.407   3.525
 3700SOL     OW11998   0.676   4.886   4.822
 3700SOL    HW111999   0.689   4.831   4.904
 3700SOL    HW212000   0.765   4.910   4.783
 3701SOL     OW12001   1.780   0.564   2.650
 3701SOL    HW112002   1.802   0.532   2.558
 3701SOL    HW212003   1.684   0.592   2.653
 3702SOL     OW12004   5.207   4.590   4.017
 3702SOL    HW112005   5.237   4.497   3.994
 3702SOL    HW212006   5.282   4.654   3.999
 3703SOL     OW12007   1.449   1.969   3.859
 3703SOL    HW112008   1.391   1.957   3.778
 3703SOL    HW212009   1.457   1.881   3.906
 3704SOL     OW12010   0.121   1.926   0.553
 3704SOL    HW112011   0.199   1.869   0.576
 3704SOL    HW212012   0.040   1.893   0.601
 3705SOL     OW12013   5.050   4.857   3.168
 3705SOL    HW112014   5.002   4.936   3.130
 3705SOL    HW212015   5.056   4.784   3.100
 3706SOL     OW12016   0.538   3.778   0.279
 3706SOL    HW112017   0.608   3.800   0.211
 3706SOL    HW212018   0.530   3.678   0.288
 3707SOL     OW12019   1.308   5.110   3.747
 3707SOL    HW112020   1.289   5.094   3.650
 3707SOL    HW212021   1.323   5.022   3.792
 3708SOL     OW12022   3.384   0.181   0.457
 3708SOL    HW112023   3.404   0.087   0.429
 3708SOL    HW212024   3.315   0.219   0.395
 3709SOL     OW12025   1.770   0.601   2.925
 3709SOL    HW112026   1.861   0.627   2.958
 3709SOL    HW212027   1.777   0.569   2.830
 3710SOL     OW12028   6.759   5.050   5.646
 3710SOL    HW112029   6.809   5.045   5.560
 3710SOL    HW212030   6.816   5.014   5.720
 3711SOL     OW12031   1.510   5.511   4.523
 3711SOL    HW112032   1.458   5.443   4.471
 3711SOL    HW212033   1.519   5.594   4.468
 3712SOL     OW12034   1.810   5.227   5.035
 3712SOL    HW112035   1.859   5.246   4.950
 3712SOL    HW212036   1.754   5.307   5.059
 3713SOL     OW12037   6.244   6.365   4.518
 3713SOL    HW112038   6.216   6.424   4.442
 3713SOL    HW212039   6.261   6.272   4.484
 3714SOL     OW12040   0.690   4.562   0.207
 3714SOL    HW112041   0.700   4.471   0.250
 3714SOL    HW212042   0.719   4.632   0.272
 3715SOL     OW12043   6.386   5.376   3.725
 3715SOL    HW112044   6.453   5.381   3.799
 3715SOL    HW212045   6.331   5.293   3.736
 3716SOL     OW12046   5.231   5.438   3.956
 3716SOL    HW112047   5.185   5.473   3.873
 3716SOL    HW212048   5.271   5.349   3.937
 3717SOL     OW12049   4.505   1.133   1.245
 3717SOL    HW112050   4.421   1.150   1.297
 3717SOL    HW212051   4.582   1.179   1.289
 3718SOL     OW12052   7.005   6.575   6.069
 3718SOL    HW112053   0.071   6.612   6.088
 3718SOL    HW212054   6.938   6.649   6.072
 3719SOL     OW12055   3.720   4.168   6.315
 3719SOL    HW112056   3.720   4.087   6.256
 3719SOL    HW212057   3.728   4.250   6.259
 3720SOL     OW12058   0.142   2.453   1.234
 3720SOL    HW112059   0.213   2.498   1.180
 3720SOL    HW212060   0.123   2.362   1.195
 3721SOL     OW12061   6.218   5.013   6.081
 3721SOL    HW112062   6.295   5.042   6.025
 3721SOL    HW212063   6.195   5.085   6.146
 3722SOL     OW12064   4.487   6.648   3.512
 3722SOL    HW112065   4.420   6.672   3.441
 3722SOL    HW212066   4.492   6.549   3.521
 3723SOL     OW12067   4.545   4.575   0.118
 3723SOL    HW112068   4.549   4.586   0.217
 3723SOL    HW212069   4.475   4.635   0.081
 3724SOL     OW12070   1.464   4.853   5.202
 3724SOL    HW112071   1.400   4.800   5.147
 3724SOL    HW212072   1.427   4.944   5.218
 3725SOL     OW12073   1.167   5.951   6.272
 3725SOL    HW112074   1.227   5.878   6.303
 3725SOL    HW212075   1.203   6.039   6.302
 3726SOL     OW12076   6.122   3.664   3.745
 3726SOL    HW112077   6.159   3.673   3.652
 3726SOL    HW212078   6.117   3.755   3.787
 3727SOL     OW12079   6.898   3.383   4.419
 3727SOL    HW112080   6.852   3.439   4.350
 3727SOL    HW212081   6.984   3.348   4.382
 3728SOL     OW12082   2.906   3.347   0.353
 3728SOL    HW112083   2.926   3.374   0.448
 3728SOL    HW212084   2.971   3.392   0.292
 3729SOL     OW12085   0.650   7.001   5.780
 3729SOL    HW112086   0.719   0.018   5.720
 3729SOL    HW212087   0.617   6.917   5.739
 3730SOL     OW12088   3.482   5.673   5.171
 3730SOL    HW112089   3.574   5.697   5.203
 3730SOL    HW212090   3.483   5.579   5.137
 3731SOL     OW12091   0.370   2.508   6.639
 3731SOL    HW112092   0.453   2.520   6.693
 3731SOL    HW212093   0.386   2.438   6.569
 3732SOL     OW12094   3.051   2.156   0.021
 3732SOL    HW112095   3.002   2.116   6.968
 3732SOL    HW212096   3.113   2.088   0.060
 3733SOL     OW12097   1.803   1.605   3.778
 3733SOL    HW112098   1.821   1.646   3.867
 3733SOL    HW212099   1.887   1.566   3.742
 3734SOL     OW12100   4.010   6.755   0.685
 3734SOL    HW112101   4.043   6.784   0.775
 3734SOL    HW212102   3.995   6.656   0.685
 3735SOL     OW12103   4.494   6.885   2.337
 3735SOL    HW112104   4.487   6.817   2.411
 3735SOL    HW212105   4.402   6.911   2.307
 3736SOL     OW12106   6.888   1.272   1.402
 3736SOL    HW112107   6.914   1.176   1.390
 3736SOL    HW212108   6.961   1.330   1.366
 3737SOL     OW12109   0.209   2.722   3.284
 3737SOL    HW112110   0.183   2.713   3.381
 3737SOL    HW212111   0.173   2.808   3.248
 3738SOL     OW12112   0.040   6.651   0.947
 3738SOL    HW112113   0.033   6.703   1.032
 3738SOL    HW212114   0.127   6.673   0.902
 3739SOL     OW12115   2.954   4.370   1.025
 3739SOL    HW112116   2.886   4.342   1.093
 3739SOL    HW212117   2.924   4.341   0.934
 3740SOL     OW12118   5.209   5.217   6.793
 3740SOL    HW112119   5.122   5.265   6.782
 3740SOL    HW212120   5.284   5.275   6.764
 3741SOL     OW12121   5.243   3.344   6.831
 3741SOL    HW112122   5.186   3.262   6.822
 3741SOL    HW212123   5.186   3.425   6.817
 3742SOL     OW12124   3.593   5.469   0.139
 3742SOL    HW112125   3.571   5.384   0.090
 3742SOL    HW212126   3.550   5.466   0.229
 3743SOL     OW12127   4.287   3.314   1.760
 3743SOL    HW112128   4.305   3.390   1.823
 3743SOL    HW212129   4.191   3.290   1.763
 3744SOL     OW12130   0.588   6.878   2.357
 3744SOL    HW112131   0.556   6.783   2.354
 3744SOL    HW212132   0.633   6.895   2.445
 3745SOL     OW12133   4.860   4.042   2.281
 3745SOL    HW112134   4.799   4.107   2.236
 3745SOL    HW212135   4.862   3.957   2.228
 3746SOL     OW12136   6.474   0.465   4.697
 3746SOL    HW112137   6.524   0.513   4.625
 3746SOL    HW212138   6.432   0.382   4.660
 3747SOL     OW12139   3.969   6.718   5.431
 3747SOL    HW112140   3.888   6.775   5.438
 3747SOL    HW212141   3.948   6.635   5.379
 3748SOL     OW12142   5.362   1.782   2.819
 3748SOL    HW112143   5.316   1.828   2.742
 3748SOL    HW212144   5.296   1.725   2.868
 3749SOL     OW12145   0.293   6.351   3.077
 3749SOL    HW112146   0.338   6.441   3.080
 3749SOL    HW212147   0.217   6.355   3.012
 3750SOL     OW12148   5.501   4.014   0.498
 3750SOL    HW112149   5.527   3.990   0.404
 3750SOL    HW212150   5.582   4.049   0.546
 3751SOL     OW12151   2.261   3.978   1.636
 3751SOL    HW112152   2.254   3.909   1.708
 3751SOL    HW212153   2.204   4.057   1.659
 3752SOL     OW12154   1.213   6.494   0.299
 3752SOL    HW112155   1.174   6.570   0.351
 3752SOL    HW212156   1.229   6.524   0.205
 3753SOL     OW12157   6.979   6.457   4.540
 3753SOL    HW112158   6.934   6.431   4.455
 3753SOL    HW212159   6.957   6.391   4.612
 3754SOL     OW12160   6.738   5.839   1.833
 3754SOL    HW112161   6.742   5.890   1.746
 3754SOL    HW212162   6.653   5.787   1.837
 3755SOL     OW12163   5.204   3.913   3.592
 3755SOL    HW112164   5.114   3.947   3.566
 3755SOL    HW212165   5.227   3.945   3.684
 3756SOL     OW12166   2.430   0.933   6.630
 3756SOL    HW112167   2.492   1.002   6.666
 3756SOL    HW212168   2.336   0.958   6.653
 3757SOL     OW12169   2.817   5.777   6.389
 3757SOL    HW112170   2.897   5.719   6.404
 3757SOL    HW212171   2.734   5.726   6.410
 3758SOL     OW12172   1.979   0.959   4.258
 3758SOL    HW112173   2.044   0.883   4.253
 3758SOL    HW212174   1.947   0.969   4.352
 3759SOL     OW12175   5.030   4.930   5.904
 3759SOL    HW112176   5.043   4.877   5.988
 3759SOL    HW212177   5.005   4.868   5.829
 3760SOL     OW12178   1.618   2.485   4.957
 3760SOL    HW112179   1.592   2.496   4.861
 3760SOL    HW212180   1.645   2.574   4.995
 3761SOL     OW12181   0.481   6.422   4.368
 3761SOL    HW112182   0.526   6.479   4.436
 3761SOL    HW212183   0.458   6.476   4.288
 3762SOL     OW12184   0.512   3.997   0.435
 3762SOL    HW112185   0.607   3.988   0.465
 3762SOL    HW212186   0.492   3.928   0.366
 3763SOL     OW12187   6.834   2.892   6.449
 3763SOL    HW112188   6.760   2.939   6.496
 3763SOL    HW212189   6.816   2.891   6.351
 3764SOL     OW12190   2.628   6.454   3.515
 3764SOL    HW112191   2.639   6.395   3.596
 3764SOL    HW212192   2.539   6.499   3.519
 3765SOL     OW12193   5.742   0.588   3.510
 3765SOL    HW112194   5.656   0.540   3.525
 3765SOL    HW212195   5.746   0.668   3.570
 3766SOL     OW12196   0.595   0.548   4.345
 3766SOL    HW112197   0.614   0.573   4.250
 3766SOL    HW212198   0.497   0.559   4.363
 3767SOL     OW12199   1.846   5.126   0.454
 3767SOL    HW112200   1.875   5.204   0.398
 3767SOL    HW212201   1.893   5.129   0.542
 3768SOL     OW12202   4.805   6.444   0.410
 3768SOL    HW112203   4.793   6.485   0.501
 3768SOL    HW212204   4.877   6.492   0.361
 3769SOL     OW12205   4.633   6.549   5.743
 3769SOL    HW112206   4.611   6.595   5.829
 3769SOL    HW212207   4.726   6.573   5.715
 3770SOL     OW12208   2.269   1.675   6.793
 3770SOL    HW112209   2.185   1.650   6.745
 3770SOL    HW212210   2.248   1.688   6.890
 3771SOL     OW12211   5.772   1.999   6.110
 3771SOL    HW112212   5.794   2.068   6.041
 3771SOL    HW212213   5.721   1.925   6.067
 3772SOL     OW12214   5.343   0.578   1.737
 3772SOL    HW112215   5.300   0.669   1.735
 3772SOL    HW212216   5.404   0.569   1.658
 3773SOL     OW12217   6.555   2.429   6.292
 3773SOL    HW112218   6.553   2.441   6.391
 3773SOL    HW212219   6.611   2.501   6.250
 3774SOL     OW12220   0.056   0.718   0.353
 3774SOL    HW112221   0.142   0.756   0.386
 3774SOL    HW212222   0.047   0.736   0.255
 3775SOL     OW12223   6.240   3.553   3.525
 3775SOL    HW112224   6.298   3.535   3.445
 3775SOL    HW212225   6.156   3.499   3.517
 3776SOL     OW12226   2.386   3.219   1.235
 3776SOL    HW112227   2.472   3.239   1.188
 3776SOL    HW212228   2.389   3.256   1.327
 3777SOL     OW12229   2.479   4.627   4.264
 3777SOL    HW112230   2.501   4.599   4.358
 3777SOL    HW212231   2.380   4.630   4.252
 3778SOL     OW12232   2.893   5.694   1.860
 3778SOL    HW112233   2.972   5.754   1.873
 3778SOL    HW212234   2.895   5.654   1.768
 3779SOL     OW12235   2.639   5.012   6.580
 3779SOL    HW112236   2.727   5.035   6.621
 3779SOL    HW212237   2.585   4.957   6.645
 3780SOL     OW12238   3.266   6.315   5.042
 3780SOL    HW112239   3.201   6.246   5.012
 3780SOL    HW212240   3.302   6.364   4.963
 3781SOL     OW12241   3.149   6.441   4.341
 3781SOL    HW112242   3.095   6.518   4.307
 3781SOL    HW212243   3.135   6.362   4.281
 3782SOL     OW12244   2.345   1.396   3.838
 3782SOL    HW112245   2.391   1.328   3.894
 3782SOL    HW212246   2.253   1.412   3.874
 3783SOL     OW12247   5.617   6.058   4.774
 3783SOL    HW112248   5.562   6.068   4.857
 3783SOL    HW212249   5.652   6.148   4.746
 3784SOL     OW12250   5.592   1.427   2.807
 3784SOL    HW112251   5.552   1.391   2.891
 3784SOL    HW212252   5.682   1.467   2.827
 3785SOL     OW12253   2.623   2.361   1.479
 3785SOL    HW112254   2.585   2.368   1.571
 3785SOL    HW212255   2.600   2.271   1.440
 3786SOL     OW12256   3.361   5.136   2.720
 3786SOL    HW112257   3.356   5.172   2.813
 3786SOL    HW212258   3.341   5.209   2.654
 3787SOL     OW12259   4.151   1.497   3.517
 3787SOL    HW112260   4.062   1.456   3.497
 3787SOL    HW212261   4.223   1.430   3.500
 3788SOL     OW12262   5.700   2.964   2.646
 3788SOL    HW112263   5.766   2.972   2.572
 3788SOL    HW212264   5.693   2.868   2.674
 3789SOL     OW12265   2.024   5.263   3.956
 3789SOL    HW112266   2.018   5.267   4.056
 3789SOL    HW212267   2.073   5.343   3.922
 3790SOL     OW12268   2.162   3.348   4.329
 3790SOL    HW112269   2.084   3.293   4.359
 3790SOL    HW212270   2.162   3.436   4.378
 3791SOL     OW12271   4.737   6.711   1.329
 3791SOL    HW112272   4.745   6.805   1.363
 3791SOL    HW212273   4.641   6.693   1.305
 3792SOL     OW12274   6.417   6.498   5.282
 3792SOL    HW112275   6.346   6.433   5.256
 3792SOL    HW212276   6.448   6.478   5.375
 3793SOL     OW12277   2.005   1.233   2.947
 3793SOL    HW112278   2.096   1.239   2.987
 3793SOL    HW212279   1.936   1.248   3.017
 3794SOL     OW12280   4.138   5.802   2.126
 3794SOL    HW112281   4.234   5.788   2.152
 3794SOL    HW212282   4.129   5.792   2.027
 3795SOL     OW12283   5.342   0.201   6.825
 3795SOL    HW112284   5.336   0.128   6.757
 3795SOL    HW212285   5.406   0.271   6.793
 3796SOL     OW12286   1.511   2.217   1.719
 3796SOL    HW112287   1.445   2.144   1.738
 3796SOL    HW212288   1.557   2.242   1.804
 3797SOL     OW12289   1.066   4.858   2.875
 3797SOL    HW112290   1.051   4.803   2.957
 3797SOL    HW212291   0.977   4.886   2.837
 3798SOL     OW12292   2.355   5.218   2.641
 3798SOL    HW112293   2.416   5.297   2.639
 3798SOL    HW212294   2.267   5.244   2.602
 3799SOL     OW12295   1.805   1.151   5.620
 3799SOL    HW112296   1.879   1.110   5.674
 3799SOL    HW212297   1.733   1.183   5.681
 3800SOL     OW12298   4.518   2.375   4.635
 3800SOL    HW112299   4.553   2.281   4.635
 3800SOL    HW212300   4.464   2.389   4.718
 3801SOL     OW12301   0.031   6.098   6.008
 3801SOL    HW112302   0.124   6.068   6.029
 3801SOL    HW212303   6.992   6.022   6.021
 3802SOL     OW12304   1.135   1.743   5.438
 3802SOL    HW112305   1.231   1.739   5.466
 3802SOL    HW212306   1.127   1.794   5.352
 3803SOL     OW12307   3.665   0.690   1.220
 3803SOL    HW112308   3.717   0.673   1.304
 3803SOL    HW212309   3.686   0.782   1.186
 3804SOL     OW12310   4.702   1.952   4.390
 3804SOL    HW112311   4.652   1.907   4.464
 3804SOL    HW212312   4.639   2.011   4.339
 3805SOL     OW12313   2.856   4.389   1.621
 3805SOL    HW112314   2.894   4.411   1.711
 3805SOL    HW212315   2.818   4.297   1.623
 3806SOL     OW12316   2.719   2.060   0.236
 3806SOL    HW112317   2.729   1.976   0.289
 3806SOL    HW212318   2.809   2.100   0.218
 3807SOL     OW12319   1.398   6.674   3.751
 3807SOL    HW112320   1.391   6.629   3.662
 3807SOL    HW212321   1.434   6.767   3.738
 3808SOL     OW12322   3.879   6.737   1.543
 3808SOL    HW112323   3.783   6.710   1.534
 3808SOL    HW212324   3.893   6.825   1.496
 3809SOL     OW12325   5.510   0.894   6.970
 3809SOL    HW112326   5.582   0.860   0.006
 3809SOL    HW212327   5.422   0.856   6.998
 3810SOL     OW12328   3.010   3.023   5.358
 3810SOL    HW112329   2.914   2.997   5.372
 3810SOL    HW212330   3.055   2.955   5.301
 3811SOL     OW12331   0.230   4.958   5.008
 3811SOL    HW112332   0.262   4.890   4.943
 3811SOL    HW212333   0.243   5.050   4.971
 3812SOL     OW12334   6.000   1.528   5.539
 3812SOL    HW112335   5.931   1.473   5.492
 3812SOL    HW212336   5.954   1.596   5.596
 3813SOL     OW12337   3.137   5.433   6.973
 3813SOL    HW112338   3.044   5.407   6.950
 3813SOL    HW212339   3.200   5.359   6.950
 3814SOL     OW12340   6.892   6.228   2.132
 3814SOL    HW112341   6.827   6.304   2.140
 3814SOL    HW212342   6.974   6.259   2.085
 3815SOL     OW12343   5.259   1.952   1.670
 3815SOL    HW112344   5.228   2.023   1.607
 3815SOL    HW212345   5.194   1.943   1.746
 3816SOL     OW12346   0.591   6.968   1.524
 3816SOL    HW112347   0.552   6.884   1.559
 3816SOL    HW212348   0.639   7.016   1.597
 3817SOL     OW12349   4.814   2.005   4.832
 3817SOL    HW112350   4.838   1.909   4.814
 3817SOL    HW212351   4.823   2.023   4.930
 3818SOL     OW12352   4.993   6.393   2.313
 3818SOL    HW112353   4.920   6.372   2.378
 3818SOL    HW212354   4.962   6.369   2.221
 3819SOL     OW12355   5.041   5.281   0.205
 3819SOL    HW112356   5.131   5.325   0.205
 3819SOL    HW212357   5.051   5.183   0.218
 3820SOL     OW12358   5.114   6.123   3.866
 3820SOL    HW112359   5.021   6.152   3.845
 3820SOL    HW212360   5.112   6.032   3.907
 3821SOL     OW12361   1.482   3.778   1.546
 3821SOL    HW112362   1.390   3.792   1.584
 3821SOL    HW212363   1.535   3.721   1.609
 3822SOL     OW12364   2.428   5.683   1.213
 3822SOL    HW112365   2.395   5.635   1.131
 3822SOL    HW212366   2.518   5.722   1.195
 3823SOL     OW12367   3.342   2.698   5.966
 3823SOL    HW112368   3.403   2.619   5.971
 3823SOL    HW212369   3.363   2.750   5.884
 3824SOL     OW12370   6.316   2.095   5.651
 3824SOL    HW112371   6.401   2.065   5.693
 3824SOL    HW212372   6.335   2.141   5.564
 3825SOL     OW12373   0.073   6.602   6.366
 3825SOL    HW112374   0.132   6.534   6.410
 3825SOL    HW212375   0.006   6.554   6.308
 3826SOL     OW12376   0.224   3.184   1.553
 3826SOL    HW112377   0.127   3.161   1.544
 3826SOL    HW212378   0.242   3.272   1.510
 3827SOL     OW12379   4.056   3.250   0.871
 3827SOL    HW112380   4.093   3.341   0.887
 3827SOL    HW212381   4.126   3.181   0.891
 3828SOL     OW12382   5.081   1.891   2.786
 3828SOL    HW112383   5.077   1.807   2.841
 3828SOL    HW212384   5.154   1.950   2.820
 3829SOL     OW12385   2.743   4.721   4.232
 3829SOL    HW112386   2.655   4.675   4.227
 3829SOL    HW212387   2.817   4.654   4.223
 3830SOL     OW12388   2.590   0.702   5.147
 3830SOL    HW112389   2.494   0.677   5.161
 3830SOL    HW212390   2.644   0.669   5.224
 3831SOL     OW12391   3.878   1.683   2.491
 3831SOL    HW112392   3.879   1.780   2.511
 3831SOL    HW212393   3.822   1.665   2.410
 3832SOL     OW12394   6.789   0.840   2.121
 3832SOL    HW112395   6.858   0.856   2.191
 3832SOL    HW212396   6.827   0.859   2.031
 3833SOL     OW12397   0.608   4.846   6.918
 3833SOL    HW112398   0.598   4.868   7.015
 3833SOL    HW212399   0.566   4.756   6.900
 3834SOL     OW12400   3.177   1.780   0.589
 3834SOL    HW112401   3.195   1.877   0.573
 3834SOL    HW212402   3.194   1.759   0.685
 3835SOL     OW12403   3.556   5.443   5.328
 3835SOL    HW112404   3.577   5.534   5.365
 3835SOL    HW212405   3.565   5.374   5.400
 3836SOL     OW12406   1.360   3.997   6.081
 3836SOL    HW112407   1.357   3.917   6.141
 3836SOL    HW212408   1.453   4.031   6.075
 3837SOL     OW12409   4.077   3.681   0.801
 3837SOL    HW112410   4.176   3.684   0.784
 3837SOL    HW212411   4.057   3.605   0.862
 3838SOL     OW12412   6.790   2.460   4.889
 3838SOL    HW112413   6.725   2.410   4.831
 3838SOL    HW212414   6.743   2.493   4.970
 3839SOL     OW12415   5.940   5.894   5.542
 3839SOL    HW112416   5.903   5.869   5.452
 3839SOL    HW212417   6.000   5.974   5.532
 3840SOL     OW12418   1.852   1.004   4.019
 3840SOL    HW112419   1.913   0.958   3.954
 3840SOL    HW212420   1.881   0.982   4.112
 3841SOL     OW12421   0.698   3.658   5.591
 3841SOL    HW112422   0.640   3.586   5.631
 3841SOL    HW212423   0.647   3.744   5.591
 3842SOL     OW12424   0.606   5.050   6.745
 3842SOL    HW112425   0.697   5.066   6.707
 3842SOL    HW212426   0.606   4.967   6.800
 3843SOL     OW12427   6.055   3.042   0.889
 3843SOL    HW112428   6.070   2.945   0.871
 3843SOL    HW212429   6.128   3.077   0.948
 3844SOL     OW12430   1.529   4.860   6.365
 3844SOL    HW112431   1.629   4.860   6.355
 3844SOL    HW212432   1.493   4.775   6.327
 3845SOL     OW12433   3.289   3.972   3.245
 3845SOL    HW112434   3.368   3.917   3.274
 3845SOL    HW212435   3.275   3.961   3.147
 3846SOL     OW12436   0.167   4.634   5.008
 3846SOL    HW112437   0.177   4.662   4.912
 3846SOL    HW212438   0.113   4.550   5.013
 3847SOL     OW12439   0.698   0.004   6.837
 3847SOL    HW112440   0.715   6.956   6.904
 3847SOL    HW212441   0.606   0.041   6.850
 3848SOL     OW12442   2.333   5.013   1.481
 3848SOL    HW112443   2.234   5.024   1.493
 3848SOL    HW212444   2.377   5.102   1.488
 3849SOL     OW12445   1.033   1.991   5.775
 3849SOL    HW112446   0.969   2.023   5.845
 3849SOL    HW212447   1.000   2.017   5.685
 3850SOL     OW12448   3.370   4.049   1.729
 3850SOL    HW112449   3.290   4.096   1.690
 3850SOL    HW212450   3.453   4.088   1.690
 3851SOL     OW12451   2.260   2.785   2.969
 3851SOL    HW112452   2.260   2.863   3.031
 3851SOL    HW212453   2.342   2.730   2.985
 3852SOL     OW12454   3.727   0.976   4.488
 3852SOL    HW112455   3.763   0.979   4.581
 3852SOL    HW212456   3.777   1.042   4.431
 3853SOL     OW12457   0.926   3.581   1.935
 3853SOL    HW112458   0.904   3.523   1.857
 3853SOL    HW212459   0.998   3.645   1.910
 3854SOL     OW12460   1.504   3.409   4.500
 3854SOL    HW112461   1.466   3.317   4.504
 3854SOL    HW212462   1.509   3.447   4.592
 3855SOL     OW12463   6.543   2.987   5.712
 3855SOL    HW112464   6.485   3.001   5.793
 3855SOL    HW212465   6.639   2.999   5.738
 3856SOL     OW12466   0.918   6.463   6.222
 3856SOL    HW112467   0.859   6.414   6.158
 3856SOL    HW212468   0.878   6.552   6.243
 3857SOL     OW12469   0.415   6.539   5.256
 3857SOL    HW112470   0.349   6.471   5.289
 3857SOL    HW212471   0.372   6.597   5.188
 3858SOL     OW12472   2.550   5.840   0.138
 3858SOL    HW112473   2.532   5.802   0.047
 3858SOL    HW212474   2.576   5.766   0.201
 3859SOL     OW12475   0.481   2.891   2.378
 3859SOL    HW112476   0.553   2.881   2.308
 3859SOL    HW212477   0.498   2.827   2.452
 3860SOL     OW12478   2.429   6.750   5.668
 3860SOL    HW112479   2.446   6.656   5.698
 3860SOL    HW212480   2.516   6.798   5.659
 3861SOL     OW12481   4.480   4.465   0.986
 3861SOL    HW112482   4.410   4.529   1.019
 3861SOL    HW212483   4.556   4.516   0.946
 3862SOL     OW12484   1.480   5.959   6.118
 3862SOL    HW112485   1.409   5.893   6.093
 3862SOL    HW212486   1.454   6.006   6.202
 3863SOL     OW12487   3.427   3.543   1.268
 3863SOL    HW112488   3.355   3.475   1.256
 3863SOL    HW212489   3.406   3.623   1.212
 3864SOL     OW12490   3.085   2.481   0.184
 3864SOL    HW112491   3.058   2.513   0.275
 3864SOL    HW212492   3.184   2.473   0.180
 3865SOL     OW12493   4.790   6.882   2.641
 3865SOL    HW112494   4.866   6.844   2.693
 3865SOL    HW212495   4.704   6.867   2.689
 3866SOL     OW12496   4.053   6.575   6.583
 3866SOL    HW112497   4.082   6.586   6.678
 3866SOL    HW212498   3.958   6.604   6.573
 3867SOL     OW12499   1.821   3.208   3.688
 3867SOL    HW112500   1.747   3.145   3.710
 3867SOL    HW212501   1.783   3.295   3.657
 3868SOL     OW12502   1.541   5.833   2.772
 3868SOL    HW112503   1.607   5.834   2.697
 3868SOL    HW212504   1.490   5.919   2.774
 3869SOL     OW12505   1.151   3.148   3.456
 3869SOL    HW112506   1.056   3.175   3.470
 3869SOL    HW212507   1.159   3.049   3.467
 3870SOL     OW12508   2.753   4.875   0.256
 3870SOL    HW112509   2.806   4.942   0.308
 3870SOL    HW212510   2.779   4.880   0.160
 3871SOL     OW12511   2.406   0.381   3.670
 3871SOL    HW112512   2.496   0.412   3.701
 3871SOL    HW212513   2.411   0.284   3.644
 3872SOL     OW12514   4.059   3.894   0.464
 3872SOL    HW112515   4.085   3.883   0.368
 3872SOL    HW212516   4.126   3.952   0.510
 3873SOL     OW12517   4.842   4.964   2.139
 3873SOL    HW112518   4.833   5.051   2.092
 3873SOL    HW212519   4.939   4.938   2.143
 3874SOL     OW12520   4.479   0.134   6.309
 3874SOL    HW112521   4.523   0.224   6.300
 3874SOL    HW212522   4.488   0.084   6.224
 3875SOL     OW12523   1.367   4.697   0.773
 3875SOL    HW112524   1.297   4.761   0.805
 3875SOL    HW212525   1.434   4.681   0.846
 3876SOL     OW12526   4.947   3.760   3.037
 3876SOL    HW112527   4.936   3.694   2.963
 3876SOL    HW212528   5.034   3.745   3.083
 3877SOL     OW12529   5.386   1.121   2.395
 3877SOL    HW112530   5.414   1.060   2.469
 3877SOL    HW212531   5.362   1.210   2.432
 3878SOL     OW12532   2.842   6.258   5.292
 3878SOL    HW112533   2.852   6.354   5.318
 3878SOL    HW212534   2.917   6.205   5.331
 3879SOL     OW12535   3.893   6.104   1.361
 3879SOL    HW112536   3.916   6.012   1.393
 3879SOL    HW212537   3.803   6.103   1.317
 3880SOL     OW12538   5.607   3.042   4.052
 3880SOL    HW112539   5.519   3.028   4.006
 3880SOL    HW212540   5.681   3.037   3.985
 3881SOL     OW12541   1.391   3.862   0.700
 3881SOL    HW112542   1.339   3.922   0.639
 3881SOL    HW212543   1.481   3.902   0.717
 3882SOL     OW12544   0.383   0.090   6.482
 3882SOL    HW112545   0.468   0.042   6.460
 3882SOL    HW212546   0.365   0.160   6.413
 3883SOL     OW12547   3.302   0.555   6.194
 3883SOL    HW112548   3.264   0.645   6.217
 3883SOL    HW212549   3.273   0.488   6.264
 3884SOL     OW12550   1.609   4.868   5.934
 3884SOL    HW112551   1.615   4.804   5.857
 3884SOL    HW212552   1.699   4.910   5.949
 3885SOL     OW12553   0.237   1.202   4.323
 3885SOL    HW112554   0.323   1.240   4.357
 3885SOL    HW212555   0.252   1.107   4.293
 3886SOL     OW12556   6.509   5.939   5.275
 3886SOL    HW112557   6.549   5.966   5.187
 3886SOL    HW212558   6.522   6.013   5.341
 3887SOL     OW12559   4.680   2.685   5.299
 3887SOL    HW112560   4.640   2.594   5.286
 3887SOL    HW212561   4.772   2.687   5.259
 3888SOL     OW12562   6.086   2.079   0.895
 3888SOL    HW112563   5.992   2.048   0.882
 3888SOL    HW212564   6.086   2.177   0.916
 3889SOL     OW12565   0.805   5.762   6.866
 3889SOL    HW112566   0.813   5.743   6.768
 3889SOL    HW212567   0.785   5.677   6.915
 3890SOL     OW12568   5.865   4.032   2.470
 3890SOL    HW112569   5.956   4.033   2.512
 3890SOL    HW212570   5.825   3.941   2.479
 3891SOL     OW12571   6.039   4.972   5.391
 3891SOL    HW112572   6.046   4.967   5.491
 3891SOL    HW212573   5.942   4.972   5.365
 3892SOL     OW12574   5.065   6.772   3.377
 3892SOL    HW112575   4.983   6.820   3.409
 3892SOL    HW212576   5.064   6.769   3.277
 3893SOL     OW12577   2.990   6.416   3.878
 3893SOL    HW112578   3.042   6.491   3.919
 3893SOL    HW212579   2.899   6.449   3.853
 3894SOL     OW12580   5.181   4.510   0.161
 3894SOL    HW112581   5.145   4.478   0.248
 3894SOL    HW212582   5.106   4.525   0.097
 3895SOL     OW12583   1.880   2.034   5.721
 3895SOL    HW112584   1.918   2.113   5.673
 3895SOL    HW212585   1.849   2.061   5.812
 3896SOL     OW12586   6.713   2.361   5.857
 3896SOL    HW112587   6.742   2.320   5.771
 3896SOL    HW212588   6.678   2.453   5.840
 3897SOL     OW12589   3.503   6.560   2.429
 3897SOL    HW112590   3.438   6.492   2.464
 3897SOL    HW212591   3.468   6.652   2.447
 3898SOL     OW12592   3.713   3.958   4.288
 3898SOL    HW112593   3.811   3.942   4.273
 3898SOL    HW212594   3.661   3.883   4.245
 3899SOL     OW12595   5.042   1.492   4.928
 3899SOL    HW112596   4.972   1.422   4.912
 3899SOL    HW212597   5.128   1.447   4.952
 3900SOL     OW12598   6.628   2.660   3.762
 3900SOL    HW112599   6.572   2.684   3.682
 3900SOL    HW212600   6.574   2.603   3.824
 3901SOL     OW12601   2.143   5.761   5.300
 3901SOL    HW112602   2.220   5.698   5.285
 3901SOL    HW212603   2.167   5.827   5.371
 3902SOL     OW12604   4.119   4.963   1.803
 3902SOL    HW112605   4.152   4.896   1.737
 3902SOL    HW212606   4.021   4.950   1.818
 3903SOL     OW12607   3.574   3.030   6.135
 3903SOL    HW112608   3.554   3.009   6.040
 3903SOL    HW212609   3.606   2.948   6.182
 3904SOL     OW12610   1.946   6.142   0.595
 3904SOL    HW112611   2.008   6.177   0.525
 3904SOL    HW212612   1.918   6.048   0.572
 3905SOL     OW12613   0.078   0.084   5.546
 3905SOL    HW112614   0.101   0.073   5.449
 3905SOL    HW212615   7.006   0.110   5.554
 3906SOL     OW12616   0.592   5.610   5.011
 3906SOL    HW112617   0.565   5.535   5.071
 3906SOL    HW212618   0.523   5.682   5.015
 3907SOL     OW12619   1.084   0.830   4.631
 3907SOL    HW112620   1.062   0.922   4.662
 3907SOL    HW212621   1.024   0.764   4.676
 3908SOL     OW12622   2.052   0.344   4.475
 3908SOL    HW112623   2.045   0.301   4.565
 3908SOL    HW212624   2.016   0.282   4.405
 3909SOL     OW12625   5.960   2.470   1.099
 3909SOL    HW112626   5.921   2.561   1.085
 3909SOL    HW212627   5.901   2.417   1.159
 3910SOL     OW12628   2.882   2.825   1.154
 3910SOL    HW112629   2.786   2.853   1.164
 3910SOL    HW212630   2.940   2.889   1.204
 3911SOL     OW12631   6.360   0.506   0.927
 3911SOL    HW112632   6.414   0.460   0.998
 3911SOL    HW212633   6.327   0.594   0.962
 3912SOL     OW12634   3.848   3.289   0.046
 3912SOL    HW112635   3.913   3.234   7.017
 3912SOL    HW212636   3.840   3.251   0.138
 3913SOL     OW12637   4.682   5.768   1.587
 3913SOL    HW112638   4.676   5.713   1.671
 3913SOL    HW212639   4.739   5.721   1.521
 3914SOL     OW12640   7.005   1.192   0.715
 3914SOL    HW112641   6.925   1.138   0.740
 3914SOL    HW212642   6.997   1.220   0.619
 3915SOL     OW12643   5.015   5.672   5.586
 3915SOL    HW112644   4.927   5.626   5.593
 3915SOL    HW212645   5.011   5.761   5.630
 3916SOL     OW12646   2.514   1.566   2.991
 3916SOL    HW112647   2.530   1.492   3.057
 3916SOL    HW212648   2.581   1.639   3.006
 3917SOL     OW12649   3.660   4.547   1.367
 3917SOL    HW112650   3.760   4.539   1.371
 3917SOL    HW212651   3.620   4.517   1.454
 3918SOL     OW12652   5.138   1.237   0.345
 3918SOL    HW112653   5.151   1.220   0.248
 3918SOL    HW212654   5.046   1.208   0.372
 3919SOL     OW12655   4.434   6.204   2.587
 3919SOL    HW112656   4.501   6.217   2.514
 3919SOL    HW212657   4.439   6.281   2.651
 3920SOL     OW12658   3.296   1.705   5.423
 3920SOL    HW112659   3.342   1.678   5.508
 3920SOL    HW212660   3.234   1.780   5.441
 3921SOL     OW12661   0.035   2.956   6.145
 3921SOL    HW112662   0.115   2.905   6.179
 3921SOL    HW212663   6.981   2.937   6.204
 3922SOL     OW12664   4.808   3.966   2.974
 3922SOL    HW112665   4.843   3.884   3.020
 3922SOL    HW212666   4.829   3.961   2.876
 3923SOL     OW12667   5.008   1.233   1.699
 3923SOL    HW112668   5.062   1.252   1.782
 3923SOL    HW212669   5.065   1.183   1.634
 3924SOL     OW12670   5.791   4.896   4.046
 3924SOL    HW112671   5.730   4.918   3.970
 3924SOL    HW212672   5.886   4.907   4.018
 3925SOL     OW12673   5.134   4.658   0.670
 3925SOL    HW112674   5.231   4.680   0.660
 3925SOL    HW212675   5.121   4.559   0.665
 3926SOL     OW12676   0.793   5.591   5.367
 3926SOL    HW112677   0.867   5.524   5.369
 3926SOL    HW212678   0.715   5.555   5.317
 3927SOL     OW12679   5.231   2.371   5.509
 3927SOL    HW112680   5.301   2.356   5.579
 3927SOL    HW212681   5.209   2.283   5.466
 3928SOL     OW12682   3.393   5.733   2.210
 3928SOL    HW112683   3.373   5.636   2.218
 3928SOL    HW212684   3.490   5.748   2.231
 3929SOL     OW12685   0.639   2.027   5.466
 3929SOL    HW112686   0.604   2.101   5.409
 3929SOL    HW212687   0.621   2.048   5.562
 3930SOL     OW12688   2.541   4.995   3.807
 3930SOL    HW112689   2.483   5.067   3.769
 3930SOL    HW212690   2.484   4.916   3.831
 3931SOL     OW12691   1.960   2.761   1.339
 3931SOL    HW112692   2.010   2.804   1.413
 3931SOL    HW212693   1.869   2.732   1.371
 3932SOL     OW12694   2.483   4.745   3.956
 3932SOL    HW112695   2.500   4.727   4.053
 3932SOL    HW212696   2.392   4.712   3.931
 3933SOL     OW12697   1.801   6.335   1.340
 3933SOL    HW112698   1.884   6.322   1.394
 3933SOL    HW212699   1.821   6.397   1.264
 3934SOL     OW12700   0.872   0.437   1.811
 3934SOL    HW112701   0.888   0.504   1.883
 3934SOL    HW212702   0.797   0.377   1.838
 3935SOL     OW12703   6.744   3.993   5.780
 3935SOL    HW112704   6.759   4.092   5.773
 3935SOL    HW212705   6.731   3.968   5.876
 3936SOL     OW12706   6.510   4.328   5.725
 3936SOL    HW112707   6.608   4.350   5.721
 3936SOL    HW212708   6.467   4.380   5.799
 3937SOL     OW12709   0.411   6.430   1.555
 3937SOL    HW112710   0.499   6.386   1.537
 3937SOL    HW212711   0.413   6.524   1.520
 3938SOL     OW12712   0.881   3.440   1.695
 3938SOL    HW112713   0.826   3.498   1.635
 3938SOL    HW212714   0.975   3.438   1.661
 3939SOL     OW12715   1.031   0.798   3.280
 3939SOL    HW112716   1.014   0.708   3.240
 3939SOL    HW212717   0.988   0.803   3.370
 3940SOL     OW12718   3.229   6.197   0.556
 3940SOL    HW112719   3.220   6.111   0.505
 3940SOL    HW212720   3.223   6.274   0.493
 3941SOL     OW12721   5.284   5.733   2.051
 3941SOL    HW112722   5.255   5.644   2.086
 3941SOL    HW212723   5.329   5.721   1.962
 3942SOL     OW12724   0.172   6.010   5.373
 3942SOL    HW112725   0.178   5.996   5.274
 3942SOL    HW212726   0.079   6.040   5.396
 3943SOL     OW12727   1.892   3.169   0.479
 3943SOL    HW112728   1.957   3.204   0.412
 3943SOL    HW212729   1.867   3.242   0.542
 3944SOL     OW12730   4.989   2.885   6.811
 3944SOL    HW112731   4.937   2.862   6.728
 3944SOL    HW212732   4.947   2.964   6.856
 3945SOL     OW12733   5.517   0.291   3.854
 3945SOL    HW112734   5.549   0.226   3.785
 3945SOL    HW212735   5.418   0.301   3.847
 3946SOL     OW12736   0.379   3.508   0.505
 3946SOL    HW112737   0.395   3.454   0.588
 3946SOL    HW212738   0.438   3.589   0.505
 3947SOL     OW12739   6.461   5.403   1.678
 3947SOL    HW112740   6.419   5.343   1.745
 3947SOL    HW212741   6.391   5.461   1.637
 3948SOL     OW12742   1.448   3.204   5.905
 3948SOL    HW112743   1.456   3.165   5.996
 3948SOL    HW212744   1.352   3.208   5.878
 3949SOL     OW12745   5.967   0.210   1.985
 3949SOL    HW112746   5.951   0.231   1.888
 3949SOL    HW212747   6.065   0.197   2.001
 3950SOL     OW12748   2.858   4.669   1.625
 3950SOL    HW112749   2.838   4.697   1.719
 3950SOL    HW212750   2.870   4.569   1.622
 3951SOL     OW12751   0.731   2.548   4.700
 3951SOL    HW112752   0.653   2.610   4.706
 3951SOL    HW212753   0.761   2.523   4.792
 3952SOL     OW12754   5.371   3.842   0.673
 3952SOL    HW112755   5.413   3.754   0.697
 3952SOL    HW212756   5.431   3.892   0.610
 3953SOL     OW12757   3.205   3.305   6.706
 3953SOL    HW112758   3.236   3.287   6.799
 3953SOL    HW212759   3.116   3.262   6.691
 3954SOL     OW12760   0.663   2.816   5.875
 3954SOL    HW112761   0.688   2.810   5.971
 3954SOL    HW212762   0.647   2.912   5.850
 3955SOL     OW12763   6.712   3.809   0.478
 3955SOL    HW112764   6.739   3.850   0.390
 3955SOL    HW212765   6.753   3.718   0.486
 3956SOL     OW12766   6.686   2.904   5.342
 3956SOL    HW112767   6.683   2.990   5.293
 3956SOL    HW212768   6.593   2.871   5.357
 3957SOL     OW12769   0.750   1.530   3.335
 3957SOL    HW112770   0.777   1.625   3.318
 3957SOL    HW212771   0.721   1.488   3.249
 3958SOL     OW12772   5.342   6.089   0.063
 3958SOL    HW112773   5.305   6.165   0.117
 3958SOL    HW212774   5.268   6.026   0.040
 3959SOL     OW12775   2.493   6.293   0.995
 3959SOL    HW112776   2.523   6.387   1.014
 3959SOL    HW212777   2.573   6.233   0.991
 3960SOL     OW12778   5.345   3.380   1.216
 3960SOL    HW112779   5.436   3.419   1.207
 3960SOL    HW212780   5.342   3.319   1.295
 3961SOL     OW12781   5.372   0.196   1.175
 3961SOL    HW112782   5.374   0.245   1.262
 3961SOL    HW212783   5.319   0.248   1.108
 3962SOL     OW12784   0.941   6.805   6.033
 3962SOL    HW112785   0.954   6.883   6.095
 3962SOL    HW212786   1.010   6.735   6.053
 3963SOL     OW12787   4.675   5.379   2.988
 3963SOL    HW112788   4.601   5.445   2.981
 3963SOL    HW212789   4.650   5.296   2.939
 3964SOL     OW12790   6.277   6.375   6.069
 3964SOL    HW112791   6.331   6.392   5.986
 3964SOL    HW212792   6.335   6.392   6.149
 3965SOL     OW12793   3.982   2.812   0.142
 3965SOL    HW112794   3.933   2.879   0.197
 3965SOL    HW212795   3.916   2.753   0.096
 3966SOL     OW12796   5.945   3.394   5.636
 3966SOL    HW112797   5.970   3.431   5.547
 3966SOL    HW212798   6.026   3.386   5.693
 3967SOL     OW12799   2.007   6.783   6.786
 3967SOL    HW112800   2.060   6.750   6.864
 3967SOL    HW212801   1.957   6.706   6.745
 3968SOL     OW12802   5.580   0.335   1.676
 3968SOL    HW112803   5.616   0.361   1.765
 3968SOL    HW212804   5.657   0.318   1.613
 3969SOL     OW12805   0.565   6.159   1.796
 3969SOL    HW112806   0.659   6.171   1.827
 3969SOL    HW212807   0.564   6.135   1.699
 3970SOL     OW12808   4.722   4.358   4.201
 3970SOL    HW112809   4.662   4.385   4.277
 3970SOL    HW212810   4.733   4.259   4.202
 3971SOL     OW12811   1.334   6.151   3.700
 3971SOL    HW112812   1.396   6.138   3.622
 3971SOL    HW212813   1.286   6.238   3.691
 3972SOL     OW12814   1.286   0.649   0.125
 3972SOL    HW112815   1.331   0.611   0.206
 3972SOL    HW212816   1.192   0.616   0.121
 3973SOL     OW12817   3.486   2.870   2.828
 3973SOL    HW112818   3.388   2.860   2.808
 3973SOL    HW212819   3.499   2.871   2.927
 3974SOL     OW12820   5.603   0.733   6.124
 3974SOL    HW112821   5.698   0.704   6.131
 3974SOL    HW212822   5.577   0.784   6.207
 3975SOL     OW12823   6.905   6.013   5.463
 3975SOL    HW112824   6.808   6.028   5.442
 3975SOL    HW212825   6.916   5.925   5.509
 3976SOL     OW12826   1.294   3.158   6.900
 3976SOL    HW112827   1.370   3.118   6.849
 3976SOL    HW212828   1.207   3.127   6.862
 3977SOL     OW12829   3.849   6.174   5.868
 3977SOL    HW112830   3.818   6.263   5.901
 3977SOL    HW212831   3.832   6.104   5.937
 3978SOL     OW12832   6.356   4.298   6.788
 3978SOL    HW112833   6.352   4.368   6.717
 3978SOL    HW212834   6.297   4.326   6.864
 3979SOL     OW12835   0.964   6.479   3.151
 3979SOL    HW112836   0.931   6.388   3.124
 3979SOL    HW212837   0.894   6.547   3.130
 3980SOL     OW12838   4.956   3.619   4.780
 3980SOL    HW112839   4.880   3.583   4.727
 3980SOL    HW212840   4.923   3.651   4.868
 3981SOL     OW12841   6.447   2.296   5.476
 3981SOL    HW112842   6.489   2.381   5.510
 3981SOL    HW212843   6.373   2.319   5.413
 3982SOL     OW12844   2.397   2.269   3.813
 3982SOL    HW112845   2.478   2.293   3.867
 3982SOL    HW212846   2.316   2.312   3.854
 3983SOL     OW12847   3.766   6.725   3.787
 3983SOL    HW112848   3.771   6.757   3.693
 3983SOL    HW212849   3.687   6.665   3.799
 3984SOL     OW12850   1.181   0.580   1.402
 3984SOL    HW112851   1.127   0.498   1.423
 3984SOL    HW212852   1.233   0.565   1.318
 3985SOL     OW12853   1.629   3.283   1.739
 3985SOL    HW112854   1.541   3.238   1.757
 3985SOL    HW212855   1.629   3.320   1.647
 3986SOL     OW12856   1.050   2.655   1.969
 3986SOL    HW112857   1.094   2.702   1.893
 3986SOL    HW212858   1.048   2.556   1.950
 3987SOL     OW12859   1.822   4.258   6.277
 3987SOL    HW112860   1.741   4.239   6.221
 3987SOL    HW212861   1.904   4.253   6.220
 3988SOL     OW12862   4.950   1.539   0.023
 3988SOL    HW112863   4.880   1.511   0.089
 3988SOL    HW212864   5.041   1.526   0.062
 3989SOL     OW12865   4.135   1.029   6.800
 3989SOL    HW112866   4.202   1.044   6.874
 3989SOL    HW212867   4.167   1.073   6.717
 3990SOL     OW12868   1.734   2.684   3.988
 3990SOL    HW112869   1.734   2.722   3.896
 3990SOL    HW212870   1.778   2.749   4.051
 3991SOL     OW12871   0.292   0.927   4.298
 3991SOL    HW112872   0.311   0.876   4.382
 3991SOL    HW212873   0.362   0.907   4.230
 3992SOL     OW12874   5.163   4.015   6.596
 3992SOL    HW112875   5.126   4.107   6.583
 3992SOL    HW212876   5.205   4.008   6.686
 3993SOL     OW12877   1.482   1.129   3.699
 3993SOL    HW112878   1.432   1.156   3.617
 3993SOL    HW212879   1.458   1.191   3.774
 3994SOL     OW12880   2.474   1.693   4.107
 3994SOL    HW112881   2.540   1.750   4.157
 3994SOL    HW212882   2.504   1.684   4.013
 3995SOL     OW12883   1.189   3.663   1.823
 3995SOL    HW112884   1.252   3.721   1.874
 3995SOL    HW212885   1.237   3.580   1.793
 3996SOL     OW12886   6.051   6.474   3.994
 3996SOL    HW112887   5.954   6.500   3.992
 3996SOL    HW212888   6.068   6.405   3.924
 3997SOL     OW12889   5.259   3.550   2.785
 3997SOL    HW112890   5.165   3.574   2.809
 3997SOL    HW212891   5.261   3.461   2.741
 3998SOL     OW12892   5.745   2.294   2.852
 3998SOL    HW112893   5.701   2.207   2.829
 3998SOL    HW212894   5.678   2.368   2.850
 3999SOL     OW12895   4.899   2.789   1.327
 3999SOL    HW112896   4.809   2.817   1.291
 3999SOL    HW212897   4.886   2.722   1.400
 4000SOL     OW12898   3.420   4.948   2.376
 4000SOL    HW112899   3.407   4.955   2.475
 4000SOL    HW212900   3.331   4.943   2.331
 4001SOL     OW12901   1.211   4.531   4.057
 4001SOL    HW112902   1.248   4.528   3.964
 4001SOL    HW212903   1.246   4.453   4.109
 4002SOL     OW12904   3.454   4.150   3.383
 4002SOL    HW112905   3.403   4.145   3.468
 4002SOL    HW212906   3.401   4.107   3.310
 4003SOL     OW12907   2.365   1.233   5.614
 4003SOL    HW112908   2.270   1.213   5.635
 4003SOL    HW212909   2.384   1.329   5.635
 4004SOL     OW12910   1.224   3.819   3.726
 4004SOL    HW112911   1.174   3.739   3.693
 4004SOL    HW212912   1.267   3.798   3.813
 4005SOL     OW12913   4.974   3.270   0.322
 4005SOL    HW112914   5.019   3.317   0.246
 4005SOL    HW212915   5.020   3.182   0.337
 4006SOL     OW12916   4.967   5.357   3.337
 4006SOL    HW112917   4.937   5.269   3.373
 4006SOL    HW212918   5.067   5.359   3.333
 4007SOL     OW12919   0.266   1.102   3.032
 4007SOL    HW112920   0.326   1.178   3.056
 4007SOL    HW212921   0.259   1.095   2.933
 4008SOL     OW12922   3.581   1.057   0.673
 4008SOL    HW112923   3.556   0.985   0.739
 4008SOL    HW212924   3.610   1.014   0.587
 4009SOL     OW12925   4.806   2.188   0.316
 4009SOL    HW112926   4.903   2.181   0.291
 4009SOL    HW212927   4.794   2.261   0.383
 4010SOL     OW12928   2.711   5.196   1.981
 4010SOL    HW112929   2.762   5.279   1.961
 4010SOL    HW212930   2.617   5.219   2.005
 4011SOL     OW12931   4.676   5.891   0.017
 4011SOL    HW112932   4.606   5.826   7.012
 4011SOL    HW212933   4.645   5.984   7.023
 4012SOL     OW12934   4.611   6.530   2.755
 4012SOL    HW112935   4.658   6.566   2.836
 4012SOL    HW212936   4.678   6.512   2.684
 4013SOL     OW12937   0.095   1.620   6.271
 4013SOL    HW112938   0.143   1.580   6.349
 4013SOL    HW212939   0.158   1.628   6.194
 4014SOL     OW12940   2.838   5.039   2.564
 4014SOL    HW112941   2.847   4.954   2.615
 4014SOL    HW212942   2.879   5.028   2.473
 4015SOL     OW12943   4.417   4.531   5.886
 4015SOL    HW112944   4.455   4.620   5.859
 4015SOL    HW212945   4.349   4.502   5.820
 4016SOL     OW12946   3.992   5.412   5.141
 4016SOL    HW112947   3.992   5.497   5.193
 4016SOL    HW212948   3.968   5.431   5.046
 4017SOL     OW12949   0.597   5.008   5.629
 4017SOL    HW112950   0.546   4.925   5.652
 4017SOL    HW212951   0.571   5.082   5.691
 4018SOL     OW12952   4.462   6.112   2.090
 4018SOL    HW112953   4.374   6.158   2.088
 4018SOL    HW212954   4.483   6.082   2.183
 4019SOL     OW12955   5.312   3.413   3.337
 4019SOL    HW112956   5.250   3.335   3.339
 4019SOL    HW212957   5.308   3.461   3.425
 4020SOL     OW12958   6.539   5.416   3.940
 4020SOL    HW112959   6.475   5.474   3.989
 4020SOL    HW212960   6.616   5.392   4.000
 4021SOL     OW12961   4.333   3.530   6.361
 4021SOL    HW112962   4.374   3.571   6.443
 4021SOL    HW212963   4.255   3.586   6.331
 4022SOL     OW12964   1.880   0.906   1.748
 4022SOL    HW112965   1.845   1.000   1.754
 4022SOL    HW212966   1.916   0.878   1.837
 4023SOL     OW12967   0.568   1.717   5.175
 4023SOL    HW112968   0.473   1.749   5.173
 4023SOL    HW212969   0.596   1.691   5.083
 4024SOL     OW12970   0.691   5.856   4.736
 4024SOL    HW112971   0.752   5.809   4.800
 4024SOL    HW212972   0.643   5.788   4.680
 4025SOL     OW12973   0.174   5.467   3.795
 4025SOL    HW112974   0.234   5.501   3.723
 4025SOL    HW212975   0.141   5.376   3.770
 4026SOL     OW12976   6.500   6.787   3.695
 4026SOL    HW112977   6.521   6.690   3.688
 4026SOL    HW212978   6.580   6.837   3.730
 4027SOL     OW12979   2.586   3.987   5.847
 4027SOL    HW112980   2.545   4.002   5.937
 4027SOL    HW212981   2.542   4.046   5.779
 4028SOL     OW12982   4.350   1.726   2.957
 4028SOL    HW112983   4.411   1.764   2.888
 4028SOL    HW212984   4.403   1.701   3.038
 4029SOL     OW12985   1.928   5.811   6.812
 4029SOL    HW112986   1.894   5.745   6.745
 4029SOL    HW212987   2.021   5.786   6.839
 4030SOL     OW12988   0.073   1.274   2.656
 4030SOL    HW112989   0.137   1.274   2.580
 4030SOL    HW212990   0.120   1.247   2.740
 4031SOL     OW12991   6.271   6.121   1.399
 4031SOL    HW112992   6.255   6.051   1.329
 4031SOL    HW212993   6.191   6.130   1.457
 4032SOL     OW12994   5.756   0.402   1.873
 4032SOL    HW112995   5.688   0.401   1.947
 4032SOL    HW212996   5.819   0.479   1.887
 4033SOL     OW12997   1.877   2.663   2.682
 4033SOL    HW112998   1.968   2.629   2.703
 4033SOL    HW212999   1.866   2.756   2.718
 4034SOL     OW13000   0.128   3.168   5.325
 4034SOL    HW113001   0.217   3.124   5.339
 4034SOL    HW213002   0.066   3.141   5.399
 4035SOL     OW13003   5.073   1.585   1.788
 4035SOL    HW113004   5.104   1.592   1.883
 4035SOL    HW213005   4.973   1.579   1.786
 4036SOL     OW13006   2.651   5.518   3.014
 4036SOL    HW113007   2.622   5.437   2.962
 4036SOL    HW213008   2.602   5.521   3.101
 4037SOL     OW13009   2.197   1.006   5.935
 4037SOL    HW113010   2.225   0.931   5.876
 4037SOL    HW213011   2.153   0.969   6.017
 4038SOL     OW13012   3.331   3.688   5.808
 4038SOL    HW113013   3.251   3.744   5.828
 4038SOL    HW213014   3.333   3.609   5.869
 4039SOL     OW13015   6.242   5.017   1.639
 4039SOL    HW113016   6.229   4.970   1.552
 4039SOL    HW213017   6.169   4.993   1.702
 4040SOL     OW13018   3.553   5.905   4.507
 4040SOL    HW113019   3.577   5.854   4.424
 4040SOL    HW213020   3.592   5.858   4.586
 4041SOL     OW13021   2.633   6.475   0.532
 4041SOL    HW113022   2.611   6.572   0.544
 4041SOL    HW213023   2.648   6.456   0.435
 4042SOL     OW13024   6.028   0.781   3.818
 4042SOL    HW113025   6.123   0.751   3.820
 4042SOL    HW213026   6.023   0.875   3.851
 4043SOL     OW13027   5.028   3.791   6.600
 4043SOL    HW113028   5.080   3.876   6.594
 4043SOL    HW213029   5.084   3.715   6.570
 4044SOL     OW13030   4.623   5.307   3.235
 4044SOL    HW113031   4.662   5.343   3.150
 4044SOL    HW213032   4.614   5.381   3.302
 4045SOL     OW13033   5.331   6.804   5.572
 4045SOL    HW113034   5.316   6.710   5.601
 4045SOL    HW213035   5.341   6.863   5.653
 4046SOL     OW13036   6.179   1.829   2.207
 4046SOL    HW113037   6.100   1.834   2.145
 4046SOL    HW213038   6.260   1.864   2.160
 4047SOL     OW13039   2.885   3.467   7.019
 4047SOL    HW113040   2.944   3.537   0.035
 4047SOL    HW213041   2.935   3.380   7.013
 4048SOL     OW13042   4.533   1.436   1.890
 4048SOL    HW113043   4.481   1.467   1.970
 4048SOL    HW213044   4.484   1.361   1.845
 4049SOL     OW13045   3.692   4.643   6.540
 4049SOL    HW113046   3.691   4.667   6.442
 4049SOL    HW213047   3.769   4.582   6.559
 4050SOL     OW13048   0.283   5.566   2.632
 4050SOL    HW113049   0.381   5.563   2.655
 4050SOL    HW213050   0.250   5.473   2.616
 4051SOL     OW13051   5.132   0.795   5.301
 4051SOL    HW113052   5.070   0.722   5.272
 4051SOL    HW213053   5.162   0.847   5.221
 4052SOL     OW13054   6.416   2.448   3.833
 4052SOL    HW113055   6.381   2.388   3.905
 4052SOL    HW213056   6.443   2.392   3.755
 4053SOL     OW13057   0.783   5.114   4.558
 4053SOL    HW113058   0.842   5.133   4.479
 4053SOL    HW213059   0.735   5.027   4.544
 4054SOL     OW13060   4.719   3.917   0.565
 4054SOL    HW113061   4.775   3.861   0.626
 4054SOL    HW213062   4.769   4.000   0.541
 4055SOL     OW13063   0.536   4.118   0.745
 4055SOL    HW113064   0.500   4.207   0.717
 4055SOL    HW213065   0.636   4.121   0.746
 4056SOL     OW13066   5.023   3.334   0.774
 4056SOL    HW113067   5.035   3.235   0.779
 4056SOL    HW213068   5.094   3.379   0.828
 4057SOL     OW13069   6.724   3.156   6.769
 4057SOL    HW113070   6.770   3.070   6.792
 4057SOL    HW213071   6.676   3.191   6.850
 4058SOL     OW13072   2.905   6.369   5.700
 4058SOL    HW113073   2.852   6.454   5.692
 4058SOL    HW213074   2.844   6.291   5.685
 4059SOL     OW13075   1.420   1.418   4.625
 4059SOL    HW113076   1.517   1.421   4.648
 4059SOL    HW213077   1.385   1.512   4.617
 4060SOL     OW13078   6.314   6.109   5.514
 4060SOL    HW113079   6.291   6.042   5.444
 4060SOL    HW213080   6.412   6.130   5.509
 4061SOL     OW13081   2.119   5.502   1.171
 4061SOL    HW113082   2.101   5.583   1.115
 4061SOL    HW213083   2.133   5.530   1.266
 4062SOL     OW13084   1.788   1.858   1.801
 4062SOL    HW113085   1.797   1.954   1.775
 4062SOL    HW213086   1.789   1.802   1.718
 4063SOL     OW13087   5.397   1.673   0.497
 4063SOL    HW113088   5.477   1.695   0.442
 4063SOL    HW213089   5.333   1.618   0.442
 4064SOL     OW13090   1.914   2.136   5.314
 4064SOL    HW113091   1.965   2.203   5.260
 4064SOL    HW213092   1.905   2.051   5.263
 4065SOL     OW13093   2.306   6.699   1.157
 4065SOL    HW113094   2.285   6.646   1.075
 4065SOL    HW213095   2.391   6.750   1.143
 4066SOL     OW13096   0.273   4.112   3.340
 4066SOL    HW113097   0.265   4.194   3.284
 4066SOL    HW213098   0.184   4.089   3.379
 4067SOL     OW13099   4.694   4.846   1.485
 4067SOL    HW113100   4.733   4.887   1.568
 4067SOL    HW213101   4.622   4.904   1.450
 4068SOL     OW13102   1.906   3.021   5.065
 4068SOL    HW113103   1.876   2.935   5.106
 4068SOL    HW213104   1.990   3.051   5.109
 4069SOL     OW13105   4.101   6.971   6.877
 4069SOL    HW113106   4.189   6.998   6.838
 4069SOL    HW213107   4.091   6.872   6.871
 4070SOL     OW13108   1.443   3.128   3.200
 4070SOL    HW113109   1.452   3.066   3.278
 4070SOL    HW213110   1.531   3.137   3.154
 4071SOL     OW13111   0.618   0.625   4.084
 4071SOL    HW113112   0.623   0.541   4.030
 4071SOL    HW213113   0.567   0.694   4.033
 4072SOL     OW13114   1.940   5.348   3.647
 4072SOL    HW113115   1.843   5.360   3.669
 4072SOL    HW213116   1.995   5.394   3.716
 4073SOL     OW13117   3.201   4.776   0.193
 4073SOL    HW113118   3.235   4.685   0.217
 4073SOL    HW213119   3.143   4.811   0.267
 4074SOL     OW13120   1.122   6.096   2.896
 4074SOL    HW113121   1.135   6.007   2.854
 4074SOL    HW213122   1.024   6.114   2.907
 4075SOL     OW13123   5.911   0.257   0.696
 4075SOL    HW113124   5.828   0.245   0.749
 4075SOL    HW213125   5.888   0.284   0.602
 4076SOL     OW13126   2.869   3.623   5.183
 4076SOL    HW113127   2.827   3.665   5.263
 4076SOL    HW213128   2.859   3.684   5.104
 4077SOL     OW13129   3.877   1.792   1.864
 4077SOL    HW113130   3.834   1.857   1.802
 4077SOL    HW213131   3.967   1.825   1.891
 4078SOL     OW13132   2.889   4.831   2.704
 4078SOL    HW113133   2.827   4.796   2.775
 4078SOL    HW213134   2.977   4.854   2.745
 4079SOL     OW13135   1.056   2.176   4.194
 4079SOL    HW113136   1.038   2.271   4.220
 4079SOL    HW213137   1.155   2.161   4.193
 4080SOL     OW13138   6.388   1.230   4.974
 4080SOL    HW113139   6.373   1.170   4.895
 4080SOL    HW213140   6.358   1.323   4.952
 4081SOL     OW13141   1.795   3.478   3.699
 4081SOL    HW113142   1.729   3.513   3.632
 4081SOL    HW213143   1.753   3.476   3.789
 4082SOL     OW13144   0.900   2.791   1.155
 4082SOL    HW113145   0.944   2.703   1.171
 4082SOL    HW213146   0.808   2.775   1.119
 4083SOL     OW13147   5.538   2.492   4.638
 4083SOL    HW113148   5.573   2.541   4.558
 4083SOL    HW213149   5.612   2.480   4.704
 4084SOL     OW13150   0.064   1.706   4.363
 4084SOL    HW113151   0.108   1.768   4.298
 4084SOL    HW213152   6.997   1.682   4.330
 4085SOL     OW13153   3.708   6.538   0.372
 4085SOL    HW113154   3.771   6.466   0.402
 4085SOL    HW213155   3.680   6.519   0.278
 4086SOL     OW13156   1.404   5.059   1.221
 4086SOL    HW113157   1.353   4.993   1.166
 4086SOL    HW213158   1.349   5.085   1.300
 4087SOL     OW13159   2.214   1.816   3.396
 4087SOL    HW113160   2.215   1.906   3.440
 4087SOL    HW213161   2.300   1.802   3.347
 4088SOL     OW13162   6.545   1.953   1.181
 4088SOL    HW113163   6.475   1.963   1.252
 4088SOL    HW213164   6.624   1.904   1.218
 4089SOL     OW13165   1.115   1.114   3.808
 4089SOL    HW113166   1.175   1.093   3.730
 4089SOL    HW213167   1.110   1.034   3.868
 4090SOL     OW13168   2.275   4.264   6.537
 4090SOL    HW113169   2.259   4.267   6.438
 4090SOL    HW213170   2.308   4.173   6.562
 4091SOL     OW13171   4.308   5.882   0.405
 4091SOL    HW113172   4.243   5.890   0.480
 4091SOL    HW213173   4.399   5.862   0.442
 4092SOL     OW13174   0.677   3.043   4.905
 4092SOL    HW113175   0.584   3.007   4.907
 4092SOL    HW213176   0.686   3.117   4.972
 4093SOL     OW13177   5.127   0.968   3.588
 4093SOL    HW113178   5.202   0.929   3.641
 4093SOL    HW213179   5.091   1.048   3.635
 4094SOL     OW13180   1.824   4.102   5.178
 4094SOL    HW113181   1.921   4.105   5.153
 4094SOL    HW213182   1.773   4.163   5.117
 4095SOL     OW13183   0.972   3.175   6.325
 4095SOL    HW113184   0.988   3.164   6.423
 4095SOL    HW213185   1.038   3.241   6.289
 4096SOL     OW13186   4.454   4.949   6.921
 4096SOL    HW113187   4.540   4.996   6.901
 4096SOL    HW213188   4.449   4.864   6.869
 4097SOL     OW13189   3.449   3.692   5.551
 4097SOL    HW113190   3.372   3.718   5.492
 4097SOL    HW213191   3.414   3.663   5.640
 4098SOL     OW13192   0.434   2.343   3.123
 4098SOL    HW113193   0.505   2.335   3.193
 4098SOL    HW213194   0.366   2.272   3.135
 4099SOL     OW13195   3.293   5.894   2.014
 4099SOL    HW113196   3.304   5.831   2.091
 4099SOL    HW213197   3.376   5.949   2.005
 4100SOL     OW13198   4.228   5.415   3.742
 4100SOL    HW113199   4.230   5.325   3.785
 4100SOL    HW213200   4.247   5.486   3.810
 4101SOL     OW13201   5.733   1.425   6.296
 4101SOL    HW113202   5.828   1.412   6.324
 4101SOL    HW213203   5.723   1.399   6.200
 4102SOL     OW13204   6.124   0.950   0.248
 4102SOL    HW113205   6.173   0.973   0.332
 4102SOL    HW213206   6.028   0.977   0.257
 4103SOL     OW13207   0.478   0.620   2.416
 4103SOL    HW113208   0.378   0.625   2.417
 4103SOL    HW213209   0.506   0.524   2.415
 4104SOL     OW13210   1.459   4.768   2.587
 4104SOL    HW113211   1.449   4.734   2.681
 4104SOL    HW213212   1.548   4.742   2.552
 4105SOL     OW13213   3.408   5.290   0.410
 4105SOL    HW113214   3.400   5.390   0.419
 4105SOL    HW213215   3.478   5.257   0.473
 4106SOL     OW13216   7.000   3.847   4.665
 4106SOL    HW113217   7.012   3.752   4.638
 4106SOL    HW213218   0.064   3.892   4.673
 4107SOL     OW13219   0.381   0.165   1.613
 4107SOL    HW113220   0.451   0.216   1.562
 4107SOL    HW213221   0.425   0.111   1.684
 4108SOL     OW13222   6.721   3.677   6.504
 4108SOL    HW113223   6.817   3.655   6.520
 4108SOL    HW213224   6.665   3.596   6.522
 4109SOL     OW13225   4.045   6.387   4.056
 4109SOL    HW113226   3.961   6.364   4.106
 4109SOL    HW213227   4.086   6.469   4.094
 4110SOL     OW13228   5.124   3.581   6.240
 4110SOL    HW113229   5.036   3.585   6.287
 4110SOL    HW213230   5.133   3.493   6.195
 4111SOL     OW13231   4.055   2.726   6.901
 4111SOL    HW113232   4.061   2.794   6.974
 4111SOL    HW213233   4.139   2.672   6.899
 4112SOL     OW13234   3.607   1.768   3.882
 4112SOL    HW113235   3.563   1.773   3.972
 4112SOL    HW213236   3.571   1.841   3.823
 4113SOL     OW13237   3.449   4.992   5.287
 4113SOL    HW113238   3.464   5.002   5.189
 4113SOL    HW213239   3.536   4.999   5.335
 4114SOL     OW13240   3.040   1.878   3.769
 4114SOL    HW113241   3.057   1.868   3.671
 4114SOL    HW213242   3.028   1.975   3.791
 4115SOL     OW13243   4.994   4.895   1.844
 4115SOL    HW113244   5.046   4.819   1.806
 4115SOL    HW213245   5.030   4.918   1.934
 4116SOL     OW13246   3.713   1.918   1.695
 4116SOL    HW113247   3.659   1.888   1.616
 4116SOL    HW213248   3.654   1.966   1.760
 4117SOL     OW13249   0.894   5.330   1.277
 4117SOL    HW113250   0.960   5.348   1.350
 4117SOL    HW213251   0.885   5.231   1.265
 4118SOL     OW13252   1.385   6.646   0.621
 4118SOL    HW113253   1.400   6.678   0.714
 4118SOL    HW213254   1.363   6.548   0.622
 4119SOL     OW13255   3.593   0.715   4.349
 4119SOL    HW113256   3.649   0.777   4.295
 4119SOL    HW213257   3.516   0.682   4.294
 4120SOL     OW13258   4.116   6.785   1.379
 4120SOL    HW113259   4.144   6.881   1.388
 4120SOL    HW213260   4.050   6.762   1.451
 4121SOL     OW13261   6.785   2.550   4.351
 4121SOL    HW113262   6.848   2.554   4.273
 4121SOL    HW213263   6.722   2.473   4.338
 4122SOL     OW13264   0.735   6.166   5.615
 4122SOL    HW113265   0.811   6.149   5.678
 4122SOL    HW213266   0.754   6.246   5.559
 4123SOL     OW13267   5.600   3.986   5.996
 4123SOL    HW113268   5.558   4.075   5.979
 4123SOL    HW213269   5.699   3.996   6.000
 4124SOL     OW13270   5.573   6.536   4.294
 4124SOL    HW113271   5.502   6.517   4.362
 4124SOL    HW213272   5.630   6.612   4.326
 4125SOL     OW13273   4.304   0.733   1.534
 4125SOL    HW113274   4.362   0.786   1.595
 4125SOL    HW213275   4.320   0.762   1.439
 4126SOL     OW13276   2.020   4.462   4.557
 4126SOL    HW113277   2.053   4.377   4.597
 4126SOL    HW213278   2.092   4.532   4.563
 4127SOL     OW13279   5.535   3.376   5.003
 4127SOL    HW113280   5.457   3.343   4.950
 4127SOL    HW213281   5.560   3.308   5.072
 4128SOL     OW13282   1.641   3.477   2.297
 4128SOL    HW113283   1.655   3.378   2.306
 4128SOL    HW213284   1.563   3.504   2.354
 4129SOL     OW13285   5.711   2.298   5.721
 4129SOL    HW113286   5.723   2.379   5.663
 4129SOL    HW213287   5.616   2.268   5.717
 4130SOL     OW13288   6.411   4.494   6.370
 4130SOL    HW113289   6.449   4.429   6.435
 4130SOL    HW213290   6.313   4.477   6.359
 4131SOL     OW13291   6.905   5.162   4.094
 4131SOL    HW113292   6.959   5.234   4.052
 4131SOL    HW213293   6.884   5.186   4.188
 4132SOL     OW13294   5.085   3.248   3.313
 4132SOL    HW113295   5.021   3.308   3.361
 4132SOL    HW213296   5.039   3.161   3.292
 4133SOL     OW13297   2.441   1.170   1.103
 4133SOL    HW113298   2.427   1.266   1.129
 4133SOL    HW213299   2.361   1.117   1.128
 4134SOL     OW13300   2.407   1.991   0.252
 4134SOL    HW113301   2.503   1.969   0.234
 4134SOL    HW213302   2.353   1.976   0.169
 4135SOL     OW13303   2.032   0.961   2.567
 4135SOL    HW113304   2.021   0.866   2.599
 4135SOL    HW213305   1.943   0.995   2.534
 4136SOL     OW13306   0.091   2.271   3.859
 4136SOL    HW113307   7.024   2.290   3.894
 4136SOL    HW213308   0.108   2.328   3.779
 4137SOL     OW13309   3.570   3.748   6.202
 4137SOL    HW113310   3.505   3.748   6.278
 4137SOL    HW213311   3.567   3.660   6.156
 4138SOL     OW13312   4.260   4.687   3.757
 4138SOL    HW113313   4.346   4.652   3.793
 4138SOL    HW213314   4.260   4.679   3.657
 4139SOL     OW13315   1.770   1.886   6.053
 4139SOL    HW113316   1.681   1.924   6.030
 4139SOL    HW213317   1.809   1.935   6.131
 4140SOL     OW13318   3.946   0.817   5.456
 4140SOL    HW113319   3.916   0.912   5.466
 4140SOL    HW213320   3.994   0.806   5.369
 4141SOL     OW13321   5.277   5.149   0.710
 4141SOL    HW113322   5.185   5.117   0.734
 4141SOL    HW213323   5.289   5.142   0.611
 4142SOL     OW13324   6.588   4.377   1.116
 4142SOL    HW113325   6.557   4.391   1.210
 4142SOL    HW213326   6.515   4.334   1.063
 4143SOL     OW13327   6.586   2.996   1.142
 4143SOL    HW113328   6.623   2.904   1.152
 4143SOL    HW213329   6.533   3.019   1.223
 4144SOL     OW13330   5.224   1.458   2.287
 4144SOL    HW113331   5.293   1.395   2.251
 4144SOL    HW213332   5.133   1.420   2.272
 4145SOL     OW13333   1.569   0.380   1.641
 4145SOL    HW113334   1.500   0.313   1.666
 4145SOL    HW213335   1.526   0.468   1.621
 4146SOL     OW13336   5.158   7.013   6.635
 4146SOL    HW113337   5.065   6.985   6.611
 4146SOL    HW213338   5.223   6.967   6.574
 4147SOL     OW13339   3.367   1.913   5.771
 4147SOL    HW113340   3.337   1.879   5.861
 4147SOL    HW213341   3.427   1.845   5.729
 4148SOL     OW13342   6.352   0.802   3.296
 4148SOL    HW113343   6.388   0.709   3.303
 4148SOL    HW213344   6.424   0.868   3.315
 4149SOL     OW13345   6.394   3.864   1.293
 4149SOL    HW113346   6.490   3.869   1.319
 4149SOL    HW213347   6.354   3.779   1.327
 4150SOL     OW13348   5.504   0.306   6.408
 4150SOL    HW113349   5.549   0.391   6.436
 4150SOL    HW213350   5.405   0.320   6.406
 4151SOL     OW13351   0.320   6.387   0.450
 4151SOL    HW113352   0.362   6.296   0.446
 4151SOL    HW213353   0.223   6.380   0.429
 4152SOL     OW13354   4.162   4.619   1.893
 4152SOL    HW113355   4.087   4.671   1.852
 4152SOL    HW213356   4.191   4.547   1.831
 4153SOL     OW13357   5.971   4.993   6.408
 4153SOL    HW113358   5.875   5.013   6.428
 4153SOL    HW213359   6.007   4.930   6.477
 4154SOL     OW13360   6.089   3.032   5.521
 4154SOL    HW113361   6.177   3.059   5.561
 4154SOL    HW213362   6.060   2.945   5.560
 4155SOL     OW13363   1.085   3.471   2.153
 4155SOL    HW113364   1.160   3.532   2.181
 4155SOL    HW213365   1.029   3.517   2.084
 4156SOL     OW13366   5.671   6.583   5.589
 4156SOL    HW113367   5.610   6.504   5.590
 4156SOL    HW213368   5.708   6.598   5.681
 4157SOL     OW13369   4.192   0.896   3.938
 4157SOL    HW113370   4.117   0.908   4.004
 4157SOL    HW213371   4.252   0.976   3.942
 4158SOL     OW13372   0.714   4.932   3.060
 4158SOL    HW113373   0.656   5.013   3.063
 4158SOL    HW213374   0.664   4.853   3.096
 4159SOL     OW13375   0.963   2.767   4.028
 4159SOL    HW113376   0.896   2.699   3.997
 4159SOL    HW213377   0.933   2.858   3.999
 4160SOL     OW13378   6.510   0.176   0.938
 4160SOL    HW113379   6.549   0.162   0.847
 4160SOL    HW213380   6.540   0.103   0.999
 4161SOL     OW13381   1.286   1.683   7.009
 4161SOL    HW113382   1.246   1.641   6.928
 4161SOL    HW213383   1.366   1.630   0.014
 4162SOL     OW13384   6.079   6.824   4.798
 4162SOL    HW113385   5.985   6.832   4.832
 4162SOL    HW213386   6.095   6.730   4.769
 4163SOL     OW13387   5.391   1.638   3.662
 4163SOL    HW113388   5.431   1.654   3.752
 4163SOL    HW213389   5.431   1.556   3.622
 4164SOL     OW13390   1.368   0.729   6.430
 4164SOL    HW113391   1.437   0.658   6.442
 4164SOL    HW213392   1.408   0.818   6.456
 4165SOL     OW13393   3.866   6.623   1.028
 4165SOL    HW113394   3.960   6.634   1.060
 4165SOL    HW213395   3.826   6.713   1.009
 4166SOL     OW13396   4.453   3.113   0.349
 4166SOL    HW113397   4.389   3.043   0.381
 4166SOL    HW213398   4.515   3.138   0.424
 4167SOL     OW13399   2.322   2.550   1.497
 4167SOL    HW113400   2.266   2.469   1.479
 4167SOL    HW213401   2.344   2.554   1.595
 4168SOL     OW13402   0.681   5.325   1.486
 4168SOL    HW113403   0.659   5.423   1.491
 4168SOL    HW213404   0.699   5.300   1.391
 4169SOL     OW13405   5.038   3.698   3.460
 4169SOL    HW113406   4.970   3.768   3.438
 4169SOL    HW213407   5.111   3.700   3.392
 4170SOL     OW13408   3.763   2.786   5.217
 4170SOL    HW113409   3.690   2.829   5.269
 4170SOL    HW213410   3.762   2.819   5.123
 4171SOL     OW13411   5.465   3.826   1.323
 4171SOL    HW113412   5.435   3.829   1.418
 4171SOL    HW213413   5.421   3.900   1.272
 4172SOL     OW13414   0.509   1.823   1.166
 4172SOL    HW113415   0.510   1.732   1.206
 4172SOL    HW213416   0.602   1.861   1.167
 4173SOL     OW13417   5.549   3.070   4.760
 4173SOL    HW113418   5.494   3.060   4.677
 4173SOL    HW213419   5.491   3.057   4.840
 4174SOL     OW13420   4.638   0.545   3.457
 4174SOL    HW113421   4.636   0.460   3.404
 4174SOL    HW213422   4.724   0.593   3.440
 4175SOL     OW13423   3.142   6.976   3.481
 4175SOL    HW113424   3.229   7.013   3.515
 4175SOL    HW213425   3.108   0.010   3.407
 4176SOL     OW13426   4.597   6.900   2.861
 4176SOL    HW113427   4.535   6.826   2.887
 4176SOL    HW213428   4.665   6.914   2.933
 4177SOL     OW13429   0.348   6.059   3.388
 4177SOL    HW113430   0.369   6.137   3.446
 4177SOL    HW213431   0.317   5.983   3.444
 4178SOL     OW13432   3.547   1.692   5.618
 4178SOL    HW113433   3.641   1.715   5.593
 4178SOL    HW213434   3.545   1.601   5.660
 4179SOL     OW13435   5.551   3.661   5.405
 4179SOL    HW113436   5.590   3.574   5.436
 4179SOL    HW213437   5.515   3.649   5.312
 4180SOL     OW13438   4.778   4.528   1.304
 4180SOL    HW113439   4.843   4.539   1.379
 4180SOL    HW213440   4.758   4.430   1.292
 4181SOL     OW13441   0.704   1.610   6.722
 4181SOL    HW113442   0.765   1.548   6.673
 4181SOL    HW213443   0.632   1.642   6.660
 4182SOL     OW13444   6.331   7.024   2.719
 4182SOL    HW113445   6.252   6.971   2.688
 4182SOL    HW213446   6.374   0.045   2.641
 4183SOL     OW13447   1.896   1.664   1.950
 4183SOL    HW113448   1.873   1.751   1.907
 4183SOL    HW213449   1.994   1.662   1.970
 4184SOL     OW13450   3.479   5.560   0.378
 4184SOL    HW113451   3.468   5.559   0.477
 4184SOL    HW213452   3.556   5.619   0.354
 4185SOL     OW13453   0.275   0.132   3.624
 4185SOL    HW113454   0.275   0.056   3.558
 4185SOL    HW213455   0.296   0.217   3.576
 4186SOL     OW13456   2.314   4.104   0.865
 4186SOL    HW113457   2.382   4.152   0.809
 4186SOL    HW213458   2.354   4.019   0.899
 4187SOL     OW13459   3.486   3.283   6.198
 4187SOL    HW113460   3.567   3.338   6.217
 4187SOL    HW213461   3.513   3.198   6.153
 4188SOL     OW13462   4.463   0.061   4.147
 4188SOL    HW113463   4.440   0.042   4.051
 4188SOL    HW213464   4.439   7.006   4.203
 4189SOL     OW13465   2.334   1.717   4.829
 4189SOL    HW113466   2.266   1.667   4.882
 4189SOL    HW213467   2.380   1.784   4.888
 4190SOL     OW13468   3.204   1.059   6.980
 4190SOL    HW113469   3.129   1.021   0.009
 4190SOL    HW213470   3.285   1.002   6.992
 4191SOL     OW13471   6.460   2.341   2.585
 4191SOL    HW113472   6.404   2.280   2.641
 4191SOL    HW213473   6.403   2.388   2.518
 4192SOL     OW13474   5.665   1.175   3.373
 4192SOL    HW113475   5.589   1.179   3.438
 4192SOL    HW213476   5.673   1.082   3.337
 4193SOL     OW13477   2.099   6.771   2.343
 4193SOL    HW113478   2.020   6.719   2.310
 4193SOL    HW213479   2.095   6.864   2.306
 4194SOL     OW13480   0.224   1.518   3.900
 4194SOL    HW113481   0.323   1.509   3.904
 4194SOL    HW213482   0.187   1.525   3.993
 4195SOL     OW13483   5.330   0.261   1.617
 4195SOL    HW113484   5.422   0.297   1.632
 4195SOL    HW213485   5.298   0.287   1.526
 4196SOL     OW13486   4.966   2.452   4.434
 4196SOL    HW113487   4.936   2.428   4.342
 4196SOL    HW213488   4.889   2.490   4.486
 4197SOL     OW13489   4.530   4.468   4.399
 4197SOL    HW113490   4.560   4.477   4.494
 4197SOL    HW213491   4.433   4.444   4.397
 4198SOL     OW13492   6.010   4.103   0.357
 4198SOL    HW113493   5.939   4.152   0.407
 4198SOL    HW213494   6.059   4.167   0.297
 4199SOL     OW13495   3.370   3.526   5.130
 4199SOL    HW113496   3.289   3.474   5.105
 4199SOL    HW213497   3.348   3.588   5.206
 4200SOL     OW13498   2.335   0.167   6.907
 4200SOL    HW113499   2.348   0.135   7.001
 4200SOL    HW213500   2.292   0.257   6.908
 4201SOL     OW13501   5.639   6.809   3.715
 4201SOL    HW113502   5.703   6.830   3.641
 4201SOL    HW213503   5.554   6.775   3.676
 4202SOL     OW13504   5.567   4.675   4.831
 4202SOL    HW113505   5.538   4.585   4.866
 4202SOL    HW213506   5.598   4.732   4.907
 4203SOL     OW13507   5.314   5.756   3.073
 4203SOL    HW113508   5.380   5.796   3.009
 4203SOL    HW213509   5.315   5.807   3.159
 4204SOL     OW13510   2.881   2.779   1.607
 4204SOL    HW113511   2.911   2.866   1.644
 4204SOL    HW213512   2.797   2.792   1.554
 4205SOL     OW13513   2.705   5.298   4.384
 4205SOL    HW113514   2.694   5.239   4.464
 4205SOL    HW213515   2.744   5.245   4.309
 4206SOL     OW13516   4.836   0.440   4.638
 4206SOL    HW113517   4.849   0.462   4.542
 4206SOL    HW213518   4.865   0.346   4.656
 4207SOL     OW13519   1.177   1.470   1.498
 4207SOL    HW113520   1.095   1.524   1.481
 4207SOL    HW213521   1.153   1.373   1.506
 4208SOL     OW13522   1.457   2.925   0.437
 4208SOL    HW113523   1.457   3.025   0.439
 4208SOL    HW213524   1.490   2.890   0.525
 4209SOL     OW13525   2.515   6.585   5.124
 4209SOL    HW113526   2.532   6.573   5.026
 4209SOL    HW213527   2.418   6.606   5.138
 4210SOL     OW13528   4.376   2.953   0.699
 4210SOL    HW113529   4.358   2.913   0.789
 4210SOL    HW213530   4.290   2.963   0.650
 4211SOL     OW13531   4.522   4.846   3.827
 4211SOL    HW113532   4.513   4.755   3.786
 4211SOL    HW213533   4.433   4.891   3.826
 4212SOL     OW13534   6.150   1.316   2.611
 4212SOL    HW113535   6.134   1.322   2.710
 4212SOL    HW213536   6.208   1.237   2.592
 4213SOL     OW13537   1.551   1.139   2.328
 4213SOL    HW113538   1.627   1.091   2.372
 4213SOL    HW213539   1.473   1.078   2.319
 4214SOL     OW13540   0.584   3.441   4.731
 4214SOL    HW113541   0.658   3.397   4.680
 4214SOL    HW213542   0.501   3.440   4.676
 4215SOL     OW13543   0.339   5.469   4.501
 4215SOL    HW113544   0.436   5.457   4.525
 4215SOL    HW213545   0.287   5.392   4.536
 4216SOL     OW13546   0.985   2.942   4.958
 4216SOL    HW113547   0.909   2.940   4.894
 4216SOL    HW213548   1.026   3.033   4.959
 4217SOL     OW13549   6.968   0.868   2.965
 4217SOL    HW113550   6.988   0.943   3.028
 4217SOL    HW213551   6.995   0.781   3.006
 4218SOL     OW13552   3.881   0.121   1.756
 4218SOL    HW113553   3.897   0.148   1.661
 4218SOL    HW213554   3.845   0.200   1.806
 4219SOL     OW13555   4.347   5.574   3.947
 4219SOL    HW113556   4.388   5.530   4.027
 4219SOL    HW213557   4.419   5.591   3.879
 4220SOL     OW13558   6.162   3.097   4.064
 4220SOL    HW113559   6.132   3.012   4.022
 4220SOL    HW213560   6.212   3.077   4.148
 4221SOL     OW13561   5.625   5.636   6.380
 4221SOL    HW113562   5.632   5.584   6.295
 4221SOL    HW213563   5.703   5.613   6.439
 4222SOL     OW13564   5.073   2.365   1.190
 4222SOL    HW113565   5.148   2.431   1.190
 4222SOL    HW213566   4.989   2.409   1.158
 4223SOL     OW13567   3.265   4.082   2.197
 4223SOL    HW113568   3.215   4.168   2.199
 4223SOL    HW213569   3.255   4.039   2.108
 4224SOL     OW13570   4.423   2.432   4.882
 4224SOL    HW113571   4.464   2.522   4.896
 4224SOL    HW213572   4.337   2.426   4.934
 4225SOL     OW13573   5.917   6.659   5.007
 4225SOL    HW113574   6.009   6.640   5.040
 4225SOL    HW213575   5.885   6.746   5.045
 4226SOL     OW13576   0.383   1.160   3.868
 4226SOL    HW113577   0.464   1.191   3.918
 4226SOL    HW213578   0.406   1.149   3.771
 4227SOL     OW13579   4.831   4.764   0.308
 4227SOL    HW113580   4.784   4.683   0.344
 4227SOL    HW213581   4.818   4.768   0.209
 4228SOL     OW13582   5.942   5.270   3.055
 4228SOL    HW113583   5.957   5.192   3.114
 4228SOL    HW213584   6.011   5.341   3.074
 4229SOL     OW13585   5.003   4.971   5.547
 4229SOL    HW113586   4.939   4.898   5.569
 4229SOL    HW213587   4.968   5.024   5.470
 4230SOL     OW13588   3.997   0.266   4.811
 4230SOL    HW113589   4.047   0.281   4.896
 4230SOL    HW213590   3.899   0.279   4.826
 4231SOL     OW13591   4.667   0.212   5.503
 4231SOL    HW113592   4.570   0.194   5.520
 4231SOL    HW213593   4.700   0.281   5.568
 4232SOL     OW13594   2.473   4.647   2.555
 4232SOL    HW113595   2.497   4.669   2.650
 4232SOL    HW213596   2.506   4.719   2.495
 4233SOL     OW13597   6.651   6.221   6.949
 4233SOL    HW113598   6.734   6.211   6.894
 4233SOL    HW213599   6.597   6.137   6.945
 4234SOL     OW13600   3.138   4.339   6.152
 4234SOL    HW113601   3.121   4.244   6.127
 4234SOL    HW213602   3.223   4.345   6.203
 4235SOL     OW13603   6.402   3.683   5.825
 4235SOL    HW113604   6.392   3.769   5.875
 4235SOL    HW213605   6.419   3.703   5.728
 4236SOL     OW13606   0.958   2.742   4.291
 4236SOL    HW113607   1.008   2.756   4.206
 4236SOL    HW213608   0.860   2.741   4.272
 4237SOL     OW13609   5.316   3.226   4.908
 4237SOL    HW113610   5.269   3.311   4.929
 4237SOL    HW213611   5.277   3.186   4.825
 4238SOL     OW13612   4.356   5.604   4.270
 4238SOL    HW113613   4.356   5.704   4.278
 4238SOL    HW213614   4.326   5.565   4.357
 4239SOL     OW13615   4.890   5.817   5.855
 4239SOL    HW113616   4.952   5.770   5.918
 4239SOL    HW213617   4.924   5.909   5.838
 4240SOL     OW13618   2.291   4.656   6.653
 4240SOL    HW113619   2.368   4.596   6.632
 4240SOL    HW213620   2.234   4.667   6.571
 4241SOL     OW13621   4.225   0.820   0.150
 4241SOL    HW113622   4.219   0.874   0.234
 4241SOL    HW213623   4.135   0.782   0.128
 4242SOL     OW13624   2.070   0.743   2.709
 4242SOL    HW113625   2.125   0.756   2.792
 4242SOL    HW213626   2.053   0.645   2.696
 4243SOL     OW13627   1.569   3.391   2.604
 4243SOL    HW113628   1.597   3.341   2.522
 4243SOL    HW213629   1.550   3.326   2.678
 4244SOL     OW13630   4.536   6.776   0.995
 4244SOL    HW113631   4.511   6.844   1.064
 4244SOL    HW213632   4.593   6.819   0.925
 4245SOL     OW13633   6.314   3.542   0.977
 4245SOL    HW113634   6.332   3.515   0.882
 4245SOL    HW213635   6.310   3.642   0.982
 4246SOL     OW13636   5.168   1.655   2.960
 4246SOL    HW113637   5.222   1.660   3.044
 4246SOL    HW213638   5.071   1.652   2.984
 4247SOL     OW13639   1.725   5.053   5.575
 4247SOL    HW113640   1.786   5.045   5.497
 4247SOL    HW213641   1.659   4.977   5.574
 4248SOL     OW13642   1.919   0.959   3.241
 4248SOL    HW113643   1.891   1.037   3.185
 4248SOL    HW213644   1.869   0.961   3.327
 4249SOL     OW13645   6.822   0.127   4.756
 4249SOL    HW113646   6.724   0.105   4.751
 4249SOL    HW213647   6.864   0.110   4.667
 4250SOL     OW13648   0.158   5.329   4.317
 4250SOL    HW113649   0.199   5.280   4.241
 4250SOL    HW213650   0.222   5.399   4.350
 4251SOL     OW13651   6.028   1.927   5.682
 4251SOL    HW113652   6.087   1.859   5.638
 4251SOL    HW213653   6.084   1.984   5.743
 4252SOL     OW13654   0.091   6.821   0.023
 4252SOL    HW113655   0.144   6.755   0.076
 4252SOL    HW213656   0.010   6.848   0.075
 4253SOL     OW13657   4.642   5.679   2.568
 4253SOL    HW113658   4.619   5.685   2.665
 4253SOL    HW213659   4.722   5.621   2.556
 4254SOL     OW13660   1.691   3.073   0.027
 4254SOL    HW113661   1.735   3.019   6.980
 4254SOL    HW213662   1.722   3.041   0.116
 4255SOL     OW13663   1.292   3.783   2.584
 4255SOL    HW113664   1.254   3.779   2.492
 4255SOL    HW213665   1.271   3.872   2.625
 4256SOL     OW13666   0.441   5.534   1.775
 4256SOL    HW113667   0.409   5.554   1.683
 4256SOL    HW213668   0.496   5.610   1.810
 4257SOL     OW13669   6.003   0.823   4.737
 4257SOL    HW113670   5.988   0.915   4.701
 4257SOL    HW213671   6.077   0.779   4.686
 4258SOL     OW13672   3.867   5.839   0.169
 4258SOL    HW113673   3.803   5.793   0.108
 4258SOL    HW213674   3.868   5.937   0.150
 4259SOL     OW13675   0.994   0.151   2.349
 4259SOL    HW113676   0.929   0.213   2.393
 4259SOL    HW213677   1.080   0.200   2.334
 4260SOL     OW13678   5.139   0.618   4.482
 4260SOL    HW113679   5.100   0.649   4.569
 4260SOL    HW213680   5.173   0.698   4.431
 4261SOL     OW13681   2.028   6.639   4.107
 4261SOL    HW113682   1.965   6.712   4.083
 4261SOL    HW213683   2.018   6.616   4.204
 4262SOL     OW13684   1.442   4.169   6.994
 4262SOL    HW113685   1.405   4.080   6.967
 4262SOL    HW213686   1.367   4.228   0.001
 4263SOL     OW13687   2.624   2.401   3.926
 4263SOL    HW113688   2.621   2.448   4.014
 4263SOL    HW213689   2.630   2.467   3.852
 4264SOL     OW13690   4.902   0.854   4.876
 4264SOL    HW113691   4.883   0.869   4.973
 4264SOL    HW213692   4.834   0.902   4.821
 4265SOL     OW13693   3.907   1.059   0.185
 4265SOL    HW113694   3.853   1.132   0.226
 4265SOL    HW213695   3.905   1.068   0.085
 4266SOL     OW13696   1.384   6.378   1.368
 4266SOL    HW113697   1.390   6.279   1.372
 4266SOL    HW213698   1.303   6.409   1.418
 4267SOL     OW13699   1.470   4.316   4.725
 4267SOL    HW113700   1.556   4.332   4.676
 4267SOL    HW213701   1.398   4.372   4.684
 4268SOL     OW13702   1.205   4.416   6.295
 4268SOL    HW113703   1.200   4.488   6.226
 4268SOL    HW213704   1.239   4.453   6.381
 4269SOL     OW13705   2.714   1.466   4.600
 4269SOL    HW113706   2.796   1.508   4.639
 4269SOL    HW213707   2.647   1.538   4.577
 4270SOL     OW13708   3.788   2.770   0.416
 4270SOL    HW113709   3.816   2.701   0.483
 4270SOL    HW213710   3.690   2.785   0.424
 4271SOL     OW13711   6.967   0.553   1.369
 4271SOL    HW113712   0.015   0.618   1.391
 4271SOL    HW213713   6.887   0.571   1.427
 4272SOL     OW13714   6.854   1.215   6.583
 4272SOL    HW113715   6.865   1.120   6.553
 4272SOL    HW213716   6.821   1.271   6.507
 4273SOL     OW13717   3.537   5.500   4.494
 4273SOL    HW113718   3.568   5.438   4.567
 4273SOL    HW213719   3.468   5.563   4.530
 4274SOL     OW13720   0.024   1.536   1.971
 4274SOL    HW113721   0.044   1.483   2.053
 4274SOL    HW213722   6.985   1.485   1.913
 4275SOL     OW13723   0.066   2.959   3.139
 4275SOL    HW113724   0.072   3.044   3.191
 4275SOL    HW213725   7.002   2.916   3.155
 4276SOL     OW13726   1.942   5.713   4.450
 4276SOL    HW113727   1.949   5.618   4.481
 4276SOL    HW213728   2.029   5.760   4.469
 4277SOL     OW13729   6.179   5.365   3.378
 4277SOL    HW113730   6.181   5.275   3.336
 4277SOL    HW213731   6.139   5.431   3.314
 4278SOL     OW13732   1.137   6.714   1.775
 4278SOL    HW113733   1.072   6.667   1.715
 4278SOL    HW213734   1.113   6.811   1.782
 4279SOL     OW13735   1.758   1.733   3.269
 4279SOL    HW113736   1.854   1.733   3.243
 4279SOL    HW213737   1.740   1.809   3.331
 4280SOL     OW13738   0.749   6.740   6.265
 4280SOL    HW113739   0.831   6.781   6.305
 4280SOL    HW213740   0.727   6.786   6.179
 4281SOL     OW13741   4.562   5.528   3.411
 4281SOL    HW113742   4.566   5.613   3.359
 4281SOL    HW213743   4.474   5.520   3.456
 4282SOL     OW13744   3.797   4.180   1.233
 4282SOL    HW113745   3.825   4.084   1.242
 4282SOL    HW213746   3.767   4.215   1.321
 4283SOL     OW13747   5.199   1.578   4.257
 4283SOL    HW113748   5.109   1.589   4.299
 4283SOL    HW213749   5.190   1.529   4.171
 4284SOL     OW13750   4.365   5.762   5.973
 4284SOL    HW113751   4.458   5.759   5.937
 4284SOL    HW213752   4.315   5.679   5.944
 4285SOL     OW13753   2.883   0.574   5.810
 4285SOL    HW113754   2.947   0.507   5.773
 4285SOL    HW213755   2.901   0.664   5.771
 4286SOL     OW13756   5.535   0.853   6.357
 4286SOL    HW113757   5.546   0.796   6.438
 4286SOL    HW213758   5.466   0.923   6.375
 4287SOL     OW13759   4.607   0.487   6.969
 4287SOL    HW113760   4.658   0.426   6.908
 4287SOL    HW213761   4.540   0.539   6.916
 4288SOL     OW13762   6.811   6.882   2.470
 4288SOL    HW113763   6.911   6.884   2.473
 4288SOL    HW213764   6.774   6.933   2.548
 4289SOL     OW13765   0.399   3.617   4.280
 4289SOL    HW113766   0.490   3.586   4.252
 4289SOL    HW213767   0.407   3.671   4.364
 4290SOL     OW13768   0.266   0.896   3.619
 4290SOL    HW113769   0.204   0.896   3.698
 4290SOL    HW213770   0.307   0.806   3.608
 4291SOL     OW13771   4.872   3.214   6.273
 4291SOL    HW113772   4.781   3.256   6.275
 4291SOL    HW213773   4.885   3.166   6.186
 4292SOL     OW13774   5.928   2.087   1.208
 4292SOL    HW113775   6.021   2.072   1.243
 4292SOL    HW213776   5.898   2.179   1.233
 4293SOL     OW13777   3.651   4.382   6.917
 4293SOL    HW113778   3.712   4.311   6.882
 4293SOL    HW213779   3.701   4.443   6.978
 4294SOL     OW13780   2.007   1.772   6.424
 4294SOL    HW113781   1.981   1.702   6.358
 4294SOL    HW213782   1.934   1.840   6.431
 4295SOL     OW13783   3.875   6.037   2.879
 4295SOL    HW113784   3.964   6.059   2.918
 4295SOL    HW213785   3.814   6.115   2.892
 4296SOL     OW13786   2.935   6.190   2.153
 4296SOL    HW113787   3.008   6.253   2.130
 4296SOL    HW213788   2.886   6.223   2.234
 4297SOL     OW13789   5.812   4.804   0.740
 4297SOL    HW113790   5.816   4.805   0.840
 4297SOL    HW213791   5.764   4.885   0.708
 4298SOL     OW13792   2.664   6.672   0.107
 4298SOL    HW113793   2.616   6.760   0.115
 4298SOL    HW213794   2.718   6.671   0.023
 4299SOL     OW13795   0.939   2.959   0.134
 4299SOL    HW113796   0.870   3.006   0.189
 4299SOL    HW213797   1.030   2.989   0.161
 4300SOL     OW13798   2.985   1.323   0.859
 4300SOL    HW113799   2.975   1.349   0.955
 4300SOL    HW213800   3.019   1.228   0.854
 4301SOL     OW13801   3.012   6.717   1.463
 4301SOL    HW113802   2.949   6.750   1.534
 4301SOL    HW213803   3.008   6.779   1.384
 4302SOL     OW13804   1.896   5.757   6.020
 4302SOL    HW113805   1.904   5.669   6.068
 4302SOL    HW213806   1.868   5.827   6.085
 4303SOL     OW13807   6.400   4.823   3.179
 4303SOL    HW113808   6.440   4.745   3.130
 4303SOL    HW213809   6.398   4.903   3.118
 4304SOL     OW13810   3.482   3.749   1.576
 4304SOL    HW113811   3.394   3.724   1.535
 4304SOL    HW213812   3.469   3.776   1.671
 4305SOL     OW13813   1.681   0.392   5.396
 4305SOL    HW113814   1.681   0.296   5.424
 4305SOL    HW213815   1.636   0.447   5.467
 4306SOL     OW13816   5.572   3.171   5.172
 4306SOL    HW113817   5.530   3.081   5.159
 4306SOL    HW213818   5.565   3.197   5.268
 4307SOL     OW13819   0.189   1.658   5.476
 4307SOL    HW113820   0.209   1.574   5.426
 4307SOL    HW213821   0.091   1.666   5.492
 4308SOL     OW13822   4.775   5.738   6.828
 4308SOL    HW113823   4.775   5.804   6.903
 4308SOL    HW213824   4.707   5.667   6.846
 4309SOL     OW13825   1.114   2.949   1.060
 4309SOL    HW113826   1.028   2.906   1.083
 4309SOL    HW213827   1.182   2.879   1.036
 4310SOL     OW13828   6.665   1.949   3.023
 4310SOL    HW113829   6.750   1.957   3.075
 4310SOL    HW213830   6.620   1.862   3.044
 4311SOL     OW13831   0.578   0.617   2.799
 4311SOL    HW113832   0.559   0.520   2.781
 4311SOL    HW213833   0.621   0.659   2.720
 4312SOL     OW13834   0.634   4.891   2.455
 4312SOL    HW113835   0.591   4.804   2.430
 4312SOL    HW213836   0.589   4.966   2.406
 4313SOL     OW13837   6.119   2.103   6.960
 4313SOL    HW113838   6.159   2.092   6.870
 4313SOL    HW213839   6.110   2.013   7.004
 4314SOL     OW13840   6.594   2.090   5.397
 4314SOL    HW113841   6.674   2.105   5.339
 4314SOL    HW213842   6.547   2.177   5.413
 4315SOL     OW13843   2.877   1.633   4.243
 4315SOL    HW113844   2.921   1.660   4.158
 4315SOL    HW213845   2.933   1.662   4.321
 4316SOL     OW13846   5.346   7.015   1.573
 4316SOL    HW113847   5.354   0.084   1.607
 4316SOL    HW213848   5.308   6.956   1.644
 4317SOL     OW13849   4.377   1.112   6.127
 4317SOL    HW113850   4.308   1.133   6.059
 4317SOL    HW213851   4.464   1.094   6.082
 4318SOL     OW13852   0.539   0.916   4.163
 4318SOL    HW113853   0.582   1.001   4.133
 4318SOL    HW213854   0.599   0.870   4.228
 4319SOL     OW13855   1.687   4.728   2.433
 4319SOL    HW113856   1.666   4.802   2.370
 4319SOL    HW213857   1.749   4.761   2.504
 4320SOL     OW13858   3.392   6.244   0.798
 4320SOL    HW113859   3.475   6.188   0.792
 4320SOL    HW213860   3.340   6.235   0.713
 4321SOL     OW13861   6.210   6.770   2.972
 4321SOL    HW113862   6.176   6.732   3.058
 4321SOL    HW213863   6.309   6.752   2.965
 4322SOL     OW13864   0.819   3.321   5.585
 4322SOL    HW113865   0.857   3.244   5.636
 4322SOL    HW213866   0.787   3.391   5.649
 4323SOL     OW13867   3.838   4.947   6.533
 4323SOL    HW113868   3.854   4.948   6.632
 4323SOL    HW213869   3.806   5.037   6.504
 4324SOL     OW13870   6.647   4.173   6.082
 4324SOL    HW113871   6.735   4.137   6.111
 4324SOL    HW213872   6.576   4.141   6.145
 4325SOL     OW13873   2.438   0.830   2.048
 4325SOL    HW113874   2.499   0.864   2.119
 4325SOL    HW213875   2.490   0.813   1.964
 4326SOL     OW13876   4.863   2.756   2.551
 4326SOL    HW113877   4.879   2.825   2.622
 4326SOL    HW213878   4.770   2.720   2.560
 4327SOL     OW13879   2.950   5.600   4.146
 4327SOL    HW113880   2.997   5.552   4.072
 4327SOL    HW213881   3.005   5.594   4.230
 4328SOL     OW13882   5.711   6.672   4.541
 4328SOL    HW113883   5.648   6.741   4.576
 4328SOL    HW213884   5.758   6.628   4.618
 4329SOL     OW13885   6.806   2.002   6.020
 4329SOL    HW113886   6.833   1.987   6.115
 4329SOL    HW213887   6.811   2.099   5.998
 4330SOL     OW13888   2.895   4.896   4.941
 4330SOL    HW113889   2.980   4.934   4.977
 4330SOL    HW213890   2.877   4.808   4.985
 4331SOL     OW13891   5.928   0.849   2.098
 4331SOL    HW113892   5.906   0.787   2.023
 4331SOL    HW213893   5.878   0.935   2.086
 4332SOL     OW13894   0.393   5.222   2.395
 4332SOL    HW113895   0.481   5.266   2.381
 4332SOL    HW213896   0.335   5.237   2.315
 4333SOL     OW13897   3.611   2.196   5.493
 4333SOL    HW113898   3.577   2.187   5.587
 4333SOL    HW213899   3.594   2.111   5.443
 4334SOL     OW13900   0.277   2.288   4.377
 4334SOL    HW113901   0.301   2.372   4.329
 4334SOL    HW213902   0.182   2.293   4.409
 4335SOL     OW13903   2.703   4.166   1.600
 4335SOL    HW113904   2.670   4.153   1.506
 4335SOL    HW213905   2.747   4.082   1.632
 4336SOL     OW13906   2.829   4.893   5.627
 4336SOL    HW113907   2.923   4.920   5.607
 4336SOL    HW213908   2.782   4.869   5.542
 4337SOL     OW13909   1.436   5.184   3.959
 4337SOL    HW113910   1.386   5.174   3.873
 4337SOL    HW213911   1.497   5.263   3.954
 4338SOL     OW13912   3.810   1.058   5.888
 4338SOL    HW113913   3.740   1.000   5.846
 4338SOL    HW213914   3.898   1.042   5.843
 4339SOL     OW13915   3.392   3.447   5.950
 4339SOL    HW113916   3.479   3.487   5.922
 4339SOL    HW213917   3.403   3.404   6.040
 4340SOL     OW13918   6.608   3.574   1.053
 4340SOL    HW113919   6.659   3.658   1.034
 4340SOL    HW213920   6.510   3.592   1.040
 4341SOL     OW13921   0.679   6.899   2.598
 4341SOL    HW113922   0.773   6.905   2.565
 4341SOL    HW213923   0.676   6.841   2.680
 4342SOL     OW13924   5.501   4.023   2.473
 4342SOL    HW113925   5.470   4.117   2.459
 4342SOL    HW213926   5.424   3.967   2.502
 4343SOL     OW13927   4.346   0.326   5.818
 4343SOL    HW113928   4.401   0.398   5.861
 4343SOL    HW213929   4.258   0.320   5.865
 4344SOL     OW13930   0.512   3.321   3.915
 4344SOL    HW113931   0.419   3.331   3.948
 4344SOL    HW213932   0.529   3.385   3.840
 4345SOL     OW13933   3.262   3.436   2.329
 4345SOL    HW113934   3.284   3.339   2.342
 4345SOL    HW213935   3.334   3.480   2.276
 4346SOL     OW13936   0.937   3.057   2.224
 4346SOL    HW113937   1.000   2.998   2.274
 4346SOL    HW213938   0.989   3.124   2.171
 4347SOL     OW13939   5.862   5.078   0.912
 4347SOL    HW113940   5.807   5.066   0.829
 4347SOL    HW213941   5.853   4.996   0.970
 4348SOL     OW13942   6.015   5.686   4.415
 4348SOL    HW113943   5.951   5.619   4.378
 4348SOL    HW213944   5.965   5.767   4.446
 4349SOL     OW13945   6.990   3.611   4.550
 4349SOL    HW113946   6.969   3.514   4.533
 4349SOL    HW213947   6.991   3.660   4.463
 4350SOL     OW13948   4.629   1.602   4.763
 4350SOL    HW113949   4.714   1.601   4.815
 4350SOL    HW213950   4.552   1.598   4.827
 4351SOL     OW13951   0.941   6.452   0.361
 4351SOL    HW113952   1.006   6.377   0.364
 4351SOL    HW213953   0.949   6.507   0.445
 4352SOL     OW13954   3.591   3.839   1.269
 4352SOL    HW113955   3.527   3.777   1.313
 4352SOL    HW213956   3.544   3.923   1.244
 4353SOL     OW13957   3.235   3.395   0.998
 4353SOL    HW113958   3.225   3.356   1.089
 4353SOL    HW213959   3.166   3.356   0.937
 4354SOL     OW13960   5.395   6.675   3.711
 4354SOL    HW113961   5.387   6.576   3.696
 4354SOL    HW213962   5.375   6.696   3.807
 4355SOL     OW13963   1.345   6.051   3.353
 4355SOL    HW113964   1.399   6.123   3.396
 4355SOL    HW213965   1.371   5.962   3.391
 4356SOL     OW13966   5.611   2.816   5.859
 4356SOL    HW113967   5.626   2.737   5.918
 4356SOL    HW213968   5.630   2.791   5.764
 4357SOL     OW13969   6.226   0.506   2.421
 4357SOL    HW113970   6.203   0.549   2.334
 4357SOL    HW213971   6.317   0.465   2.416
 4358SOL     OW13972   2.111   6.376   6.785
 4358SOL    HW113973   2.084   6.343   6.694
 4358SOL    HW213974   2.206   6.408   6.782
 4359SOL     OW13975   2.555   2.095   0.027
 4359SOL    HW113976   2.588   2.140   6.968
 4359SOL    HW213977   2.633   2.070   0.084
 4360SOL     OW13978   1.334   3.213   4.045
 4360SOL    HW113979   1.252   3.265   4.071
 4360SOL    HW213980   1.308   3.118   4.026
 4361SOL     OW13981   6.687   1.344   0.723
 4361SOL    HW113982   6.683   1.437   0.685
 4361SOL    HW213983   6.633   1.282   0.666
 4362SOL     OW13984   1.193   5.934   3.671
 4362SOL    HW113985   1.251   6.015   3.676
 4362SOL    HW213986   1.097   5.962   3.663
 4363SOL     OW13987   4.618   1.561   2.198
 4363SOL    HW113988   4.611   1.590   2.294
 4363SOL    HW213989   4.658   1.635   2.144
 4364SOL     OW13990   4.046   3.868   2.753
 4364SOL    HW113991   4.098   3.802   2.807
 4364SOL    HW213992   3.974   3.907   2.810
 4365SOL     OW13993   3.020   2.146   1.314
 4365SOL    HW113994   3.051   2.098   1.396
 4365SOL    HW213995   2.934   2.193   1.333
 4366SOL     OW13996   4.426   6.192   4.865
 4366SOL    HW113997   4.360   6.266   4.847
 4366SOL    HW213998   4.517   6.231   4.879
 4367SOL     OW13999   2.117   5.466   3.813
 4367SOL    HW114000   2.210   5.485   3.783
 4367SOL    HW214001   2.090   5.533   3.882
 4368SOL     OW14002   4.774   4.467   2.757
 4368SOL    HW114003   4.741   4.413   2.680
 4368SOL    HW214004   4.770   4.412   2.841
 4369SOL     OW14005   4.057   4.818   3.137
 4369SOL    HW114006   3.994   4.839   3.212
 4369SOL    HW214007   4.136   4.768   3.172
 4370SOL     OW14008   3.839   4.360   1.711
 4370SOL    HW114009   3.842   4.314   1.621
 4370SOL    HW214010   3.790   4.302   1.776
 4371SOL     OW14011   3.098   1.551   0.991
 4371SOL    HW114012   3.138   1.632   0.949
 4371SOL    HW214013   3.168   1.500   1.041
 4372SOL     OW14014   1.978   3.183   4.440
 4372SOL    HW114015   1.943   3.254   4.500
 4372SOL    HW214016   2.036   3.120   4.493
 4373SOL     OW14017   4.488   1.557   5.809
 4373SOL    HW114018   4.458   1.489   5.742
 4373SOL    HW214019   4.549   1.515   5.875
 4374SOL     OW14020   2.365   1.300   1.530
 4374SOL    HW114021   2.420   1.347   1.599
 4374SOL    HW214022   2.351   1.205   1.558
 4375SOL     OW14023   4.584   1.007   3.448
 4375SOL    HW114024   4.646   1.028   3.523
 4375SOL    HW214025   4.636   0.976   3.368
 4376SOL     OW14026   1.139   6.761   0.786
 4376SOL    HW114027   1.234   6.785   0.763
 4376SOL    HW214028   1.138   6.678   0.840
 4377SOL     OW14029   6.047   6.856   6.529
 4377SOL    HW114030   6.039   6.926   6.458
 4377SOL    HW214031   6.110   6.888   6.600
 4378SOL     OW14032   1.942   5.438   2.759
 4378SOL    HW114033   1.879   5.367   2.730
 4378SOL    HW214034   1.897   5.527   2.754
 4379SOL     OW14035   1.161   0.704   2.083
 4379SOL    HW114036   1.171   0.657   2.171
 4379SOL    HW214037   1.248   0.700   2.033
 4380SOL     OW14038   1.539   5.630   5.393
 4380SOL    HW114039   1.540   5.539   5.351
 4380SOL    HW214040   1.446   5.654   5.418
 4381SOL     OW14041   3.408   6.503   4.847
 4381SOL    HW114042   3.414   6.580   4.783
 4381SOL    HW214043   3.427   6.418   4.798
 4382SOL     OW14044   4.841   3.867   3.440
 4382SOL    HW114045   4.805   3.931   3.508
 4382SOL    HW214046   4.864   3.918   3.357
 4383SOL     OW14047   0.774   3.018   6.437
 4383SOL    HW114048   0.835   2.948   6.475
 4383SOL    HW214049   0.828   3.084   6.385
 4384SOL     OW14050   3.791   5.639   0.766
 4384SOL    HW114051   3.874   5.629   0.711
 4384SOL    HW214052   3.767   5.735   0.773
 4385SOL     OW14053   0.486   2.057   2.479
 4385SOL    HW114054   0.469   2.155   2.480
 4385SOL    HW214055   0.566   2.036   2.534
 4386SOL     OW14056   1.048   3.022   6.818
 4386SOL    HW114057   1.055   2.952   6.747
 4386SOL    HW214058   0.952   3.038   6.840
 4387SOL     OW14059   0.185   3.671   1.989
 4387SOL    HW114060   0.241   3.590   2.002
 4387SOL    HW214061   0.166   3.684   1.891
 4388SOL     OW14062   3.517   0.972   5.527
 4388SOL    HW114063   3.604   0.968   5.479
 4388SOL    HW214064   3.443   0.983   5.460
 4389SOL     OW14065   5.264   2.382   2.897
 4389SOL    HW114066   5.204   2.456   2.868
 4389SOL    HW214067   5.309   2.408   2.983
 4390SOL     OW14068   4.695   2.758   2.090
 4390SOL    HW114069   4.609   2.720   2.058
 4390SOL    HW214070   4.714   2.843   2.041
 4391SOL     OW14071   1.323   5.709   0.430
 4391SOL    HW114072   1.258   5.639   0.460
 4391SOL    HW214073   1.411   5.694   0.474
 4392SOL     OW14074   4.857   3.237   4.280
 4392SOL    HW114075   4.873   3.187   4.366
 4392SOL    HW214076   4.917   3.316   4.276
 4393SOL     OW14077   4.658   6.411   3.371
 4393SOL    HW114078   4.657   6.412   3.471
 4393SOL    HW214079   4.656   6.316   3.339
 4394SOL     OW14080   5.080   6.993   2.925
 4394SOL    HW114081   5.026   0.033   2.979
 4394SOL    HW214082   5.130   0.017   2.854
 4395SOL     OW14083   5.528   1.567   2.211
 4395SOL    HW114084   5.457   1.634   2.192
 4395SOL    HW214085   5.486   1.477   2.225
 4396SOL     OW14086   1.048   0.611   4.164
 4396SOL    HW114087   1.035   0.541   4.093
 4396SOL    HW214088   1.083   0.567   4.247
 4397SOL     OW14089   6.218   0.498   5.367
 4397SOL    HW114090   6.147   0.555   5.409
 4397SOL    HW214091   6.277   0.555   5.310
 4398SOL     OW14092   0.097   4.211   4.549
 4398SOL    HW114093   0.058   4.276   4.615
 4398SOL    HW214094   0.112   4.257   4.462
 4399SOL     OW14095   2.376   1.392   1.248
 4399SOL    HW114096   2.473   1.411   1.233
 4399SOL    HW214097   2.361   1.370   1.344
 4400SOL     OW14098   3.135   6.452   4.632
 4400SOL    HW114099   3.143   6.465   4.533
 4400SOL    HW214100   3.220   6.480   4.677
 4401SOL     OW14101   5.384   5.746   4.083
 4401SOL    HW114102   5.440   5.768   4.003
 4401SOL    HW214103   5.390   5.820   4.149
 4402SOL     OW14104   0.719   6.583   2.630
 4402SOL    HW114105   0.756   6.608   2.720
 4402SOL    HW214106   0.620   6.577   2.635
 4403SOL     OW14107   0.647   0.195   3.455
 4403SOL    HW114108   0.628   0.164   3.548
 4403SOL    HW214109   0.737   0.241   3.453
 4404SOL     OW14110   1.155   4.039   3.549
 4404SOL    HW114111   1.235   4.084   3.510
 4404SOL    HW214112   1.180   3.994   3.634
 4405SOL     OW14113   3.126   4.289   5.699
 4405SOL    HW114114   3.158   4.298   5.793
 4405SOL    HW214115   3.160   4.366   5.645
 4406SOL     OW14116   5.550   4.107   1.186
 4406SOL    HW114117   5.620   4.132   1.119
 4406SOL    HW214118   5.592   4.093   1.275
 4407SOL     OW14119   5.781   6.987   7.014
 4407SOL    HW114120   5.847   0.037   7.016
 4407SOL    HW214121   5.827   6.901   0.011
 4408SOL     OW14122   4.474   6.179   6.746
 4408SOL    HW114123   4.467   6.257   6.683
 4408SOL    HW214124   4.411   6.107   6.718
 4409SOL     OW14125   3.270   1.112   1.607
 4409SOL    HW114126   3.287   1.049   1.683
 4409SOL    HW214127   3.343   1.180   1.603
 4410SOL     OW14128   2.488   5.347   2.104
 4410SOL    HW114129   2.460   5.423   2.045
 4410SOL    HW214130   2.485   5.376   2.199
 4411SOL     OW14131   4.082   3.280   2.754
 4411SOL    HW114132   4.154   3.290   2.685
 4411SOL    HW214133   4.123   3.282   2.845
 4412SOL     OW14134   3.565   1.710   6.634
 4412SOL    HW114135   3.541   1.614   6.648
 4412SOL    HW214136   3.565   1.757   6.722
 4413SOL     OW14137   4.651   6.271   4.661
 4413SOL    HW114138   4.603   6.195   4.704
 4413SOL    HW214139   4.639   6.266   4.562
 4414SOL     OW14140   3.877   4.891   1.888
 4414SOL    HW114141   3.883   4.934   1.978
 4414SOL    HW214142   3.804   4.822   1.890
 4415SOL     OW14143   5.605   2.697   0.035
 4415SOL    HW114144   5.653   2.703   0.123
 4415SOL    HW214145   5.569   2.788   0.010
 4416SOL     OW14146   3.834   0.342   3.869
 4416SOL    HW114147   3.908   0.297   3.818
 4416SOL    HW214148   3.828   0.438   3.840
 4417SOL     OW14149   0.051   6.604   2.638
 4417SOL    HW114150   0.084   6.551   2.560
 4417SOL    HW214151   6.986   6.569   2.666
 4418SOL     OW14152   4.212   6.990   3.498
 4418SOL    HW114153   4.211   0.013   3.411
 4418SOL    HW214154   4.118   6.985   3.534
 4419SOL     OW14155   0.349   5.049   6.492
 4419SOL    HW114156   0.302   5.044   6.580
 4419SOL    HW214157   0.431   5.105   6.502
 4420SOL     OW14158   5.173   1.842   6.179
 4420SOL    HW114159   5.087   1.843   6.230
 4420SOL    HW214160   5.178   1.925   6.123
 4421SOL     OW14161   1.493   1.707   3.532
 4421SOL    HW114162   1.573   1.762   3.508
 4421SOL    HW214163   1.517   1.644   3.605
 4422SOL     OW14164   1.807   3.879   6.263
 4422SOL    HW114165   1.892   3.832   6.287
 4422SOL    HW214166   1.829   3.970   6.226
 4423SOL     OW14167   1.345   1.829   6.231
 4423SOL    HW114168   1.394   1.844   6.317
 4423SOL    HW214169   1.312   1.734   6.228
 4424SOL     OW14170   6.624   0.543   3.076
 4424SOL    HW114171   6.547   0.509   3.022
 4424SOL    HW214172   6.646   0.636   3.049
 4425SOL     OW14173   4.391   4.703   6.309
 4425SOL    HW114174   4.479   4.698   6.262
 4425SOL    HW214175   4.320   4.662   6.251
 4426SOL     OW14176   0.702   0.405   5.906
 4426SOL    HW114177   0.799   0.392   5.929
 4426SOL    HW214178   0.656   0.316   5.904
 4427SOL     OW14179   0.963   0.253   3.530
 4427SOL    HW114180   0.954   0.245   3.629
 4427SOL    HW214181   0.930   0.343   3.501
 4428SOL     OW14182   2.495   5.308   3.496
 4428SOL    HW114183   2.499   5.389   3.438
 4428SOL    HW214184   2.578   5.254   3.485
 4429SOL     OW14185   3.797   7.017   2.999
 4429SOL    HW114186   3.851   0.033   3.073
 4429SOL    HW214187   3.714   6.977   3.037
 4430SOL     OW14188   2.207   0.771   2.286
 4430SOL    HW114189   2.284   0.708   2.274
 4430SOL    HW214190   2.218   0.821   2.371
 4431SOL     OW14191   2.253   2.007   3.009
 4431SOL    HW114192   2.193   2.037   3.083
 4431SOL    HW214193   2.299   1.922   3.036
 4432SOL     OW14194   3.026   3.905   2.936
 4432SOL    HW114195   3.012   3.812   2.970
 4432SOL    HW214196   3.120   3.933   2.955
 4433SOL     OW14197   6.542   0.039   2.890
 4433SOL    HW114198   6.503   0.089   2.968
 4433SOL    HW214199   6.468   0.002   2.834
 4434SOL     OW14200   6.126   2.623   4.331
 4434SOL    HW114201   6.174   2.677   4.400
 4434SOL    HW214202   6.032   2.605   4.362
 4435SOL     OW14203   3.223   3.197   1.563
 4435SOL    HW114204   3.279   3.278   1.580
 4435SOL    HW214205   3.277   3.115   1.578
 4436SOL     OW14206   5.153   1.950   6.697
 4436SOL    HW114207   5.169   1.866   6.749
 4436SOL    HW214208   5.204   1.947   6.611
 4437SOL     OW14209   3.604   0.940   4.779
 4437SOL    HW114210   3.683   0.904   4.829
 4437SOL    HW214211   3.601   1.039   4.788
 4438SOL     OW14212   4.226   2.954   0.011
 4438SOL    HW114213   4.248   2.905   0.095
 4438SOL    HW214214   4.282   3.036   0.005
 4439SOL     OW14215   2.098   5.962   2.357
 4439SOL    HW114216   2.074   5.909   2.438
 4439SOL    HW214217   2.059   6.054   2.365
 4440SOL     OW14218   1.210   6.760   6.510
 4440SOL    HW114219   1.157   6.680   6.540
 4440SOL    HW214220   1.230   6.818   6.589
 4441SOL     OW14221   5.831   2.771   3.064
 4441SOL    HW114222   5.757   2.831   3.095
 4441SOL    HW214223   5.842   2.782   2.965
 4442SOL     OW14224   3.155   6.371   3.183
 4442SOL    HW114225   3.129   6.289   3.132
 4442SOL    HW214226   3.195   6.344   3.271
 4443SOL     OW14227   2.810   1.707   5.542
 4443SOL    HW114228   2.818   1.630   5.479
 4443SOL    HW214229   2.747   1.684   5.616
 4444SOL     OW14230   5.688   0.830   1.034
 4444SOL    HW114231   5.707   0.888   0.955
 4444SOL    HW214232   5.607   0.865   1.081
 4445SOL     OW14233   1.123   0.798   6.466
 4445SOL    HW114234   1.059   0.754   6.402
 4445SOL    HW214235   1.217   0.781   6.435
 4446SOL     OW14236   6.509   0.389   2.871
 4446SOL    HW114237   6.500   0.436   2.783
 4446SOL    HW214238   6.444   0.314   2.877
 4447SOL     OW14239   5.704   2.529   5.547
 4447SOL    HW114240   5.691   2.530   5.448
 4447SOL    HW214241   5.673   2.616   5.586
 4448SOL     OW14242   2.477   3.785   6.821
 4448SOL    HW114243   2.395   3.744   6.780
 4448SOL    HW214244   2.503   3.732   6.902
 4449SOL     OW14245   1.022   1.518   5.351
 4449SOL    HW114246   1.076   1.593   5.388
 4449SOL    HW214247   0.993   1.458   5.426
 4450SOL     OW14248   4.000   3.536   3.516
 4450SOL    HW114249   4.077   3.480   3.485
 4450SOL    HW214250   3.974   3.601   3.444
 4451SOL     OW14251   6.540   4.546   2.154
 4451SOL    HW114252   6.521   4.449   2.137
 4451SOL    HW214253   6.527   4.565   2.251
 4452SOL     OW14254   6.470   6.214   6.395
 4452SOL    HW114255   6.449   6.299   6.348
 4452SOL    HW214256   6.493   6.143   6.328
 4453SOL     OW14257   5.605   2.584   1.340
 4453SOL    HW114258   5.677   2.652   1.330
 4453SOL    HW214259   5.519   2.620   1.303
 4454SOL     OW14260   5.372   3.460   1.680
 4454SOL    HW114261   5.311   3.417   1.614
 4454SOL    HW214262   5.459   3.482   1.635
 4455SOL     OW14263   3.876   1.444   2.153
 4455SOL    HW114264   3.807   1.378   2.123
 4455SOL    HW214265   3.948   1.396   2.203
 4456SOL     OW14266   1.117   5.118   3.110
 4456SOL    HW114267   1.169   5.071   3.038
 4456SOL    HW214268   1.086   5.051   3.178
 4457SOL     OW14269   5.538   2.354   6.039
 4457SOL    HW114270   5.525   2.285   6.110
 4457SOL    HW214271   5.634   2.382   6.037
 4458SOL     OW14272   3.744   2.437   5.916
 4458SOL    HW114273   3.752   2.375   5.995
 4458SOL    HW214274   3.791   2.523   5.937
 4459SOL     OW14275   5.124   6.225   4.750
 4459SOL    HW114276   5.036   6.269   4.771
 4459SOL    HW214277   5.158   6.178   4.831
 4460SOL     OW14278   2.487   1.905   6.095
 4460SOL    HW114279   2.407   1.906   6.156
 4460SOL    HW214280   2.489   1.990   6.042
 4461SOL     OW14281   2.465   0.288   2.103
 4461SOL    HW114282   2.533   0.264   2.171
 4461SOL    HW214283   2.495   0.370   2.054
 4462SOL     OW14284   0.270   5.368   1.554
 4462SOL    HW114285   0.325   5.292   1.588
 4462SOL    HW214286   0.174   5.355   1.582
 4463SOL     OW14287   1.447   3.825   6.303
 4463SOL    HW114288   1.505   3.793   6.229
 4463SOL    HW214289   1.434   3.752   6.370
 4464SOL     OW14290   5.554   3.324   6.828
 4464SOL    HW114291   5.457   3.299   6.827
 4464SOL    HW214292   5.585   3.333   6.923
 4465SOL     OW14293   1.235   6.544   2.252
 4465SOL    HW114294   1.185   6.626   2.282
 4465SOL    HW214295   1.218   6.470   2.317
 4466SOL     OW14296   0.674   1.875   3.378
 4466SOL    HW114297   0.631   1.930   3.306
 4466SOL    HW214298   0.761   1.917   3.405
 4467SOL     OW14299   1.051   6.441   3.436
 4467SOL    HW114300   0.974   6.410   3.492
 4467SOL    HW214301   1.020   6.456   3.342
 4468SOL     OW14302   1.439   2.731   0.266
 4468SOL    HW114303   1.455   2.782   0.350
 4468SOL    HW214304   1.422   2.795   0.191
 4469SOL     OW14305   4.086   0.254   0.767
 4469SOL    HW114306   4.077   0.164   0.725
 4469SOL    HW214307   4.017   0.264   0.839
 4470SOL     OW14308   4.762   4.184   1.032
 4470SOL    HW114309   4.849   4.141   1.009
 4470SOL    HW214310   4.765   4.281   1.007
 4471SOL     OW14311   6.155   3.431   1.497
 4471SOL    HW114312   6.093   3.355   1.477
 4471SOL    HW214313   6.243   3.414   1.453
 4472SOL     OW14314   1.789   4.162   2.438
 4472SOL    HW114315   1.732   4.089   2.401
 4472SOL    HW214316   1.797   4.150   2.537
 4473SOL     OW14317   6.760   6.729   4.173
 4473SOL    HW114318   6.819   6.688   4.104
 4473SOL    HW214319   6.810   6.801   4.221
 4474SOL     OW14320   4.433   0.370   2.823
 4474SOL    HW114321   4.402   0.334   2.911
 4474SOL    HW214322   4.490   0.301   2.777
 4475SOL     OW14323   2.006   3.896   0.369
 4475SOL    HW114324   2.047   3.967   0.425
 4475SOL    HW214325   2.070   3.870   0.296
 4476SOL     OW14326   5.031   6.308   1.855
 4476SOL    HW114327   4.964   6.316   1.928
 4476SOL    HW214328   5.120   6.337   1.888
 4477SOL     OW14329   1.678   1.383   0.780
 4477SOL    HW114330   1.706   1.351   0.690
 4477SOL    HW214331   1.623   1.466   0.771
 4478SOL     OW14332   2.304   6.475   1.756
 4478SOL    HW114333   2.316   6.463   1.658
 4478SOL    HW214334   2.300   6.386   1.800
 4479SOL     OW14335   0.875   0.099   5.388
 4479SOL    HW114336   0.816   0.178   5.371
 4479SOL    HW214337   0.858   0.029   5.318
 4480SOL     OW14338   0.471   4.780   3.874
 4480SOL    HW114339   0.404   4.708   3.893
 4480SOL    HW214340   0.564   4.743   3.886
 4481SOL     OW14341   1.028   6.446   4.588
 4481SOL    HW114342   0.940   6.406   4.611
 4481SOL    HW214343   1.022   6.493   4.500
 4482SOL     OW14344   0.018   4.570   4.019
 4482SOL    HW114345   7.021   4.472   4.017
 4482SOL    HW214346   6.960   4.622   3.997
 4483SOL     OW14347   5.606   2.912   2.167
 4483SOL    HW114348   5.663   2.955   2.237
 4483SOL    HW214349   5.536   2.977   2.137
 4484SOL     OW14350   4.390   2.816   5.856
 4484SOL    HW114351   4.440   2.847   5.775
 4484SOL    HW214352   4.328   2.888   5.886
 4485SOL     OW14353   5.320   1.897   6.439
 4485SOL    HW114354   5.277   1.863   6.355
 4485SOL    HW214355   5.407   1.940   6.416
 4486SOL     OW14356   6.174   3.079   4.380
 4486SOL    HW114357   6.130   3.155   4.426
 4486SOL    HW214358   6.122   2.995   4.396
 4487SOL     OW14359   3.002   3.055   6.115
 4487SOL    HW114360   2.905   3.044   6.136
 4487SOL    HW214361   3.042   3.122   6.177
 4488SOL     OW14362   0.145   1.446   4.238
 4488SOL    HW114363   0.144   1.507   4.317
 4488SOL    HW214364   0.176   1.355   4.267
 4489SOL     OW14365   5.870   6.872   4.430
 4489SOL    HW114366   5.912   6.879   4.339
 4489SOL    HW214367   5.799   6.803   4.429
 4490SOL     OW14368   6.531   1.639   2.810
 4490SOL    HW114369   6.602   1.708   2.794
 4490SOL    HW214370   6.524   1.579   2.730
 4491SOL     OW14371   1.144   3.558   2.754
 4491SOL    HW114372   1.241   3.568   2.730
 4491SOL    HW214373   1.102   3.489   2.694
 4492SOL     OW14374   4.587   3.327   6.966
 4492SOL    HW114375   4.668   3.296   7.016
 4492SOL    HW214376   4.506   3.278   7.000
 4493SOL     OW14377   5.827   5.196   4.449
 4493SOL    HW114378   5.894   5.129   4.479
 4493SOL    HW214379   5.795   5.174   4.357
 4494SOL     OW14380   6.168   3.916   5.087
 4494SOL    HW114381   6.120   3.958   5.164
 4494SOL    HW214382   6.169   3.979   5.010
 4495SOL     OW14383   4.631   6.132   1.649
 4495SOL    HW114384   4.709   6.099   1.596
 4495SOL    HW214385   4.606   6.224   1.618
 4496SOL     OW14386   4.876   4.016   5.501
 4496SOL    HW114387   4.931   3.976   5.574
 4496SOL    HW214388   4.839   3.942   5.444
 4497SOL     OW14389   6.334   4.838   0.495
 4497SOL    HW114390   6.431   4.837   0.471
 4497SOL    HW214391   6.322   4.802   0.587
 4498SOL     OW14392   6.637   3.412   0.162
 4498SOL    HW114393   6.717   3.356   0.180
 4498SOL    HW214394   6.560   3.353   0.134
 4499SOL     OW14395   6.974   2.685   5.831
 4499SOL    HW114396   0.001   2.627   5.768
 4499SOL    HW214397   0.006   2.762   5.860
 4500SOL     OW14398   3.022   3.912   4.589
 4500SOL    HW114399   2.964   3.857   4.650
 4500SOL    HW214400   3.072   3.851   4.527
 4501SOL     OW14401   7.004   4.305   5.438
 4501SOL    HW114402   0.017   4.357   5.514
 4501SOL    HW214403   0.049   4.293   5.368
 4502SOL     OW14404   0.418   2.681   0.014
 4502SOL    HW114405   0.463   2.764   0.045
 4502SOL    HW214406   0.322   2.700   7.017
 4503SOL     OW14407   0.881   1.819   3.921
 4503SOL    HW114408   0.834   1.880   3.857
 4503SOL    HW214409   0.846   1.726   3.911
 4504SOL     OW14410   5.100   2.193   4.204
 4504SOL    HW114411   5.116   2.292   4.209
 4504SOL    HW214412   5.108   2.154   4.296
 4505SOL     OW14413   1.781   6.595   5.535
 4505SOL    HW114414   1.753   6.659   5.607
 4505SOL    HW214415   1.734   6.508   5.547
 4506SOL     OW14416   4.324   0.292   4.929
 4506SOL    HW114417   4.345   0.274   4.832
 4506SOL    HW214418   4.388   0.359   4.965
 4507SOL     OW14419   5.839   4.593   0.567
 4507SOL    HW114420   5.827   4.667   0.634
 4507SOL    HW214421   5.759   4.533   0.570
 4508SOL     OW14422   1.051   3.825   0.066
 4508SOL    HW114423   0.954   3.847   0.061
 4508SOL    HW214424   1.084   3.799   7.000
 4509SOL     OW14425   2.638   1.856   4.270
 4509SOL    HW114426   2.722   1.829   4.224
 4509SOL    HW214427   2.658   1.926   4.339
 4510SOL     OW14428   4.697   6.726   5.098
 4510SOL    HW114429   4.787   6.727   5.055
 4510SOL    HW214430   4.656   6.817   5.093
 4511SOL     OW14431   6.273   2.385   0.682
 4511SOL    HW114432   6.329   2.463   0.711
 4511SOL    HW214433   6.332   2.304   0.672
 4512SOL     OW14434   3.098   5.870   0.035
 4512SOL    HW114435   3.191   5.848   0.065
 4512SOL    HW214436   3.048   5.912   0.111
 4513SOL     OW14437   5.095   0.666   1.563
 4513SOL    HW114438   5.046   0.580   1.574
 4513SOL    HW214439   5.147   0.686   1.646
 4514SOL     OW14440   3.069   1.554   5.353
 4514SOL    HW114441   3.102   1.538   5.260
 4514SOL    HW214442   3.136   1.610   5.403
 4515SOL     OW14443   0.694   5.160   1.228
 4515SOL    HW114444   0.706   5.061   1.239
 4515SOL    HW214445   0.611   5.178   1.176
 4516SOL     OW14446   1.036   0.747   5.176
 4516SOL    HW114447   1.087   0.666   5.146
 4516SOL    HW214448   0.946   0.747   5.132
 4517SOL     OW14449   3.351   6.693   5.021
 4517SOL    HW114450   3.261   6.684   5.064
 4517SOL    HW214451   3.356   6.633   4.942
 4518SOL     OW14452   1.410   2.426   4.207
 4518SOL    HW114453   1.407   2.341   4.155
 4518SOL    HW214454   1.417   2.406   4.304
 4519SOL     OW14455   0.187   3.020   3.819
 4519SOL    HW114456   0.184   3.113   3.781
 4519SOL    HW214457   0.104   3.004   3.874
 4520SOL     OW14458   0.019   4.319   3.014
 4520SOL    HW114459   0.025   4.412   3.049
 4520SOL    HW214460   0.106   4.272   3.028
 4521SOL     OW14461   5.364   2.557   6.982
 4521SOL    HW114462   5.298   2.602   6.922
 4521SOL    HW214463   5.444   2.615   6.993
 4522SOL     OW14464   5.779   0.304   4.480
 4522SOL    HW114465   5.796   0.316   4.382
 4522SOL    HW214466   5.837   0.368   4.531
 4523SOL     OW14467   3.417   4.226   6.915
 4523SOL    HW114468   3.499   4.283   6.925
 4523SOL    HW214469   3.344   4.261   6.975
 4524SOL     OW14470   5.314   0.274   4.667
 4524SOL    HW114471   5.367   0.200   4.624
 4524SOL    HW214472   5.365   0.359   4.662
 4525SOL     OW14473   6.386   1.832   5.062
 4525SOL    HW114474   6.460   1.767   5.043
 4525SOL    HW214475   6.381   1.900   4.989
 4526SOL     OW14476   4.708   6.910   0.821
 4526SOL    HW114477   4.705   6.901   0.721
 4526SOL    HW214478   4.793   6.956   0.847
 4527SOL     OW14479   4.930   0.532   2.535
 4527SOL    HW114480   4.923   0.495   2.628
 4527SOL    HW214481   4.977   0.620   2.538
 4528SOL     OW14482   5.777   6.956   0.952
 4528SOL    HW114483   5.776   6.864   0.991
 4528SOL    HW214484   5.693   7.004   0.978
 4529SOL     OW14485   3.634   6.723   3.284
 4529SOL    HW114486   3.676   6.644   3.240
 4529SOL    HW214487   3.541   6.734   3.249
 4530SOL     OW14488   0.360   3.462   5.795
 4530SOL    HW114489   0.316   3.551   5.798
 4530SOL    HW214490   0.340   3.412   5.879
 4531SOL     OW14491   0.217   3.496   4.117
 4531SOL    HW114492   0.286   3.545   4.170
 4531SOL    HW214493   0.166   3.434   4.177
 4532SOL     OW14494   6.455   1.106   0.875
 4532SOL    HW114495   6.485   1.131   0.783
 4532SOL    HW214496   6.356   1.115   0.882
 4533SOL     OW14497   2.268   5.660   2.944
 4533SOL    HW114498   2.186   5.718   2.945
 4533SOL    HW214499   2.241   5.565   2.932
 4534SOL     OW14500   6.091   3.427   4.895
 4534SOL    HW114501   6.026   3.355   4.871
 4534SOL    HW214502   6.140   3.456   4.812
 4535SOL     OW14503   4.944   3.080   2.161
 4535SOL    HW114504   4.885   3.092   2.081
 4535SOL    HW214505   4.895   3.031   2.232
 4536SOL     OW14506   6.243   0.831   4.325
 4536SOL    HW114507   6.206   0.774   4.251
 4536SOL    HW214508   6.217   0.792   4.413
 4537SOL     OW14509   3.551   2.868   6.708
 4537SOL    HW114510   3.548   2.911   6.798
 4537SOL    HW214511   3.646   2.854   6.680
 4538SOL     OW14512   3.272   1.267   2.801
 4538SOL    HW114513   3.195   1.318   2.839
 4538SOL    HW214514   3.237   1.200   2.735
 4539SOL     OW14515   2.024   1.481   3.139
 4539SOL    HW114516   1.937   1.476   3.091
 4539SOL    HW214517   2.019   1.428   3.224
 4540SOL     OW14518   3.736   3.447   4.548
 4540SOL    HW114519   3.764   3.499   4.467
 4540SOL    HW214520   3.807   3.454   4.618
 4541SOL     OW14521   5.053   2.008   1.272
 4541SOL    HW114522   5.148   2.032   1.251
 4541SOL    HW214523   5.006   2.088   1.308
 4542SOL     OW14524   5.691   0.010   2.577
 4542SOL    HW114525   5.754   6.966   2.614
 4542SOL    HW214526   5.690   0.004   2.477
 4543SOL     OW14527   5.496   1.531   1.104
 4543SOL    HW114528   5.580   1.584   1.097
 4543SOL    HW214529   5.432   1.560   1.033
 4544SOL     OW14530   3.417   5.540   6.409
 4544SOL    HW114531   3.326   5.499   6.396
 4544SOL    HW214532   3.471   5.481   6.469
 4545SOL     OW14533   3.824   2.400   5.632
 4545SOL    HW114534   3.902   2.462   5.624
 4545SOL    HW214535   3.785   2.407   5.724
 4546SOL     OW14536   1.335   6.143   6.372
 4546SOL    HW114537   1.355   6.120   6.468
 4546SOL    HW214538   1.284   6.229   6.368
 4547SOL     OW14539   4.911   2.202   1.833
 4547SOL    HW114540   4.874   2.243   1.750
 4547SOL    HW214541   4.841   2.144   1.876
 4548SOL     OW14542   0.961   4.208   3.464
 4548SOL    HW114543   0.895   4.208   3.539
 4548SOL    HW214544   1.025   4.131   3.476
 4549SOL     OW14545   6.719   2.790   2.470
 4549SOL    HW114546   6.775   2.868   2.496
 4549SOL    HW214547   6.654   2.769   2.544
 4550SOL     OW14548   1.027   5.411   4.238
 4550SOL    HW114549   0.994   5.399   4.144
 4550SOL    HW214550   0.974   5.482   4.284
 4551SOL     OW14551   0.895   2.386   5.791
 4551SOL    HW114552   0.917   2.466   5.734
 4551SOL    HW214553   0.971   2.322   5.790
 4552SOL     OW14554   0.204   3.340   4.563
 4552SOL    HW114555   0.163   3.420   4.606
 4552SOL    HW214556   0.303   3.354   4.555
 4553SOL     OW14557   4.266   4.677   0.323
 4553SOL    HW114558   4.319   4.756   0.293
 4553SOL    HW214559   4.275   4.604   0.256
 4554SOL     OW14560   5.039   6.551   2.627
 4554SOL    HW114561   5.024   6.609   2.707
 4554SOL    HW214562   5.024   6.455   2.653
 4555SOL     OW14563   5.298   2.599   6.543
 4555SOL    HW114564   5.237   2.641   6.610
 4555SOL    HW214565   5.368   2.546   6.591
 4556SOL     OW14566   4.415   0.916   3.627
 4556SOL    HW114567   4.371   0.989   3.680
 4556SOL    HW214568   4.455   0.954   3.545
 4557SOL     OW14569   5.378   6.941   6.111
 4557SOL    HW114570   5.359   0.013   6.129
 4557SOL    HW214571   5.434   6.904   6.185
 4558SOL     OW14572   6.470   3.331   6.757
 4558SOL    HW114573   6.379   3.361   6.786
 4558SOL    HW214574   6.540   3.376   6.814
 4559SOL     OW14575   1.365   6.670   1.593
 4559SOL    HW114576   1.287   6.718   1.634
 4559SOL    HW214577   1.353   6.572   1.603
 4560SOL     OW14578   4.938   3.311   2.800
 4560SOL    HW114579   4.904   3.258   2.723
 4560SOL    HW214580   5.013   3.262   2.845
 4561SOL     OW14581   3.410   0.332   6.589
 4561SOL    HW114582   3.491   0.381   6.620
 4561SOL    HW214583   3.328   0.386   6.608
 4562SOL     OW14584   2.879   5.028   6.737
 4562SOL    HW114585   2.962   5.082   6.752
 4562SOL    HW214586   2.817   5.041   6.814
 4563SOL     OW14587   5.745   2.196   6.694
 4563SOL    HW114588   5.716   2.277   6.643
 4563SOL    HW214589   5.845   2.196   6.701
 4564SOL     OW14590   1.681   6.355   0.458
 4564SOL    HW114591   1.611   6.332   0.391
 4564SOL    HW214592   1.771   6.331   0.422
 4565SOL     OW14593   1.380   0.623   5.346
 4565SOL    HW114594   1.355   0.689   5.417
 4565SOL    HW214595   1.339   0.534   5.368
 4566SOL     OW14596   6.612   1.232   0.002
 4566SOL    HW114597   6.702   1.194   0.025
 4566SOL    HW214598   6.614   1.269   6.934
 4567SOL     OW14599   6.684   1.092   1.014
 4567SOL    HW114600   6.591   1.111   0.982
 4567SOL    HW214601   6.741   1.066   0.936
 4568SOL     OW14602   3.382   4.391   5.958
 4568SOL    HW114603   3.352   4.482   5.930
 4568SOL    HW214604   3.323   4.358   6.032
 4569SOL     OW14605   1.112   1.351   4.090
 4569SOL    HW114606   1.032   1.331   4.034
 4569SOL    HW214607   1.104   1.304   4.178
 4570SOL     OW14608   0.159   5.622   4.052
 4570SOL    HW114609   0.171   5.584   3.961
 4570SOL    HW214610   0.246   5.618   4.101
 4571SOL     OW14611   3.560   3.097   4.351
 4571SOL    HW114612   3.460   3.099   4.341
 4571SOL    HW214613   3.589   3.003   4.365
 4572SOL     OW14614   1.644   6.946   1.336
 4572SOL    HW114615   1.689   6.985   1.255
 4572SOL    HW214616   1.646   7.013   1.410
 4573SOL     OW14617   5.695   6.308   0.881
 4573SOL    HW114618   5.741   6.362   0.810
 4573SOL    HW214619   5.759   6.241   0.919
 4574SOL     OW14620   6.951   4.359   1.491
 4574SOL    HW114621   6.973   4.282   1.551
 4574SOL    HW214622   0.007   4.418   1.483
 4575SOL     OW14623   6.589   0.157   2.061
 4575SOL    HW114624   6.618   0.168   2.156
 4575SOL    HW214625   6.528   0.078   2.053
 4576SOL     OW14626   3.557   5.402   6.193
 4576SOL    HW114627   3.546   5.401   6.293
 4576SOL    HW214628   3.476   5.361   6.151
 4577SOL     OW14629   1.310   3.319   3.337
 4577SOL    HW114630   1.365   3.265   3.273
 4577SOL    HW214631   1.242   3.261   3.380
 4578SOL     OW14632   6.860   3.685   4.120
 4578SOL    HW114633   6.796   3.620   4.160
 4578SOL    HW214634   6.939   3.696   4.180
 4579SOL     OW14635   5.821   2.298   3.442
 4579SOL    HW114636   5.760   2.305   3.363
 4579SOL    HW214637   5.848   2.390   3.471
 4580SOL     OW14638   6.528   6.302   0.855
 4580SOL    HW114639   6.504   6.329   0.762
 4580SOL    HW214640   6.445   6.273   0.903
 4581SOL     OW14641   3.070   5.405   3.080
 4581SOL    HW114642   3.026   5.423   2.992
 4581SOL    HW214643   3.011   5.346   3.136
 4582SOL     OW14644   5.386   6.348   2.966
 4582SOL    HW114645   5.357   6.256   2.939
 4582SOL    HW214646   5.419   6.397   2.885
 4583SOL     OW14647   3.498   1.956   5.452
 4583SOL    HW114648   3.537   1.899   5.524
 4583SOL    HW214649   3.399   1.956   5.460
 4584SOL     OW14650   0.813   5.110   5.460
 4584SOL    HW114651   0.792   5.135   5.365
 4584SOL    HW214652   0.729   5.085   5.507
 4585SOL     OW14653   3.672   6.231   2.917
 4585SOL    HW114654   3.593   6.234   2.855
 4585SOL    HW214655   3.640   6.226   3.012
 4586SOL     OW14656   3.636   5.753   2.357
 4586SOL    HW114657   3.630   5.653   2.355
 4586SOL    HW214658   3.726   5.782   2.324
 4587SOL     OW14659   2.619   3.806   1.365
 4587SOL    HW114660   2.568   3.724   1.340
 4587SOL    HW214661   2.597   3.880   1.301
 4588SOL     OW14662   3.882   3.626   5.280
 4588SOL    HW114663   3.967   3.679   5.283
 4588SOL    HW214664   3.891   3.545   5.337
 4589SOL     OW14665   6.440   2.060   4.515
 4589SOL    HW114666   6.540   2.055   4.516
 4589SOL    HW214667   6.410   2.122   4.588
 4590SOL     OW14668   4.219   5.316   2.534
 4590SOL    HW114669   4.229   5.240   2.469
 4590SOL    HW214670   4.126   5.320   2.568
 4591SOL     OW14671   5.554   6.005   5.558
 4591SOL    HW114672   5.510   5.924   5.596
 4591SOL    HW214673   5.560   5.996   5.459
 4592SOL     OW14674   3.950   2.355   6.899
 4592SOL    HW114675   3.945   2.355   6.799
 4592SOL    HW214676   3.897   2.279   6.935
 4593SOL     OW14677   3.811   6.354   2.527
 4593SOL    HW114678   3.877   6.377   2.455
 4593SOL    HW214679   3.818   6.420   2.602
 4594SOL     OW14680   2.118   1.591   2.248
 4594SOL    HW114681   2.147   1.610   2.154
 4594SOL    HW214682   2.040   1.529   2.247
 4595SOL     OW14683   4.014   3.001   6.642
 4595SOL    HW114684   4.020   3.061   6.562
 4595SOL    HW214685   4.080   2.927   6.633
 4596SOL     OW14686   5.576   0.013   1.846
 4596SOL    HW114687   5.620   0.043   1.930
 4596SOL    HW214688   5.513   0.084   1.814
 4597SOL     OW14689   5.120   4.252   6.745
 4597SOL    HW114690   5.152   4.190   6.817
 4597SOL    HW214691   5.140   4.347   6.771
 4598SOL     OW14692   2.322   5.184   6.851
 4598SOL    HW114693   2.293   5.195   6.756
 4598SOL    HW214694   2.296   5.266   6.903
 4599SOL     OW14695   1.517   4.660   1.011
 4599SOL    HW114696   1.523   4.653   1.110
 4599SOL    HW214697   1.592   4.608   0.970
 4600SOL     OW14698   2.674   5.568   0.796
 4600SOL    HW114699   2.640   5.496   0.857
 4600SOL    HW214700   2.756   5.609   0.836
 4601SOL     OW14701   1.873   0.100   5.493
 4601SOL    HW114702   1.915   0.169   5.552
 4601SOL    HW214703   1.798   0.055   5.541
 4602SOL     OW14704   1.248   0.334   2.213
 4602SOL    HW114705   1.318   0.288   2.268
 4602SOL    HW214706   1.262   0.314   2.116
 4603SOL     OW14707   3.292   6.613   1.191
 4603SOL    HW114708   3.284   6.550   1.269
 4603SOL    HW214709   3.360   6.578   1.127
 4604SOL     OW14710   3.511   6.755   1.872
 4604SOL    HW114711   3.574   6.677   1.859
 4604SOL    HW214712   3.552   6.837   1.831
 4605SOL     OW14713   5.241   6.728   4.904
 4605SOL    HW114714   5.269   6.710   4.810
 4605SOL    HW214715   5.245   6.826   4.922
 4606SOL     OW14716   6.544   6.244   5.154
 4606SOL    HW114717   6.579   6.336   5.172
 4606SOL    HW214718   6.446   6.242   5.174
 4607SOL     OW14719   3.359   1.997   1.612
 4607SOL    HW114720   3.431   1.954   1.557
 4607SOL    HW214721   3.400   2.043   1.690
 4608SOL     OW14722   1.986   3.777   5.572
 4608SOL    HW114723   2.010   3.863   5.527
 4608SOL    HW214724   2.069   3.724   5.587
 4609SOL     OW14725   5.110   6.812   6.925
 4609SOL    HW114726   5.182   6.770   6.870
 4609SOL    HW214727   5.141   6.901   6.958
 4610SOL     OW14728   0.127   3.175   6.567
 4610SOL    HW114729   0.037   3.219   6.565
 4610SOL    HW214730   0.174   3.199   6.652
 4611SOL     OW14731   0.576   4.100   0.102
 4611SOL    HW114732   0.563   4.163   0.026
 4611SOL    HW214733   0.491   4.091   0.154
 4612SOL     OW14734   2.383   6.473   6.863
 4612SOL    HW114735   2.474   6.445   6.832
 4612SOL    HW214736   2.361   6.563   6.825
 4613SOL     OW14737   3.333   5.332   2.539
 4613SOL    HW114738   3.423   5.369   2.519
 4613SOL    HW214739   3.265   5.405   2.533
 4614SOL     OW14740   1.403   5.457   0.174
 4614SOL    HW114741   1.393   5.358   0.184
 4614SOL    HW214742   1.479   5.489   0.230
 4615SOL     OW14743   0.848   2.428   0.416
 4615SOL    HW114744   0.787   2.458   0.489
 4615SOL    HW214745   0.913   2.500   0.395
 4616SOL     OW14746   5.378   1.591   6.451
 4616SOL    HW114747   5.315   1.536   6.397
 4616SOL    HW214748   5.455   1.620   6.395
 4617SOL     OW14749   0.296   2.582   1.419
 4617SOL    HW114750   0.232   2.533   1.360
 4617SOL    HW214751   0.324   2.523   1.495
 4618SOL     OW14752   1.345   2.302   6.271
 4618SOL    HW114753   1.340   2.320   6.369
 4618SOL    HW214754   1.257   2.322   6.228
 4619SOL     OW14755   3.935   0.538   3.267
 4619SOL    HW114756   3.930   0.619   3.208
 4619SOL    HW214757   3.981   0.563   3.353
 4620SOL     OW14758   2.666   4.649   6.585
 4620SOL    HW114759   2.633   4.739   6.614
 4620SOL    HW214760   2.616   4.578   6.634
 4621SOL     OW14761   0.318   6.651   5.555
 4621SOL    HW114762   0.346   6.746   5.568
 4621SOL    HW214763   0.294   6.637   5.459
 4622SOL     OW14764   1.700   4.111   0.590
 4622SOL    HW114765   1.726   4.085   0.497
 4622SOL    HW214766   1.699   4.029   0.648
 4623SOL     OW14767   6.875   5.132   1.627
 4623SOL    HW114768   6.802   5.164   1.566
 4623SOL    HW214769   6.914   5.047   1.591
 4624SOL     OW14770   5.076   0.414   4.288
 4624SOL    HW114771   5.089   0.467   4.372
 4624SOL    HW214772   4.985   0.374   4.287
 4625SOL     OW14773   1.152   4.183   6.767
 4625SOL    HW114774   1.075   4.124   6.794
 4625SOL    HW214775   1.204   4.138   6.694
 4626SOL     OW14776   6.698   5.497   1.154
 4626SOL    HW114777   6.745   5.473   1.240
 4626SOL    HW214778   6.688   5.414   1.098
 4627SOL     OW14779   3.549   6.214   5.369
 4627SOL    HW114780   3.453   6.208   5.396
 4627SOL    HW214781   3.560   6.290   5.305
 4628SOL     OW14782   7.001   4.233   1.762
 4628SOL    HW114783   0.003   4.275   1.849
 4628SOL    HW214784   0.019   4.142   1.756
 4629SOL     OW14785   1.934   4.529   5.685
 4629SOL    HW114786   1.904   4.536   5.780
 4629SOL    HW214787   2.033   4.512   5.683
 4630SOL     OW14788   2.251   6.242   3.040
 4630SOL    HW114789   2.290   6.156   3.006
 4630SOL    HW214790   2.323   6.310   3.051
 4631SOL     OW14791   2.742   6.601   2.591
 4631SOL    HW114792   2.754   6.574   2.496
 4631SOL    HW214793   2.671   6.545   2.633
 4632SOL     OW14794   5.264   5.440   4.358
 4632SOL    HW114795   5.197   5.479   4.295
 4632SOL    HW214796   5.355   5.442   4.315
 4633SOL     OW14797   6.253   1.852   4.400
 4633SOL    HW114798   6.304   1.919   4.453
 4633SOL    HW214799   6.306   1.826   4.319
 4634SOL     OW14800   3.061   4.666   1.058
 4634SOL    HW114801   3.154   4.685   1.025
 4634SOL    HW214802   3.037   4.572   1.036
 4635SOL     OW14803   5.081   3.369   1.924
 4635SOL    HW114804   5.159   3.310   1.944
 4635SOL    HW214805   5.010   3.316   1.878
 4636SOL     OW14806   3.011   5.631   0.709
 4636SOL    HW114807   2.960   5.583   0.779
 4636SOL    HW214808   3.063   5.706   0.751
 4637SOL     OW14809   1.265   1.034   5.465
 4637SOL    HW114810   1.324   1.070   5.392
 4637SOL    HW214811   1.304   0.949   5.500
 4638SOL     OW14812   5.287   3.585   5.884
 4638SOL    HW114813   5.303   3.591   5.786
 4638SOL    HW214814   5.324   3.666   5.929
 4639SOL     OW14815   0.233   3.943   5.502
 4639SOL    HW114816   0.187   4.029   5.525
 4639SOL    HW214817   0.184   3.867   5.544
 4640SOL     OW14818   5.592   4.359   2.605
 4640SOL    HW114819   5.553   4.321   2.689
 4640SOL    HW214820   5.548   4.317   2.525
 4641SOL     OW14821   2.084   4.910   4.942
 4641SOL    HW114822   2.089   4.896   4.843
 4641SOL    HW214823   2.174   4.900   4.983
 4642SOL     OW14824   6.172   5.921   4.861
 4642SOL    HW114825   6.076   5.945   4.844
 4642SOL    HW214826   6.229   6.001   4.843
 4643SOL     OW14827   3.852   2.253   1.707
 4643SOL    HW114828   3.898   2.334   1.670
 4643SOL    HW214829   3.766   2.279   1.749
 4644SOL     OW14830   2.040   5.960   4.842
 4644SOL    HW114831   2.107   5.958   4.768
 4644SOL    HW214832   2.036   6.052   4.881
 4645SOL     OW14833   1.840   6.533   4.755
 4645SOL    HW114834   1.810   6.529   4.659
 4645SOL    HW214835   1.779   6.478   4.811
 4646SOL     OW14836   3.657   0.674   2.037
 4646SOL    HW114837   3.644   0.629   1.949
 4646SOL    HW214838   3.751   0.659   2.068
 4647SOL     OW14839   6.237   0.468   4.450
 4647SOL    HW114840   6.324   0.490   4.405
 4647SOL    HW214841   6.221   0.370   4.446
 4648SOL     OW14842   2.515   5.716   2.850
 4648SOL    HW114843   2.582   5.641   2.857
 4648SOL    HW214844   2.430   5.689   2.894
 4649SOL     OW14845   5.200   0.579   6.010
 4649SOL    HW114846   5.179   0.647   6.080
 4649SOL    HW214847   5.297   0.556   6.014
 4650SOL     OW14848   5.654   5.131   2.135
 4650SOL    HW114849   5.596   5.184   2.073
 4650SOL    HW214850   5.601   5.058   2.176
 4651SOL     OW14851   0.417   2.413   1.645
 4651SOL    HW114852   0.390   2.433   1.739
 4651SOL    HW214853   0.411   2.314   1.628
 4652SOL     OW14854   6.622   6.741   5.324
 4652SOL    HW114855   6.701   6.740   5.262
 4652SOL    HW214856   6.542   6.777   5.277
 4653SOL     OW14857   6.957   6.557   7.013
 4653SOL    HW114858   6.998   6.528   6.926
 4653SOL    HW214859   0.004   6.586   0.051
 4654SOL     OW14860   1.386   0.482   6.926
 4654SOL    HW114861   1.456   0.442   6.985
 4654SOL    HW214862   1.321   0.534   6.982
 4655SOL     OW14863   0.366   4.576   3.307
 4655SOL    HW114864   0.438   4.606   3.370
 4655SOL    HW214865   0.299   4.521   3.357
 4656SOL     OW14866   1.322   0.221   4.019
 4656SOL    HW114867   1.318   0.307   4.069
 4656SOL    HW214868   1.375   0.233   3.935
 4657SOL     OW14869   5.259   6.771   0.869
 4657SOL    HW114870   5.305   6.823   0.797
 4657SOL    HW214871   5.223   6.686   0.830
 4658SOL     OW14872   4.975   0.080   3.155
 4658SOL    HW114873   5.058   0.025   3.167
 4658SOL    HW214874   4.991   0.172   3.191
 4659SOL     OW14875   1.725   2.750   4.967
 4659SOL    HW114876   1.735   2.813   5.044
 4659SOL    HW214877   1.698   2.801   4.885
 4660SOL     OW14878   0.104   0.739   6.046
 4660SOL    HW114879   0.016   0.786   6.042
 4660SOL    HW214880   0.108   0.682   6.128
 4661SOL     OW14881   2.979   3.800   3.721
 4661SOL    HW114882   2.956   3.704   3.737
 4661SOL    HW214883   2.894   3.852   3.706
 4662SOL     OW14884   5.140   0.400   5.406
 4662SOL    HW114885   5.134   0.499   5.390
 4662SOL    HW214886   5.092   0.352   5.334
 4663SOL     OW14887   0.419   2.327   2.498
 4663SOL    HW114888   0.508   2.336   2.545
 4663SOL    HW214889   0.414   2.395   2.424
 4664SOL     OW14890   3.221   2.020   0.197
 4664SOL    HW114891   3.192   1.930   0.230
 4664SOL    HW214892   3.303   2.049   0.247
 4665SOL     OW14893   4.801   0.099   0.297
 4665SOL    HW114894   4.833   0.166   0.364
 4665SOL    HW214895   4.786   0.144   0.209
 4666SOL     OW14896   2.459   1.299   0.522
 4666SOL    HW114897   2.377   1.327   0.573
 4666SOL    HW214898   2.532   1.366   0.537
 4667SOL     OW14899   0.119   5.192   6.450
 4667SOL    HW114900   0.196   5.128   6.457
 4667SOL    HW214901   0.034   5.145   6.475
 4668SOL     OW14902   6.726   1.564   4.075
 4668SOL    HW114903   6.799   1.513   4.120
 4668SOL    HW214904   6.719   1.534   3.979
 4669SOL     OW14905   1.738   0.408   0.504
 4669SOL    HW114906   1.710   0.457   0.587
 4669SOL    HW214907   1.828   0.441   0.476
 4670SOL     OW14908   2.347   2.046   3.931
 4670SOL    HW114909   2.251   2.038   3.957
 4670SOL    HW214910   2.361   2.131   3.880
 4671SOL     OW14911   5.774   3.501   1.849
 4671SOL    HW114912   5.860   3.552   1.848
 4671SOL    HW214913   5.717   3.532   1.772
 4672SOL     OW14914   2.049   3.745   6.287
 4672SOL    HW114915   1.990   3.665   6.289
 4672SOL    HW214916   2.078   3.768   6.380
 4673SOL     OW14917   4.292   0.723   2.768
 4673SOL    HW114918   4.377   0.724   2.716
 4673SOL    HW214919   4.310   0.689   2.860
 4674SOL     OW14920   4.430   5.661   5.453
 4674SOL    HW114921   4.340   5.641   5.414
 4674SOL    HW214922   4.477   5.728   5.396
 4675SOL     OW14923   1.053   4.502   0.376
 4675SOL    HW114924   1.126   4.523   0.441
 4675SOL    HW214925   0.989   4.578   0.372
 4676SOL     OW14926   1.119   5.538   3.819
 4676SOL    HW114927   1.174   5.464   3.780
 4676SOL    HW214928   1.115   5.614   3.754
 4677SOL     OW14929   1.799   2.992   0.264
 4677SOL    HW114930   1.817   3.043   0.348
 4677SOL    HW214931   1.768   2.900   0.287
 4678SOL     OW14932   2.333   4.851   2.811
 4678SOL    HW114933   2.403   4.905   2.763
 4678SOL    HW214934   2.255   4.838   2.750
 4679SOL     OW14935   5.075   0.140   1.640
 4679SOL    HW114936   5.033   0.104   1.557
 4679SOL    HW214937   5.152   0.199   1.615
 4680SOL     OW14938   2.385   1.476   1.932
 4680SOL    HW114939   2.459   1.473   1.865
 4680SOL    HW214940   2.312   1.413   1.905
 4681SOL     OW14941   5.649   4.141   1.456
 4681SOL    HW114942   5.562   4.113   1.497
 4681SOL    HW214943   5.670   4.235   1.482
 4682SOL     OW14944   4.134   3.414   6.664
 4682SOL    HW114945   4.230   3.442   6.659
 4682SOL    HW214946   4.114   3.351   6.589
 4683SOL     OW14947   6.313   4.155   3.474
 4683SOL    HW114948   6.272   4.100   3.546
 4683SOL    HW214949   6.290   4.251   3.488
 4684SOL     OW14950   4.657   6.288   0.230
 4684SOL    HW114951   4.729   6.351   0.259
 4684SOL    HW214952   4.678   6.196   0.262
 4685SOL     OW14953   2.515   3.584   5.937
 4685SOL    HW114954   2.449   3.510   5.936
 4685SOL    HW214955   2.585   3.566   6.006
 4686SOL     OW14956   3.020   5.999   0.286
 4686SOL    HW114957   2.922   6.010   0.269
 4686SOL    HW214958   3.069   6.077   0.249
 4687SOL     OW14959   3.093   0.579   2.535
 4687SOL    HW114960   3.044   0.509   2.588
 4687SOL    HW214961   3.034   0.658   2.521
 4688SOL     OW14962   5.682   3.531   5.913
 4688SOL    HW114963   5.681   3.446   5.860
 4688SOL    HW214964   5.616   3.595   5.874
 4689SOL     OW14965   5.738   1.089   0.848
 4689SOL    HW114966   5.739   1.188   0.858
 4689SOL    HW214967   5.694   1.065   0.761
 4690SOL     OW14968   2.761   1.307   0.386
 4690SOL    HW114969   2.785   1.326   0.481
 4690SOL    HW214970   2.728   1.213   0.378
 4691SOL     OW14971   6.548   4.671   1.035
 4691SOL    HW114972   6.628   4.612   1.031
 4691SOL    HW214973   6.577   4.767   1.029
 4692SOL     OW14974   6.335   4.159   3.035
 4692SOL    HW114975   6.406   4.201   2.978
 4692SOL    HW214976   6.379   4.107   3.108
 4693SOL     OW14977   2.007   0.828   3.876
 4693SOL    HW114978   2.019   0.802   3.780
 4693SOL    HW214979   2.039   0.754   3.934
 4694SOL     OW14980   2.644   1.725   0.161
 4694SOL    HW114981   2.571   1.672   0.203
 4694SOL    HW214982   2.695   1.773   0.233
 4695SOL     OW14983   1.152   6.147   1.494
 4695SOL    HW114984   1.249   6.129   1.476
 4695SOL    HW214985   1.134   6.135   1.592
 4696SOL     OW14986   0.782   4.868   6.114
 4696SOL    HW114987   0.831   4.860   6.027
 4696SOL    HW214988   0.684   4.861   6.098
 4697SOL     OW14989   3.075   4.780   0.733
 4697SOL    HW114990   3.028   4.693   0.722
 4697SOL    HW214991   3.012   4.848   0.771
 4698SOL     OW14992   5.026   0.777   2.947
 4698SOL    HW114993   5.108   0.814   2.991
 4698SOL    HW214994   4.971   0.728   3.014
 4699SOL     OW14995   1.076   7.003   2.751
 4699SOL    HW114996   1.056   6.944   2.829
 4699SOL    HW214997   1.175   7.018   2.745
 4700SOL     OW14998   5.647   2.065   2.735
 4700SOL    HW114999   5.731   2.038   2.688
 4700SOL    HW215000   5.571   2.069   2.669
 4701SOL     OW15001   3.215   1.836   2.074
 4701SOL    HW115002   3.249   1.925   2.042
 4701SOL    HW215003   3.120   1.846   2.104
 4702SOL     OW15004   5.189   4.852   6.108
 4702SOL    HW115005   5.251   4.885   6.179
 4702SOL    HW215006   5.240   4.795   6.043
 4703SOL     OW15007   0.885   4.788   3.411
 4703SOL    HW115008   0.820   4.753   3.344
 4703SOL    HW215009   0.931   4.712   3.457
 4704SOL     OW15010   0.819   4.844   5.592
 4704SOL    HW115011   0.837   4.878   5.500
 4704SOL    HW215012   0.762   4.909   5.642
 4705SOL     OW15013   3.197   2.914   1.880
 4705SOL    HW115014   3.279   2.922   1.937
 4705SOL    HW215015   3.189   2.821   1.846
 4706SOL     OW15016   1.655   1.117   0.342
 4706SOL    HW115017   1.726   1.108   0.272
 4706SOL    HW215018   1.697   1.151   0.426
 4707SOL     OW15019   1.164   0.274   1.353
 4707SOL    HW115020   1.088   0.242   1.410
 4707SOL    HW215021   1.197   0.198   1.296
 4708SOL     OW15022   0.688   2.710   4.181
 4708SOL    HW115023   0.667   2.616   4.155
 4708SOL    HW215024   0.608   2.768   4.167
 4709SOL     OW15025   4.490   4.027   5.334
 4709SOL    HW115026   4.508   4.079   5.417
 4709SOL    HW215027   4.561   4.048   5.266
 4710SOL     OW15028   5.852   6.239   4.113
 4710SOL    HW115029   5.943   6.231   4.154
 4710SOL    HW215030   5.783   6.247   4.186
 4711SOL     OW15031   6.173   3.225   3.087
 4711SOL    HW115032   6.195   3.280   3.006
 4711SOL    HW215033   6.107   3.275   3.143
 4712SOL     OW15034   4.281   4.276   5.328
 4712SOL    HW115035   4.294   4.349   5.261
 4712SOL    HW215036   4.308   4.189   5.287
 4713SOL     OW15037   5.853   4.363   0.954
 4713SOL    HW115038   5.780   4.428   0.933
 4713SOL    HW215039   5.890   4.326   0.868
 4714SOL     OW15040   6.053   0.865   6.136
 4714SOL    HW115041   5.986   0.903   6.200
 4714SOL    HW215042   6.059   0.923   6.055
 4715SOL     OW15043   5.891   1.705   1.679
 4715SOL    HW115044   5.935   1.615   1.674
 4715SOL    HW215045   5.958   1.776   1.659
 4716SOL     OW15046   4.045   4.604   5.439
 4716SOL    HW115047   4.082   4.665   5.369
 4716SOL    HW215048   4.077   4.511   5.423
 4717SOL     OW15049   2.800   5.675   5.284
 4717SOL    HW115050   2.843   5.603   5.338
 4717SOL    HW215051   2.812   5.655   5.186
 4718SOL     OW15052   5.308   4.224   1.200
 4718SOL    HW115053   5.250   4.148   1.230
 4718SOL    HW215054   5.404   4.198   1.209
 4719SOL     OW15055   6.778   3.268   3.720
 4719SOL    HW115056   6.680   3.283   3.714
 4719SOL    HW215057   6.808   3.279   3.815
 4720SOL     OW15058   2.856   4.129   6.911
 4720SOL    HW115059   2.761   4.113   6.885
 4720SOL    HW215060   2.884   4.220   6.879
 4721SOL     OW15061   6.590   3.731   2.613
 4721SOL    HW115062   6.670   3.674   2.633
 4721SOL    HW215063   6.575   3.795   2.689
 4722SOL     OW15064   1.032   4.230   6.266
 4722SOL    HW115065   0.957   4.236   6.332
 4722SOL    HW215066   1.099   4.301   6.285
 4723SOL     OW15067   3.993   3.669   6.665
 4723SOL    HW115068   4.067   3.727   6.631
 4723SOL    HW215069   4.023   3.574   6.667
 4724SOL     OW15070   1.196   6.815   4.531
 4724SOL    HW115071   1.199   6.747   4.457
 4724SOL    HW215072   1.268   6.883   4.516
 4725SOL     OW15073   6.058   5.727   0.891
 4725SOL    HW115074   6.154   5.700   0.893
 4725SOL    HW215075   6.017   5.709   0.980
 4726SOL     OW15076   1.370   3.052   5.550
 4726SOL    HW115077   1.398   2.986   5.480
 4726SOL    HW215078   1.364   3.143   5.509
 4727SOL     OW15079   1.104   5.787   0.232
 4727SOL    HW115080   1.109   5.882   0.201
 4727SOL    HW215081   1.099   5.784   0.332
 4728SOL     OW15082   6.026   1.420   3.977
 4728SOL    HW115083   6.071   1.384   4.059
 4728SOL    HW215084   6.070   1.505   3.949
 4729SOL     OW15085   6.355   0.747   0.743
 4729SOL    HW115086   6.289   0.696   0.687
 4729SOL    HW215087   6.328   0.743   0.839
 4730SOL     OW15088   3.621   0.395   4.989
 4730SOL    HW115089   3.566   0.464   4.941
 4730SOL    HW215090   3.632   0.422   5.085
 4731SOL     OW15091   3.268   0.871   0.855
 4731SOL    HW115092   3.288   0.806   0.781
 4731SOL    HW215093   3.353   0.904   0.895
 4732SOL     OW15094   6.700   4.053   4.158
 4732SOL    HW115095   6.728   4.146   4.136
 4732SOL    HW215096   6.698   4.041   4.257
 4733SOL     OW15097   2.108   3.162   2.958
 4733SOL    HW115098   2.029   3.191   2.903
 4733SOL    HW215099   2.076   3.128   3.046
 4734SOL     OW15100   4.748   3.935   6.475
 4734SOL    HW115101   4.721   4.031   6.481
 4734SOL    HW215102   4.766   3.900   6.567
 4735SOL     OW15103   0.152   6.470   5.004
 4735SOL    HW115104   0.086   6.543   5.022
 4735SOL    HW215105   0.111   6.382   5.027
 4736SOL     OW15106   6.306   1.709   2.941
 4736SOL    HW115107   6.374   1.671   2.877
 4736SOL    HW215108   6.318   1.808   2.948
 4737SOL     OW15109   2.194   4.991   1.168
 4737SOL    HW115110   2.270   5.043   1.207
 4737SOL    HW215111   2.198   4.897   1.202
 4738SOL     OW15112   1.978   0.113   3.957
 4738SOL    HW115113   2.070   0.150   3.974
 4738SOL    HW215114   1.910   0.177   3.991
 4739SOL     OW15115   5.844   3.532   4.092
 4739SOL    HW115116   5.808   3.502   4.004
 4739SOL    HW215117   5.771   3.531   4.161
 4740SOL     OW15118   0.382   0.993   1.138
 4740SOL    HW115119   0.402   1.050   1.059
 4740SOL    HW215120   0.310   1.035   1.193
 4741SOL     OW15121   4.445   4.776   1.711
 4741SOL    HW115122   4.504   4.762   1.791
 4741SOL    HW215123   4.445   4.873   1.686
 4742SOL     OW15124   2.664   5.973   1.501
 4742SOL    HW115125   2.669   5.951   1.599
 4742SOL    HW215126   2.756   5.981   1.464
 4743SOL     OW15127   2.303   2.301   0.172
 4743SOL    HW115128   2.350   2.311   0.260
 4743SOL    HW215129   2.315   2.208   0.138
 4744SOL     OW15130   1.932   3.334   5.385
 4744SOL    HW115131   1.938   3.334   5.286
 4744SOL    HW215132   2.018   3.368   5.424
 4745SOL     OW15133   3.309   5.691   4.620
 4745SOL    HW115134   3.300   5.624   4.693
 4745SOL    HW215135   3.328   5.781   4.660
 4746SOL     OW15136   6.686   6.824   0.917
 4746SOL    HW115137   6.669   6.729   0.944
 4746SOL    HW215138   6.658   6.884   0.992
 4747SOL     OW15139   6.649   1.843   0.708
 4747SOL    HW115140   6.669   1.914   0.640
 4747SOL    HW215141   6.576   1.875   0.769
 4748SOL     OW15142   1.142   1.211   1.540
 4748SOL    HW115143   1.090   1.126   1.539
 4748SOL    HW215144   1.231   1.196   1.583
 4749SOL     OW15145   2.170   7.021   0.122
 4749SOL    HW115146   2.110   0.058   0.174
 4749SOL    HW215147   2.224   6.965   0.184
 4750SOL     OW15148   6.900   0.575   4.357
 4750SOL    HW115149   6.968   0.639   4.322
 4750SOL    HW215150   6.946   0.497   4.398
 4751SOL     OW15151   1.221   4.266   6.051
 4751SOL    HW115152   1.242   4.286   6.147
 4751SOL    HW215153   1.123   4.276   6.035
 4752SOL     OW15154   3.034   5.950   2.078
 4752SOL    HW115155   3.017   6.046   2.098
 4752SOL    HW215156   3.129   5.939   2.047
 4753SOL     OW15157   5.726   6.506   5.336
 4753SOL    HW115158   5.711   6.561   5.253
 4753SOL    HW215159   5.706   6.562   5.416
 4754SOL     OW15160   0.430   0.736   5.705
 4754SOL    HW115161   0.488   0.654   5.711
 4754SOL    HW215162   0.339   0.709   5.674
 4755SOL     OW15163   2.256   1.253   6.416
 4755SOL    HW115164   2.259   1.288   6.323
 4755SOL    HW215165   2.292   1.159   6.418
 4756SOL     OW15166   4.737   3.036   1.449
 4756SOL    HW115167   4.808   3.058   1.383
 4756SOL    HW215168   4.771   2.967   1.513
 4757SOL     OW15169   2.283   2.203   1.717
 4757SOL    HW115170   2.382   2.187   1.724
 4757SOL    HW215171   2.235   2.117   1.733
 4758SOL     OW15172   5.276   5.310   5.270
 4758SOL    HW115173   5.188   5.341   5.305
 4758SOL    HW215174   5.275   5.314   5.170
 4759SOL     OW15175   5.641   5.472   6.174
 4759SOL    HW115176   5.694   5.404   6.225
 4759SOL    HW215177   5.570   5.426   6.120
 4760SOL     OW15178   1.816   1.182   1.776
 4760SOL    HW115179   1.891   1.174   1.842
 4760SOL    HW215180   1.830   1.263   1.719
 4761SOL     OW15181   6.788   6.901   6.795
 4761SOL    HW115182   6.799   6.802   6.798
 4761SOL    HW215183   6.764   6.935   6.887
 4762SOL     OW15184   2.403   5.935   1.823
 4762SOL    HW115185   2.341   5.877   1.769
 4762SOL    HW215186   2.402   5.905   1.918
 4763SOL     OW15187   5.977   6.156   3.604
 4763SOL    HW115188   6.021   6.093   3.668
 4763SOL    HW215189   5.879   6.136   3.599
 4764SOL     OW15190   3.801   3.796   4.803
 4764SOL    HW115191   3.765   3.783   4.711
 4764SOL    HW215192   3.880   3.858   4.799
 4765SOL     OW15193   5.085   5.842   4.838
 4765SOL    HW115194   5.099   5.932   4.877
 4765SOL    HW215195   5.130   5.836   4.749
 4766SOL     OW15196   2.572   6.942   3.270
 4766SOL    HW115197   2.626   6.861   3.292
 4766SOL    HW215198   2.607   6.984   3.186
 4767SOL     OW15199   4.453   6.585   6.728
 4767SOL    HW115200   4.384   6.592   6.656
 4767SOL    HW215201   4.544   6.585   6.686
 4768SOL     OW15202   6.545   0.812   5.032
 4768SOL    HW115203   6.628   0.775   5.075
 4768SOL    HW215204   6.541   0.911   5.049
 4769SOL     OW15205   4.106   6.454   1.673
 4769SOL    HW115206   4.048   6.425   1.597
 4769SOL    HW215207   4.066   6.535   1.717
 4770SOL     OW15208   2.859   0.495   3.283
 4770SOL    HW115209   2.870   0.424   3.352
 4770SOL    HW215210   2.775   0.479   3.231
 4771SOL     OW15211   4.052   4.221   5.602
 4771SOL    HW115212   4.028   4.176   5.516
 4771SOL    HW215213   4.052   4.153   5.676
 4772SOL     OW15214   2.848   1.460   1.600
 4772SOL    HW115215   2.791   1.541   1.615
 4772SOL    HW215216   2.938   1.489   1.568
 4773SOL     OW15217   0.033   5.800   3.653
 4773SOL    HW115218   0.117   5.747   3.667
 4773SOL    HW215219   0.022   5.820   3.555
 4774SOL     OW15220   0.658   3.745   1.063
 4774SOL    HW115221   0.606   3.809   1.006
 4774SOL    HW215222   0.714   3.686   1.005
 4775SOL     OW15223   4.308   0.222   2.396
 4775SOL    HW115224   4.234   0.261   2.341
 4775SOL    HW215225   4.302   0.258   2.490
 4776SOL     OW15226   2.896   5.703   2.711
 4776SOL    HW115227   2.938   5.672   2.796
 4776SOL    HW215228   2.871   5.800   2.719
 4777SOL     OW15229   3.082   4.133   1.100
 4777SOL    HW115230   3.146   4.121   1.176
 4777SOL    HW215231   3.067   4.231   1.085
 4778SOL     OW15232   4.953   3.782   2.151
 4778SOL    HW115233   4.949   3.703   2.089
 4778SOL    HW215234   4.999   3.858   2.106
 4779SOL     OW15235   5.895   0.631   2.906
 4779SOL    HW115236   5.966   0.568   2.875
 4779SOL    HW215237   5.892   0.710   2.844
 4780SOL     OW15238   1.239   6.903   6.736
 4780SOL    HW115239   1.189   6.869   6.815
 4780SOL    HW215240   1.203   6.992   6.709
 4781SOL     OW15241   2.739   5.478   1.226
 4781SOL    HW115242   2.680   5.401   1.250
 4781SOL    HW215243   2.697   5.563   1.256
 4782SOL     OW15244   5.568   6.443   0.076
 4782SOL    HW115245   5.595   6.481   0.165
 4782SOL    HW215246   5.563   6.343   0.083
 4783SOL     OW15247   5.292   4.428   0.760
 4783SOL    HW115248   5.294   4.366   0.682
 4783SOL    HW215249   5.287   4.375   0.845
 4784SOL     OW15250   5.224   4.869   4.752
 4784SOL    HW115251   5.226   4.853   4.851
 4784SOL    HW215252   5.318   4.879   4.718
 4785SOL     OW15253   6.731   6.459   1.179
 4785SOL    HW115254   6.811   6.452   1.119
 4785SOL    HW215255   6.667   6.385   1.159
 4786SOL     OW15256   2.084   3.326   1.951
 4786SOL    HW115257   2.066   3.288   2.041
 4786SOL    HW215258   2.153   3.398   1.958
 4787SOL     OW15259   3.359   2.040   3.299
 4787SOL    HW115260   3.323   2.100   3.227
 4787SOL    HW215261   3.321   2.068   3.387
 4788SOL     OW15262   1.275   5.094   4.369
 4788SOL    HW115263   1.326   5.012   4.395
 4788SOL    HW215264   1.269   5.100   4.270
 4789SOL     OW15265   5.792   0.383   0.088
 4789SOL    HW115266   5.836   0.459   0.040
 4789SOL    HW215267   5.699   0.410   0.114
 4790SOL     OW15268   5.924   2.642   6.489
 4790SOL    HW115269   5.829   2.667   6.470
 4790SOL    HW215270   5.984   2.718   6.465
 4791SOL     OW15271   5.668   6.724   1.947
 4791SOL    HW115272   5.754   6.685   1.978
 4791SOL    HW215273   5.592   6.674   1.989
 4792SOL     OW15274   2.104   2.566   2.811
 4792SOL    HW115275   2.170   2.506   2.765
 4792SOL    HW215276   2.153   2.642   2.854
 4793SOL     OW15277   1.764   6.702   6.447
 4793SOL    HW115278   1.681   6.646   6.446
 4793SOL    HW215279   1.824   6.672   6.521
 4794SOL     OW15280   2.864   0.164   2.787
 4794SOL    HW115281   2.787   0.145   2.727
 4794SOL    HW215282   2.917   0.240   2.750
 4795SOL     OW15283   6.409   3.064   4.278
 4795SOL    HW115284   6.326   3.091   4.326
 4795SOL    HW215285   6.427   2.966   4.295
 4796SOL     OW15286   5.890   3.710   1.022
 4796SOL    HW115287   5.949   3.737   0.945
 4796SOL    HW215288   5.810   3.661   0.987
 4797SOL     OW15289   0.518   4.764   5.731
 4797SOL    HW115290   0.444   4.703   5.758
 4797SOL    HW215291   0.563   4.728   5.649
 4798SOL     OW15292   0.057   3.962   4.381
 4798SOL    HW115293   6.986   3.931   4.382
 4798SOL    HW215294   0.076   4.015   4.463
 4799SOL     OW15295   4.190   1.590   5.250
 4799SOL    HW115296   4.141   1.544   5.176
 4799SOL    HW215297   4.241   1.668   5.212
 4800SOL     OW15298   2.303   2.404   5.296
 4800SOL    HW115299   2.233   2.423   5.227
 4800SOL    HW215300   2.354   2.487   5.315
 4801SOL     OW15301   1.506   1.606   0.721
 4801SOL    HW115302   1.408   1.618   0.737
 4801SOL    HW215303   1.558   1.656   0.790
 4802SOL     OW15304   3.169   0.236   1.906
 4802SOL    HW115305   3.182   0.225   1.807
 4802SOL    HW215306   3.073   0.258   1.924
 4803SOL     OW15307   0.762   0.390   0.476
 4803SOL    HW115308   0.751   0.392   0.575
 4803SOL    HW215309   0.859   0.379   0.454
 4804SOL     OW15310   4.110   5.417   6.199
 4804SOL    HW115311   4.100   5.340   6.262
 4804SOL    HW215312   4.099   5.385   6.105
 4805SOL     OW15313   6.977   1.606   0.514
 4805SOL    HW115314   0.020   1.569   0.578
 4805SOL    HW215315   6.886   1.602   0.556
 4806SOL     OW15316   0.535   3.282   2.750
 4806SOL    HW115317   0.484   3.251   2.670
 4806SOL    HW215318   0.476   3.279   2.831
 4807SOL     OW15319   0.337   6.460   1.177
 4807SOL    HW115320   0.370   6.519   1.250
 4807SOL    HW215321   0.411   6.441   1.113
 4808SOL     OW15322   5.040   3.460   1.273
 4808SOL    HW115323   4.941   3.441   1.270
 4808SOL    HW215324   5.078   3.424   1.358
 4809SOL     OW15325   3.583   5.468   6.854
 4809SOL    HW115326   3.490   5.497   6.875
 4809SOL    HW215327   3.624   5.533   6.790
 4810SOL     OW15328   0.676   6.606   1.461
 4810SOL    HW115329   0.629   6.629   1.546
 4810SOL    HW215330   0.719   6.516   1.470
 4811SOL     OW15331   3.644   5.231   1.968
 4811SOL    HW115332   3.633   5.138   1.933
 4811SOL    HW215333   3.585   5.244   2.048
 4812SOL     OW15334   6.903   5.326   4.326
 4812SOL    HW115335   6.874   5.355   4.418
 4812SOL    HW215336   7.003   5.321   4.322
 4813SOL     OW15337   4.946   2.193   2.507
 4813SOL    HW115338   4.917   2.273   2.453
 4813SOL    HW215339   5.042   2.174   2.488
 4814SOL     OW15340   0.222   3.877   0.952
 4814SOL    HW115341   0.137   3.913   0.913
 4814SOL    HW215342   0.243   3.789   0.910
 4815SOL     OW15343   5.014   5.528   1.299
 4815SOL    HW115344   5.110   5.515   1.326
 4815SOL    HW215345   4.960   5.449   1.330
 4816SOL     OW15346   5.179   5.241   2.963
 4816SOL    HW115347   5.187   5.331   3.005
 4816SOL    HW215348   5.269   5.207   2.939
 4817SOL     OW15349   1.517   2.537   6.108
 4817SOL    HW115350   1.444   2.525   6.040
 4817SOL    HW215351   1.479   2.523   6.199
 4818SOL     OW15352   0.381   6.819   3.859
 4818SOL    HW115353   0.387   6.861   3.768
 4818SOL    HW215354   0.469   6.829   3.905
 4819SOL     OW15355   1.546   3.202   0.407
 4819SOL    HW115356   1.583   3.246   0.489
 4819SOL    HW215357   1.589   3.240   0.326
 4820SOL     OW15358   0.180   2.889   1.671
 4820SOL    HW115359   0.086   2.885   1.637
 4820SOL    HW215360   0.215   2.982   1.662
 4821SOL     OW15361   6.699   5.961   2.781
 4821SOL    HW115362   6.610   5.920   2.764
 4821SOL    HW215363   6.769   5.890   2.779
 4822SOL     OW15364   1.357   3.779   4.376
 4822SOL    HW115365   1.289   3.801   4.306
 4822SOL    HW215366   1.321   3.707   4.436
 4823SOL     OW15367   1.986   2.803   2.212
 4823SOL    HW115368   2.071   2.848   2.240
 4823SOL    HW215369   2.001   2.755   2.125
 4824SOL     OW15370   6.303   1.320   5.222
 4824SOL    HW115371   6.317   1.255   5.296
 4824SOL    HW215372   6.304   1.272   5.134
 4825SOL     OW15373   1.562   6.723   4.362
 4825SOL    HW115374   1.578   6.718   4.460
 4825SOL    HW215375   1.633   6.779   4.320
 4826SOL     OW15376   4.572   0.356   1.611
 4826SOL    HW115377   4.626   0.328   1.532
 4826SOL    HW215378   4.580   0.288   1.684
 4827SOL     OW15379   0.006   1.863   1.360
 4827SOL    HW115380   6.936   1.865   1.327
 4827SOL    HW215381   0.064   1.822   1.290
 4828SOL     OW15382   4.674   0.543   2.429
 4828SOL    HW115383   4.675   0.607   2.353
 4828SOL    HW215384   4.767   0.531   2.465
 4829SOL     OW15385   3.905   0.400   5.108
 4829SOL    HW115386   3.939   0.375   5.199
 4829SOL    HW215387   3.818   0.355   5.091
 4830SOL     OW15388   2.963   5.759   3.367
 4830SOL    HW115389   2.917   5.715   3.290
 4830SOL    HW215390   2.899   5.820   3.414
 4831SOL     OW15391   3.330   4.817   6.054
 4831SOL    HW115392   3.236   4.850   6.060
 4831SOL    HW215393   3.392   4.888   6.088
 4832SOL     OW15394   3.060   3.116   4.102
 4832SOL    HW115395   3.147   3.139   4.059
 4832SOL    HW215396   3.001   3.197   4.105
 4833SOL     OW15397   0.102   2.635   3.929
 4833SOL    HW115398   0.092   2.710   3.995
 4833SOL    HW215399   0.014   2.588   3.918
 4834SOL     OW15400   1.711   5.251   1.878
 4834SOL    HW115401   1.691   5.325   1.942
 4834SOL    HW215402   1.643   5.250   1.805
 4835SOL     OW15403   7.012   2.608   5.251
 4835SOL    HW115404   7.015   2.659   5.165
 4835SOL    HW215405   6.940   2.647   5.310
 4836SOL     OW15406   5.016   1.443   5.321
 4836SOL    HW115407   5.049   1.366   5.267
 4836SOL    HW215408   4.933   1.416   5.371
 4837SOL     OW15409   6.753   4.027   4.421
 4837SOL    HW115410   6.735   3.973   4.503
 4837SOL    HW215411   6.747   4.125   4.444
 4838SOL     OW15412   1.191   4.652   6.743
 4838SOL    HW115413   1.184   4.585   6.669
 4838SOL    HW215414   1.252   4.726   6.716
 4839SOL     OW15415   2.586   1.285   6.920
 4839SOL    HW115416   2.535   1.357   6.875
 4839SOL    HW215417   2.675   1.320   6.949
 4840SOL     OW15418   5.704   3.557   4.788
 4840SOL    HW115419   5.751   3.564   4.876
 4840SOL    HW215420   5.674   3.462   4.774
 4841SOL     OW15421   3.076   5.689   2.940
 4841SOL    HW115422   3.140   5.640   2.880
 4841SOL    HW215423   3.100   5.786   2.944
 4842SOL     OW15424   2.929   5.258   3.321
 4842SOL    HW115425   2.848   5.234   3.267
 4842SOL    HW215426   2.902   5.322   3.393
 4843SOL     OW15427   0.691   2.319   2.190
 4843SOL    HW115428   0.631   2.311   2.270
 4843SOL    HW215429   0.636   2.315   2.106
 4844SOL     OW15430   1.061   5.688   4.619
 4844SOL    HW115431   1.150   5.655   4.651
 4844SOL    HW215432   1.007   5.611   4.585
 4845SOL     OW15433   4.839   3.933   4.928
 4845SOL    HW115434   4.825   3.845   4.973
 4845SOL    HW215435   4.846   3.919   4.829
 4846SOL     OW15436   6.818   3.637   4.893
 4846SOL    HW115437   6.817   3.649   4.992
 4846SOL    HW215438   6.848   3.723   4.850
 4847SOL     OW15439   2.226   6.430   6.288
 4847SOL    HW115440   2.300   6.453   6.351
 4847SOL    HW215441   2.238   6.479   6.202
 4848SOL     OW15442   3.185   0.852   4.182
 4848SOL    HW115443   3.258   0.786   4.168
 4848SOL    HW215444   3.096   0.806   4.176
 4849SOL     OW15445   1.849   6.992   1.112
 4849SOL    HW115446   1.785   6.955   1.045
 4849SOL    HW215447   1.918   6.922   1.134
 4850SOL     OW15448   4.508   0.404   0.569
 4850SOL    HW115449   4.436   0.397   0.637
 4850SOL    HW215450   4.484   0.349   0.489
 4851SOL     OW15451   3.752   5.209   6.482
 4851SOL    HW115452   3.770   5.288   6.423
 4851SOL    HW215453   3.669   5.225   6.536
 4852SOL     OW15454   4.946   5.345   4.797
 4852SOL    HW115455   5.040   5.335   4.765
 4852SOL    HW215456   4.941   5.318   4.893
 4853SOL     OW15457   3.946   6.945   2.303
 4853SOL    HW115458   3.941   7.015   2.373
 4853SOL    HW215459   3.859   6.939   2.254
 4854SOL     OW15460   5.765   6.121   1.807
 4854SOL    HW115461   5.744   6.195   1.743
 4854SOL    HW215462   5.805   6.044   1.759
 4855SOL     OW15463   6.252   4.878   4.974
 4855SOL    HW115464   6.174   4.894   4.913
 4855SOL    HW215465   6.283   4.965   5.012
 4856SOL     OW15466   0.323   3.878   3.058
 4856SOL    HW115467   0.288   3.971   3.062
 4856SOL    HW215468   0.246   3.814   3.052
 4857SOL     OW15469   2.698   2.041   4.770
 4857SOL    HW115470   2.759   2.120   4.782
 4857SOL    HW215471   2.608   2.062   4.806
 4858SOL     OW15472   0.511   5.922   4.135
 4858SOL    HW115473   0.498   5.825   4.152
 4858SOL    HW215474   0.454   5.975   4.199
 4859SOL     OW15475   0.614   5.997   2.409
 4859SOL    HW115476   0.683   5.937   2.450
 4859SOL    HW215477   0.585   5.960   2.322
 4860SOL     OW15478   4.206   5.551   1.063
 4860SOL    HW115479   4.181   5.640   1.026
 4860SOL    HW215480   4.289   5.559   1.118
 4861SOL     OW15481   0.238   4.655   6.708
 4861SOL    HW115482   0.188   4.707   6.638
 4861SOL    HW215483   0.335   4.678   6.703
 4862SOL     OW15484   2.494   5.103   5.437
 4862SOL    HW115485   2.419   5.090   5.502
 4862SOL    HW215486   2.462   5.086   5.344
 4863SOL     OW15487   4.430   1.864   2.737
 4863SOL    HW115488   4.346   1.915   2.757
 4863SOL    HW215489   4.509   1.923   2.750
 4864SOL     OW15490   2.551   1.399   1.710
 4864SOL    HW115491   2.563   1.477   1.649
 4864SOL    HW215492   2.632   1.390   1.769
 4865SOL     OW15493   3.804   5.874   5.456
 4865SOL    HW115494   3.823   5.825   5.542
 4865SOL    HW215495   3.851   5.962   5.457
 4866SOL     OW15496   6.477   4.847   1.369
 4866SOL    HW115497   6.457   4.758   1.412
 4866SOL    HW215498   6.575   4.863   1.371
 4867SOL     OW15499   5.050   5.960   3.043
 4867SOL    HW115500   5.139   5.967   2.998
 4867SOL    HW215501   5.017   5.866   3.037
 4868SOL     OW15502   0.495   6.058   1.056
 4868SOL    HW115503   0.562   6.033   0.987
 4868SOL    HW215504   0.481   5.980   1.118
 4869SOL     OW15505   6.293   0.359   0.699
 4869SOL    HW115506   6.329   0.419   0.770
 4869SOL    HW215507   6.276   0.268   0.738
 4870SOL     OW15508   6.452   5.954   2.149
 4870SOL    HW115509   6.455   5.873   2.208
 4870SOL    HW215510   6.544   5.972   2.115
 4871SOL     OW15511   1.107   3.457   4.111
 4871SOL    HW115512   1.076   3.517   4.185
 4871SOL    HW215513   1.054   3.476   4.029
 4872SOL     OW15514   0.846   0.957   2.760
 4872SOL    HW115515   0.853   0.903   2.844
 4872SOL    HW215516   0.787   1.036   2.776
 4873SOL     OW15517   0.374   5.620   5.364
 4873SOL    HW115518   0.439   5.669   5.421
 4873SOL    HW215519   0.281   5.638   5.397
 4874SOL     OW15520   5.461   3.610   2.964
 4874SOL    HW115521   5.412   3.680   3.014
 4874SOL    HW215522   5.399   3.563   2.902
 4875SOL     OW15523   5.943   2.615   0.106
 4875SOL    HW115524   5.923   2.556   0.029
 4875SOL    HW215525   5.857   2.640   0.152
 4876SOL     OW15526   0.443   1.460   6.609
 4876SOL    HW115527   0.422   1.405   6.690
 4876SOL    HW215528   0.526   1.424   6.566
 4877SOL     OW15529   6.676   1.287   1.197
 4877SOL    HW115530   6.683   1.210   1.134
 4877SOL    HW215531   6.755   1.288   1.258
 4878SOL     OW15532   0.342   1.819   1.493
 4878SOL    HW115533   0.244   1.824   1.513
 4878SOL    HW215534   0.372   1.905   1.451
 4879SOL     OW15535   4.472   4.951   3.469
 4879SOL    HW115536   4.385   4.985   3.505
 4879SOL    HW215537   4.547   5.011   3.498
 4880SOL     OW15538   5.590   1.837   5.695
 4880SOL    HW115539   5.579   1.757   5.637
 4880SOL    HW215540   5.513   1.899   5.682
 4881SOL     OW15541   3.594   6.192   6.329
 4881SOL    HW115542   3.595   6.279   6.379
 4881SOL    HW215543   3.678   6.184   6.275
 4882SOL     OW15544   5.748   0.653   5.554
 4882SOL    HW115545   5.682   0.659   5.629
 4882SOL    HW215546   5.714   0.590   5.484
 4883SOL     OW15547   6.932   5.638   1.376
 4883SOL    HW115548   6.894   5.720   1.333
 4883SOL    HW215549   6.860   5.590   1.426
 4884SOL     OW15550   3.279   6.465   1.438
 4884SOL    HW115551   3.287   6.523   1.519
 4884SOL    HW215552   3.304   6.371   1.462
 4885SOL     OW15553   1.927   0.010   1.893
 4885SOL    HW115554   2.017   6.991   1.884
 4885SOL    HW215555   1.939   0.105   1.923
 4886SOL     OW15556   6.300   0.613   6.707
 4886SOL    HW115557   6.342   0.693   6.664
 4886SOL    HW215558   6.222   0.583   6.652
 4887SOL     OW15559   0.356   2.035   4.415
 4887SOL    HW115560   0.314   2.125   4.401
 4887SOL    HW215561   0.451   2.038   4.382
 4888SOL     OW15562   2.897   5.437   2.881
 4888SOL    HW115563   2.814   5.438   2.937
 4888SOL    HW215564   2.875   5.402   2.790
 4889SOL     OW15565   1.299   1.812   0.273
 4889SOL    HW115566   1.391   1.777   0.255
 4889SOL    HW215567   1.269   1.868   0.195
 4890SOL     OW15568   1.077   0.481   4.770
 4890SOL    HW115569   1.053   0.399   4.719
 4890SOL    HW215570   0.998   0.543   4.774
 4891SOL     OW15571   0.833   4.879   0.135
 4891SOL    HW115572   0.822   4.848   0.040
 4891SOL    HW215573   0.761   4.839   0.191
 4892SOL     OW15574   0.740   5.563   1.241
 4892SOL    HW115575   0.813   5.497   1.257
 4892SOL    HW215576   0.667   5.519   1.189
 4893SOL     OW15577   0.296   3.759   6.516
 4893SOL    HW115578   0.331   3.842   6.473
 4893SOL    HW215579   0.348   3.740   6.600
 4894SOL     OW15580   2.579   0.945   2.930
 4894SOL    HW115581   2.522   0.887   2.988
 4894SOL    HW215582   2.651   0.889   2.888
 4895SOL     OW15583   0.826   3.479   0.281
 4895SOL    HW115584   0.889   3.402   0.286
 4895SOL    HW215585   0.878   3.563   0.261
 4896SOL     OW15586   3.951   5.350   4.358
 4896SOL    HW115587   3.951   5.372   4.261
 4896SOL    HW215588   3.940   5.251   4.370
 4897SOL     OW15589   3.451   5.738   6.219
 4897SOL    HW115590   3.451   5.660   6.281
 4897SOL    HW215591   3.371   5.795   6.236
 4898SOL     OW15592   5.754   2.013   5.217
 4898SOL    HW115593   5.720   2.103   5.244
 4898SOL    HW215594   5.832   1.988   5.274
 4899SOL     OW15595   5.655   4.110   4.124
 4899SOL    HW115596   5.584   4.180   4.131
 4899SOL    HW215597   5.711   4.125   4.043
 4900SOL     OW15598   1.100   6.734   5.398
 4900SOL    HW115599   1.066   6.684   5.478
 4900SOL    HW215600   1.124   6.827   5.424
 4901SOL     OW15601   1.333   6.805   3.974
 4901SOL    HW115602   1.302   6.783   3.881
 4901SOL    HW215603   1.371   6.898   3.975
 4902SOL     OW15604   2.752   4.836   1.822
 4902SOL    HW115605   2.808   4.801   1.897
 4902SOL    HW215606   2.660   4.797   1.828
 4903SOL     OW15607   4.875   7.024   6.554
 4903SOL    HW115608   4.829   0.071   6.501
 4903SOL    HW215609   4.808   6.957   6.584
 4904SOL     OW15610   3.027   5.740   3.788
 4904SOL    HW115611   2.994   5.716   3.697
 4904SOL    HW215612   3.121   5.706   3.800
 4905SOL     OW15613   5.611   3.404   2.260
 4905SOL    HW115614   5.680   3.476   2.268
 4905SOL    HW215615   5.609   3.371   2.165
 4906SOL     OW15616   5.537   0.584   0.528
 4906SOL    HW115617   5.519   0.488   0.548
 4906SOL    HW215618   5.535   0.638   0.612
 4907SOL     OW15619   3.273   0.977   2.394
 4907SOL    HW115620   3.300   1.073   2.386
 4907SOL    HW215621   3.218   0.950   2.316
 4908SOL     OW15622   2.731   5.695   6.852
 4908SOL    HW115623   2.770   5.620   6.799
 4908SOL    HW215624   2.758   5.686   6.948
 4909SOL     OW15625   6.935   6.966   5.299
 4909SOL    HW115626   6.889   6.966   5.387
 4909SOL    HW215627   6.964   6.874   5.275
 4910SOL     OW15628   5.723   0.152   5.030
 4910SOL    HW115629   5.820   0.169   5.012
 4910SOL    HW215630   5.714   0.067   5.083
 4911SOL     OW15631   6.744   2.590   6.160
 4911SOL    HW115632   6.791   2.627   6.240
 4911SOL    HW215633   6.751   2.655   6.085
 4912SOL     OW15634   2.537   2.195   1.974
 4912SOL    HW115635   2.578   2.244   2.051
 4912SOL    HW215636   2.451   2.153   2.002
 4913SOL     OW15637   2.874   3.590   3.272
 4913SOL    HW115638   2.791   3.597   3.327
 4913SOL    HW215639   2.945   3.649   3.310
 4914SOL     OW15640   1.973   6.694   3.726
 4914SOL    HW115641   1.960   6.598   3.752
 4914SOL    HW215642   2.062   6.726   3.757
 4915SOL     OW15643   3.264   5.613   3.585
 4915SOL    HW115644   3.247   5.651   3.494
 4915SOL    HW215645   3.310   5.681   3.642
 4916SOL     OW15646   2.771   0.957   2.367
 4916SOL    HW115647   2.785   0.970   2.269
 4916SOL    HW215648   2.807   1.036   2.417
 4917SOL     OW15649   1.903   5.156   0.699
 4917SOL    HW115650   1.977   5.153   0.765
 4917SOL    HW215651   1.818   5.124   0.742
 4918SOL     OW15652   2.353   0.380   1.717
 4918SOL    HW115653   2.437   0.415   1.760
 4918SOL    HW215654   2.284   0.452   1.715
 4919SOL     OW15655   2.544   2.492   2.286
 4919SOL    HW115656   2.623   2.546   2.258
 4919SOL    HW215657   2.466   2.514   2.227
 4920SOL     OW15658   4.568   0.881   0.354
 4920SOL    HW115659   4.570   0.795   0.304
 4920SOL    HW215660   4.474   0.916   0.357
 4921SOL     OW15661   1.367   5.167   1.718
 4921SOL    HW115662   1.401   5.079   1.687
 4921SOL    HW215663   1.437   5.237   1.702
 4922SOL     OW15664   1.669   2.785   5.577
 4922SOL    HW115665   1.609   2.841   5.521
 4922SOL    HW215666   1.737   2.740   5.518
 4923SOL     OW15667   4.527   1.341   0.795
 4923SOL    HW115668   4.587   1.405   0.749
 4923SOL    HW215669   4.466   1.390   0.857
 4924SOL     OW15670   0.312   3.769   4.727
 4924SOL    HW115671   0.251   3.693   4.748
 4924SOL    HW215672   0.389   3.768   4.792
 4925SOL     OW15673   4.545   6.121   7.010
 4925SOL    HW115674   4.564   6.187   0.057
 4925SOL    HW215675   4.508   6.168   6.929
 4926SOL     OW15676   4.607   2.316   1.801
 4926SOL    HW115677   4.639   2.238   1.855
 4926SOL    HW215678   4.602   2.291   1.705
 4927SOL     OW15679   3.655   3.218   3.317
 4927SOL    HW115680   3.562   3.243   3.290
 4927SOL    HW215681   3.720   3.263   3.256
 4928SOL     OW15682   0.242   6.229   0.051
 4928SOL    HW115683   0.326   6.279   0.072
 4928SOL    HW215684   0.216   6.245   6.980
 4929SOL     OW15685   0.724   5.177   4.148
 4929SOL    HW115686   0.813   5.171   4.102
 4929SOL    HW215687   0.717   5.104   4.216
 4930SOL     OW15688   0.339   1.838   0.944
 4930SOL    HW115689   0.389   1.854   0.859
 4930SOL    HW215690   0.402   1.807   1.015
 4931SOL     OW15691   0.012   0.870   0.669
 4931SOL    HW115692   7.000   0.788   0.625
 4931SOL    HW215693   7.013   0.951   0.616
 4932SOL     OW15694   2.627   2.340   1.777
 4932SOL    HW115695   2.579   2.293   1.851
 4932SOL    HW215696   2.689   2.409   1.816
 4933SOL     OW15697   3.216   0.912   4.460
 4933SOL    HW115698   3.207   0.936   4.363
 4933SOL    HW215699   3.185   0.817   4.473
 4934SOL     OW15700   0.969   6.137   4.918
 4934SOL    HW115701   0.927   6.089   4.995
 4934SOL    HW215702   1.027   6.074   4.867
 4935SOL     OW15703   1.598   1.031   0.763
 4935SOL    HW115704   1.606   1.060   0.858
 4935SOL    HW215705   1.537   1.092   0.713
 4936SOL     OW15706   3.688   5.387   0.547
 4936SOL    HW115707   3.685   5.474   0.498
 4936SOL    HW215708   3.723   5.403   0.639
 4937SOL     OW15709   0.339   3.242   6.358
 4937SOL    HW115710   0.330   3.341   6.352
 4937SOL    HW215711   0.281   3.208   6.433
 4938SOL     OW15712   3.352   4.919   1.474
 4938SOL    HW115713   3.361   4.893   1.570
 4938SOL    HW215714   3.291   4.855   1.428
 4939SOL     OW15715   1.824   1.848   2.137
 4939SOL    HW115716   1.829   1.782   2.062
 4939SOL    HW215717   1.728   1.869   2.157
 4940SOL     OW15718   0.390   2.268   5.045
 4940SOL    HW115719   0.335   2.351   5.055
 4940SOL    HW215720   0.465   2.284   4.982
 4941SOL     OW15721   4.035   2.012   5.220
 4941SOL    HW115722   4.048   1.993   5.318
 4941SOL    HW215723   4.121   2.045   5.181
 4942SOL     OW15724   6.590   2.035   4.092
 4942SOL    HW115725   6.514   1.975   4.118
 4942SOL    HW215726   6.577   2.064   3.997
 4943SOL     OW15727   5.383   3.240   6.459
 4943SOL    HW115728   5.459   3.297   6.491
 4943SOL    HW215729   5.419   3.161   6.409
 4944SOL     OW15730   1.391   5.298   1.099
 4944SOL    HW115731   1.380   5.382   1.152
 4944SOL    HW215732   1.408   5.221   1.160
 4945SOL     OW15733   1.822   1.208   5.063
 4945SOL    HW115734   1.795   1.130   5.119
 4945SOL    HW215735   1.748   1.275   5.061
 4946SOL     OW15736   2.443   4.964   6.977
 4946SOL    HW115737   2.400   5.048   6.945
 4946SOL    HW215738   2.440   4.961   0.052
 4947SOL     OW15739   1.295   1.158   1.950
 4947SOL    HW115740   1.223   1.179   2.017
 4947SOL    HW215741   1.351   1.239   1.936
 4948SOL     OW15742   1.343   2.612   1.847
 4948SOL    HW115743   1.342   2.538   1.914
 4948SOL    HW215744   1.293   2.585   1.766
 4949SOL     OW15745   6.766   3.824   0.024
 4949SOL    HW115746   6.826   3.832   0.103
 4949SOL    HW215747   6.671   3.837   0.052
 4950SOL     OW15748   2.349   3.794   5.309
 4950SOL    HW115749   2.430   3.741   5.335
 4950SOL    HW215750   2.376   3.882   5.272
 4951SOL     OW15751   5.068   5.212   3.724
 4951SOL    HW115752   5.028   5.156   3.796
 4951SOL    HW215753   5.115   5.153   3.658
 4952SOL     OW15754   0.284   6.457   5.836
 4952SOL    HW115755   0.295   6.550   5.871
 4952SOL    HW215756   0.330   6.393   5.898
 4953SOL     OW15757   0.882   2.187   4.873
 4953SOL    HW115758   0.883   2.142   4.962
 4953SOL    HW215759   0.845   2.280   4.882
 4954SOL     OW15760   3.158   4.072   5.274
 4954SOL    HW115761   3.166   4.170   5.292
 4954SOL    HW215762   3.165   4.055   5.176
 4955SOL     OW15763   3.503   5.299   6.594
 4955SOL    HW115764   3.466   5.207   6.607
 4955SOL    HW215765   3.516   5.343   6.683
 4956SOL     OW15766   2.696   6.968   4.864
 4956SOL    HW115767   2.701   7.009   4.955
 4956SOL    HW215768   2.601   6.943   4.845
 4957SOL     OW15769   5.841   4.310   0.176
 4957SOL    HW115770   5.937   4.338   0.186
 4957SOL    HW215771   5.786   4.355   0.246
 4958SOL     OW15772   3.161   6.209   0.163
 4958SOL    HW115773   3.231   6.164   0.108
 4958SOL    HW215774   3.204   6.277   0.223
 4959SOL     OW15775   0.981   3.447   2.388
 4959SOL    HW115776   0.969   3.543   2.414
 4959SOL    HW215777   1.022   3.441   2.297
 4960SOL     OW15778   4.344   5.589   4.548
 4960SOL    HW115779   4.434   5.595   4.590
 4960SOL    HW215780   4.307   5.681   4.534
 4961SOL     OW15781   4.272   1.313   0.016
 4961SOL    HW115782   4.287   1.215   7.024
 4961SOL    HW215783   4.346   1.348   0.073
 4962SOL     OW15784   1.180   4.368   1.003
 4962SOL    HW115785   1.275   4.377   1.030
 4962SOL    HW215786   1.161   4.428   0.925
 4963SOL     OW15787   1.061   4.007   6.128
 4963SOL    HW115788   1.147   4.007   6.076
 4963SOL    HW215789   1.050   4.095   6.175
 4964SOL     OW15790   3.132   6.822   4.681
 4964SOL    HW115791   3.103   6.847   4.773
 4964SOL    HW215792   3.231   6.812   4.679
 4965SOL     OW15793   1.775   6.252   3.090
 4965SOL    HW115794   1.851   6.307   3.124
 4965SOL    HW215795   1.708   6.311   3.044
 4966SOL     OW15796   3.563   6.439   4.323
 4966SOL    HW115797   3.650   6.436   4.273
 4966SOL    HW215798   3.545   6.350   4.364
 4967SOL     OW15799   4.295   4.817   5.022
 4967SOL    HW115800   4.268   4.863   4.937
 4967SOL    HW215801   4.304   4.719   5.005
 4968SOL     OW15802   6.566   2.084   3.255
 4968SOL    HW115803   6.588   2.179   3.237
 4968SOL    HW215804   6.486   2.057   3.203
 4969SOL     OW15805   0.931   6.183   3.178
 4969SOL    HW115806   0.928   6.127   3.095
 4969SOL    HW215807   1.026   6.193   3.208
 4970SOL     OW15808   0.806   1.761   1.648
 4970SOL    HW115809   0.758   1.742   1.734
 4970SOL    HW215810   0.904   1.772   1.665
 4971SOL     OW15811   6.775   6.254   3.172
 4971SOL    HW115812   6.789   6.176   3.233
 4971SOL    HW215813   6.744   6.221   3.082
 4972SOL     OW15814   1.554   4.622   1.272
 4972SOL    HW115815   1.496   4.575   1.338
 4972SOL    HW215816   1.642   4.575   1.266
 4973SOL     OW15817   6.653   0.633   1.200
 4973SOL    HW115818   6.639   0.626   1.299
 4973SOL    HW215819   6.623   0.722   1.168
 4974SOL     OW15820   3.397   5.352   5.131
 4974SOL    HW115821   3.431   5.379   5.221
 4974SOL    HW215822   3.462   5.380   5.060
 4975SOL     OW15823   5.674   4.093   0.690
 4975SOL    HW115824   5.764   4.120   0.725
 4975SOL    HW215825   5.629   4.035   0.757
 4976SOL     OW15826   1.929   7.006   4.369
 4976SOL    HW115827   1.985   7.001   4.452
 4976SOL    HW215828   1.954   0.063   4.316
 4977SOL     OW15829   2.159   4.779   6.419
 4977SOL    HW115830   2.247   4.810   6.385
 4977SOL    HW215831   2.129   4.699   6.366
 4978SOL     OW15832   4.989   4.693   4.836
 4978SOL    HW115833   5.022   4.686   4.742
 4978SOL    HW215834   5.027   4.619   4.891
 4979SOL     OW15835   2.312   6.915   6.380
 4979SOL    HW115836   2.354   6.866   6.303
 4979SOL    HW215837   2.301   6.852   6.457
 4980SOL     OW15838   5.725   3.578   3.005
 4980SOL    HW115839   5.729   3.478   3.006
 4980SOL    HW215840   5.632   3.608   2.986
 4981SOL     OW15841   3.539   4.993   1.830
 4981SOL    HW115842   3.555   4.940   1.746
 4981SOL    HW215843   3.553   4.935   1.910
 4982SOL     OW15844   4.093   1.728   6.706
 4982SOL    HW115845   4.054   1.761   6.620
 4982SOL    HW215846   4.028   1.668   6.752
 4983SOL     OW15847   6.885   5.594   3.083
 4983SOL    HW115848   6.946   5.558   3.154
 4983SOL    HW215849   6.858   5.520   3.021
 4984SOL     OW15850   5.287   4.668   2.971
 4984SOL    HW115851   5.325   4.674   3.063
 4984SOL    HW215852   5.285   4.759   2.929
 4985SOL     OW15853   5.723   6.197   2.673
 4985SOL    HW115854   5.754   6.272   2.732
 4985SOL    HW215855   5.786   6.188   2.595
 4986SOL     OW15856   0.738   4.595   2.462
 4986SOL    HW115857   0.762   4.626   2.370
 4986SOL    HW215858   0.669   4.522   2.456
 4987SOL     OW15859   0.599   1.002   2.259
 4987SOL    HW115860   0.690   1.041   2.249
 4987SOL    HW215861   0.599   0.908   2.228
 4988SOL     OW15862   6.017   0.129   3.746
 4988SOL    HW115863   5.993   0.220   3.778
 4988SOL    HW215864   6.113   0.128   3.717
 4989SOL     OW15865   4.242   0.341   2.634
 4989SOL    HW115866   4.321   0.375   2.685
 4989SOL    HW215867   4.158   0.378   2.674
 4990SOL     OW15868   4.845   1.977   5.596
 4990SOL    HW115869   4.787   1.908   5.553
 4990SOL    HW215870   4.929   1.934   5.630
 4991SOL     OW15871   1.164   5.384   4.982
 4991SOL    HW115872   1.141   5.481   4.991
 4991SOL    HW215873   1.083   5.332   4.959
 4992SOL     OW15874   0.030   1.519   3.383
 4992SOL    HW115875   6.983   1.564   3.435
 4992SOL    HW215876   7.014   1.459   3.314
 4993SOL     OW15877   3.828   6.370   4.444
 4993SOL    HW115878   3.842   6.469   4.444
 4993SOL    HW215879   3.789   6.343   4.532
 4994SOL     OW15880   3.050   5.048   5.615
 4994SOL    HW115881   3.118   5.074   5.547
 4994SOL    HW215882   2.968   5.105   5.604
 4995SOL     OW15883   0.540   0.153   5.433
 4995SOL    HW115884   0.554   0.055   5.424
 4995SOL    HW215885   0.628   0.199   5.445
 4996SOL     OW15886   0.081   0.940   4.587
 4996SOL    HW115887   0.037   0.983   4.508
 4996SOL    HW215888   0.012   0.896   4.644
 4997SOL     OW15889   3.722   2.098   0.914
 4997SOL    HW115890   3.772   2.035   0.853
 4997SOL    HW215891   3.644   2.050   0.953
 4998SOL     OW15892   0.719   3.411   4.123
 4998SOL    HW115893   0.655   3.378   4.054
 4998SOL    HW215894   0.786   3.341   4.144
 4999SOL     OW15895   0.429   3.797   4.496
 4999SOL    HW115896   0.510   3.854   4.508
 4999SOL    HW215897   0.379   3.790   4.583
 5000SOL     OW15898   2.748   5.100   3.537
 5000SOL    HW115899   2.767   5.185   3.586
 5000SOL    HW215900   2.812   5.090   3.461
 5001SOL     OW15901   0.933   5.130   2.668
 5001SOL    HW115902   0.983   5.079   2.598
 5001SOL    HW215903   0.879   5.068   2.723
 5002SOL     OW15904   0.651   3.307   3.470
 5002SOL    HW115905   0.650   3.216   3.511
 5002SOL    HW215906   0.664   3.376   3.541
 5003SOL     OW15907   4.457   6.343   4.118
 5003SOL    HW115908   4.394   6.414   4.148
 5003SOL    HW215909   4.491   6.292   4.197
 5004SOL     OW15910   2.391   5.934   6.500
 5004SOL    HW115911   2.299   5.959   6.472
 5004SOL    HW215912   2.387   5.866   6.574
 5005SOL     OW15913   2.665   2.464   6.673
 5005SOL    HW115914   2.685   2.544   6.730
 5005SOL    HW215915   2.566   2.457   6.660
 5006SOL     OW15916   5.552   1.992   2.047
 5006SOL    HW115917   5.604   1.954   1.970
 5006SOL    HW215918   5.509   2.078   2.019
 5007SOL     OW15919   5.959   6.748   1.987
 5007SOL    HW115920   5.933   6.837   2.025
 5007SOL    HW215921   6.054   6.728   2.011
 5008SOL     OW15922   5.801   6.537   2.182
 5008SOL    HW115923   5.827   6.446   2.212
 5008SOL    HW215924   5.864   6.604   2.221
 5009SOL     OW15925   0.701   2.502   0.620
 5009SOL    HW115926   0.629   2.539   0.561
 5009SOL    HW215927   0.661   2.472   0.706
 5010SOL     OW15928   3.501   3.619   0.620
 5010SOL    HW115929   3.438   3.555   0.667
 5010SOL    HW215930   3.593   3.580   0.620
 5011SOL     OW15931   2.052   3.855   6.851
 5011SOL    HW115932   1.954   3.844   6.830
 5011SOL    HW215933   2.105   3.848   6.766
 5012SOL     OW15934   6.137   1.737   5.119
 5012SOL    HW115935   6.153   1.674   5.196
 5012SOL    HW215936   6.224   1.764   5.079
 5013SOL     OW15937   6.092   0.346   5.700
 5013SOL    HW115938   6.087   0.247   5.688
 5013SOL    HW215939   5.999   0.384   5.701
 5014SOL     OW15940   6.882   3.332   1.637
 5014SOL    HW115941   6.883   3.319   1.736
 5014SOL    HW215942   6.920   3.251   1.592
 5015SOL     OW15943   5.579   6.781   3.992
 5015SOL    HW115944   5.638   6.725   4.049
 5015SOL    HW215945   5.602   6.768   3.896
 5016SOL     OW15946   1.538   3.459   4.785
 5016SOL    HW115947   1.450   3.425   4.820
 5016SOL    HW215948   1.610   3.394   4.807
 5017SOL     OW15949   0.819   2.278   1.777
 5017SOL    HW115950   0.858   2.301   1.867
 5017SOL    HW215951   0.860   2.193   1.744
 5018SOL     OW15952   0.803   6.363   1.565
 5018SOL    HW115953   0.844   6.355   1.656
 5018SOL    HW215954   0.827   6.282   1.511
 5019SOL     OW15955   1.415   5.299   5.074
 5019SOL    HW115956   1.483   5.339   5.012
 5019SOL    HW215957   1.329   5.348   5.064
 5020SOL     OW15958   1.259   0.132   4.727
 5020SOL    HW115959   1.322   0.079   4.672
 5020SOL    HW215960   1.200   0.071   4.780
 5021SOL     OW15961   1.819   0.911   1.209
 5021SOL    HW115962   1.774   0.948   1.128
 5021SOL    HW215963   1.799   0.969   1.288
 5022SOL     OW15964   0.508   3.429   1.430
 5022SOL    HW115965   0.515   3.403   1.527
 5022SOL    HW215966   0.414   3.415   1.399
 5023SOL     OW15967   0.397   4.401   2.503
 5023SOL    HW115968   0.432   4.310   2.525
 5023SOL    HW215969   0.330   4.429   2.572
 5024SOL     OW15970   5.092   3.615   1.586
 5024SOL    HW115971   5.108   3.629   1.683
 5024SOL    HW215972   5.042   3.529   1.572
 5025SOL     OW15973   4.354   1.141   3.225
 5025SOL    HW115974   4.266   1.094   3.215
 5025SOL    HW215975   4.354   1.192   3.311
 5026SOL     OW15976   5.394   6.335   4.976
 5026SOL    HW115977   5.493   6.327   4.968
 5026SOL    HW215978   5.354   6.244   4.989
 5027SOL     OW15979   5.104   0.760   6.677
 5027SOL    HW115980   5.093   0.662   6.689
 5027SOL    HW215981   5.016   0.802   6.654
 5028SOL     OW15982   0.626   2.322   2.864
 5028SOL    HW115983   0.541   2.346   2.911
 5028SOL    HW215984   0.704   2.354   2.919
 5029SOL     OW15985   6.471   1.919   2.117
 5029SOL    HW115986   6.531   1.984   2.164
 5029SOL    HW215987   6.462   1.946   2.021
 5030SOL     OW15988   6.969   5.141   6.887
 5030SOL    HW115989   6.975   5.121   6.984
 5030SOL    HW215990   6.967   5.056   6.835
 5031SOL     OW15991   6.872   0.634   5.740
 5031SOL    HW115992   6.869   0.535   5.753
 5031SOL    HW215993   6.798   0.676   5.792
 5032SOL     OW15994   3.440   3.108   5.469
 5032SOL    HW115995   3.373   3.070   5.533
 5032SOL    HW215996   3.404   3.193   5.430
 5033SOL     OW15997   2.497   1.512   0.293
 5033SOL    HW115998   2.428   1.495   0.222
 5033SOL    HW215999   2.545   1.426   0.313
 5034SOL     OW16000   4.653   5.932   4.027
 5034SOL    HW116001   4.700   5.854   3.984
 5034SOL    HW216002   4.555   5.925   4.009
 5035SOL     OW16003   0.656   4.904   4.256
 5035SOL    HW116004   0.747   4.863   4.253
 5035SOL    HW216005   0.623   4.904   4.351
 5036SOL     OW16006   6.583   3.255   5.063
 5036SOL    HW116007   6.618   3.348   5.073
 5036SOL    HW216008   6.486   3.258   5.041
 5037SOL     OW16009   4.404   4.246   1.269
 5037SOL    HW116010   4.418   4.320   1.336
 5037SOL    HW216011   4.401   4.285   1.177
 5038SOL     OW16012   3.250   3.453   4.009
 5038SOL    HW116013   3.293   3.534   3.968
 5038SOL    HW216014   3.309   3.373   3.994
 5039SOL     OW16015   1.366   2.872   6.959
 5039SOL    HW116016   1.362   2.937   0.010
 5039SOL    HW216017   1.383   2.920   6.874
 5040SOL     OW16018   1.288   5.763   5.935
 5040SOL    HW116019   1.370   5.757   5.879
 5040SOL    HW216020   1.288   5.689   6.002
 5041SOL     OW16021   0.094   2.950   1.963
 5041SOL    HW116022   0.151   2.994   2.032
 5041SOL    HW216023   0.148   2.879   1.916
 5042SOL     OW16024   0.006   3.234   6.096
 5042SOL    HW116025   0.023   3.137   6.113
 5042SOL    HW216026   7.006   3.247   6.000
 5043SOL     OW16027   3.964   0.683   0.768
 5043SOL    HW116028   4.039   0.619   0.788
 5043SOL    HW216029   3.977   0.767   0.822
 5044SOL     OW16030   6.593   5.339   0.463
 5044SOL    HW116031   6.503   5.295   0.456
 5044SOL    HW216032   6.593   5.425   0.412
 5045SOL     OW16033   6.234   3.746   6.184
 5045SOL    HW116034   6.283   3.799   6.114
 5045SOL    HW216035   6.139   3.777   6.189
 5046SOL     OW16036   3.365   3.191   3.964
 5046SOL    HW116037   3.395   3.209   3.870
 5046SOL    HW216038   3.427   3.125   4.007
 5047SOL     OW16039   1.734   3.282   3.404
 5047SOL    HW116040   1.715   3.332   3.319
 5047SOL    HW216041   1.831   3.290   3.425
 5048SOL     OW16042   1.148   1.220   5.943
 5048SOL    HW116043   1.187   1.147   5.886
 5048SOL    HW216044   1.083   1.273   5.889
 5049SOL     OW16045   5.867   0.637   6.208
 5049SOL    HW116046   5.950   0.667   6.255
 5049SOL    HW216047   5.890   0.569   6.139
 5050SOL     OW16048   1.968   0.927   0.331
 5050SOL    HW116049   1.935   0.982   0.254
 5050SOL    HW216050   1.914   0.948   0.413
 5051SOL     OW16051   3.609   4.844   1.405
 5051SOL    HW116052   3.513   4.868   1.416
 5051SOL    HW216053   3.617   4.750   1.371
 5052SOL     OW16054   3.604   1.830   5.219
 5052SOL    HW116055   3.564   1.885   5.292
 5052SOL    HW216056   3.687   1.873   5.186
 5053SOL     OW16057   0.588   5.639   2.421
 5053SOL    HW116058   0.638   5.579   2.359
 5053SOL    HW216059   0.644   5.720   2.441
 5054SOL     OW16060   3.888   4.876   4.712
 5054SOL    HW116061   3.988   4.869   4.711
 5054SOL    HW216062   3.855   4.863   4.806
 5055SOL     OW16063   6.607   3.000   6.573
 5055SOL    HW116064   6.635   2.908   6.600
 5055SOL    HW216065   6.633   3.065   6.645
 5056SOL     OW16066   4.988   3.802   5.158
 5056SOL    HW116067   4.942   3.755   5.083
 5056SOL    HW216068   4.936   3.788   5.243
 5057SOL     OW16069   1.189   6.613   2.886
 5057SOL    HW116070   1.122   6.540   2.894
 5057SOL    HW216071   1.281   6.575   2.894
 5058SOL     OW16072   2.966   4.827   6.574
 5058SOL    HW116073   2.911   4.749   6.543
 5058SOL    HW216074   2.917   4.876   6.646
 5059SOL     OW16075   0.513   0.359   3.061
 5059SOL    HW116076   0.477   0.272   3.094
 5059SOL    HW216077   0.530   0.353   2.963
 5060SOL     OW16078   6.049   1.817   6.324
 5060SOL    HW116079   6.057   1.916   6.320
 5060SOL    HW216080   5.991   1.785   6.249
 5061SOL     OW16081   4.727   3.202   0.183
 5061SOL    HW116082   4.778   3.231   0.263
 5061SOL    HW216083   4.645   3.152   0.212
 5062SOL     OW16084   0.064   0.245   1.423
 5062SOL    HW116085   0.057   0.339   1.389
 5062SOL    HW216086   0.111   0.245   1.511
 5063SOL     OW16087   1.045   6.952   2.067
 5063SOL    HW116088   0.984   0.006   2.065
 5063SOL    HW216089   1.083   6.942   2.159
 5064SOL     OW16090   4.687   3.147   0.525
 5064SOL    HW116091   4.762   3.214   0.529
 5064SOL    HW216092   4.725   3.055   0.518
 5065SOL     OW16093   2.854   6.851   5.546
 5065SOL    HW116094   2.910   6.820   5.469
 5065SOL    HW216095   2.883   6.943   5.574
 5066SOL     OW16096   6.133   4.772   1.291
 5066SOL    HW116097   6.191   4.816   1.223
 5066SOL    HW216098   6.085   4.695   1.249
 5067SOL     OW16099   4.847   0.801   0.424
 5067SOL    HW116100   4.775   0.849   0.374
 5067SOL    HW216101   4.839   0.822   0.521
 5068SOL     OW16102   2.867   4.792   7.016
 5068SOL    HW116103   2.825   4.883   7.008
 5068SOL    HW216104   2.795   4.723   7.017
 5069SOL     OW16105   1.011   4.158   2.600
 5069SOL    HW116106   0.972   4.104   2.674
 5069SOL    HW216107   0.958   4.242   2.589
 5070SOL     OW16108   4.927   3.386   4.050
 5070SOL    HW116109   4.864   3.335   4.109
 5070SOL    HW216110   4.998   3.324   4.015
 5071SOL     OW16111   4.629   2.085   5.724
 5071SOL    HW116112   4.645   2.119   5.817
 5071SOL    HW216113   4.717   2.077   5.677
 5072SOL     OW16114   0.371   4.289   1.159
 5072SOL    HW116115   0.454   4.243   1.126
 5072SOL    HW216116   0.396   4.372   1.208
 5073SOL     OW16117   5.328   0.373   2.502
 5073SOL    HW116118   5.322   0.277   2.476
 5073SOL    HW216119   5.265   0.391   2.578
 5074SOL     OW16120   2.592   4.100   6.665
 5074SOL    HW116121   2.665   4.154   6.623
 5074SOL    HW216122   2.616   4.079   6.760
 5075SOL     OW16123   0.234   5.480   4.805
 5075SOL    HW116124   0.215   5.440   4.895
 5075SOL    HW216125   0.201   5.574   4.803
 5076SOL     OW16126   3.564   0.864   0.929
 5076SOL    HW116127   3.619   0.911   0.997
 5076SOL    HW216128   3.559   0.766   0.951
 5077SOL     OW16129   1.060   2.737   3.693
 5077SOL    HW116130   1.066   2.806   3.765
 5077SOL    HW216131   1.143   2.681   3.694
 5078SOL     OW16132   1.899   1.941   4.608
 5078SOL    HW116133   1.938   1.917   4.518
 5078SOL    HW216134   1.959   1.906   4.680
 5079SOL     OW16135   3.653   4.926   5.462
 5079SOL    HW116136   3.667   4.965   5.553
 5079SOL    HW216137   3.645   4.826   5.468
 5080SOL     OW16138   5.421   6.588   5.796
 5080SOL    HW116139   5.348   6.657   5.798
 5080SOL    HW216140   5.408   6.528   5.717
 5081SOL     OW16141   3.485   3.572   3.289
 5081SOL    HW116142   3.411   3.572   3.222
 5081SOL    HW216143   3.532   3.660   3.287
 5082SOL     OW16144   5.218   5.852   5.865
 5082SOL    HW116145   5.195   5.807   5.951
 5082SOL    HW216146   5.216   5.952   5.878
 5083SOL     OW16147   1.843   6.736   2.032
 5083SOL    HW116148   1.802   6.653   1.994
 5083SOL    HW216149   1.815   6.815   1.977
 5084SOL     OW16150   1.257   5.857   4.175
 5084SOL    HW116151   1.199   5.846   4.255
 5084SOL    HW216152   1.214   5.920   4.110
 5085SOL     OW16153   5.664   1.954   6.514
 5085SOL    HW116154   5.671   1.859   6.545
 5085SOL    HW216155   5.706   2.015   6.581
 5086SOL     OW16156   6.330   5.032   3.583
 5086SOL    HW116157   6.258   5.004   3.520
 5086SOL    HW216158   6.290   5.081   3.660
 5087SOL     OW16159   6.824   5.614   5.349
 5087SOL    HW116160   6.786   5.707   5.344
 5087SOL    HW216161   6.830   5.576   5.257
 5088SOL     OW16162   6.135   0.628   5.941
 5088SOL    HW116163   6.062   0.561   5.931
 5088SOL    HW216164   6.129   0.670   6.032
 5089SOL     OW16165   5.535   3.610   2.658
 5089SOL    HW116166   5.611   3.551   2.685
 5089SOL    HW216167   5.449   3.558   2.665
 5090SOL     OW16168   1.844   5.344   1.502
 5090SOL    HW116169   1.927   5.383   1.543
 5090SOL    HW216170   1.785   5.418   1.469
 5091SOL     OW16171   1.011   6.345   2.774
 5091SOL    HW116172   0.967   6.317   2.688
 5091SOL    HW216173   1.058   6.266   2.814
 5092SOL     OW16174   3.880   2.292   1.075
 5092SOL    HW116175   3.891   2.240   1.160
 5092SOL    HW216176   3.810   2.249   1.018
 5093SOL     OW16177   1.570   1.880   2.220
 5093SOL    HW116178   1.506   1.859   2.146
 5093SOL    HW216179   1.542   1.833   2.304
 5094SOL     OW16180   0.474   6.319   4.790
 5094SOL    HW116181   0.450   6.294   4.696
 5094SOL    HW216182   0.435   6.408   4.812
 5095SOL     OW16183   3.082   0.680   5.115
 5095SOL    HW116184   3.018   0.736   5.168
 5095SOL    HW216185   3.116   0.605   5.171
 5096SOL     OW16186   4.892   3.791   0.786
 5096SOL    HW116187   4.986   3.765   0.810
 5096SOL    HW216188   4.848   3.830   0.866
 5097SOL     OW16189   1.392   6.430   6.016
 5097SOL    HW116190   1.475   6.395   5.972
 5097SOL    HW216191   1.403   6.527   6.038
 5098SOL     OW16192   0.099   1.811   2.889
 5098SOL    HW116193   0.036   1.745   2.930
 5098SOL    HW216194   0.194   1.785   2.911
 5099SOL     OW16195   1.264   0.374   5.393
 5099SOL    HW116196   1.190   0.360   5.328
 5099SOL    HW216197   1.227   0.384   5.485
 5100SOL     OW16198   5.811   6.194   0.166
 5100SOL    HW116199   5.887   6.133   0.143
 5100SOL    HW216200   5.734   6.177   0.104
 5101SOL     OW16201   4.213   6.344   0.082
 5101SOL    HW116202   4.294   6.368   0.027
 5101SOL    HW216203   4.178   6.255   0.054
 5102SOL     OW16204   3.905   6.625   4.853
 5102SOL    HW116205   3.896   6.631   4.952
 5102SOL    HW216206   3.825   6.579   4.815
 5103SOL     OW16207   0.029   0.309   3.926
 5103SOL    HW116208   0.040   0.227   3.870
 5103SOL    HW216209   7.021   0.385   3.869
 5104SOL     OW16210   1.199   0.837   1.490
 5104SOL    HW116211   1.127   0.888   1.538
 5104SOL    HW216212   1.179   0.740   1.494
 5105SOL     OW16213   3.171   3.673   6.434
 5105SOL    HW116214   3.112   3.609   6.483
 5105SOL    HW216215   3.128   3.763   6.431
 5106SOL     OW16216   3.455   0.816   2.156
 5106SOL    HW116217   3.501   0.842   2.242
 5106SOL    HW216218   3.514   0.754   2.105
 5107SOL     OW16219   2.317   0.068   6.094
 5107SOL    HW116220   2.277   7.004   6.116
 5107SOL    HW216221   2.282   0.100   6.006
 5108SOL     OW16222   3.046   3.989   4.306
 5108SOL    HW116223   3.008   3.993   4.399
 5108SOL    HW216224   3.138   4.028   4.307
 5109SOL     OW16225   0.181   1.099   1.292
 5109SOL    HW116226   0.170   1.139   1.384
 5109SOL    HW216227   0.090   1.080   1.254
 5110SOL     OW16228   1.654   5.694   5.622
 5110SOL    HW116229   1.620   5.686   5.529
 5110SOL    HW216230   1.577   5.702   5.686
 5111SOL     OW16231   2.096   1.377   0.362
 5111SOL    HW116232   2.167   1.311   0.339
 5111SOL    HW216233   2.039   1.393   0.281
 5112SOL     OW16234   0.367   5.862   3.909
 5112SOL    HW116235   0.410   5.896   3.825
 5112SOL    HW216236   0.414   5.901   3.988
 5113SOL     OW16237   1.520   0.931   6.536
 5113SOL    HW116238   1.617   0.940   6.559
 5113SOL    HW216239   1.471   1.014   6.562
 5114SOL     OW16240   3.404   5.037   6.542
 5114SOL    HW116241   3.471   5.014   6.471
 5114SOL    HW216242   3.360   4.954   6.574
 5115SOL     OW16243   1.322   3.272   5.425
 5115SOL    HW116244   1.230   3.308   5.437
 5115SOL    HW216245   1.339   3.254   5.328
 5116SOL     OW16246   6.354   4.574   0.614
 5116SOL    HW116247   6.427   4.604   0.552
 5116SOL    HW216248   6.380   4.596   0.708
 5117SOL     OW16249   2.429   4.481   4.819
 5117SOL    HW116250   2.424   4.382   4.832
 5117SOL    HW216251   2.343   4.523   4.849
 5118SOL     OW16252   4.212   6.214   0.512
 5118SOL    HW116253   4.161   6.298   0.532
 5118SOL    HW216254   4.258   6.183   0.596
 5119SOL     OW16255   5.747   0.211   2.126
 5119SOL    HW116256   5.809   0.186   2.051
 5119SOL    HW216257   5.801   0.243   2.204
 5120SOL     OW16258   4.882   1.955   2.624
 5120SOL    HW116259   4.908   2.041   2.580
 5120SOL    HW216260   4.955   1.927   2.687
 5121SOL     OW16261   0.088   3.381   5.145
 5121SOL    HW116262   0.097   3.305   5.209
 5121SOL    HW216263   0.034   3.454   5.187
 5122SOL     OW16264   2.240   6.915   3.624
 5122SOL    HW116265   2.242   6.905   3.525
 5122SOL    HW216266   2.257   6.826   3.667
 5123SOL     OW16267   5.130   4.902   2.085
 5123SOL    HW116268   5.192   4.829   2.057
 5123SOL    HW216269   5.183   4.977   2.124
 5124SOL     OW16270   2.979   6.377   6.686
 5124SOL    HW116271   2.915   6.340   6.619
 5124SOL    HW216272   3.050   6.309   6.707
 5125SOL     OW16273   0.404   2.759   4.438
 5125SOL    HW116274   0.372   2.699   4.511
 5125SOL    HW216275   0.405   2.710   4.352
 5126SOL     OW16276   6.112   4.181   6.396
 5126SOL    HW116277   6.034   4.153   6.452
 5126SOL    HW216278   6.194   4.134   6.428
 5127SOL     OW16279   5.798   3.152   6.750
 5127SOL    HW116280   5.897   3.164   6.740
 5127SOL    HW216281   5.750   3.226   6.703
 5128SOL     OW16282   0.105   0.513   6.947
 5128SOL    HW116283   0.054   0.551   7.024
 5128SOL    HW216284   0.113   0.581   6.874
 5129SOL     OW16285   4.338   2.035   2.333
 5129SOL    HW116286   4.431   2.055   2.364
 5129SOL    HW216287   4.302   1.956   2.383
 5130SOL     OW16288   0.773   5.989   4.141
 5130SOL    HW116289   0.801   5.984   4.237
 5130SOL    HW216290   0.673   5.982   4.135
 5131SOL     OW16291   2.917   4.882   3.651
 5131SOL    HW116292   2.975   4.935   3.589
 5131SOL    HW216293   2.822   4.910   3.641
 5132SOL     OW16294   3.844   1.652   6.851
 5132SOL    HW116295   3.796   1.683   6.933
 5132SOL    HW216296   3.799   1.571   6.814
 5133SOL     OW16297   4.304   4.364   6.568
 5133SOL    HW116298   4.276   4.445   6.619
 5133SOL    HW216299   4.271   4.372   6.473
 5134SOL     OW16300   6.778   5.904   1.289
 5134SOL    HW116301   6.821   5.952   1.213
 5134SOL    HW216302   6.703   5.848   1.255
 5135SOL     OW16303   6.624   3.183   2.002
 5135SOL    HW116304   6.650   3.102   2.054
 5135SOL    HW216305   6.563   3.240   2.057
 5136SOL     OW16306   0.967   0.629   5.901
 5136SOL    HW116307   0.971   0.544   5.952
 5136SOL    HW216308   0.967   0.706   5.965
 5137SOL     OW16309   5.584   0.949   4.700
 5137SOL    HW116310   5.589   0.855   4.665
 5137SOL    HW216311   5.569   1.012   4.624
 5138SOL     OW16312   3.442   2.917   3.811
 5138SOL    HW116313   3.371   2.858   3.773
 5138SOL    HW216314   3.442   2.911   3.910
 5139SOL     OW16315   2.358   0.220   4.961
 5139SOL    HW116316   2.395   0.281   4.891
 5139SOL    HW216317   2.292   0.270   5.017
 5140SOL     OW16318   4.301   2.431   6.615
 5140SOL    HW116319   4.336   2.344   6.581
 5140SOL    HW216320   4.202   2.434   6.604
 5141SOL     OW16321   6.389   2.938   1.844
 5141SOL    HW116322   6.315   2.984   1.894
 5141SOL    HW216323   6.400   2.845   1.879
 5142SOL     OW16324   0.060   0.199   2.724
 5142SOL    HW116325   6.994   0.240   2.729
 5142SOL    HW216326   0.052   0.099   2.720
 5143SOL     OW16327   0.580   5.730   3.231
 5143SOL    HW116328   0.615   5.824   3.233
 5143SOL    HW216329   0.631   5.674   3.296
 5144SOL     OW16330   2.740   2.738   5.449
 5144SOL    HW116331   2.729   2.826   5.405
 5144SOL    HW216332   2.680   2.732   5.529
 5145SOL     OW16333   2.645   6.218   0.085
 5145SOL    HW116334   2.707   6.195   0.010
 5145SOL    HW216335   2.551   6.217   0.051
 5146SOL     OW16336   4.853   4.926   6.303
 5146SOL    HW116337   4.908   4.934   6.386
 5146SOL    HW216338   4.907   4.882   6.231
 5147SOL     OW16339   4.642   2.736   3.639
 5147SOL    HW116340   4.649   2.766   3.734
 5147SOL    HW216341   4.630   2.637   3.636
 5148SOL     OW16342   0.728   0.225   0.250
 5148SOL    HW116343   0.644   0.231   0.196
 5148SOL    HW216344   0.727   0.296   0.321
 5149SOL     OW16345   5.056   4.696   3.400
 5149SOL    HW116346   5.058   4.745   3.313
 5149SOL    HW216347   4.967   4.709   3.443
 5150SOL     OW16348   0.091   5.904   3.900
 5150SOL    HW116349   0.055   5.860   3.818
 5150SOL    HW216350   0.177   5.861   3.926
 5151SOL     OW16351   6.285   5.239   1.480
 5151SOL    HW116352   6.266   5.186   1.397
 5151SOL    HW216353   6.249   5.189   1.559
 5152SOL     OW16354   0.866   1.291   6.817
 5152SOL    HW116355   0.905   1.211   6.862
 5152SOL    HW216356   0.876   1.371   6.877
 5153SOL     OW16357   1.371   1.991   0.931
 5153SOL    HW116358   1.289   1.946   0.965
 5153SOL    HW216359   1.366   1.999   0.832
 5154SOL     OW16360   6.720   2.816   6.963
 5154SOL    HW116361   6.777   2.859   6.893
 5154SOL    HW216362   6.635   2.867   6.974
 5155SOL     OW16363   1.775   1.298   1.006
 5155SOL    HW116364   1.728   1.346   1.080
 5155SOL    HW216365   1.755   1.342   0.919
 5156SOL     OW16366   5.409   5.800   5.672
 5156SOL    HW116367   5.456   5.727   5.721
 5156SOL    HW216368   5.330   5.830   5.725
 5157SOL     OW16369   3.820   0.184   1.264
 5157SOL    HW116370   3.889   0.226   1.205
 5157SOL    HW216371   3.749   0.142   1.206
 5158SOL     OW16372   2.339   1.953   2.387
 5158SOL    HW116373   2.346   2.047   2.421
 5158SOL    HW216374   2.248   1.937   2.350
 5159SOL     OW16375   6.460   3.050   5.208
 5159SOL    HW116376   6.363   3.073   5.199
 5159SOL    HW216377   6.514   3.112   5.152
 5160SOL     OW16378   6.335   6.113   3.572
 5160SOL    HW116379   6.291   6.144   3.487
 5160SOL    HW216380   6.433   6.126   3.565
 5161SOL     OW16381   0.831   3.734   0.633
 5161SOL    HW116382   0.818   3.824   0.590
 5161SOL    HW216383   0.900   3.741   0.705
 5162SOL     OW16384   0.257   6.862   3.507
 5162SOL    HW116385   0.351   6.830   3.503
 5162SOL    HW216386   0.196   6.784   3.526
 5163SOL     OW16387   3.097   6.781   2.035
 5163SOL    HW116388   3.066   6.875   2.019
 5163SOL    HW216389   3.196   6.779   2.045
 5164SOL     OW16390   3.391   3.851   0.610
 5164SOL    HW116391   3.450   3.771   0.613
 5164SOL    HW216392   3.335   3.849   0.527
 5165SOL     OW16393   1.592   4.362   6.851
 5165SOL    HW116394   1.575   4.460   6.857
 5165SOL    HW216395   1.525   4.313   6.908
 5166SOL     OW16396   1.797   6.027   1.768
 5166SOL    HW116397   1.806   6.124   1.742
 5166SOL    HW216398   1.771   5.974   1.687
 5167SOL     OW16399   5.336   2.555   5.041
 5167SOL    HW116400   5.274   2.581   4.967
 5167SOL    HW216401   5.344   2.455   5.044
 5168SOL     OW16402   4.435   2.440   2.202
 5168SOL    HW116403   4.342   2.470   2.224
 5168SOL    HW216404   4.435   2.341   2.185
 5169SOL     OW16405   4.182   6.148   3.977
 5169SOL    HW116406   4.145   6.229   4.023
 5169SOL    HW216407   4.192   6.167   3.879
 5170SOL     OW16408   1.516   3.323   6.397
 5170SOL    HW116409   1.576   3.343   6.475
 5170SOL    HW216410   1.566   3.338   6.312
 5171SOL     OW16411   1.656   5.902   5.351
 5171SOL    HW116412   1.611   5.813   5.349
 5171SOL    HW216413   1.751   5.893   5.321
 5172SOL     OW16414   6.489   5.055   4.520
 5172SOL    HW116415   6.438   5.141   4.523
 5172SOL    HW216416   6.567   5.064   4.458
 5173SOL     OW16417   4.487   4.130   5.582
 5173SOL    HW116418   4.428   4.060   5.623
 5173SOL    HW216419   4.462   4.219   5.619
 5174SOL     OW16420   2.620   6.174   3.358
 5174SOL    HW116421   2.711   6.180   3.399
 5174SOL    HW216422   2.553   6.215   3.419
 5175SOL     OW16423   3.099   4.001   0.074
 5175SOL    HW116424   3.091   4.078   0.011
 5175SOL    HW216425   3.113   3.917   0.021
 5176SOL     OW16426   5.663   5.840   0.517
 5176SOL    HW116427   5.574   5.882   0.499
 5176SOL    HW216428   5.721   5.906   0.566
 5177SOL     OW16429   5.778   0.058   0.510
 5177SOL    HW116430   5.871   0.092   0.492
 5177SOL    HW216431   5.718   0.136   0.528
 5178SOL     OW16432   0.703   4.509   1.777
 5178SOL    HW116433   0.776   4.444   1.798
 5178SOL    HW216434   0.655   4.480   1.695
 5179SOL     OW16435   5.723   5.125   2.744
 5179SOL    HW116436   5.729   5.035   2.789
 5179SOL    HW216437   5.676   5.189   2.805
 5180SOL     OW16438   2.421   6.987   2.311
 5180SOL    HW116439   2.408   0.032   2.240
 5180SOL    HW216440   2.518   6.966   2.319
 5181SOL     OW16441   0.360   0.365   6.180
 5181SOL    HW116442   0.346   0.306   6.101
 5181SOL    HW216443   0.429   0.434   6.158
 5182SOL     OW16444   3.277   5.187   3.270
 5182SOL    HW116445   3.219   5.135   3.207
 5182SOL    HW216446   3.314   5.126   3.339
 5183SOL     OW16447   3.847   1.552   3.734
 5183SOL    HW116448   3.748   1.539   3.736
 5183SOL    HW216449   3.871   1.614   3.659
 5184SOL     OW16450   2.849   1.130   3.989
 5184SOL    HW116451   2.825   1.075   4.069
 5184SOL    HW216452   2.932   1.183   4.008
 5185SOL     OW16453   6.118   0.649   1.624
 5185SOL    HW116454   6.147   0.559   1.655
 5185SOL    HW216455   6.047   0.638   1.553
 5186SOL     OW16456   6.901   3.270   6.581
 5186SOL    HW116457   6.848   3.247   6.500
 5186SOL    HW216458   6.846   3.253   6.663
 5187SOL     OW16459   1.904   4.762   5.518
 5187SOL    HW116460   1.905   4.676   5.568
 5187SOL    HW216461   1.823   4.767   5.460
 5188SOL     OW16462   6.305   6.548   2.197
 5188SOL    HW116463   6.310   6.639   2.237
 5188SOL    HW216464   6.275   6.555   2.102
 5189SOL     OW16465   5.327   6.887   6.465
 5189SOL    HW116466   5.397   6.956   6.487
 5189SOL    HW216467   5.365   6.821   6.401
 5190SOL     OW16468   1.279   4.049   0.543
 5190SOL    HW116469   1.351   4.055   0.474
 5190SOL    HW216470   1.198   4.099   0.511
 5191SOL     OW16471   3.462   4.884   2.641
 5191SOL    HW116472   3.447   4.981   2.664
 5191SOL    HW216473   3.546   4.853   2.684
 5192SOL     OW16474   2.122   4.902   2.332
 5192SOL    HW116475   2.060   4.867   2.262
 5192SOL    HW216476   2.204   4.845   2.335
 5193SOL     OW16477   5.476   0.236   6.038
 5193SOL    HW116478   5.383   0.219   6.070
 5193SOL    HW216479   5.541   0.217   6.111
 5194SOL     OW16480   5.247   2.223   6.485
 5194SOL    HW116481   5.297   2.169   6.417
 5194SOL    HW216482   5.312   2.274   6.541
 5195SOL     OW16483   0.004   0.367   4.545
 5195SOL    HW116484   6.965   0.297   4.514
 5195SOL    HW216485   0.096   0.328   4.549
 5196SOL     OW16486   5.517   6.034   2.553
 5196SOL    HW116487   5.595   6.057   2.612
 5196SOL    HW216488   5.549   5.975   2.479
 5197SOL     OW16489   1.360   3.862   5.521
 5197SOL    HW116490   1.270   3.897   5.495
 5197SOL    HW216491   1.413   3.840   5.440
 5198SOL     OW16492   5.899   5.531   2.495
 5198SOL    HW116493   5.969   5.563   2.559
 5198SOL    HW216494   5.886   5.598   2.423
 5199SOL     OW16495   6.954   4.722   1.093
 5199SOL    HW116496   6.915   4.704   1.183
 5199SOL    HW216497   6.955   4.637   1.039
 5200SOL     OW16498   0.072   4.156   4.938
 5200SOL    HW116499   0.057   4.231   4.874
 5200SOL    HW216500   0.169   4.148   4.958
 5201SOL     OW16501   1.834   5.075   3.952
 5201SOL    HW116502   1.808   5.086   3.856
 5201SOL    HW216503   1.909   5.139   3.973
 5202SOL     OW16504   0.246   4.649   1.064
 5202SOL    HW116505   0.198   4.648   0.976
 5202SOL    HW216506   0.195   4.595   1.131
 5203SOL     OW16507   1.249   2.430   7.017
 5203SOL    HW116508   1.167   2.374   7.002
 5203SOL    HW216509   1.229   2.525   6.996
 5204SOL     OW16510   4.721   5.212   0.186
 5204SOL    HW116511   4.820   5.202   0.184
 5204SOL    HW216512   4.693   5.280   0.119
 5205SOL     OW16513   1.301   0.349   1.934
 5205SOL    HW116514   1.337   0.305   1.852
 5205SOL    HW216515   1.326   0.446   1.934
 5206SOL     OW16516   0.278   4.225   6.277
 5206SOL    HW116517   0.297   4.306   6.331
 5206SOL    HW216518   0.208   4.246   6.209
 5207SOL     OW16519   1.937   4.565   4.151
 5207SOL    HW116520   1.868   4.629   4.183
 5207SOL    HW216521   1.920   4.475   4.191
 5208SOL     OW16522   3.608   1.424   6.725
 5208SOL    HW116523   3.515   1.398   6.700
 5208SOL    HW216524   3.669   1.408   6.647
 5209SOL     OW16525   5.598   6.293   3.116
 5209SOL    HW116526   5.611   6.244   3.203
 5209SOL    HW216527   5.500   6.301   3.097
 5210SOL     OW16528   5.044   5.002   3.894
 5210SOL    HW116529   5.139   4.985   3.868
 5210SOL    HW216530   5.013   4.929   3.955
 5211SOL     OW16531   4.140   3.327   3.418
 5211SOL    HW116532   4.106   3.271   3.343
 5211SOL    HW216533   4.150   3.271   3.500
 5212SOL     OW16534   1.129   2.389   0.633
 5212SOL    HW116535   1.225   2.373   0.610
 5212SOL    HW216536   1.075   2.307   0.611
 5213SOL     OW16537   4.457   2.407   5.845
 5213SOL    HW116538   4.445   2.395   5.746
 5213SOL    HW216539   4.529   2.346   5.877
 5214SOL     OW16540   5.287   1.290   5.340
 5214SOL    HW116541   5.212   1.223   5.343
 5214SOL    HW216542   5.373   1.242   5.327
 5215SOL     OW16543   5.113   5.028   2.685
 5215SOL    HW116544   5.109   4.973   2.601
 5215SOL    HW216545   5.026   5.021   2.733
 5216SOL     OW16546   4.788   5.031   0.620
 5216SOL    HW116547   4.746   5.008   0.708
 5216SOL    HW216548   4.864   4.968   0.602
 5217SOL     OW16549   2.390   4.998   4.186
 5217SOL    HW116550   2.330   4.931   4.141
 5217SOL    HW216551   2.396   4.976   4.284
 5218SOL     OW16552   1.645   6.711   3.526
 5218SOL    HW116553   1.660   6.730   3.623
 5218SOL    HW216554   1.728   6.733   3.475
 5219SOL     OW16555   3.516   6.979   6.458
 5219SOL    HW116556   3.579   6.959   6.533
 5219SOL    HW216557   3.423   6.988   6.493
 5220SOL     OW16558   0.797   6.486   2.896
 5220SOL    HW116559   0.728   6.433   2.847
 5220SOL    HW216560   0.888   6.451   2.875
 5221SOL     OW16561   5.119   1.197   4.734
 5221SOL    HW116562   5.186   1.124   4.722
 5221SOL    HW216563   5.166   1.285   4.733
 5222SOL     OW16564   1.647   0.662   3.691
 5222SOL    HW116565   1.636   0.706   3.602
 5222SOL    HW216566   1.567   0.679   3.748
 5223SOL     OW16567   4.685   0.290   1.232
 5223SOL    HW116568   4.769   0.315   1.280
 5223SOL    HW216569   4.647   0.371   1.187
 5224SOL     OW16570   5.766   1.839   2.174
 5224SOL    HW116571   5.684   1.895   2.176
 5224SOL    HW216572   5.764   1.775   2.251
 5225SOL     OW16573   5.850   5.937   4.400
 5225SOL    HW116574   5.890   6.028   4.392
 5225SOL    HW216575   5.795   5.932   4.484
 5226SOL     OW16576   1.278   6.311   4.322
 5226SOL    HW116577   1.248   6.215   4.326
 5226SOL    HW216578   1.367   6.316   4.277
 5227SOL     OW16579   5.969   4.471   3.149
 5227SOL    HW116580   5.907   4.406   3.194
 5227SOL    HW216581   5.941   4.564   3.172
 5228SOL     OW16582   5.403   1.480   0.699
 5228SOL    HW116583   5.432   1.557   0.641
 5228SOL    HW216584   5.356   1.516   0.779
 5229SOL     OW16585   1.097   3.943   5.476
 5229SOL    HW116586   1.039   3.863   5.489
 5229SOL    HW216587   1.041   4.021   5.451
 5230SOL     OW16588   0.248   0.295   0.039
 5230SOL    HW116589   0.246   0.383   7.016
 5230SOL    HW216590   0.192   0.229   7.014
 5231SOL     OW16591   3.988   3.212   3.933
 5231SOL    HW116592   3.892   3.222   3.907
 5231SOL    HW216593   4.043   3.195   3.851
 5232SOL     OW16594   4.310   2.621   6.847
 5232SOL    HW116595   4.340   2.623   6.752
 5232SOL    HW216596   4.322   2.529   6.885
 5233SOL     OW16597   1.128   6.781   2.340
 5233SOL    HW116598   1.032   6.782   2.366
 5233SOL    HW216599   1.184   6.771   2.423
 5234SOL     OW16600   3.627   6.687   0.708
 5234SOL    HW116601   3.601   6.704   0.613
 5234SOL    HW216602   3.670   6.769   0.746
 5235SOL     OW16603   0.983   3.133   0.893
 5235SOL    HW116604   1.057   3.079   0.933
 5235SOL    HW216605   0.972   3.108   0.797
 5236SOL     OW16606   5.191   3.405   0.986
 5236SOL    HW116607   5.120   3.459   1.030
 5236SOL    HW216608   5.261   3.380   1.053
 5237SOL     OW16609   2.559   2.314   5.379
 5237SOL    HW116610   2.576   2.275   5.470
 5237SOL    HW216611   2.460   2.321   5.365
 5238SOL     OW16612   2.003   4.736   1.071
 5238SOL    HW116613   2.027   4.732   1.168
 5238SOL    HW216614   2.080   4.705   1.016
 5239SOL     OW16615   3.193   3.049   3.679
 5239SOL    HW116616   3.276   3.005   3.645
 5239SOL    HW216617   3.161   3.003   3.761
 5240SOL     OW16618   3.620   2.140   5.085
 5240SOL    HW116619   3.525   2.140   5.118
 5240SOL    HW216620   3.641   2.230   5.047
 5241SOL     OW16621   1.716   6.110   6.683
 5241SOL    HW116622   1.744   6.112   6.779
 5241SOL    HW216623   1.621   6.082   6.677
 5242SOL     OW16624   5.968   1.234   5.608
 5242SOL    HW116625   6.033   1.267   5.676
 5242SOL    HW216626   5.982   1.136   5.593
 5243SOL     OW16627   1.593   5.278   0.882
 5243SOL    HW116628   1.528   5.301   0.954
 5243SOL    HW216629   1.609   5.179   0.882
 5244SOL     OW16630   5.278   4.601   5.146
 5244SOL    HW116631   5.242   4.579   5.237
 5244SOL    HW216632   5.378   4.598   5.147
 5245SOL     OW16633   4.818   4.112   6.826
 5245SOL    HW116634   4.838   4.159   6.740
 5245SOL    HW216635   4.841   4.015   6.817
 5246SOL     OW16636   1.410   3.579   2.717
 5246SOL    HW116637   1.457   3.510   2.663
 5246SOL    HW216638   1.366   3.645   2.657
 5247SOL     OW16639   0.465   5.214   1.081
 5247SOL    HW116640   0.385   5.216   1.140
 5247SOL    HW216641   0.440   5.178   0.991
 5248SOL     OW16642   5.029   0.778   5.791
 5248SOL    HW116643   5.041   0.680   5.777
 5248SOL    HW216644   5.107   0.815   5.842
 5249SOL     OW16645   0.927   4.958   4.734
 5249SOL    HW116646   0.941   4.872   4.684
 5249SOL    HW216647   0.907   5.031   4.669
 5250SOL     OW16648   0.774   1.509   6.420
 5250SOL    HW116649   0.800   1.441   6.489
 5250SOL    HW216650   0.804   1.478   6.330
 5251SOL     OW16651   6.418   3.032   1.352
 5251SOL    HW116652   6.406   2.940   1.390
 5251SOL    HW216653   6.403   3.100   1.424
 5252SOL     OW16654   3.726   5.942   0.493
 5252SOL    HW116655   3.718   5.999   0.412
 5252SOL    HW216656   3.788   5.985   0.559
 5253SOL     OW16657   5.682   3.600   4.319
 5253SOL    HW116658   5.770   3.606   4.365
 5253SOL    HW216659   5.643   3.692   4.310
 5254SOL     OW16660   4.342   0.605   3.734
 5254SOL    HW116661   4.413   0.539   3.711
 5254SOL    HW216662   4.380   0.697   3.731
 5255SOL     OW16663   2.923   6.409   5.010
 5255SOL    HW116664   2.990   6.337   4.992
 5255SOL    HW216665   2.860   6.378   5.080
 5256SOL     OW16666   5.348   0.060   3.571
 5256SOL    HW116667   5.419   0.065   3.642
 5256SOL    HW216668   5.356   6.998   3.522
 5257SOL     OW16669   3.888   0.091   0.235
 5257SOL    HW116670   3.824   0.159   0.272
 5257SOL    HW216671   3.980   0.107   0.272
 5258SOL     OW16672   5.065   4.297   2.334
 5258SOL    HW116673   5.030   4.205   2.348
 5258SOL    HW216674   4.989   4.360   2.318
 5259SOL     OW16675   4.757   5.268   2.665
 5259SOL    HW116676   4.774   5.191   2.727
 5259SOL    HW216677   4.663   5.264   2.631
 5260SOL     OW16678   5.635   3.548   1.598
 5260SOL    HW116679   5.656   3.531   1.502
 5260SOL    HW216680   5.660   3.641   1.622
 5261SOL     OW16681   0.862   2.364   4.524
 5261SOL    HW116682   0.916   2.291   4.566
 5261SOL    HW216683   0.846   2.436   4.592
 5262SOL     OW16684   3.192   6.374   1.824
 5262SOL    HW116685   3.142   6.319   1.757
 5262SOL    HW216686   3.140   6.378   1.910
 5263SOL     OW16687   1.630   6.944   6.394
 5263SOL    HW116688   1.686   6.863   6.409
 5263SOL    HW216689   1.615   6.957   6.296
 5264SOL     OW16690   0.358   2.132   0.891
 5264SOL    HW116691   0.345   2.158   0.986
 5264SOL    HW216692   0.323   2.039   0.877
 5265SOL     OW16693   5.497   4.689   1.641
 5265SOL    HW116694   5.420   4.746   1.672
 5265SOL    HW216695   5.479   4.658   1.548
 5266SOL     OW16696   1.668   6.772   1.769
 5266SOL    HW116697   1.581   6.729   1.744
 5266SOL    HW216698   1.657   6.871   1.770
 5267SOL     OW16699   4.952   4.930   4.962
 5267SOL    HW116700   4.980   5.007   4.905
 5267SOL    HW216701   4.960   4.845   4.911
 5268SOL     OW16702   6.104   5.391   5.481
 5268SOL    HW116703   6.110   5.392   5.581
 5268SOL    HW216704   6.015   5.426   5.453
 5269SOL     OW16705   1.791   5.433   4.202
 5269SOL    HW116706   1.890   5.448   4.202
 5269SOL    HW216707   1.770   5.342   4.237
 5270SOL     OW16708   6.371   2.379   1.849
 5270SOL    HW116709   6.280   2.342   1.863
 5270SOL    HW216710   6.417   2.391   1.937
 5271SOL     OW16711   5.312   4.141   4.788
 5271SOL    HW116712   5.284   4.197   4.711
 5271SOL    HW216713   5.231   4.113   4.840
 5272SOL     OW16714   0.461   6.939   4.657
 5272SOL    HW116715   0.444   6.898   4.568
 5272SOL    HW216716   0.521   6.879   4.710
 5273SOL     OW16717   0.690   1.101   3.717
 5273SOL    HW116718   0.688   1.116   3.816
 5273SOL    HW216719   0.597   1.097   3.682
 5274SOL     OW16720   6.752   5.116   3.859
 5274SOL    HW116721   6.788   5.133   3.950
 5274SOL    HW216722   6.744   5.203   3.809
 5275SOL     OW16723   2.620   0.375   6.822
 5275SOL    HW116724   2.544   0.333   6.873
 5275SOL    HW216725   2.612   0.474   6.826
 5276SOL     OW16726   0.075   6.817   1.702
 5276SOL    HW116727   0.011   6.862   1.764
 5276SOL    HW216728   0.122   6.885   1.646
 5277SOL     OW16729   1.185   1.659   3.259
 5277SOL    HW116730   1.100   1.613   3.284
 5277SOL    HW216731   1.236   1.682   3.341
 5278SOL     OW16732   0.721   5.404   5.607
 5278SOL    HW116733   0.682   5.371   5.522
 5278SOL    HW216734   0.712   5.503   5.611
 5279SOL     OW16735   1.568   5.613   6.232
 5279SOL    HW116736   1.656   5.649   6.264
 5279SOL    HW216737   1.576   5.586   6.137
 5280SOL     OW16738   4.205   5.829   4.531
 5280SOL    HW116739   4.239   5.918   4.564
 5280SOL    HW216740   4.145   5.844   4.453
 5281SOL     OW16741   2.237   0.362   5.147
 5281SOL    HW116742   2.285   0.445   5.119
 5281SOL    HW216743   2.138   0.374   5.132
 5282SOL     OW16744   1.325   0.402   2.540
 5282SOL    HW116745   1.233   0.378   2.573
 5282SOL    HW216746   1.365   0.322   2.494
 5283SOL     OW16747   0.054   0.955   4.118
 5283SOL    HW116748   6.993   0.993   4.154
 5283SOL    HW216749   0.127   0.970   4.185
 5284SOL     OW16750   5.190   2.201   1.815
 5284SOL    HW116751   5.240   2.149   1.745
 5284SOL    HW216752   5.094   2.172   1.816
 5285SOL     OW16753   0.774   2.747   3.531
 5285SOL    HW116754   0.871   2.751   3.556
 5285SOL    HW216755   0.721   2.712   3.608
 5286SOL     OW16756   6.405   2.774   1.397
 5286SOL    HW116757   6.341   2.698   1.407
 5286SOL    HW216758   6.498   2.742   1.412
 5287SOL     OW16759   3.034   4.892   1.570
 5287SOL    HW116760   3.083   4.833   1.506
 5287SOL    HW216761   2.976   4.836   1.629
 5288SOL     OW16762   5.282   0.686   2.296
 5288SOL    HW116763   5.182   0.686   2.296
 5288SOL    HW216764   5.316   0.700   2.203
 5289SOL     OW16765   1.808   4.860   6.395
 5289SOL    HW116766   1.820   4.881   6.492
 5289SOL    HW216767   1.897   4.860   6.349
 5290SOL     OW16768   1.654   3.107   5.735
 5290SOL    HW116769   1.602   3.087   5.652
 5290SOL    HW216770   1.590   3.120   5.811
 5291SOL     OW16771   2.656   4.631   5.270
 5291SOL    HW116772   2.709   4.637   5.186
 5291SOL    HW216773   2.719   4.624   5.348
 5292SOL     OW16774   6.513   4.345   6.566
 5292SOL    HW116775   6.609   4.371   6.576
 5292SOL    HW216776   6.484   4.293   6.646
 5293SOL     OW16777   1.998   5.428   4.537
 5293SOL    HW116778   2.038   5.365   4.470
 5293SOL    HW216779   1.903   5.404   4.555
 5294SOL     OW16780   4.071   0.619   5.234
 5294SOL    HW116781   3.975   0.619   5.208
 5294SOL    HW216782   4.127   0.642   5.154
 5295SOL     OW16783   3.165   0.805   2.162
 5295SOL    HW116784   3.114   0.891   2.162
 5295SOL    HW216785   3.261   0.823   2.141
 5296SOL     OW16786   4.025   4.365   1.006
 5296SOL    HW116787   4.062   4.287   0.955
 5296SOL    HW216788   4.068   4.371   1.095
 5297SOL     OW16789   2.295   4.317   0.439
 5297SOL    HW116790   2.390   4.345   0.435
 5297SOL    HW216791   2.287   4.235   0.497
 5298SOL     OW16792   2.549   6.948   0.170
 5298SOL    HW116793   2.475   6.908   0.224
 5298SOL    HW216794   2.554   0.022   0.187
 5299SOL     OW16795   3.111   2.070   0.524
 5299SOL    HW116796   3.071   2.070   0.432
 5299SOL    HW216797   3.058   2.132   0.583
 5300SOL     OW16798   1.794   4.814   0.500
 5300SOL    HW116799   1.709   4.785   0.457
 5300SOL    HW216800   1.803   4.914   0.492
 5301SOL     OW16801   4.583   0.392   6.574
 5301SOL    HW116802   4.531   0.368   6.655
 5301SOL    HW216803   4.526   0.447   6.512
 5302SOL     OW16804   4.931   5.622   3.377
 5302SOL    HW116805   4.926   5.522   3.375
 5302SOL    HW216806   5.026   5.651   3.382
 5303SOL     OW16807   6.811   5.068   6.263
 5303SOL    HW116808   6.795   4.970   6.268
 5303SOL    HW216809   6.782   5.103   6.174
 5304SOL     OW16810   6.393   1.317   1.213
 5304SOL    HW116811   6.391   1.386   1.140
 5304SOL    HW216812   6.487   1.289   1.231
 5305SOL     OW16813   1.082   5.508   2.842
 5305SOL    HW116814   1.011   5.548   2.784
 5305SOL    HW216815   1.157   5.573   2.852
 5306SOL     OW16816   6.714   3.883   6.026
 5306SOL    HW116817   6.730   3.872   6.125
 5306SOL    HW216818   6.662   3.805   5.992
 5307SOL     OW16819   4.627   2.465   0.452
 5307SOL    HW116820   4.587   2.379   0.482
 5307SOL    HW216821   4.555   2.526   0.419
 5308SOL     OW16822   1.325   4.664   2.863
 5308SOL    HW116823   1.363   4.576   2.835
 5308SOL    HW216824   1.240   4.648   2.914
 5309SOL     OW16825   4.133   6.088   2.979
 5309SOL    HW116826   4.197   6.149   2.933
 5309SOL    HW216827   4.167   6.066   3.071
 5310SOL     OW16828   5.969   3.147   2.663
 5310SOL    HW116829   6.001   3.067   2.713
 5310SOL    HW216830   6.047   3.195   2.623
 5311SOL     OW16831   6.110   6.625   0.567
 5311SOL    HW116832   6.015   6.597   0.548
 5311SOL    HW216833   6.172   6.573   0.509
 5312SOL     OW16834   0.515   6.711   1.679
 5312SOL    HW116835   0.469   6.787   1.725
 5312SOL    HW216836   0.561   6.654   1.746
 5313SOL     OW16837   6.994   5.334   5.568
 5313SOL    HW116838   0.021   5.355   5.485
 5313SOL    HW216839   0.013   5.257   5.615
 5314SOL     OW16840   6.066   6.756   0.988
 5314SOL    HW116841   5.981   6.706   0.972
 5314SOL    HW216842   6.088   6.811   0.908
 5315SOL     OW16843   4.389   1.985   3.405
 5315SOL    HW116844   4.461   1.924   3.372
 5315SOL    HW216845   4.300   1.949   3.378
 5316SOL     OW16846   0.665   3.372   5.357
 5316SOL    HW116847   0.729   3.325   5.419
 5316SOL    HW216848   0.715   3.439   5.303
 5317SOL     OW16849   6.510   1.185   5.666
 5317SOL    HW116850   6.597   1.182   5.617
 5317SOL    HW216851   6.518   1.246   5.745
 5318SOL     OW16852   6.406   3.282   0.140
 5318SOL    HW116853   6.331   3.264   0.077
 5318SOL    HW216854   6.389   3.366   0.190
 5319SOL     OW16855   4.211   6.862   0.853
 5319SOL    HW116856   4.197   6.848   0.951
 5319SOL    HW216857   4.208   6.960   0.832
 5320SOL     OW16858   3.673   5.703   1.570
 5320SOL    HW116859   3.673   5.607   1.542
 5320SOL    HW216860   3.619   5.757   1.505
 5321SOL     OW16861   1.551   4.504   5.002
 5321SOL    HW116862   1.603   4.589   5.004
 5321SOL    HW216863   1.461   4.521   4.960
 5322SOL     OW16864   5.553   6.618   1.667
 5322SOL    HW116865   5.493   6.564   1.726
 5322SOL    HW216866   5.514   6.624   1.575
 5323SOL     OW16867   4.636   1.640   5.450
 5323SOL    HW116868   4.627   1.692   5.535
 5323SOL    HW216869   4.547   1.602   5.425
 5324SOL     OW16870   2.385   2.349   6.593
 5324SOL    HW116871   2.327   2.425   6.564
 5324SOL    HW216872   2.332   2.285   6.649
 5325SOL     OW16873   2.971   1.826   5.163
 5325SOL    HW116874   2.990   1.913   5.208
 5325SOL    HW216875   2.967   1.753   5.231
 5326SOL     OW16876   6.471   5.816   2.823
 5326SOL    HW116877   6.391   5.812   2.764
 5326SOL    HW216878   6.441   5.820   2.919
 5327SOL     OW16879   5.299   2.601   4.757
 5327SOL    HW116880   5.221   2.593   4.695
 5327SOL    HW216881   5.375   2.546   4.721
 5328SOL     OW16882   3.933   3.883   5.966
 5328SOL    HW116883   4.029   3.861   5.980
 5328SOL    HW216884   3.901   3.840   5.882
 5329SOL     OW16885   1.373   5.771   6.327
 5329SOL    HW116886   1.450   5.718   6.292
 5329SOL    HW216887   1.351   5.740   6.420
 5330SOL     OW16888   3.763   3.593   0.739
 5330SOL    HW116889   3.793   3.498   0.728
 5330SOL    HW216890   3.795   3.628   0.827
 5331SOL     OW16891   6.805   1.891   6.610
 5331SOL    HW116892   6.733   1.834   6.648
 5331SOL    HW216893   6.765   1.975   6.574
 5332SOL     OW16894   1.545   4.655   1.680
 5332SOL    HW116895   1.634   4.655   1.727
 5332SOL    HW216896   1.478   4.607   1.735
 5333SOL     OW16897   1.464   6.946   3.526
 5333SOL    HW116898   1.388   6.906   3.475
 5333SOL    HW216899   1.544   6.886   3.521
 5334SOL     OW16900   2.985   0.302   5.003
 5334SOL    HW116901   2.909   0.367   4.997
 5334SOL    HW216902   3.071   0.351   4.987
 5335SOL     OW16903   6.611   5.525   0.220
 5335SOL    HW116904   6.690   5.515   0.159
 5335SOL    HW216905   6.633   5.591   0.292
 5336SOL     OW16906   1.833   3.566   2.140
 5336SOL    HW116907   1.832   3.518   2.052
 5336SOL    HW216908   1.788   3.509   2.209
 5337SOL     OW16909   5.206   3.991   1.317
 5337SOL    HW116910   5.193   3.929   1.240
 5337SOL    HW216911   5.152   3.959   1.395
 5338SOL     OW16912   6.600   1.762   0.145
 5338SOL    HW116913   6.554   1.797   0.064
 5338SOL    HW216914   6.576   1.818   0.224
 5339SOL     OW16915   6.866   2.048   3.825
 5339SOL    HW116916   6.904   2.034   3.917
 5339SOL    HW216917   6.785   1.991   3.813
 5340SOL     OW16918   5.610   3.232   0.074
 5340SOL    HW116919   5.710   3.233   0.069
 5340SOL    HW216920   5.575   3.153   0.024
 5341SOL     OW16921   4.101   1.919   5.489
 5341SOL    HW116922   4.067   1.946   5.580
 5341SOL    HW216923   4.144   1.829   5.495
 5342SOL     OW16924   3.884   0.627   4.899
 5342SOL    HW116925   3.963   0.612   4.839
 5342SOL    HW216926   3.869   0.546   4.956
 5343SOL     OW16927   4.143   3.538   2.506
 5343SOL    HW116928   4.147   3.554   2.605
 5343SOL    HW216929   4.059   3.489   2.483
 5344SOL     OW16930   1.490   2.644   2.880
 5344SOL    HW116931   1.559   2.583   2.918
 5344SOL    HW216932   1.400   2.620   2.916
 5345SOL     OW16933   4.544   6.356   1.045
 5345SOL    HW116934   4.479   6.403   1.105
 5345SOL    HW216935   4.500   6.275   1.006
 5346SOL     OW16936   3.242   6.061   3.526
 5346SOL    HW116937   3.169   6.058   3.458
 5346SOL    HW216938   3.330   6.065   3.480
 5347SOL     OW16939   0.507   1.870   1.798
 5347SOL    HW116940   0.507   1.770   1.790
 5347SOL    HW216941   0.461   1.910   1.719
 5348SOL     OW16942   1.154   1.544   0.459
 5348SOL    HW116943   1.156   1.641   0.486
 5348SOL    HW216944   1.238   1.523   0.409
 5349SOL     OW16945   0.044   2.021   0.302
 5349SOL    HW116946   6.989   1.985   0.254
 5349SOL    HW216947   0.053   1.976   0.391
 5350SOL     OW16948   2.153   0.611   6.222
 5350SOL    HW116949   2.213   0.533   6.208
 5350SOL    HW216950   2.059   0.585   6.200
 5351SOL     OW16951   4.948   5.973   1.054
 5351SOL    HW116952   4.932   5.957   1.151
 5351SOL    HW216953   4.997   6.060   1.042
 5352SOL     OW16954   2.103   5.703   3.916
 5352SOL    HW116955   2.163   5.750   3.981
 5352SOL    HW216956   2.092   5.759   3.835
 5353SOL     OW16957   4.699   6.228   4.941
 5353SOL    HW116958   4.716   6.227   4.842
 5353SOL    HW216959   4.727   6.141   4.981
 5354SOL     OW16960   2.384   5.081   2.270
 5354SOL    HW116961   2.459   5.143   2.294
 5354SOL    HW216962   2.412   4.987   2.286
 5355SOL     OW16963   4.397   1.769   3.813
 5355SOL    HW116964   4.403   1.722   3.725
 5355SOL    HW216965   4.474   1.743   3.870
 5356SOL     OW16966   6.259   3.806   1.647
 5356SOL    HW116967   6.281   3.781   1.553
 5356SOL    HW216968   6.310   3.748   1.710
 5357SOL     OW16969   3.983   0.461   0.328
 5357SOL    HW116970   4.010   0.429   0.237
 5357SOL    HW216971   3.910   0.402   0.363
 5358SOL     OW16972   3.964   2.352   0.726
 5358SOL    HW116973   4.001   2.328   0.816
 5358SOL    HW216974   3.920   2.272   0.686
 5359SOL     OW16975   2.403   1.675   1.057
 5359SOL    HW116976   2.409   1.584   1.016
 5359SOL    HW216977   2.485   1.727   1.034
 5360SOL     OW16978   3.671   6.791   5.420
 5360SOL    HW116979   3.649   6.807   5.324
 5360SOL    HW216980   3.623   6.710   5.453
 5361SOL     OW16981   2.269   1.209   5.045
 5361SOL    HW116982   2.249   1.258   4.960
 5361SOL    HW216983   2.184   1.190   5.094
 5362SOL     OW16984   4.907   4.410   3.169
 5362SOL    HW116985   5.002   4.388   3.193
 5362SOL    HW216986   4.880   4.357   3.089
 5363SOL     OW16987   1.145   5.719   5.672
 5363SOL    HW116988   1.201   5.736   5.753
 5363SOL    HW216989   1.205   5.704   5.593
 5364SOL     OW16990   6.542   5.987   1.052
 5364SOL    HW116991   6.571   6.050   0.980
 5364SOL    HW216992   6.604   5.994   1.130
 5365SOL     OW16993   4.218   3.047   6.224
 5365SOL    HW116994   4.298   2.992   6.250
 5365SOL    HW216995   4.243   3.144   6.224
 5366SOL     OW16996   4.103   4.628   0.534
 5366SOL    HW116997   4.173   4.654   0.468
 5366SOL    HW216998   4.086   4.530   0.528
 5367SOL     OW16999   0.367   5.107   0.807
 5367SOL    HW117000   0.294   5.172   0.786
 5367SOL    HW217001   0.345   5.018   0.767
 5368SOL     OW17002   5.369   1.834   2.197
 5368SOL    HW117003   5.404   1.845   2.290
 5368SOL    HW217004   5.430   1.880   2.133
 5369SOL     OW17005   2.112   4.812   3.212
 5369SOL    HW117006   2.113   4.894   3.270
 5369SOL    HW217007   2.193   4.811   3.153
 5370SOL     OW17008   3.584   3.184   1.616
 5370SOL    HW117009   3.683   3.200   1.606
 5370SOL    HW217010   3.569   3.119   1.690
 5371SOL     OW17011   1.770   4.357   4.663
 5371SOL    HW117012   1.861   4.384   4.632
 5371SOL    HW217013   1.749   4.266   4.629
 5372SOL     OW17014   3.056   5.466   2.271
 5372SOL    HW117015   3.025   5.471   2.366
 5372SOL    HW217016   3.078   5.558   2.238
 5373SOL     OW17017   3.170   4.869   4.339
 5373SOL    HW117018   3.250   4.905   4.290
 5373SOL    HW217019   3.171   4.769   4.335
 5374SOL     OW17020   1.600   3.296   6.855
 5374SOL    HW117021   1.556   3.226   6.911
 5374SOL    HW217022   1.603   3.267   6.760
 5375SOL     OW17023   1.201   4.117   5.139
 5375SOL    HW117024   1.261   4.118   5.060
 5375SOL    HW217025   1.153   4.029   5.144
 5376SOL     OW17026   1.595   3.593   1.692
 5376SOL    HW117027   1.666   3.616   1.625
 5376SOL    HW217028   1.637   3.542   1.767
 5377SOL     OW17029   6.908   0.007   1.756
 5377SOL    HW117030   6.888   0.027   1.661
 5377SOL    HW217031   6.865   0.076   1.815
 5378SOL     OW17032   6.333   0.350   0.259
 5378SOL    HW117033   6.316   0.382   0.165
 5378SOL    HW217034   6.384   0.264   0.256
 5379SOL     OW17035   0.150   4.957   3.861
 5379SOL    HW117036   0.163   4.860   3.839
 5379SOL    HW217037   0.096   4.965   3.945
 5380SOL     OW17038   2.200   0.591   3.641
 5380SOL    HW117039   2.102   0.606   3.635
 5380SOL    HW217040   2.221   0.495   3.619
 5381SOL     OW17041   6.025   4.053   1.007
 5381SOL    HW117042   6.100   4.080   0.947
 5381SOL    HW217043   6.053   3.973   1.061
 5382SOL     OW17044   3.161   0.488   1.399
 5382SOL    HW117045   3.241   0.515   1.345
 5382SOL    HW217046   3.089   0.454   1.337
 5383SOL     OW17047   3.053   2.231   5.574
 5383SOL    HW117048   3.033   2.280   5.489
 5383SOL    HW217049   2.986   2.256   5.643
 5384SOL     OW17050   6.468   6.432   4.335
 5384SOL    HW117051   6.513   6.513   4.374
 5384SOL    HW217052   6.378   6.457   4.302
 5385SOL     OW17053   2.916   3.502   2.764
 5385SOL    HW117054   2.895   3.508   2.666
 5385SOL    HW217055   2.947   3.409   2.786
 5386SOL     OW17056   4.761   6.111   4.193
 5386SOL    HW117057   4.713   6.047   4.134
 5386SOL    HW217058   4.777   6.197   4.145
 5387SOL     OW17059   2.355   5.513   2.622
 5387SOL    HW117060   2.273   5.503   2.565
 5387SOL    HW217061   2.341   5.587   2.688
 5388SOL     OW17062   5.471   6.298   2.441
 5388SOL    HW117063   5.374   6.318   2.428
 5388SOL    HW217064   5.482   6.212   2.489
 5389SOL     OW17065   4.751   1.077   1.731
 5389SOL    HW117066   4.816   1.025   1.676
 5389SOL    HW217067   4.742   1.169   1.694
 5390SOL     OW17068   5.614   4.887   4.368
 5390SOL    HW117069   5.581   4.851   4.456
 5390SOL    HW217070   5.592   4.984   4.361
 5391SOL     OW17071   2.704   3.646   0.389
 5391SOL    HW117072   2.623   3.590   0.374
 5391SOL    HW217073   2.769   3.595   0.447
 5392SOL     OW17074   5.946   2.819   1.657
 5392SOL    HW117075   5.945   2.720   1.653
 5392SOL    HW217076   6.033   2.850   1.695
 5393SOL     OW17077   0.140   6.853   6.780
 5393SOL    HW117078   0.130   6.833   6.877
 5393SOL    HW217079   0.059   6.823   6.731
 5394SOL     OW17080   0.838   3.998   6.424
 5394SOL    HW117081   0.799   4.052   6.499
 5394SOL    HW217082   0.937   4.007   6.425
 5395SOL     OW17083   4.232   0.456   0.645
 5395SOL    HW117084   4.250   0.460   0.547
 5395SOL    HW217085   4.181   0.372   0.666
 5396SOL     OW17086   5.276   3.851   2.308
 5396SOL    HW117087   5.235   3.834   2.397
 5396SOL    HW217088   5.315   3.766   2.273
 5397SOL     OW17089   6.913   3.071   1.837
 5397SOL    HW117090   6.895   3.167   1.858
 5397SOL    HW217091   6.985   3.037   1.897
 5398SOL     OW17092   3.187   2.628   1.738
 5398SOL    HW117093   3.154   2.577   1.817
 5398SOL    HW217094   3.199   2.566   1.661
 5399SOL     OW17095   2.876   6.374   0.645
 5399SOL    HW117096   2.811   6.320   0.591
 5399SOL    HW217097   2.862   6.471   0.628
 5400SOL     OW17098   2.779   4.486   0.517
 5400SOL    HW117099   2.745   4.398   0.486
 5400SOL    HW217100   2.870   4.502   0.480
 5401SOL     OW17101   5.945   3.165   2.081
 5401SOL    HW117102   6.027   3.187   2.134
 5401SOL    HW217103   5.912   3.247   2.035
 5402SOL     OW17104   2.630   6.070   1.780
 5402SOL    HW117105   2.546   6.017   1.792
 5402SOL    HW217106   2.637   6.138   1.853
 5403SOL     OW17107   0.242   3.514   6.361
 5403SOL    HW117108   0.156   3.482   6.321
 5403SOL    HW217109   0.223   3.584   6.430
 5404SOL     OW17110   1.502   2.812   3.708
 5404SOL    HW117111   1.421   2.818   3.767
 5404SOL    HW217112   1.569   2.751   3.750
 5405SOL     OW17113   6.972   5.403   6.639
 5405SOL    HW117114   0.032   5.425   6.688
 5405SOL    HW217115   6.969   5.304   6.622
 5406SOL     OW17116   1.752   2.118   0.376
 5406SOL    HW117117   1.847   2.099   0.354
 5406SOL    HW217118   1.726   2.208   0.341
 5407SOL     OW17119   4.378   3.755   0.271
 5407SOL    HW117120   4.295   3.800   0.237
 5407SOL    HW217121   4.413   3.806   0.350
 5408SOL     OW17122   2.557   1.221   5.401
 5408SOL    HW117123   2.493   1.238   5.476
 5408SOL    HW217124   2.519   1.257   5.316
 5409SOL     OW17125   5.246   0.293   3.076
 5409SOL    HW117126   5.223   0.372   3.020
 5409SOL    HW217127   5.184   0.287   3.154
 5410SOL     OW17128   3.263   2.056   1.920
 5410SOL    HW117129   3.325   2.127   1.886
 5410SOL    HW217130   3.170   2.075   1.889
 5411SOL     OW17131   6.702   4.996   6.002
 5411SOL    HW117132   6.661   5.086   5.990
 5411SOL    HW217133   6.649   4.928   5.953
 5412SOL     OW17134   4.818   2.810   0.394
 5412SOL    HW117135   4.738   2.799   0.453
 5412SOL    HW217136   4.811   2.748   0.316
 5413SOL     OW17137   2.865   1.813   1.534
 5413SOL    HW117138   2.845   1.799   1.437
 5413SOL    HW217139   2.954   1.856   1.544
 5414SOL     OW17140   5.051   1.564   4.683
 5414SOL    HW117141   5.050   1.549   4.782
 5414SOL    HW217142   4.990   1.640   4.660
 5415SOL     OW17143   0.264   6.157   0.954
 5415SOL    HW117144   0.337   6.119   1.010
 5415SOL    HW217145   0.176   6.130   0.992
 5416SOL     OW17146   4.053   4.986   5.001
 5416SOL    HW117147   3.954   4.988   5.012
 5416SOL    HW217148   4.078   5.019   4.910
 5417SOL     OW17149   3.524   0.085   5.131
 5417SOL    HW117150   3.502   0.104   5.227
 5417SOL    HW217151   3.623   0.093   5.118
 5418SOL     OW17152   3.515   0.169   2.479
 5418SOL    HW117153   3.490   0.260   2.511
 5418SOL    HW217154   3.505   0.164   2.379
 5419SOL     OW17155   3.456   4.532   0.104
 5419SOL    HW117156   3.437   4.600   0.033
 5419SOL    HW217157   3.542   4.556   0.150
 5420SOL     OW17158   2.078   2.569   3.335
 5420SOL    HW117159   2.148   2.622   3.384
 5420SOL    HW217160   2.121   2.513   3.265
 5421SOL     OW17161   1.667   3.627   0.947
 5421SOL    HW117162   1.715   3.624   0.859
 5421SOL    HW217163   1.624   3.716   0.958
 5422SOL     OW17164   1.308   4.852   1.078
 5422SOL    HW117165   1.394   4.804   1.062
 5422SOL    HW217166   1.254   4.852   0.994
 5423SOL     OW17167   6.321   2.707   6.372
 5423SOL    HW117168   6.300   2.635   6.438
 5423SOL    HW217169   6.298   2.796   6.412
 5424SOL     OW17170   4.985   3.627   4.135
 5424SOL    HW117171   4.963   3.533   4.109
 5424SOL    HW217172   5.074   3.629   4.180
 5425SOL     OW17173   4.149   1.204   4.739
 5425SOL    HW117174   4.106   1.248   4.818
 5425SOL    HW217175   4.142   1.265   4.660
 5426SOL     OW17176   5.676   6.265   4.417
 5426SOL    HW117177   5.727   6.262   4.503
 5426SOL    HW217178   5.655   6.360   4.394
 5427SOL     OW17179   4.458   5.839   6.234
 5427SOL    HW117180   4.542   5.805   6.193
 5427SOL    HW217181   4.380   5.814   6.177
 5428SOL     OW17182   0.749   0.349   0.751
 5428SOL    HW117183   0.848   0.354   0.761
 5428SOL    HW217184   0.706   0.365   0.840
 5429SOL     OW17185   1.955   1.691   0.129
 5429SOL    HW117186   1.893   1.723   0.058
 5429SOL    HW217187   1.911   1.619   0.182
 5430SOL     OW17188   0.374   2.036   6.329
 5430SOL    HW117189   0.328   2.086   6.256
 5430SOL    HW217190   0.456   1.992   6.293
 5431SOL     OW17191   3.170   6.687   6.529
 5431SOL    HW117192   3.134   6.664   6.619
 5431SOL    HW217193   3.198   6.783   6.527
 5432SOL     OW17194   5.402   6.802   0.029
 5432SOL    HW117195   5.466   6.810   6.977
 5432SOL    HW217196   5.363   6.891   0.050
 5433SOL     OW17197   0.207   1.888   4.570
 5433SOL    HW117198   0.272   1.943   4.518
 5433SOL    HW217199   0.162   1.823   4.509
 5434SOL     OW17200   3.210   0.071   5.661
 5434SOL    HW117201   3.247   0.097   5.751
 5434SOL    HW217202   3.283   0.073   5.593
 5435SOL     OW17203   4.709   6.884   1.755
 5435SOL    HW117204   4.763   6.800   1.767
 5435SOL    HW217205   4.651   6.898   1.835
 5436SOL     OW17206   4.548   4.526   3.213
 5436SOL    HW117207   4.549   4.433   3.250
 5436SOL    HW217208   4.542   4.523   3.114
 5437SOL     OW17209   2.546   4.309   0.284
 5437SOL    HW117210   2.495   4.224   0.269
 5437SOL    HW217211   2.523   4.375   0.213
 5438SOL     OW17212   6.751   2.596   1.681
 5438SOL    HW117213   6.701   2.579   1.596
 5438SOL    HW217214   6.849   2.602   1.662
 5439SOL     OW17215   1.690   2.006   1.497
 5439SOL    HW117216   1.601   1.982   1.533
 5439SOL    HW217217   1.679   2.055   1.410
 5440SOL     OW17218   1.593   1.690   1.370
 5440SOL    HW117219   1.659   1.763   1.351
 5440SOL    HW217220   1.553   1.659   1.284
 5441SOL     OW17221   3.758   2.101   3.961
 5441SOL    HW117222   3.758   2.104   4.061
 5441SOL    HW217223   3.851   2.113   3.927
 5442SOL     OW17224   4.176   6.375   2.611
 5442SOL    HW117225   4.088   6.377   2.658
 5442SOL    HW217226   4.230   6.297   2.645
 5443SOL     OW17227   3.078   0.307   5.471
 5443SOL    HW117228   3.153   0.241   5.473
 5443SOL    HW217229   2.995   0.261   5.438
 5444SOL     OW17230   0.764   0.377   4.042
 5444SOL    HW117231   0.863   0.387   4.031
 5444SOL    HW217232   0.725   0.336   3.959
 5445SOL     OW17233   6.468   3.741   3.202
 5445SOL    HW117234   6.403   3.671   3.229
 5445SOL    HW217235   6.558   3.720   3.239
 5446SOL     OW17236   5.695   5.631   4.898
 5446SOL    HW117237   5.627   5.644   4.826
 5446SOL    HW217238   5.679   5.543   4.943
 5447SOL     OW17239   2.829   2.679   6.707
 5447SOL    HW117240   2.915   2.643   6.742
 5447SOL    HW217241   2.846   2.762   6.654
 5448SOL     OW17242   5.217   2.072   5.431
 5448SOL    HW117243   5.168   2.061   5.344
 5448SOL    HW217244   5.313   2.051   5.418
 5449SOL     OW17245   1.399   2.703   6.716
 5449SOL    HW117246   1.316   2.735   6.760
 5449SOL    HW217247   1.418   2.609   6.745
 5450SOL     OW17248   2.260   1.036   2.064
 5450SOL    HW117249   2.318   0.955   2.062
 5450SOL    HW217250   2.282   1.090   2.146
 5451SOL     OW17251   0.902   5.770   3.146
 5451SOL    HW117252   0.887   5.759   3.048
 5451SOL    HW217253   0.984   5.826   3.161
 5452SOL     OW17254   2.129   4.330   0.214
 5452SOL    HW117255   2.181   4.395   0.160
 5452SOL    HW217256   2.181   4.304   0.296
 5453SOL     OW17257   6.549   4.290   0.420
 5453SOL    HW117258   6.561   4.288   0.321
 5453SOL    HW217259   6.591   4.208   0.461
 5454SOL     OW17260   0.025   4.712   6.529
 5454SOL    HW117261   6.952   4.736   6.526
 5454SOL    HW217262   0.036   4.614   6.509
 5455SOL     OW17263   0.104   3.201   1.092
 5455SOL    HW117264   0.079   3.127   1.155
 5455SOL    HW217265   0.199   3.190   1.065
 5456SOL     OW17266   3.191   0.754   6.436
 5456SOL    HW117267   3.274   0.807   6.419
 5456SOL    HW217268   3.190   0.723   6.531
 5457SOL     OW17269   5.594   2.809   0.727
 5457SOL    HW117270   5.612   2.712   0.711
 5457SOL    HW217271   5.517   2.819   0.790
 5458SOL     OW17272   0.911   4.583   6.835
 5458SOL    HW117273   1.010   4.582   6.844
 5458SOL    HW217274   0.883   4.518   6.764
 5459SOL     OW17275   2.252   5.171   0.134
 5459SOL    HW117276   2.196   5.105   0.084
 5459SOL    HW217277   2.261   5.255   0.080
 5460SOL     OW17278   3.250   0.309   1.600
 5460SOL    HW117279   3.294   0.223   1.574
 5460SOL    HW217280   3.227   0.361   1.517
 5461SOL     OW17281   5.149   6.328   5.306
 5461SOL    HW117282   5.184   6.422   5.302
 5461SOL    HW217283   5.200   6.278   5.376
 5462SOL     OW17284   1.663   0.756   0.916
 5462SOL    HW117285   1.665   0.854   0.931
 5462SOL    HW217286   1.722   0.733   0.838
 5463SOL     OW17287   6.044   2.355   0.841
 5463SOL    HW117288   6.050   2.415   0.921
 5463SOL    HW217289   6.121   2.372   0.780
 5464SOL     OW17290   1.631   0.655   4.358
 5464SOL    HW117291   1.688   0.606   4.424
 5464SOL    HW217292   1.672   0.651   4.267
 5465SOL     OW17293   4.172   6.689   3.904
 5465SOL    HW117294   4.149   6.606   3.853
 5465SOL    HW217295   4.114   6.765   3.873
 5466SOL     OW17296   5.215   3.974   4.466
 5466SOL    HW117297   5.237   4.065   4.502
 5466SOL    HW217298   5.137   3.981   4.404
 5467SOL     OW17299   5.621   1.762   2.699
 5467SOL    HW117300   5.534   1.742   2.745
 5467SOL    HW217301   5.657   1.848   2.733
 5468SOL     OW17302   4.922   1.834   4.562
 5468SOL    HW117303   4.849   1.849   4.496
 5468SOL    HW217304   5.002   1.889   4.535
 5469SOL     OW17305   4.245   4.563   6.111
 5469SOL    HW117306   4.306   4.516   6.047
 5469SOL    HW217307   4.161   4.590   6.064
 5470SOL     OW17308   2.104   4.886   3.610
 5470SOL    HW117309   2.198   4.860   3.631
 5470SOL    HW217310   2.042   4.813   3.639
 5471SOL     OW17311   5.580   6.035   1.254
 5471SOL    HW117312   5.575   5.936   1.266
 5471SOL    HW217313   5.489   6.075   1.265
 5472SOL     OW17314   4.185   3.837   6.139
 5472SOL    HW117315   4.266   3.824   6.082
 5472SOL    HW217316   4.160   3.750   6.181
 5473SOL     OW17317   1.108   3.747   2.978
 5473SOL    HW117318   1.008   3.742   2.982
 5473SOL    HW217319   1.142   3.678   2.915
 5474SOL     OW17320   2.160   4.813   4.168
 5474SOL    HW117321   2.217   4.744   4.214
 5474SOL    HW217322   2.105   4.768   4.098
 5475SOL     OW17323   3.426   2.413   1.076
 5475SOL    HW117324   3.502   2.391   1.137
 5475SOL    HW217325   3.340   2.406   1.126
 5476SOL     OW17326   1.691   3.439   6.218
 5476SOL    HW117327   1.644   3.527   6.207
 5476SOL    HW217328   1.737   3.415   6.133
 5477SOL     OW17329   2.004   3.207   3.487
 5477SOL    HW117330   1.945   3.192   3.566
 5477SOL    HW217331   2.097   3.177   3.509
 5478SOL     OW17332   5.068   5.835   6.093
 5478SOL    HW117333   5.018   5.793   6.170
 5478SOL    HW217334   5.062   5.934   6.101
 5479SOL     OW17335   4.813   0.467   4.369
 5479SOL    HW117336   4.772   0.387   4.325
 5479SOL    HW217337   4.805   0.547   4.310
 5480SOL     OW17338   0.928   4.221   4.770
 5480SOL    HW117339   0.912   4.133   4.814
 5480SOL    HW217340   0.855   4.240   4.705
 5481SOL     OW17341   3.431   0.154   4.739
 5481SOL    HW117342   3.511   0.161   4.679
 5481SOL    HW217343   3.433   0.066   4.787
 5482SOL     OW17344   3.579   4.508   1.628
 5482SOL    HW117345   3.542   4.553   1.710
 5482SOL    HW217346   3.665   4.463   1.651
 5483SOL     OW17347   0.507   2.536   6.110
 5483SOL    HW117348   0.571   2.460   6.126
 5483SOL    HW217349   0.438   2.507   6.043
 5484SOL     OW17350   4.512   0.351   4.531
 5484SOL    HW117351   4.479   0.444   4.547
 5484SOL    HW217352   4.599   0.338   4.579
 5485SOL     OW17353   2.555   6.205   5.499
 5485SOL    HW117354   2.600   6.151   5.428
 5485SOL    HW217355   2.459   6.179   5.505
 5486SOL     OW17356   2.711   5.832   4.740
 5486SOL    HW117357   2.785   5.896   4.762
 5486SOL    HW217358   2.657   5.868   4.664
 5487SOL     OW17359   2.579   4.610   5.859
 5487SOL    HW117360   2.500   4.659   5.822
 5487SOL    HW217361   2.660   4.631   5.804
 5488SOL     OW17362   5.681   1.290   0.478
 5488SOL    HW117363   5.599   1.271   0.533
 5488SOL    HW217364   5.657   1.353   0.404
 5489SOL     OW17365   6.844   3.312   1.903
 5489SOL    HW117366   6.885   3.392   1.948
 5489SOL    HW217367   6.768   3.279   1.958
 5490SOL     OW17368   1.045   6.847   2.975
 5490SOL    HW117369   1.120   6.859   3.041
 5490SOL    HW217370   1.051   6.756   2.934
 5491SOL     OW17371   6.966   3.190   0.870
 5491SOL    HW117372   6.927   3.283   0.874
 5491SOL    HW217373   0.010   3.180   0.941
 5492SOL     OW17374   0.417   1.950   5.745
 5492SOL    HW117375   0.477   2.027   5.767
 5492SOL    HW217376   0.330   1.985   5.711
 5493SOL     OW17377   4.279   3.655   1.759
 5493SOL    HW117378   4.213   3.623   1.691
 5493SOL    HW217379   4.230   3.686   1.841
 5494SOL     OW17380   5.936   4.257   5.190
 5494SOL    HW117381   5.963   4.174   5.238
 5494SOL    HW217382   5.942   4.335   5.252
 5495SOL     OW17383   6.103   0.566   0.647
 5495SOL    HW117384   6.121   0.601   0.555
 5495SOL    HW217385   6.154   0.482   0.661
 5496SOL     OW17386   4.140   0.801   4.570
 5496SOL    HW117387   4.233   0.827   4.543
 5496SOL    HW217388   4.087   0.779   4.489
 5497SOL     OW17389   0.888   1.176   6.283
 5497SOL    HW117390   0.982   1.170   6.319
 5497SOL    HW217391   0.873   1.101   6.218
 5498SOL     OW17392   0.974   4.964   1.929
 5498SOL    HW117393   0.929   4.981   2.017
 5498SOL    HW217394   1.062   5.012   1.927
 5499SOL     OW17395   0.570   0.244   4.913
 5499SOL    HW117396   0.534   0.170   4.971
 5499SOL    HW217397   0.658   0.216   4.874
 5500SOL     OW17398   2.322   0.693   0.453
 5500SOL    HW117399   2.294   0.647   0.368
 5500SOL    HW217400   2.341   0.625   0.523
 5501SOL     OW17401   3.653   2.257   0.059
 5501SOL    HW117402   3.686   2.322   0.127
 5501SOL    HW217403   3.729   2.199   0.028
 5502SOL     OW17404   4.382   2.381   0.028
 5502SOL    HW117405   4.466   2.398   0.080
 5502SOL    HW217406   4.405   2.347   6.962
 5503SOL     OW17407   0.513   3.488   0.249
 5503SOL    HW117408   0.588   3.425   0.269
 5503SOL    HW217409   0.482   3.474   0.155
 5504SOL     OW17410   3.719   0.778   6.813
 5504SOL    HW117411   3.681   0.818   6.729
 5504SOL    HW217412   3.647   0.726   6.859
 5505SOL     OW17413   2.493   4.573   4.538
 5505SOL    HW117414   2.471   4.540   4.630
 5505SOL    HW217415   2.478   4.672   4.534
 5506SOL     OW17416   0.229   3.734   6.136
 5506SOL    HW117417   0.255   3.654   6.190
 5506SOL    HW217418   0.157   3.785   6.184
 5507SOL     OW17419   3.050   0.150   6.526
 5507SOL    HW117420   2.952   0.127   6.521
 5507SOL    HW217421   3.075   0.207   6.448
 5508SOL     OW17422   0.490   1.030   6.733
 5508SOL    HW117423   0.445   0.941   6.744
 5508SOL    HW217424   0.543   1.051   6.815
 5509SOL     OW17425   6.762   5.742   0.417
 5509SOL    HW117426   6.704   5.807   0.368
 5509SOL    HW217427   6.737   5.740   0.513
 5510SOL     OW17428   4.111   5.435   6.846
 5510SOL    HW117429   4.181   5.410   6.912
 5510SOL    HW217430   4.034   5.478   6.894
 5511SOL     OW17431   0.373   1.334   5.473
 5511SOL    HW117432   0.431   1.393   5.418
 5511SOL    HW217433   0.412   1.241   5.476
 5512SOL     OW17434   4.137   0.753   2.161
 5512SOL    HW117435   4.145   0.785   2.067
 5512SOL    HW217436   4.221   0.775   2.211
 5513SOL     OW17437   4.152   4.993   6.678
 5513SOL    HW117438   4.078   4.971   6.741
 5513SOL    HW217439   4.186   4.910   6.634
 5514SOL     OW17440   2.917   0.293   6.163
 5514SOL    HW117441   2.833   0.339   6.134
 5514SOL    HW217442   2.949   0.334   6.249
 5515SOL     OW17443   2.317   6.010   2.151
 5515SOL    HW117444   2.384   5.942   2.182
 5515SOL    HW217445   2.242   6.015   2.216
 5516SOL     OW17446   2.424   2.698   5.078
 5516SOL    HW117447   2.440   2.703   5.177
 5516SOL    HW217448   2.430   2.789   5.038
 5517SOL     OW17449   1.918   3.597   3.041
 5517SOL    HW117450   1.947   3.667   2.976
 5517SOL    HW217451   1.996   3.540   3.066
 5518SOL     OW17452   4.650   4.499   5.616
 5518SOL    HW117453   4.558   4.529   5.593
 5518SOL    HW217454   4.668   4.410   5.575
 5519SOL     OW17455   4.661   2.453   3.696
 5519SOL    HW117456   4.696   2.360   3.690
 5519SOL    HW217457   4.677   2.489   3.788
 5520SOL     OW17458   5.408   6.664   2.015
 5520SOL    HW117459   5.384   6.760   1.999
 5520SOL    HW217460   5.326   6.607   2.009
 5521SOL     OW17461   5.898   5.936   1.673
 5521SOL    HW117462   5.909   5.925   1.574
 5521SOL    HW217463   5.899   5.845   1.716
 5522SOL     OW17464   6.303   5.621   0.917
 5522SOL    HW117465   6.296   5.529   0.954
 5522SOL    HW217466   6.389   5.662   0.945
 5523SOL     OW17467   5.763   1.023   2.231
 5523SOL    HW117468   5.727   0.933   2.207
 5523SOL    HW217469   5.806   1.064   2.151
 5524SOL     OW17470   3.075   0.658   4.559
 5524SOL    HW117471   3.079   0.646   4.658
 5524SOL    HW217472   2.986   0.696   4.533
 5525SOL     OW17473   6.500   2.203   1.476
 5525SOL    HW117474   6.552   2.154   1.546
 5525SOL    HW217475   6.469   2.290   1.512
 5526SOL     OW17476   4.689   5.020   3.223
 5526SOL    HW117477   4.698   4.973   3.135
 5526SOL    HW217478   4.644   5.108   3.209
 5527SOL     OW17479   5.852   2.212   3.739
 5527SOL    HW117480   5.808   2.275   3.803
 5527SOL    HW217481   5.850   2.252   3.647
 5528SOL     OW17482   1.154   2.067   1.349
 5528SOL    HW117483   1.238   2.107   1.385
 5528SOL    HW217484   1.165   1.968   1.342
 5529SOL     OW17485   3.902   0.636   2.168
 5529SOL    HW117486   3.995   0.669   2.150
 5529SOL    HW217487   3.879   0.651   2.264
 5530SOL     OW17488   6.704   2.316   1.308
 5530SOL    HW117489   6.626   2.255   1.325
 5530SOL    HW217490   6.766   2.313   1.385
 5531SOL     OW17491   3.179   4.143   1.372
 5531SOL    HW117492   3.165   4.083   1.451
 5531SOL    HW217493   3.117   4.221   1.378
 5532SOL     OW17494   1.595   3.281   1.448
 5532SOL    HW117495   1.556   3.367   1.413
 5532SOL    HW217496   1.694   3.280   1.433
 5533SOL     OW17497   4.187   1.487   3.825
 5533SOL    HW117498   4.090   1.496   3.846
 5533SOL    HW217499   4.201   1.497   3.727
 5534SOL     OW17500   0.808   1.324   4.946
 5534SOL    HW117501   0.781   1.231   4.968
 5534SOL    HW217502   0.904   1.324   4.918
 5535SOL     OW17503   0.979   1.901   3.430
 5535SOL    HW117504   1.008   1.829   3.494
 5535SOL    HW217505   1.011   1.989   3.463
 5536SOL     OW17506   3.522   0.395   4.485
 5536SOL    HW117507   3.521   0.493   4.507
 5536SOL    HW217508   3.517   0.383   4.386
 5537SOL     OW17509   3.441   1.035   3.141
 5537SOL    HW117510   3.443   1.127   3.180
 5537SOL    HW217511   3.535   1.004   3.123
 5538SOL     OW17512   4.610   5.822   4.394
 5538SOL    HW117513   4.586   5.731   4.429
 5538SOL    HW217514   4.699   5.817   4.348
 5539SOL     OW17515   2.920   3.506   0.576
 5539SOL    HW117516   2.996   3.568   0.596
 5539SOL    HW217517   2.869   3.487   0.660
 5540SOL     OW17518   5.431   4.665   2.294
 5540SOL    HW117519   5.399   4.599   2.362
 5540SOL    HW217520   5.490   4.733   2.339
 5541SOL     OW17521   4.586   1.212   5.417
 5541SOL    HW117522   4.561   1.122   5.451
 5541SOL    HW217523   4.503   1.267   5.404
 5542SOL     OW17524   4.564   4.251   5.887
 5542SOL    HW117525   4.616   4.269   5.970
 5542SOL    HW217526   4.533   4.338   5.848
 5543SOL     OW17527   6.605   2.644   5.768
 5543SOL    HW117528   6.660   2.696   5.832
 5543SOL    HW217529   6.518   2.619   5.810
 5544SOL     OW17530   5.784   1.165   5.985
 5544SOL    HW117531   5.758   1.108   5.907
 5544SOL    HW217532   5.730   1.249   5.984
 5545SOL     OW17533   2.998   2.166   2.270
 5545SOL    HW117534   2.983   2.074   2.233
 5545SOL    HW217535   2.959   2.234   2.208
 5546SOL     OW17536   1.893   4.903   5.913
 5546SOL    HW117537   1.974   4.866   5.958
 5546SOL    HW217538   1.906   4.902   5.814
 5547SOL     OW17539   3.722   5.759   4.682
 5547SOL    HW117540   3.657   5.728   4.751
 5547SOL    HW217541   3.777   5.682   4.651
 5548SOL     OW17542   6.507   3.345   5.602
 5548SOL    HW117543   6.492   3.360   5.699
 5548SOL    HW217544   6.455   3.265   5.572
 5549SOL     OW17545   2.478   4.823   6.745
 5549SOL    HW117546   2.469   4.869   6.833
 5549SOL    HW217547   2.391   4.781   6.720
 5550SOL     OW17548   4.383   6.166   1.477
 5550SOL    HW117549   4.303   6.123   1.519
 5550SOL    HW217550   4.431   6.221   1.546
 5551SOL     OW17551   0.609   1.402   3.126
 5551SOL    HW117552   0.642   1.466   3.057
 5551SOL    HW217553   0.631   1.308   3.098
 5552SOL     OW17554   0.063   2.542   1.954
 5552SOL    HW117555   0.072   2.552   2.053
 5552SOL    HW217556   0.116   2.613   1.909
 5553SOL     OW17557   4.807   5.918   0.487
 5553SOL    HW117558   4.826   5.982   0.561
 5553SOL    HW217559   4.789   5.969   0.402
 5554SOL     OW17560   3.042   2.004   4.652
 5554SOL    HW117561   3.129   2.042   4.683
 5554SOL    HW217562   2.991   1.968   4.729
 5555SOL     OW17563   0.153   5.800   2.749
 5555SOL    HW117564   0.198   5.712   2.729
 5555SOL    HW217565   0.174   5.865   2.677
 5556SOL     OW17566   0.171   1.096   4.831
 5556SOL    HW117567   0.104   1.023   4.827
 5556SOL    HW217568   0.204   1.106   4.925
 5557SOL     OW17569   2.462   0.067   3.600
 5557SOL    HW117570   2.392   0.025   3.658
 5557SOL    HW217571   2.447   0.041   3.505
 5558SOL     OW17572   5.312   2.896   4.810
 5558SOL    HW117573   5.285   2.905   4.905
 5558SOL    HW217574   5.321   2.800   4.786
 5559SOL     OW17575   2.061   0.756   1.288
 5559SOL    HW117576   1.965   0.740   1.265
 5559SOL    HW217577   2.068   0.786   1.383
 5560SOL     OW17578   0.318   0.620   4.359
 5560SOL    HW117579   0.333   0.682   4.436
 5560SOL    HW217580   0.233   0.646   4.312
 5561SOL     OW17581   1.438   3.383   3.803
 5561SOL    HW117582   1.432   3.312   3.873
 5561SOL    HW217583   1.479   3.345   3.720
 5562SOL     OW17584   2.427   2.473   5.701
 5562SOL    HW117585   2.492   2.397   5.708
 5562SOL    HW217586   2.440   2.535   5.778
 5563SOL     OW17587   4.272   5.322   1.443
 5563SOL    HW117588   4.347   5.388   1.449
 5563SOL    HW217589   4.270   5.283   1.350
 5564SOL     OW17590   5.583   4.417   1.767
 5564SOL    HW117591   5.551   4.510   1.750
 5564SOL    HW217592   5.505   4.355   1.771
 5565SOL     OW17593   3.103   3.586   5.706
 5565SOL    HW117594   3.198   3.616   5.692
 5565SOL    HW217595   3.043   3.667   5.708
 5566SOL     OW17596   2.107   4.757   1.336
 5566SOL    HW117597   2.097   4.814   1.418
 5566SOL    HW217598   2.131   4.664   1.363
 5567SOL     OW17599   1.517   5.612   2.270
 5567SOL    HW117600   1.563   5.558   2.199
 5567SOL    HW217601   1.531   5.568   2.359
 5568SOL     OW17602   3.275   2.273   1.546
 5568SOL    HW117603   3.281   2.173   1.548
 5568SOL    HW217604   3.199   2.301   1.488
 5569SOL     OW17605   5.672   1.679   0.020
 5569SOL    HW117606   5.744   1.643   6.986
 5569SOL    HW217607   5.628   1.757   6.999
 5570SOL     OW17608   6.634   4.517   6.222
 5570SOL    HW117609   6.591   4.526   6.131
 5570SOL    HW217610   6.563   4.505   6.291
 5571SOL     OW17611   6.832   4.650   5.934
 5571SOL    HW117612   6.870   4.661   6.026
 5571SOL    HW217613   6.750   4.707   5.925
 5572SOL     OW17614   5.040   2.868   5.864
 5572SOL    HW117615   5.063   2.798   5.931
 5572SOL    HW217616   5.121   2.925   5.846
 5573SOL     OW17617   0.818   4.151   0.753
 5573SOL    HW117618   0.896   4.109   0.800
 5573SOL    HW217619   0.841   4.245   0.728
 5574SOL     OW17620   0.171   5.915   4.691
 5574SOL    HW117621   0.175   5.827   4.739
 5574SOL    HW217622   0.232   5.913   4.612
 5575SOL     OW17623   2.031   1.169   1.017
 5575SOL    HW117624   2.073   1.122   0.939
 5575SOL    HW217625   1.937   1.193   0.994
 5576SOL     OW17626   6.301   6.104   6.135
 5576SOL    HW117627   6.401   6.101   6.143
 5576SOL    HW217628   6.271   6.199   6.132
 5577SOL     OW17629   2.101   3.825   5.203
 5577SOL    HW117630   2.085   3.923   5.188
 5577SOL    HW217631   2.194   3.812   5.237
 5578SOL     OW17632   3.957   2.326   6.108
 5578SOL    HW117633   3.987   2.419   6.125
 5578SOL    HW217634   4.026   2.278   6.053
 5579SOL     OW17635   5.210   5.010   0.460
 5579SOL    HW117636   5.156   5.074   0.405
 5579SOL    HW217637   5.152   4.935   0.490
 5580SOL     OW17638   5.745   1.356   0.927
 5580SOL    HW117639   5.706   1.325   1.013
 5580SOL    HW217640   5.753   1.456   0.929
 5581SOL     OW17641   2.845   2.386   7.022
 5581SOL    HW117642   2.926   2.332   0.017
 5581SOL    HW217643   2.777   2.373   0.070
 5582SOL     OW17644   3.820   3.326   3.579
 5582SOL    HW117645   3.790   3.286   3.493
 5582SOL    HW217646   3.873   3.409   3.560
 5583SOL     OW17647   3.975   0.683   0.485
 5583SOL    HW117648   3.975   0.609   0.419
 5583SOL    HW217649   3.978   0.646   0.578
 5584SOL     OW17650   5.844   3.084   3.330
 5584SOL    HW117651   5.941   3.075   3.353
 5584SOL    HW217652   5.827   3.178   3.299
 5585SOL     OW17653   6.466   0.016   4.179
 5585SOL    HW117654   6.401   0.007   4.104
 5585SOL    HW217655   6.437   6.983   4.255
 5586SOL     OW17656   2.249   1.293   6.706
 5586SOL    HW117657   2.263   1.323   6.612
 5586SOL    HW217658   2.231   1.195   6.708
 5587SOL     OW17659   3.725   0.051   3.977
 5587SOL    HW117660   3.681   0.056   3.888
 5587SOL    HW217661   3.680   0.114   4.040
 5588SOL     OW17662   4.219   0.260   6.347
 5588SOL    HW117663   4.136   0.205   6.339
 5588SOL    HW217664   4.299   0.202   6.336
 5589SOL     OW17665   3.803   3.163   6.341
 5589SOL    HW117666   3.729   3.100   6.318
 5589SOL    HW217667   3.856   3.182   6.258
 5590SOL     OW17668   7.001   6.720   3.259
 5590SOL    HW117669   0.073   6.696   3.251
 5590SOL    HW217670   6.972   6.706   3.354
 5591SOL     OW17671   5.053   0.803   0.192
 5591SOL    HW117672   5.087   0.889   0.153
 5591SOL    HW217673   4.969   0.820   0.243
 5592SOL     OW17674   2.081   1.561   2.847
 5592SOL    HW117675   2.050   1.502   2.921
 5592SOL    HW217676   2.009   1.628   2.826
 5593SOL     OW17677   1.341   3.260   5.157
 5593SOL    HW117678   1.278   3.337   5.152
 5593SOL    HW217679   1.407   3.266   5.083
 5594SOL     OW17680   2.776   0.616   6.485
 5594SOL    HW117681   2.816   0.708   6.486
 5594SOL    HW217682   2.693   0.615   6.540
 5595SOL     OW17683   0.313   1.383   4.992
 5595SOL    HW117684   0.294   1.287   5.012
 5595SOL    HW217685   0.396   1.390   4.937
 5596SOL     OW17686   4.720   1.768   2.811
 5596SOL    HW117687   4.766   1.832   2.750
 5596SOL    HW217688   4.671   1.819   2.882
 5597SOL     OW17689   0.154   1.252   6.065
 5597SOL    HW117690   0.224   1.193   6.026
 5597SOL    HW217691   0.197   1.331   6.110
 5598SOL     OW17692   6.716   2.304   3.923
 5598SOL    HW117693   6.765   2.358   3.854
 5598SOL    HW217694   6.664   2.232   3.877
 5599SOL     OW17695   4.720   2.856   3.408
 5599SOL    HW117696   4.791   2.910   3.453
 5599SOL    HW217697   4.657   2.819   3.477
 5600SOL     OW17698   2.538   1.440   2.144
 5600SOL    HW117699   2.465   1.447   2.076
 5600SOL    HW217700   2.563   1.344   2.156
 5601SOL     OW17701   6.048   2.753   5.615
 5601SOL    HW117702   6.052   2.688   5.539
 5601SOL    HW217703   6.140   2.778   5.642
 5602SOL     OW17704   6.587   2.389   2.907
 5602SOL    HW117705   6.667   2.353   2.859
 5602SOL    HW217706   6.542   2.459   2.850
 5603SOL     OW17707   4.364   0.899   5.473
 5603SOL    HW117708   4.324   0.811   5.447
 5603SOL    HW217709   4.458   0.885   5.504
 5604SOL     OW17710   1.134   0.031   3.927
 5604SOL    HW117711   1.150   7.018   3.836
 5604SOL    HW217712   1.206   0.097   3.948
 5605SOL     OW17713   4.590   6.240   4.400
 5605SOL    HW117714   4.652   6.188   4.342
 5605SOL    HW217715   4.499   6.200   4.397
 5606SOL     OW17716   4.584   2.811   0.563
 5606SOL    HW117717   4.532   2.858   0.634
 5606SOL    HW217718   4.521   2.769   0.498
 5607SOL     OW17719   6.151   2.374   2.799
 5607SOL    HW117720   6.221   2.444   2.810
 5607SOL    HW217721   6.194   2.285   2.784
 5608SOL     OW17722   4.896   0.631   3.394
 5608SOL    HW117723   4.901   0.727   3.366
 5608SOL    HW217724   4.987   0.598   3.417
 5609SOL     OW17725   0.003   0.194   0.815
 5609SOL    HW117726   6.958   0.134   0.854
 5609SOL    HW217727   6.988   0.283   0.795
 5610SOL     OW17728   5.048   4.994   1.509
 5610SOL    HW117729   5.037   5.022   1.414
 5610SOL    HW217730   4.976   5.035   1.565
 5611SOL     OW17731   6.320   5.193   1.839
 5611SOL    HW117732   6.302   5.120   1.773
 5611SOL    HW217733   6.368   5.155   1.918
 5612SOL     OW17734   3.691   1.614   0.908
 5612SOL    HW117735   3.711   1.678   0.982
 5612SOL    HW217736   3.641   1.536   0.944
 5613SOL     OW17737   5.496   4.612   6.054
 5613SOL    HW117738   5.504   4.613   6.154
 5613SOL    HW217739   5.466   4.702   6.023
 5614SOL     OW17740   5.132   3.528   3.762
 5614SOL    HW117741   5.128   3.520   3.861
 5614SOL    HW217742   5.059   3.590   3.731
 5615SOL     OW17743   6.897   2.436   3.124
 5615SOL    HW117744   6.992   2.430   3.156
 5615SOL    HW217745   6.883   2.369   3.051
 5616SOL     OW17746   1.551   3.226   2.374
 5616SOL    HW117747   1.484   3.167   2.420
 5616SOL    HW217748   1.640   3.181   2.374
 5617SOL     OW17749   1.955   5.136   6.034
 5617SOL    HW117750   2.012   5.179   5.964
 5617SOL    HW217751   1.899   5.064   5.992
 5618SOL     OW17752   5.543   6.562   2.546
 5618SOL    HW117753   5.532   6.467   2.518
 5618SOL    HW217754   5.535   6.622   2.466
 5619SOL     OW17755   3.886   2.959   3.659
 5619SOL    HW117756   3.875   2.893   3.585
 5619SOL    HW217757   3.852   2.919   3.744
 5620SOL     OW17758   4.849   4.219   4.847
 5620SOL    HW117759   4.864   4.122   4.831
 5620SOL    HW217760   4.801   4.259   4.769
 5621SOL     OW17761   0.644   2.177   6.168
 5621SOL    HW117762   0.705   2.144   6.240
 5621SOL    HW217763   0.687   2.256   6.123
 5622SOL     OW17764   4.801   5.997   3.708
 5622SOL    HW117765   4.776   5.919   3.765
 5622SOL    HW217766   4.833   5.964   3.619
 5623SOL     OW17767   5.086   5.177   4.205
 5623SOL    HW117768   5.109   5.273   4.192
 5623SOL    HW217769   5.001   5.155   4.158
 5624SOL     OW17770   5.682   5.167   3.261
 5624SOL    HW117771   5.778   5.185   3.280
 5624SOL    HW217772   5.635   5.253   3.238
 5625SOL     OW17773   1.739   6.087   5.612
 5625SOL    HW117774   1.708   6.017   5.547
 5625SOL    HW217775   1.822   6.057   5.657
 5626SOL     OW17776   0.924   4.759   6.321
 5626SOL    HW117777   1.015   4.719   6.312
 5626SOL    HW217778   0.893   4.792   6.232
 5627SOL     OW17779   0.826   5.444   0.215
 5627SOL    HW117780   0.922   5.474   0.220
 5627SOL    HW217781   0.776   5.480   0.293
 5628SOL     OW17782   2.803   3.447   0.803
 5628SOL    HW117783   2.724   3.389   0.783
 5628SOL    HW217784   2.880   3.389   0.828
 5629SOL     OW17785   5.794   3.500   2.683
 5629SOL    HW117786   5.854   3.498   2.602
 5629SOL    HW217787   5.825   3.430   2.748
 5630SOL     OW17788   1.119   3.960   6.429
 5630SOL    HW117789   1.125   3.974   6.331
 5630SOL    HW217790   1.194   4.008   6.475
 5631SOL     OW17791   3.624   1.707   1.939
 5631SOL    HW117792   3.719   1.719   1.908
 5631SOL    HW217793   3.578   1.795   1.940
 5632SOL     OW17794   4.989   6.986   5.696
 5632SOL    HW117795   4.987   6.949   5.603
 5632SOL    HW217796   4.989   0.061   5.692
 5633SOL     OW17797   0.835   4.833   5.305
 5633SOL    HW117798   0.892   4.905   5.265
 5633SOL    HW217799   0.862   4.744   5.269
 5634SOL     OW17800   2.228   0.520   1.279
 5634SOL    HW117801   2.200   0.469   1.360
 5634SOL    HW217802   2.195   0.614   1.286
 5635SOL     OW17803   2.738   0.419   0.869
 5635SOL    HW117804   2.738   0.322   0.841
 5635SOL    HW217805   2.829   0.443   0.904
 5636SOL     OW17806   5.236   1.510   5.515
 5636SOL    HW117807   5.155   1.461   5.483
 5636SOL    HW217808   5.313   1.491   5.454
 5637SOL     OW17809   5.065   6.675   4.641
 5637SOL    HW117810   5.146   6.619   4.628
 5637SOL    HW217811   4.989   6.639   4.586
 5638SOL     OW17812   6.135   4.979   1.029
 5638SOL    HW117813   6.068   5.003   0.959
 5638SOL    HW217814   6.193   4.904   0.996
 5639SOL     OW17815   2.211   0.610   1.712
 5639SOL    HW117816   2.225   0.633   1.808
 5639SOL    HW217817   2.219   0.693   1.656
 5640SOL     OW17818   2.983   6.697   2.761
 5640SOL    HW117819   3.021   6.784   2.730
 5640SOL    HW217820   2.913   6.666   2.698
 5641SOL     OW17821   7.010   4.312   3.937
 5641SOL    HW117822   6.954   4.314   3.854
 5641SOL    HW217823   0.013   4.218   3.956
 5642SOL     OW17824   1.711   4.214   0.038
 5642SOL    HW117825   1.723   4.287   6.996
 5642SOL    HW217826   1.622   4.171   0.025
 5643SOL     OW17827   4.787   2.215   5.179
 5643SOL    HW117828   4.710   2.254   5.229
 5643SOL    HW217829   4.772   2.117   5.165
 5644SOL     OW17830   4.423   1.147   4.601
 5644SOL    HW117831   4.484   1.158   4.680
 5644SOL    HW217832   4.348   1.213   4.607
 5645SOL     OW17833   6.310   5.558   4.039
 5645SOL    HW117834   6.309   5.647   3.995
 5645SOL    HW217835   6.248   5.495   3.990
 5646SOL     OW17836   0.299   5.877   4.465
 5646SOL    HW117837   0.278   5.950   4.400
 5646SOL    HW217838   0.233   5.803   4.455
 5647SOL     OW17839   5.540   5.005   6.276
 5647SOL    HW117840   5.467   5.070   6.256
 5647SOL    HW217841   5.596   4.992   6.194
 5648SOL     OW17842   2.242   1.689   5.114
 5648SOL    HW117843   2.299   1.768   5.089
 5648SOL    HW217844   2.282   1.643   5.193
 5649SOL     OW17845   0.871   0.760   5.658
 5649SOL    HW117846   0.954   0.798   5.618
 5649SOL    HW217847   0.895   0.696   5.731
 5650SOL     OW17848   6.423   4.844   0.142
 5650SOL    HW117849   6.383   4.880   0.057
 5650SOL    HW217850   6.388   4.752   0.159
 5651SOL     OW17851   6.409   1.068   2.670
 5651SOL    HW117852   6.477   1.141   2.667
 5651SOL    HW217853   6.322   1.105   2.703
 5652SOL     OW17854   4.966   4.842   0.534
 5652SOL    HW117855   5.018   4.770   0.582
 5652SOL    HW217856   4.936   4.807   0.445
 5653SOL     OW17857   1.807   6.364   6.300
 5653SOL    HW117858   1.808   6.394   6.204
 5653SOL    HW217859   1.716   6.330   6.323
 5654SOL     OW17860   0.935   5.874   5.645
 5654SOL    HW117861   0.928   5.951   5.708
 5654SOL    HW217862   1.022   5.828   5.657
 5655SOL     OW17863   7.013   3.444   3.631
 5655SOL    HW117864   0.005   3.448   3.533
 5655SOL    HW217865   6.934   3.385   3.649
 5656SOL     OW17866   3.091   4.509   6.767
 5656SOL    HW117867   3.149   4.446   6.715
 5656SOL    HW217868   3.137   4.598   6.773
 5657SOL     OW17869   4.108   6.042   1.985
 5657SOL    HW117870   4.177   6.106   2.018
 5657SOL    HW217871   4.105   5.962   2.046
 5658SOL     OW17872   4.913   6.817   5.444
 5658SOL    HW117873   4.813   6.819   5.437
 5658SOL    HW217874   4.953   6.838   5.355
 5659SOL     OW17875   3.849   3.626   2.780
 5659SOL    HW117876   3.853   3.535   2.737
 5659SOL    HW217877   3.818   3.693   2.713
 5660SOL     OW17878   5.817   6.513   0.758
 5660SOL    HW117879   5.744   6.571   0.791
 5660SOL    HW217880   5.832   6.529   0.660
 5661SOL     OW17881   6.446   5.660   4.300
 5661SOL    HW117882   6.425   5.617   4.213
 5661SOL    HW217883   6.415   5.600   4.375
 5662SOL     OW17884   2.336   4.248   4.475
 5662SOL    HW117885   2.337   4.266   4.377
 5662SOL    HW217886   2.417   4.290   4.517
 5663SOL     OW17887   1.036   4.097   0.377
 5663SOL    HW117888   1.019   4.157   0.299
 5663SOL    HW217889   1.104   4.028   0.351
 5664SOL     OW17890   0.588   4.803   2.697
 5664SOL    HW117891   0.532   4.721   2.687
 5664SOL    HW217892   0.604   4.844   2.607
 5665SOL     OW17893   2.498   2.369   6.104
 5665SOL    HW117894   2.565   2.345   6.174
 5665SOL    HW217895   2.406   2.366   6.143
 5666SOL     OW17896   5.848   5.613   0.448
 5666SOL    HW117897   5.895   5.568   0.524
 5666SOL    HW217898   5.786   5.683   0.484
 5667SOL     OW17899   0.269   5.268   3.462
 5667SOL    HW117900   0.249   5.231   3.553
 5667SOL    HW217901   0.348   5.220   3.423
 5668SOL     OW17902   6.237   2.528   5.620
 5668SOL    HW117903   6.189   2.451   5.663
 5668SOL    HW217904   6.296   2.572   5.687
 5669SOL     OW17905   6.783   3.454   6.056
 5669SOL    HW117906   6.824   3.454   5.964
 5669SOL    HW217907   6.802   3.541   6.101
 5670SOL     OW17908   1.051   4.343   3.748
 5670SOL    HW117909   1.094   4.285   3.679
 5670SOL    HW217910   0.958   4.366   3.720
 5671SOL     OW17911   1.704   1.474   5.890
 5671SOL    HW117912   1.726   1.380   5.913
 5671SOL    HW217913   1.770   1.536   5.932
 5672SOL     OW17914   5.226   5.116   5.614
 5672SOL    HW117915   5.144   5.059   5.612
 5672SOL    HW217916   5.306   5.060   5.592
 5673SOL     OW17917   0.807   0.593   2.066
 5673SOL    HW117918   0.863   0.650   2.005
 5673SOL    HW217919   0.727   0.645   2.095
 5674SOL     OW17920   6.976   3.524   1.474
 5674SOL    HW117921   6.944   3.449   1.531
 5674SOL    HW217922   6.974   3.496   1.378
 5675SOL     OW17923   4.076   2.554   5.651
 5675SOL    HW117924   4.152   2.530   5.592
 5675SOL    HW217925   4.108   2.560   5.746
 5676SOL     OW17926   2.981   0.507   1.606
 5676SOL    HW117927   3.050   0.471   1.544
 5676SOL    HW217928   2.917   0.565   1.555
 5677SOL     OW17929   6.887   0.215   4.108
 5677SOL    HW117930   6.949   0.175   4.176
 5677SOL    HW217931   6.941   0.249   4.031
 5678SOL     OW17932   1.683   5.418   3.295
 5678SOL    HW117933   1.660   5.353   3.368
 5678SOL    HW217934   1.768   5.466   3.319
 5679SOL     OW17935   1.767   6.161   5.064
 5679SOL    HW117936   1.751   6.235   5.130
 5679SOL    HW217937   1.850   6.181   5.012
 5680SOL     OW17938   2.253   6.754   6.634
 5680SOL    HW117939   2.156   6.731   6.623
 5680SOL    HW217940   2.264   6.814   6.713
 5681SOL     OW17941   1.059   3.305   0.399
 5681SOL    HW117942   1.030   3.368   0.471
 5681SOL    HW217943   1.158   3.315   0.384
 5682SOL     OW17944   1.231   3.547   4.461
 5682SOL    HW117945   1.143   3.580   4.427
 5682SOL    HW217946   1.240   3.449   4.442
 5683SOL     OW17947   3.592   2.577   5.356
 5683SOL    HW117948   3.636   2.633   5.286
 5683SOL    HW217949   3.493   2.588   5.351
 5684SOL     OW17950   3.182   3.957   3.489
 5684SOL    HW117951   3.249   4.016   3.533
 5684SOL    HW217952   3.203   3.947   3.392
 5685SOL     OW17953   0.178   5.256   2.050
 5685SOL    HW117954   0.127   5.250   1.964
 5685SOL    HW217955   0.270   5.290   2.032
 5686SOL     OW17956   3.483   6.663   6.595
 5686SOL    HW117957   3.464   6.688   6.690
 5686SOL    HW217958   3.397   6.645   6.547
 5687SOL     OW17959   5.110   5.430   5.967
 5687SOL    HW117960   5.154   5.450   5.880
 5687SOL    HW217961   5.076   5.336   5.966
 5688SOL     OW17962   5.762   1.894   1.382
 5688SOL    HW117963   5.725   1.952   1.455
 5688SOL    HW217964   5.860   1.885   1.393
 5689SOL     OW17965   3.197   2.737   0.719
 5689SOL    HW117966   3.207   2.787   0.805
 5689SOL    HW217967   3.263   2.663   0.715
 5690SOL     OW17968   4.947   6.533   1.264
 5690SOL    HW117969   4.889   6.598   1.315
 5690SOL    HW217970   4.889   6.462   1.225
 5691SOL     OW17971   1.071   0.219   1.794
 5691SOL    HW117972   1.162   0.242   1.828
 5691SOL    HW217973   1.008   0.294   1.814
 5692SOL     OW17974   5.688   2.780   6.470
 5692SOL    HW117975   5.630   2.728   6.408
 5692SOL    HW217976   5.717   2.866   6.426
 5693SOL     OW17977   4.746   2.732   3.128
 5693SOL    HW117978   4.684   2.655   3.117
 5693SOL    HW217979   4.733   2.772   3.219
 5694SOL     OW17980   0.233   1.903   4.217
 5694SOL    HW117981   0.213   1.978   4.280
 5694SOL    HW217982   0.328   1.911   4.185
 5695SOL     OW17983   1.752   3.014   3.472
 5695SOL    HW117984   1.836   2.967   3.444
 5695SOL    HW217985   1.755   3.109   3.440
 5696SOL     OW17986   3.104   0.423   5.707
 5696SOL    HW117987   3.096   0.370   5.623
 5696SOL    HW217988   3.196   0.464   5.712
 5697SOL     OW17989   6.270   3.139   6.989
 5697SOL    HW117990   6.234   3.083   0.039
 5697SOL    HW217991   6.197   3.161   6.925
 5698SOL     OW17992   0.355   3.918   1.866
 5698SOL    HW117993   0.298   3.836   1.860
 5698SOL    HW217994   0.369   3.956   1.775
 5699SOL     OW17995   6.024   0.975   5.229
 5699SOL    HW117996   5.929   0.962   5.259
 5699SOL    HW217997   6.055   0.895   5.179
 5700SOL     OW17998   1.558   5.559   3.582
 5700SOL    HW117999   1.500   5.627   3.626
 5700SOL    HW218000   1.601   5.501   3.652
 5701SOL     OW18001   6.012   5.624   1.206
 5701SOL    HW118002   5.991   5.551   1.271
 5701SOL    HW218003   5.928   5.670   1.180
 5702SOL     OW18004   2.025   0.682   6.526
 5702SOL    HW118005   1.979   0.593   6.532
 5702SOL    HW218006   2.012   0.732   6.612
 5703SOL     OW18007   4.166   4.157   0.916
 5703SOL    HW118008   4.155   4.068   0.961
 5703SOL    HW218009   4.237   4.150   0.846
 5704SOL     OW18010   3.581   5.188   3.562
 5704SOL    HW118011   3.623   5.177   3.472
 5704SOL    HW218012   3.583   5.284   3.588
 5705SOL     OW18013   6.146   0.821   1.839
 5705SOL    HW118014   6.124   0.917   1.823
 5705SOL    HW218015   6.134   0.770   1.753
 5706SOL     OW18016   1.428   1.364   6.770
 5706SOL    HW118017   1.357   1.426   6.802
 5706SOL    HW218018   1.485   1.411   6.702
 5707SOL     OW18019   2.708   2.154   0.534
 5707SOL    HW118020   2.611   2.136   0.520
 5707SOL    HW218021   2.760   2.124   0.454
 5708SOL     OW18022   5.206   6.562   1.587
 5708SOL    HW118023   5.250   6.521   1.507
 5708SOL    HW218024   5.256   6.537   1.669
 5709SOL     OW18025   1.562   0.250   2.919
 5709SOL    HW118026   1.644   0.239   2.863
 5709SOL    HW218027   1.549   0.347   2.941
 5710SOL     OW18028   2.861   3.501   6.384
 5710SOL    HW118029   2.881   3.538   6.475
 5710SOL    HW218030   2.946   3.492   6.332
 5711SOL     OW18031   4.147   1.164   3.624
 5711SOL    HW118032   4.232   1.210   3.649
 5711SOL    HW218033   4.076   1.187   3.690
 5712SOL     OW18034   7.002   6.004   6.435
 5712SOL    HW118035   0.043   5.965   6.371
 5712SOL    HW218036   7.020   5.971   6.527
 5713SOL     OW18037   6.414   2.002   2.592
 5713SOL    HW118038   6.498   2.005   2.538
 5713SOL    HW218039   6.433   2.033   2.685
 5714SOL     OW18040   1.402   0.637   6.153
 5714SOL    HW118041   1.364   0.648   6.245
 5714SOL    HW218042   1.478   0.701   6.140
 5715SOL     OW18043   1.186   6.245   3.272
 5715SOL    HW118044   1.250   6.177   3.305
 5715SOL    HW218045   1.197   6.330   3.324
 5716SOL     OW18046   2.276   3.596   6.217
 5716SOL    HW118047   2.289   3.624   6.121
 5716SOL    HW218048   2.194   3.640   6.253
 5717SOL     OW18049   1.008   3.760   0.830
 5717SOL    HW118050   1.024   3.857   0.812
 5717SOL    HW218051   1.094   3.718   0.859
 5718SOL     OW18052   2.333   4.371   5.658
 5718SOL    HW118053   2.349   4.413   5.569
 5718SOL    HW218054   2.380   4.282   5.662
 5719SOL     OW18055   3.503   0.912   6.453
 5719SOL    HW118056   3.465   0.888   6.542
 5719SOL    HW218057   3.580   0.852   6.432
 5720SOL     OW18058   1.178   4.822   4.540
 5720SOL    HW118059   1.239   4.754   4.500
 5720SOL    HW218060   1.231   4.892   4.588
 5721SOL     OW18061   0.641   4.121   1.371
 5721SOL    HW118062   0.705   4.111   1.295
 5721SOL    HW218063   0.569   4.053   1.363
 5722SOL     OW18064   5.571   0.126   4.575
 5722SOL    HW118065   5.576   0.159   4.481
 5722SOL    HW218066   5.645   0.167   4.629
 5723SOL     OW18067   2.588   5.368   0.966
 5723SOL    HW118068   2.491   5.352   0.984
 5723SOL    HW218069   2.642   5.296   1.010
 5724SOL     OW18070   5.163   1.689   6.801
 5724SOL    HW118071   5.163   1.699   6.900
 5724SOL    HW218072   5.245   1.638   6.772
 5725SOL     OW18073   5.063   5.656   6.332
 5725SOL    HW118074   5.126   5.659   6.410
 5725SOL    HW218075   4.984   5.713   6.351
 5726SOL     OW18076   5.386   3.456   6.150
 5726SOL    HW118077   5.357   3.501   6.066
 5726SOL    HW218078   5.322   3.382   6.172
 5727SOL     OW18079   6.202   2.076   3.610
 5727SOL    HW118080   6.195   2.080   3.510
 5727SOL    HW218081   6.116   2.042   3.648
 5728SOL     OW18082   6.152   0.800   5.709
 5728SOL    HW118083   6.110   0.757   5.790
 5728SOL    HW218084   6.243   0.832   5.733
 5729SOL     OW18085   0.466   2.053   6.015
 5729SOL    HW118086   0.524   2.106   6.078
 5729SOL    HW218087   0.485   1.955   6.027
 5730SOL     OW18088   5.378   4.644   5.647
 5730SOL    HW118089   5.300   4.596   5.685
 5730SOL    HW218090   5.448   4.578   5.620
 5731SOL     OW18091   3.335   0.681   3.905
 5731SOL    HW118092   3.368   0.726   3.822
 5731SOL    HW218093   3.237   0.663   3.897
 5732SOL     OW18094   5.644   4.315   4.734
 5732SOL    HW118095   5.655   4.233   4.790
 5732SOL    HW218096   5.707   4.386   4.766
 5733SOL     OW18097   3.486   1.401   0.331
 5733SOL    HW118098   3.496   1.302   0.333
 5733SOL    HW218099   3.534   1.441   0.409
 5734SOL     OW18100   2.413   6.448   5.696
 5734SOL    HW118101   2.476   6.418   5.624
 5734SOL    HW218102   2.403   6.376   5.764
 5735SOL     OW18103   4.412   0.798   1.863
 5735SOL    HW118104   4.395   0.790   1.961
 5735SOL    HW218105   4.466   0.719   1.832
 5736SOL     OW18106   4.859   4.405   6.700
 5736SOL    HW118107   4.939   4.349   6.721
 5736SOL    HW218108   4.882   4.472   6.629
 5737SOL     OW18109   3.992   5.353   0.999
 5737SOL    HW118110   4.087   5.384   1.005
 5737SOL    HW218111   3.932   5.423   1.038
 5738SOL     OW18112   3.367   1.388   6.614
 5738SOL    HW118113   3.348   1.295   6.647
 5738SOL    HW218114   3.281   1.437   6.603
 5739SOL     OW18115   2.203   0.595   5.617
 5739SOL    HW118116   2.279   0.530   5.621
 5739SOL    HW218117   2.129   0.563   5.676
 5740SOL     OW18118   5.396   3.077   2.027
 5740SOL    HW118119   5.344   2.994   2.008
 5740SOL    HW218120   5.371   3.147   1.960
 5741SOL     OW18121   0.104   3.260   4.324
 5741SOL    HW118122   0.165   3.211   4.262
 5741SOL    HW218123   0.146   3.268   4.414
 5742SOL     OW18124   5.020   0.349   3.554
 5742SOL    HW118125   5.004   0.445   3.577
 5742SOL    HW218126   5.118   0.332   3.546
 5743SOL     OW18127   3.989   3.780   5.582
 5743SOL    HW118128   3.897   3.814   5.565
 5743SOL    HW218129   4.031   3.754   5.495
 5744SOL     OW18130   6.075   6.428   2.322
 5744SOL    HW118131   6.021   6.362   2.271
 5744SOL    HW218132   6.168   6.431   2.285
 5745SOL     OW18133   1.947   1.988   2.513
 5745SOL    HW118134   1.986   1.953   2.428
 5745SOL    HW218135   2.010   1.969   2.589
 5746SOL     OW18136   4.348   0.503   3.279
 5746SOL    HW118137   4.331   0.590   3.325
 5746SOL    HW218138   4.443   0.499   3.249
 5747SOL     OW18139   0.636   6.242   1.236
 5747SOL    HW118140   0.543   6.204   1.246
 5747SOL    HW218141   0.702   6.175   1.269
 5748SOL     OW18142   0.664   5.901   0.458
 5748SOL    HW118143   0.712   5.975   0.506
 5748SOL    HW218144   0.588   5.869   0.515
 5749SOL     OW18145   1.963   6.121   5.337
 5749SOL    HW118146   1.996   6.115   5.243
 5749SOL    HW218147   1.884   6.181   5.341
 5750SOL     OW18148   6.464   4.603   3.965
 5750SOL    HW118149   6.413   4.688   3.975
 5750SOL    HW218150   6.406   4.526   3.993
 5751SOL     OW18151   2.007   3.733   4.371
 5751SOL    HW118152   2.044   3.710   4.461
 5751SOL    HW218153   1.961   3.822   4.375
 5752SOL     OW18154   5.094   0.685   0.656
 5752SOL    HW118155   5.030   0.608   0.652
 5752SOL    HW218156   5.096   0.722   0.748
 5753SOL     OW18157   3.178   4.106   4.728
 5753SOL    HW118158   3.260   4.118   4.672
 5753SOL    HW218159   3.109   4.055   4.677
 5754SOL     OW18160   0.877   6.128   1.440
 5754SOL    HW118161   0.976   6.130   1.450
 5754SOL    HW218162   0.851   6.052   1.381
 5755SOL     OW18163   1.641   2.621   6.911
 5755SOL    HW118164   1.719   2.660   6.960
 5755SOL    HW218165   1.566   2.687   6.910
 5756SOL     OW18166   5.644   5.731   1.480
 5756SOL    HW118167   5.575   5.792   1.517
 5756SOL    HW218168   5.664   5.757   1.385
 5757SOL     OW18169   6.278   0.036   3.965
 5757SOL    HW118170   6.189   0.034   4.011
 5757SOL    HW218171   6.277   6.998   3.888
 5758SOL     OW18172   0.568   0.350   2.780
 5758SOL    HW118173   0.617   0.273   2.740
 5758SOL    HW218174   0.476   0.357   2.739
 5759SOL     OW18175   3.351   0.216   0.754
 5759SOL    HW118176   3.358   0.183   0.660
 5759SOL    HW218177   3.426   0.280   0.772
 5760SOL     OW18178   0.515   2.951   1.353
 5760SOL    HW118179   0.462   2.902   1.422
 5760SOL    HW218180   0.612   2.928   1.363
 5761SOL     OW18181   5.613   5.919   5.271
 5761SOL    HW118182   5.709   5.891   5.272
 5761SOL    HW218183   5.555   5.838   5.255
 5762SOL     OW18184   5.819   4.967   6.744
 5762SOL    HW118185   5.745   4.987   6.680
 5762SOL    HW218186   5.887   4.908   6.700
 5763SOL     OW18187   5.364   0.209   0.178
 5763SOL    HW118188   5.437   0.146   0.203
 5763SOL    HW218189   5.278   0.159   0.168
 5764SOL     OW18190   4.070   5.912   3.955
 5764SOL    HW118191   4.110   5.999   3.985
 5764SOL    HW218192   4.052   5.917   3.857
 5765SOL     OW18193   6.289   5.686   1.266
 5765SOL    HW118194   6.326   5.600   1.302
 5765SOL    HW218195   6.194   5.671   1.237
 5766SOL     OW18196   0.797   2.152   4.358
 5766SOL    HW118197   0.809   2.245   4.392
 5766SOL    HW218198   0.843   2.087   4.419
 5767SOL     OW18199   2.637   0.587   0.652
 5767SOL    HW118200   2.578   0.528   0.597
 5767SOL    HW218201   2.678   0.534   0.726
 5768SOL     OW18202   0.312   6.569   4.818
 5768SOL    HW118203   0.257   6.525   4.889
 5768SOL    HW218204   0.258   6.576   4.733
 5769SOL     OW18205   1.580   5.052   6.183
 5769SOL    HW118206   1.599   4.982   6.114
 5769SOL    HW218207   1.578   5.009   6.274
 5770SOL     OW18208   2.065   4.989   1.548
 5770SOL    HW118209   2.012   4.959   1.627
 5770SOL    HW218210   2.003   5.028   1.480
 5771SOL     OW18211   2.330   5.260   4.066
 5771SOL    HW118212   2.369   5.176   4.103
 5771SOL    HW218213   2.313   5.249   3.968
 5772SOL     OW18214   4.314   0.499   1.968
 5772SOL    HW118215   4.368   0.433   2.020
 5772SOL    HW218216   4.353   0.509   1.876
 5773SOL     OW18217   4.215   2.208   2.531
 5773SOL    HW118218   4.287   2.197   2.463
 5773SOL    HW218219   4.126   2.188   2.490
 5774SOL     OW18220   0.098   6.106   3.225
 5774SOL    HW118221   0.113   6.063   3.135
 5774SOL    HW218222   0.183   6.103   3.278
 5775SOL     OW18223   0.011   5.914   2.144
 5775SOL    HW118224   7.004   5.824   2.115
 5775SOL    HW218225   0.000   5.980   2.070
 5776SOL     OW18226   2.463   0.392   3.392
 5776SOL    HW118227   2.462   0.385   3.492
 5776SOL    HW218228   2.375   0.428   3.361
 5777SOL     OW18229   1.899   0.082   3.468
 5777SOL    HW118230   1.904   0.071   3.567
 5777SOL    HW218231   1.989   0.110   3.433
 5778SOL     OW18232   0.884   1.470   7.001
 5778SOL    HW118233   0.839   1.558   7.002
 5778SOL    HW218234   0.975   1.479   0.017
 5779SOL     OW18235   5.665   2.628   6.802
 5779SOL    HW118236   5.696   2.700   6.739
 5779SOL    HW218237   5.644   2.668   6.891
 5780SOL     OW18238   5.543   5.496   3.749
 5780SOL    HW118239   5.570   5.488   3.845
 5780SOL    HW218240   5.625   5.491   3.691
 5781SOL     OW18241   0.541   3.867   5.767
 5781SOL    HW118242   0.624   3.882   5.820
 5781SOL    HW218243   0.536   3.933   5.692
 5782SOL     OW18244   0.293   1.244   0.644
 5782SOL    HW118245   0.334   1.316   0.587
 5782SOL    HW218246   0.195   1.259   0.652
 5783SOL     OW18247   2.199   1.770   1.721
 5783SOL    HW118248   2.273   1.780   1.787
 5783SOL    HW218249   2.188   1.674   1.696
 5784SOL     OW18250   0.618   6.270   6.823
 5784SOL    HW118251   0.686   6.212   6.867
 5784SOL    HW218252   0.653   6.303   6.735
 5785SOL     OW18253   1.816   1.561   1.140
 5785SOL    HW118254   1.723   1.525   1.133
 5785SOL    HW218255   1.852   1.541   1.232
 5786SOL     OW18256   6.957   3.701   0.742
 5786SOL    HW118257   0.009   3.702   0.678
 5786SOL    HW218258   6.918   3.792   0.750
 5787SOL     OW18259   3.175   1.646   5.804
 5787SOL    HW118260   3.235   1.573   5.837
 5787SOL    HW218261   3.121   1.681   5.880
 5788SOL     OW18262   2.748   0.698   2.800
 5788SOL    HW118263   2.798   0.694   2.714
 5788SOL    HW218264   2.802   0.655   2.872
 5789SOL     OW18265   4.214   4.927   5.896
 5789SOL    HW118266   4.266   4.947   5.979
 5789SOL    HW218267   4.259   4.852   5.846
 5790SOL     OW18268   0.676   2.669   3.783
 5790SOL    HW118269   0.747   2.623   3.837
 5790SOL    HW218270   0.592   2.674   3.836
 5791SOL     OW18271   2.647   0.272   2.519
 5791SOL    HW118272   2.644   0.222   2.433
 5791SOL    HW218273   2.620   0.211   2.594
 5792SOL     OW18274   6.854   2.259   2.888
 5792SOL    HW118275   6.874   2.275   2.792
 5792SOL    HW218276   6.862   2.161   2.908
 5793SOL     OW18277   6.546   1.310   3.810
 5793SOL    HW118278   6.636   1.353   3.812
 5793SOL    HW218279   6.492   1.350   3.736
 5794SOL     OW18280   3.543   3.559   6.825
 5794SOL    HW118281   3.539   3.524   6.919
 5794SOL    HW218282   3.612   3.632   6.820
 5795SOL     OW18283   5.955   4.371   5.843
 5795SOL    HW118284   5.865   4.412   5.856
 5795SOL    HW218285   6.023   4.443   5.833
 5796SOL     OW18286   3.505   1.858   6.848
 5796SOL    HW118287   3.550   1.941   6.817
 5796SOL    HW218288   3.408   1.877   6.863
 5797SOL     OW18289   3.421   2.023   4.660
 5797SOL    HW118290   3.357   2.038   4.735
 5797SOL    HW218291   3.491   2.094   4.661
 5798SOL     OW18292   6.698   4.582   5.159
 5798SOL    HW118293   6.792   4.615   5.149
 5798SOL    HW218294   6.636   4.649   5.119
 5799SOL     OW18295   5.245   6.984   3.163
 5799SOL    HW118296   5.318   6.916   3.171
 5799SOL    HW218297   5.201   6.975   3.073
 5800SOL     OW18298   5.641   4.540   0.994
 5800SOL    HW118299   5.617   4.553   1.090
 5800SOL    HW218300   5.593   4.608   0.939
 5801SOL     OW18301   0.829   0.479   3.483
 5801SOL    HW118302   0.782   0.497   3.569
 5801SOL    HW218303   0.765   0.490   3.407
 5802SOL     OW18304   0.074   4.062   6.044
 5802SOL    HW118305   0.017   4.012   5.978
 5802SOL    HW218306   0.165   4.076   6.005
 5803SOL     OW18307   1.213   4.494   0.668
 5803SOL    HW118308   1.167   4.578   0.638
 5803SOL    HW218309   1.303   4.517   0.705
 5804SOL     OW18310   6.091   4.233   4.187
 5804SOL    HW118311   6.123   4.147   4.227
 5804SOL    HW218312   5.992   4.231   4.179
 5805SOL     OW18313   4.562   3.791   6.329
 5805SOL    HW118314   4.612   3.858   6.384
 5805SOL    HW218315   4.625   3.739   6.273
 5806SOL     OW18316   0.603   6.513   6.944
 5806SOL    HW118317   0.611   6.427   6.892
 5806SOL    HW218318   0.686   6.527   6.998
 5807SOL     OW18319   1.479   3.480   1.065
 5807SOL    HW118320   1.547   3.526   1.007
 5807SOL    HW218321   1.504   3.494   1.161
 5808SOL     OW18322   5.836   4.563   2.164
 5808SOL    HW118323   5.767   4.491   2.157
 5808SOL    HW218324   5.922   4.523   2.194
 5809SOL     OW18325   7.005   3.003   4.483
 5809SOL    HW118326   6.951   3.046   4.556
 5809SOL    HW218327   7.003   3.062   4.402
 5810SOL     OW18328   3.097   1.425   3.617
 5810SOL    HW118329   3.187   1.438   3.574
 5810SOL    HW218330   3.090   1.486   3.697
 5811SOL     OW18331   2.459   0.481   4.873
 5811SOL    HW118332   2.429   0.542   4.799
 5811SOL    HW218333   2.408   0.502   4.956
 5812SOL     OW18334   4.753   0.247   2.875
 5812SOL    HW118335   4.726   0.173   2.936
 5812SOL    HW218336   4.808   0.210   2.799
 5813SOL     OW18337   1.447   1.124   5.266
 5813SOL    HW118338   1.539   1.155   5.289
 5813SOL    HW218339   1.452   1.045   5.204
 5814SOL     OW18340   0.091   5.019   1.012
 5814SOL    HW118341   0.170   4.971   0.975
 5814SOL    HW218342   0.021   5.028   0.941
 5815SOL     OW18343   3.962   2.095   2.888
 5815SOL    HW118344   3.941   2.066   2.794
 5815SOL    HW218345   3.878   2.121   2.935
 5816SOL     OW18346   4.679   0.300   0.149
 5816SOL    HW118347   4.718   0.337   0.233
 5816SOL    HW218348   4.673   0.373   0.080
 5817SOL     OW18349   5.258   3.272   5.899
 5817SOL    HW118350   5.297   3.364   5.889
 5817SOL    HW218351   5.214   3.245   5.813
 5818SOL     OW18352   5.678   6.897   5.812
 5818SOL    HW118353   5.649   6.849   5.895
 5818SOL    HW218354   5.746   6.842   5.764
 5819SOL     OW18355   5.542   0.359   0.946
 5819SOL    HW118356   5.582   0.442   0.986
 5819SOL    HW218357   5.572   0.279   0.998
 5820SOL     OW18358   4.710   6.800   3.273
 5820SOL    HW118359   4.632   6.742   3.295
 5820SOL    HW218360   4.768   6.811   3.354
 5821SOL     OW18361   2.991   0.511   1.878
 5821SOL    HW118362   2.955   0.424   1.911
 5821SOL    HW218363   2.983   0.514   1.778
 5822SOL     OW18364   0.944   2.149   2.254
 5822SOL    HW118365   0.878   2.224   2.253
 5822SOL    HW218366   1.032   2.182   2.290
 5823SOL     OW18367   1.599   1.386   5.115
 5823SOL    HW118368   1.593   1.486   5.114
 5823SOL    HW218369   1.511   1.348   5.144
 5824SOL     OW18370   6.567   6.829   3.352
 5824SOL    HW118371   6.558   6.746   3.296
 5824SOL    HW218372   6.588   6.803   3.446
 5825SOL     OW18373   2.221   0.792   6.885
 5825SOL    HW118374   2.163   0.756   6.958
 5825SOL    HW218375   2.280   0.719   6.851
 5826SOL     OW18376   6.330   6.163   4.838
 5826SOL    HW118377   6.360   6.254   4.810
 5826SOL    HW218378   6.406   6.114   4.881
 5827SOL     OW18379   0.509   5.562   4.751
 5827SOL    HW118380   0.423   5.511   4.757
 5827SOL    HW218381   0.544   5.577   4.843
 5828SOL     OW18382   0.402   3.773   2.454
 5828SOL    HW118383   0.360   3.858   2.424
 5828SOL    HW218384   0.342   3.727   2.519
 5829SOL     OW18385   2.743   1.371   1.933
 5829SOL    HW118386   2.813   1.322   1.880
 5829SOL    HW218387   2.787   1.441   1.989
 5830SOL     OW18388   3.574   0.726   5.615
 5830SOL    HW118389   3.538   0.819   5.600
 5830SOL    HW218390   3.498   0.665   5.637
 5831SOL     OW18391   5.878   6.428   2.763
 5831SOL    HW118392   5.814   6.504   2.772
 5831SOL    HW218393   5.937   6.425   2.844
 5832SOL     OW18394   4.128   3.793   5.320
 5832SOL    HW118395   4.070   3.875   5.314
 5832SOL    HW218396   4.221   3.820   5.346
 5833SOL     OW18397   2.949   3.487   3.831
 5833SOL    HW118398   3.029   3.470   3.889
 5833SOL    HW218399   2.936   3.409   3.769
 5834SOL     OW18400   5.529   2.065   0.692
 5834SOL    HW118401   5.527   2.113   0.780
 5834SOL    HW218402   5.503   2.129   0.619
 5835SOL     OW18403   4.873   2.476   3.461
 5835SOL    HW118404   4.932   2.398   3.479
 5835SOL    HW218405   4.799   2.478   3.529
 5836SOL     OW18406   3.352   6.284   2.344
 5836SOL    HW118407   3.308   6.304   2.432
 5836SOL    HW218408   3.351   6.186   2.328
 5837SOL     OW18409   4.696   4.255   0.348
 5837SOL    HW118410   4.740   4.300   0.425
 5837SOL    HW218411   4.762   4.196   0.301
 5838SOL     OW18412   1.389   1.692   5.571
 5838SOL    HW118413   1.453   1.705   5.647
 5838SOL    HW218414   1.440   1.674   5.487
 5839SOL     OW18415   6.817   3.626   2.737
 5839SOL    HW118416   6.850   3.681   2.813
 5839SOL    HW218417   6.775   3.542   2.771
 5840SOL     OW18418   1.605   5.644   6.760
 5840SOL    HW118419   1.695   5.647   6.719
 5840SOL    HW218420   1.595   5.721   6.823
 5841SOL     OW18421   6.377   3.161   3.805
 5841SOL    HW118422   6.284   3.130   3.786
 5841SOL    HW218423   6.428   3.090   3.854
 5842SOL     OW18424   4.150   3.200   0.507
 5842SOL    HW118425   4.210   3.280   0.505
 5842SOL    HW218426   4.092   3.199   0.425
 5843SOL     OW18427   1.763   2.902   2.791
 5843SOL    HW118428   1.692   2.894   2.860
 5843SOL    HW218429   1.735   2.968   2.722
 5844SOL     OW18430   0.301   5.845   6.393
 5844SOL    HW118431   0.323   5.811   6.301
 5844SOL    HW218432   0.356   5.796   6.460
 5845SOL     OW18433   1.238   2.322   3.851
 5845SOL    HW118434   1.185   2.365   3.924
 5845SOL    HW218435   1.181   2.258   3.801
 5846SOL     OW18436   6.859   2.724   5.444
 5846SOL    HW118437   6.918   2.743   5.523
 5846SOL    HW218438   6.795   2.799   5.432
 5847SOL     OW18439   2.255   2.435   2.616
 5847SOL    HW118440   2.290   2.342   2.605
 5847SOL    HW218441   2.231   2.471   2.526
 5848SOL     OW18442   1.846   4.731   3.213
 5848SOL    HW118443   1.838   4.638   3.176
 5848SOL    HW218444   1.942   4.749   3.235
 5849SOL     OW18445   1.630   0.183   5.966
 5849SOL    HW118446   1.718   0.160   6.009
 5849SOL    HW218447   1.635   0.163   5.868
 5850SOL     OW18448   1.294   4.447   2.320
 5850SOL    HW118449   1.390   4.470   2.305
 5850SOL    HW218450   1.247   4.525   2.362
 5851SOL     OW18451   6.250   4.333   2.524
 5851SOL    HW118452   6.227   4.428   2.544
 5851SOL    HW218453   6.253   4.280   2.609
 5852SOL     OW18454   4.148   5.848   2.782
 5852SOL    HW118455   4.121   5.911   2.855
 5852SOL    HW218456   4.247   5.851   2.770
 5853SOL     OW18457   3.293   4.616   5.837
 5853SOL    HW118458   3.273   4.694   5.896
 5853SOL    HW218459   3.278   4.643   5.741
 5854SOL     OW18460   6.792   1.926   5.683
 5854SOL    HW118461   6.705   1.881   5.662
 5854SOL    HW218462   6.782   2.025   5.669
 5855SOL     OW18463   1.335   0.868   4.694
 5855SOL    HW118464   1.240   0.846   4.673
 5855SOL    HW218465   1.339   0.946   4.757
 5856SOL     OW18466   2.311   5.136   3.328
 5856SOL    HW118467   2.361   5.072   3.270
 5856SOL    HW218468   2.367   5.161   3.406
 5857SOL     OW18469   6.595   2.322   4.752
 5857SOL    HW118470   6.504   2.285   4.772
 5857SOL    HW218471   6.615   2.308   4.655
 5858SOL     OW18472   3.225   1.019   2.657
 5858SOL    HW118473   3.257   0.996   2.566
 5858SOL    HW218474   3.277   0.969   2.725
 5859SOL     OW18475   6.599   6.564   0.917
 5859SOL    HW118476   6.505   6.595   0.905
 5859SOL    HW218477   6.602   6.464   0.915
 5860SOL     OW18478   1.569   4.414   1.974
 5860SOL    HW118479   1.488   4.466   2.001
 5860SOL    HW218480   1.574   4.410   1.874
 5861SOL     OW18481   5.392   2.505   4.051
 5861SOL    HW118482   5.420   2.418   4.010
 5861SOL    HW218483   5.462   2.575   4.031
 5862SOL     OW18484   4.058   5.036   2.705
 5862SOL    HW118485   4.042   5.019   2.608
 5862SOL    HW218486   4.053   4.950   2.756
 5863SOL     OW18487   2.029   1.030   6.361
 5863SOL    HW118488   2.073   1.094   6.298
 5863SOL    HW218489   2.011   1.077   6.448
 5864SOL     OW18490   4.201   4.112   1.706
 5864SOL    HW118491   4.121   4.141   1.757
 5864SOL    HW218492   4.282   4.161   1.738
 5865SOL     OW18493   5.005   0.914   3.320
 5865SOL    HW118494   5.037   0.902   3.414
 5865SOL    HW218495   5.024   1.007   3.289
 5866SOL     OW18496   4.218   6.755   5.334
 5866SOL    HW118497   4.277   6.690   5.381
 5866SOL    HW218498   4.133   6.767   5.385
 5867SOL     OW18499   0.753   2.805   1.617
 5867SOL    HW118500   0.732   2.717   1.660
 5867SOL    HW218501   0.713   2.878   1.672
 5868SOL     OW18502   1.557   0.183   5.689
 5868SOL    HW118503   1.579   0.144   5.599
 5868SOL    HW218504   1.522   0.276   5.677
 5869SOL     OW18505   2.619   4.654   4.864
 5869SOL    HW118506   2.550   4.582   4.856
 5869SOL    HW218507   2.701   4.617   4.907
 5870SOL     OW18508   5.341   5.018   4.161
 5870SOL    HW118509   5.269   5.087   4.165
 5870SOL    HW218510   5.380   5.005   4.252
 5871SOL     OW18511   3.487   3.000   6.955
 5871SOL    HW118512   3.550   3.012   0.008
 5871SOL    HW218513   3.426   3.079   6.950
 5872SOL     OW18514   4.149   5.922   5.932
 5872SOL    HW118515   4.222   5.856   5.944
 5872SOL    HW218516   4.186   6.015   5.934
 5873SOL     OW18517   2.990   3.072   0.272
 5873SOL    HW118518   2.948   2.998   0.220
 5873SOL    HW218519   2.930   3.152   0.271
 5874SOL     OW18520   2.440   3.645   1.696
 5874SOL    HW118521   2.443   3.568   1.760
 5874SOL    HW218522   2.371   3.711   1.726
 5875SOL     OW18523   3.356   2.503   0.123
 5875SOL    HW118524   3.429   2.571   0.121
 5875SOL    HW218525   3.355   2.454   0.036
 5876SOL     OW18526   3.029   3.518   6.617
 5876SOL    HW118527   3.084   3.454   6.670
 5876SOL    HW218528   3.035   3.609   6.657
 5877SOL     OW18529   6.402   0.693   1.679
 5877SOL    HW118530   6.449   0.681   1.767
 5877SOL    HW218531   6.303   0.689   1.693
 5878SOL     OW18532   4.407   5.308   1.813
 5878SOL    HW118533   4.462   5.352   1.741
 5878SOL    HW218534   4.371   5.377   1.875
 5879SOL     OW18535   3.073   3.239   6.337
 5879SOL    HW118536   3.128   3.175   6.391
 5879SOL    HW218537   2.984   3.252   6.380
 5880SOL     OW18538   5.099   3.824   5.621
 5880SOL    HW118539   5.171   3.857   5.560
 5880SOL    HW218540   5.114   3.727   5.640
 5881SOL     OW18541   0.931   6.273   2.219
 5881SOL    HW118542   0.876   6.343   2.173
 5881SOL    HW218543   1.028   6.293   2.207
 5882SOL     OW18544   1.624   6.329   5.629
 5882SOL    HW118545   1.684   6.250   5.613
 5882SOL    HW218546   1.547   6.326   5.565
 5883SOL     OW18547   0.289   3.659   0.814
 5883SOL    HW118548   0.372   3.680   0.763
 5883SOL    HW218549   0.282   3.560   0.827
 5884SOL     OW18550   5.946   1.853   3.449
 5884SOL    HW118551   5.877   1.923   3.433
 5884SOL    HW218552   5.963   1.845   3.548
 5885SOL     OW18553   0.010   5.265   0.213
 5885SOL    HW118554   0.064   5.307   0.139
 5885SOL    HW218555   6.983   5.336   0.260
 5886SOL     OW18556   1.464   3.784   3.629
 5886SOL    HW118557   1.366   3.773   3.648
 5886SOL    HW218558   1.495   3.872   3.664
 5887SOL     OW18559   2.219   2.917   1.057
 5887SOL    HW118560   2.128   2.932   1.016
 5887SOL    HW218561   2.209   2.860   1.139
 5888SOL     OW18562   2.984   6.438   1.446
 5888SOL    HW118563   3.056   6.377   1.480
 5888SOL    HW218564   3.024   6.528   1.427
 5889SOL     OW18565   6.904   0.603   1.113
 5889SOL    HW118566   6.963   0.585   1.192
 5889SOL    HW218567   6.809   0.610   1.143
 5890SOL     OW18568   2.745   6.569   2.327
 5890SOL    HW118569   2.658   6.532   2.293
 5890SOL    HW218570   2.787   6.625   2.256
 5891SOL     OW18571   2.419   3.812   0.660
 5891SOL    HW118572   2.423   3.733   0.599
 5891SOL    HW218573   2.393   3.893   0.608
 5892SOL     OW18574   0.768   3.247   1.049
 5892SOL    HW118575   0.857   3.214   1.020
 5892SOL    HW218576   0.763   3.245   1.149
 5893SOL     OW18577   0.840   5.753   1.619
 5893SOL    HW118578   0.928   5.778   1.578
 5893SOL    HW218579   0.822   5.810   1.698
 5894SOL     OW18580   1.903   5.794   5.719
 5894SOL    HW118581   1.831   5.751   5.664
 5894SOL    HW218582   1.872   5.802   5.813
 5895SOL     OW18583   5.567   2.956   4.356
 5895SOL    HW118584   5.618   3.031   4.399
 5895SOL    HW218585   5.542   2.982   4.263
 5896SOL     OW18586   5.962   2.526   1.696
 5896SOL    HW118587   5.999   2.437   1.668
 5896SOL    HW218588   6.033   2.577   1.744
 5897SOL     OW18589   4.692   1.808   0.671
 5897SOL    HW118590   4.702   1.906   0.653
 5897SOL    HW218591   4.757   1.757   0.615
 5898SOL     OW18592   1.950   1.670   5.240
 5898SOL    HW118593   1.995   1.753   5.273
 5898SOL    HW218594   1.979   1.593   5.297
 5899SOL     OW18595   0.098   5.114   5.669
 5899SOL    HW118596   0.049   5.050   5.728
 5899SOL    HW218597   0.143   5.183   5.724
 5900SOL     OW18598   6.146   6.161   3.381
 5900SOL    HW118599   6.093   6.142   3.463
 5900SOL    HW218600   6.084   6.169   3.303
 5901SOL     OW18601   2.025   0.086   6.228
 5901SOL    HW118602   2.052   0.096   6.324
 5901SOL    HW218603   2.071   0.006   6.189
 5902SOL     OW18604   5.213   4.179   5.166
 5902SOL    HW118605   5.307   4.181   5.201
 5902SOL    HW218606   5.202   4.103   5.102
 5903SOL     OW18607   6.013   1.672   6.561
 5903SOL    HW118608   6.006   1.717   6.472
 5903SOL    HW218609   6.078   1.596   6.554
 5904SOL     OW18610   1.946   4.370   2.701
 5904SOL    HW118611   1.879   4.387   2.628
 5904SOL    HW218612   2.006   4.450   2.710
 5905SOL     OW18613   5.962   1.156   4.382
 5905SOL    HW118614   5.994   1.174   4.475
 5905SOL    HW218615   5.918   1.067   4.377
 5906SOL     OW18616   4.974   0.637   5.103
 5906SOL    HW118617   5.069   0.621   5.076
 5906SOL    HW218618   4.922   0.552   5.096
 5907SOL     OW18619   1.852   2.469   0.097
 5907SOL    HW118620   1.832   2.567   0.100
 5907SOL    HW218621   1.935   2.453   0.044
 5908SOL     OW18622   4.223   3.310   6.249
 5908SOL    HW118623   4.258   3.381   6.310
 5908SOL    HW218624   4.205   3.349   6.159
 5909SOL     OW18625   6.906   4.786   4.776
 5909SOL    HW118626   6.996   4.744   4.783
 5909SOL    HW218627   6.859   4.751   4.694
 5910SOL     OW18628   2.028   3.845   1.227
 5910SOL    HW118629   2.118   3.824   1.265
 5910SOL    HW218630   2.009   3.785   1.150
 5911SOL     OW18631   6.637   5.790   6.121
 5911SOL    HW118632   6.635   5.774   6.220
 5911SOL    HW218633   6.580   5.723   6.075
 5912SOL     OW18634   6.176   4.186   0.141
 5912SOL    HW118635   6.134   4.107   0.096
 5912SOL    HW218636   6.170   4.266   0.081
 5913SOL     OW18637   1.849   1.510   5.624
 5913SOL    HW118638   1.842   1.528   5.723
 5913SOL    HW218639   1.836   1.413   5.607
 5914SOL     OW18640   1.925   5.867   0.767
 5914SOL    HW118641   1.881   5.955   0.784
 5914SOL    HW218642   1.888   5.826   0.683
 5915SOL     OW18643   5.151   2.697   2.399
 5915SOL    HW118644   5.064   2.720   2.443
 5915SOL    HW218645   5.219   2.766   2.422
 5916SOL     OW18646   3.866   0.235   6.021
 5916SOL    HW118647   3.924   0.166   6.065
 5916SOL    HW218648   3.771   0.219   6.047
 5917SOL     OW18649   3.495   3.509   2.987
 5917SOL    HW118650   3.536   3.503   3.077
 5917SOL    HW218651   3.433   3.432   2.973
 5918SOL     OW18652   1.725   3.295   4.168
 5918SOL    HW118653   1.751   3.359   4.240
 5918SOL    HW218654   1.781   3.212   4.176
 5919SOL     OW18655   1.795   2.953   6.773
 5919SOL    HW118656   1.825   2.965   6.678
 5919SOL    HW218657   1.849   2.881   6.816
 5920SOL     OW18658   3.600   0.608   6.987
 5920SOL    HW118659   3.672   0.541   7.003
 5920SOL    HW218660   3.527   0.595   0.029
 5921SOL     OW18661   3.782   4.852   5.223
 5921SOL    HW118662   3.746   4.902   5.302
 5921SOL    HW218663   3.777   4.753   5.242
 5922SOL     OW18664   6.176   4.390   2.806
 5922SOL    HW118665   6.205   4.400   2.901
 5922SOL    HW218666   6.092   4.337   2.802
 5923SOL     OW18667   0.032   0.119   3.723
 5923SOL    HW118668   0.128   0.119   3.694
 5923SOL    HW218669   6.999   0.155   3.649
 5924SOL     OW18670   5.115   2.231   4.560
 5924SOL    HW118671   5.049   2.285   4.507
 5924SOL    HW218672   5.066   2.178   4.630
 5925SOL     OW18673   5.057   6.224   1.060
 5925SOL    HW118674   5.146   6.226   1.104
 5925SOL    HW218675   5.066   6.257   0.966
 5926SOL     OW18676   3.847   4.977   1.398
 5926SOL    HW118677   3.752   4.946   1.393
 5926SOL    HW218678   3.855   5.067   1.355
 5927SOL     OW18679   2.765   5.959   2.329
 5927SOL    HW118680   2.805   5.914   2.249
 5927SOL    HW218681   2.798   6.053   2.335
 5928SOL     OW18682   1.524   0.031   3.127
 5928SOL    HW118683   1.574   0.037   3.040
 5928SOL    HW218684   1.536   6.964   3.166
 5929SOL     OW18685   1.703   6.367   6.766
 5929SOL    HW118686   1.611   6.390   6.732
 5929SOL    HW218687   1.736   6.285   6.720
 5930SOL     OW18688   6.640   1.407   4.646
 5930SOL    HW118689   6.635   1.307   4.645
 5930SOL    HW218690   6.705   1.437   4.715
 5931SOL     OW18691   6.578   5.696   1.562
 5931SOL    HW118692   6.642   5.771   1.543
 5931SOL    HW218693   6.619   5.610   1.534
 5932SOL     OW18694   2.640   6.820   0.892
 5932SOL    HW118695   2.579   6.756   0.939
 5932SOL    HW218696   2.630   6.911   0.931
 5933SOL     OW18697   6.909   3.777   2.952
 5933SOL    HW118698   7.003   3.744   2.964
 5933SOL    HW218699   6.874   3.812   3.038
 5934SOL     OW18700   3.767   3.599   3.032
 5934SOL    HW118701   3.669   3.612   3.014
 5934SOL    HW218702   3.818   3.611   2.947
 5935SOL     OW18703   4.068   3.741   4.512
 5935SOL    HW118704   4.070   3.782   4.603
 5935SOL    HW218705   4.105   3.648   4.517
 5936SOL     OW18706   5.472   5.576   6.754
 5936SOL    HW118707   5.468   5.675   6.767
 5936SOL    HW218708   5.404   5.548   6.685
 5937SOL     OW18709   2.173   3.482   1.180
 5937SOL    HW118710   2.204   3.397   1.222
 5937SOL    HW218711   2.241   3.513   1.114
 5938SOL     OW18712   1.681   4.256   3.028
 5938SOL    HW118713   1.723   4.188   2.969
 5938SOL    HW218714   1.590   4.280   2.993
 5939SOL     OW18715   3.468   0.018   2.787
 5939SOL    HW118716   3.542   0.080   2.762
 5939SOL    HW218717   3.474   6.959   2.732
 5940SOL     OW18718   4.170   6.575   2.911
 5940SOL    HW118719   4.212   6.659   2.946
 5940SOL    HW218720   4.121   6.595   2.827
 5941SOL     OW18721   6.279   4.949   2.644
 5941SOL    HW118722   6.201   4.936   2.582
 5941SOL    HW218723   6.271   5.037   2.690
 5942SOL     OW18724   4.142   3.418   5.989
 5942SOL    HW118725   4.061   3.399   5.934
 5942SOL    HW218726   4.211   3.347   5.974
 5943SOL     OW18727   1.778   6.129   0.805
 5943SOL    HW118728   1.859   6.161   0.756
 5943SOL    HW218729   1.798   6.122   0.902
 5944SOL     OW18730   4.984   1.690   2.535
 5944SOL    HW118731   4.965   1.788   2.529
 5944SOL    HW218732   5.078   1.676   2.567
 5945SOL     OW18733   6.351   4.980   5.822
 5945SOL    HW118734   6.377   4.963   5.727
 5945SOL    HW218735   6.376   4.902   5.879
 5946SOL     OW18736   5.065   3.214   5.697
 5946SOL    HW118737   5.013   3.140   5.654
 5946SOL    HW218738   5.007   3.261   5.763
 5947SOL     OW18739   4.482   3.633   1.579
 5947SOL    HW118740   4.527   3.545   1.567
 5947SOL    HW218741   4.415   3.626   1.653
 5948SOL     OW18742   4.020   4.831   2.866
 5948SOL    HW118743   3.932   4.784   2.861
 5948SOL    HW218744   4.053   4.831   2.960
 5949SOL     OW18745   4.113   4.929   1.364
 5949SOL    HW118746   4.014   4.938   1.374
 5949SOL    HW218747   4.155   4.915   1.454
 5950SOL     OW18748   6.481   2.241   4.277
 5950SOL    HW118749   6.548   2.190   4.222
 5950SOL    HW218750   6.425   2.176   4.328
 5951SOL     OW18751   2.011   5.883   3.705
 5951SOL    HW118752   1.913   5.902   3.713
 5951SOL    HW218753   2.063   5.963   3.734
 5952SOL     OW18754   0.021   6.702   4.023
 5952SOL    HW118755   6.997   6.615   4.031
 5952SOL    HW218756   0.113   6.686   3.986
 5953SOL     OW18757   6.767   2.963   6.202
 5953SOL    HW118758   6.773   3.040   6.138
 5953SOL    HW218759   6.697   2.899   6.169
 5954SOL     OW18760   0.229   4.961   6.706
 5954SOL    HW118761   0.131   4.954   6.723
 5954SOL    HW218762   0.279   4.937   6.790
 5955SOL     OW18763   4.889   5.440   1.563
 5955SOL    HW118764   4.912   5.533   1.535
 5955SOL    HW218765   4.941   5.416   1.645
 5956SOL     OW18766   5.506   2.401   0.195
 5956SOL    HW118767   5.514   2.424   0.098
 5956SOL    HW218768   5.526   2.304   0.208
 5957SOL     OW18769   5.978   6.313   6.026
 5957SOL    HW118770   5.955   6.374   6.102
 5957SOL    HW218771   5.905   6.247   6.013
 5958SOL     OW18772   6.784   5.518   2.234
 5958SOL    HW118773   6.761   5.421   2.233
 5958SOL    HW218774   6.883   5.530   2.236
 5959SOL     OW18775   2.132   1.752   5.977
 5959SOL    HW118776   2.180   1.832   6.013
 5959SOL    HW218777   2.120   1.762   5.878
 5960SOL     OW18778   3.300   0.160   4.037
 5960SOL    HW118779   3.243   0.242   4.050
 5960SOL    HW218780   3.241   0.082   4.017
 5961SOL     OW18781   3.336   0.849   4.718
 5961SOL    HW118782   3.305   0.877   4.627
 5961SOL    HW218783   3.424   0.891   4.738
 5962SOL     OW18784   4.967   5.259   2.058
 5962SOL    HW118785   5.060   5.293   2.065
 5962SOL    HW218786   4.918   5.276   2.143
 5963SOL     OW18787   4.080   3.852   2.485
 5963SOL    HW118788   4.170   3.810   2.469
 5963SOL    HW218789   4.078   3.890   2.577
 5964SOL     OW18790   0.045   5.327   6.228
 5964SOL    HW118791   0.030   5.263   6.153
 5964SOL    HW218792   0.068   5.277   6.312
 5965SOL     OW18793   2.510   2.591   5.951
 5965SOL    HW118794   2.511   2.509   6.008
 5965SOL    HW218795   2.440   2.654   5.986
 5966SOL     OW18796   3.116   6.080   4.688
 5966SOL    HW118797   3.105   6.028   4.603
 5966SOL    HW218798   3.091   6.176   4.673
 5967SOL     OW18799   4.722   6.237   3.066
 5967SOL    HW118800   4.761   6.188   3.145
 5967SOL    HW218801   4.796   6.268   3.007
 5968SOL     OW18802   6.758   2.522   3.359
 5968SOL    HW118803   6.739   2.427   3.387
 5968SOL    HW218804   6.806   2.521   3.271
 5969SOL     OW18805   5.904   3.701   3.462
 5969SOL    HW118806   5.928   3.735   3.553
 5969SOL    HW218807   5.806   3.686   3.456
 5970SOL     OW18808   1.785   3.558   2.680
 5970SOL    HW118809   1.719   3.497   2.638
 5970SOL    HW218810   1.737   3.633   2.726
 5971SOL     OW18811   2.084   6.894   2.614
 5971SOL    HW118812   2.149   6.949   2.562
 5971SOL    HW218813   2.040   6.828   2.553
 5972SOL     OW18814   4.971   6.640   0.288
 5972SOL    HW118815   4.957   6.722   0.344
 5972SOL    HW218816   4.970   6.665   0.191
 5973SOL     OW18817   1.462   4.397   2.883
 5973SOL    HW118818   1.392   4.330   2.906
 5973SOL    HW218819   1.519   4.362   2.808
 5974SOL     OW18820   6.824   3.935   0.268
 5974SOL    HW118821   6.916   3.897   0.281
 5974SOL    HW218822   6.831   4.031   0.240
 5975SOL     OW18823   2.685   2.973   1.270
 5975SOL    HW118824   2.587   2.967   1.289
 5975SOL    HW218825   2.722   3.056   1.311
 5976SOL     OW18826   3.078   3.318   4.834
 5976SOL    HW118827   3.053   3.225   4.863
 5976SOL    HW218828   3.100   3.373   4.915
 5977SOL     OW18829   1.281   4.037   1.979
 5977SOL    HW118830   1.362   4.078   1.936
 5977SOL    HW218831   1.303   4.007   2.072
 5978SOL     OW18832   5.457   4.923   2.143
 5978SOL    HW118833   5.455   4.974   2.057
 5978SOL    HW218834   5.392   4.847   2.137
 5979SOL     OW18835   6.710   1.038   3.041
 5979SOL    HW118836   6.739   1.022   3.136
 5979SOL    HW218837   6.785   1.078   2.990
 5980SOL     OW18838   5.403   4.713   0.586
 5980SOL    HW118839   5.438   4.793   0.537
 5980SOL    HW218840   5.425   4.630   0.534
 5981SOL     OW18841   5.465   0.708   2.522
 5981SOL    HW118842   5.389   0.727   2.460
 5981SOL    HW218843   5.521   0.634   2.484
 5982SOL     OW18844   6.774   1.967   6.910
 5982SOL    HW118845   6.755   2.050   6.858
 5982SOL    HW218846   6.719   1.892   6.874
 5983SOL     OW18847   1.524   1.144   4.120
 5983SOL    HW118848   1.616   1.134   4.160
 5983SOL    HW218849   1.463   1.077   4.161
 5984SOL     OW18850   0.224   6.135   4.906
 5984SOL    HW118851   0.235   6.065   4.834
 5984SOL    HW218852   0.312   6.149   4.952
 5985SOL     OW18853   4.619   1.622   4.031
 5985SOL    HW118854   4.523   1.619   4.058
 5985SOL    HW218855   4.665   1.539   4.061
 5986SOL     OW18856   3.325   3.195   2.414
 5986SOL    HW118857   3.260   3.119   2.416
 5986SOL    HW218858   3.415   3.160   2.388
 5987SOL     OW18859   4.291   6.901   4.817
 5987SOL    HW118860   4.366   6.915   4.752
 5987SOL    HW218861   4.316   6.940   4.905
 5988SOL     OW18862   4.631   6.528   4.373
 5988SOL    HW118863   4.575   6.576   4.441
 5988SOL    HW218864   4.625   6.429   4.390
 5989SOL     OW18865   3.346   0.251   6.128
 5989SOL    HW118866   3.283   0.296   6.064
 5989SOL    HW218867   3.314   0.158   6.147
 5990SOL     OW18868   3.064   5.330   1.004
 5990SOL    HW118869   3.148   5.346   0.952
 5990SOL    HW218870   3.084   5.268   1.080
 5991SOL     OW18871   3.187   5.379   4.427
 5991SOL    HW118872   3.238   5.376   4.513
 5991SOL    HW218873   3.221   5.308   4.365
 5992SOL     OW18874   4.142   0.462   3.835
 5992SOL    HW118875   4.112   0.432   3.745
 5992SOL    HW218876   4.213   0.532   3.825
 5993SOL     OW18877   2.454   6.218   5.848
 5993SOL    HW118878   2.544   6.183   5.872
 5993SOL    HW218879   2.423   6.174   5.764
 5994SOL     OW18880   6.014   2.415   2.363
 5994SOL    HW118881   6.005   2.450   2.270
 5994SOL    HW218882   5.990   2.318   2.365
 5995SOL     OW18883   6.741   5.224   1.076
 5995SOL    HW118884   6.772   5.187   1.164
 5995SOL    HW218885   6.816   5.224   1.011
 5996SOL     OW18886   0.193   5.346   5.772
 5996SOL    HW118887   0.253   5.340   5.852
 5996SOL    HW218888   0.211   5.432   5.724
 5997SOL     OW18889   0.617   6.930   2.097
 5997SOL    HW118890   0.621   6.913   2.195
 5997SOL    HW218891   0.691   6.881   2.052
 5998SOL     OW18892   5.568   2.319   2.443
 5998SOL    HW118893   5.627   2.345   2.519
 5998SOL    HW218894   5.610   2.243   2.392
 5999SOL     OW18895   1.548   2.237   2.829
 5999SOL    HW118896   1.599   2.155   2.857
 5999SOL    HW218897   1.592   2.318   2.868
 6000SOL     OW18898   4.599   5.436   2.413
 6000SOL    HW118899   4.563   5.360   2.467
 6000SOL    HW218900   4.582   5.522   2.461
 6001SOL     OW18901   6.624   2.457   6.556
 6001SOL    HW118902   6.568   2.462   6.639
 6001SOL    HW218903   6.714   2.419   6.579
 6002SOL     OW18904   1.751   0.288   1.819
 6002SOL    HW118905   1.824   0.346   1.856
 6002SOL    HW218906   1.697   0.340   1.754
 6003SOL     OW18907   4.742   4.077   5.175
 6003SOL    HW118908   4.834   4.115   5.187
 6003SOL    HW218909   4.745   4.005   5.106
 6004SOL     OW18910   0.487   3.392   2.397
 6004SOL    HW118911   0.529   3.483   2.396
 6004SOL    HW218912   0.552   3.325   2.362
 6005SOL     OW18913   3.396   5.412   3.340
 6005SOL    HW118914   3.447   5.409   3.426
 6005SOL    HW218915   3.341   5.330   3.331
 6006SOL     OW18916   2.936   6.903   6.653
 6006SOL    HW118917   2.896   6.988   6.619
 6006SOL    HW218918   2.941   6.836   6.579
 6007SOL     OW18919   5.882   2.370   4.169
 6007SOL    HW118920   5.870   2.457   4.216
 6007SOL    HW218921   5.866   2.383   4.071
 6008SOL     OW18922   3.062   4.911   6.023
 6008SOL    HW118923   3.025   4.826   5.986
 6008SOL    HW218924   3.030   4.924   6.117
 6009SOL     OW18925   2.392   1.973   4.219
 6009SOL    HW118926   2.386   1.981   4.120
 6009SOL    HW218927   2.463   1.907   4.244
 6010SOL     OW18928   1.980   4.092   2.669
 6010SOL    HW118929   1.978   4.192   2.666
 6010SOL    HW218930   2.018   4.057   2.583
 6011SOL     OW18931   5.400   2.804   2.565
 6011SOL    HW118932   5.443   2.732   2.509
 6011SOL    HW218933   5.410   2.892   2.519
 6012SOL     OW18934   6.510   3.209   1.007
 6012SOL    HW118935   6.522   3.127   1.063
 6012SOL    HW218936   6.591   3.268   1.016
 6013SOL     OW18937   5.639   0.608   2.857
 6013SOL    HW118938   5.624   0.531   2.795
 6013SOL    HW218939   5.736   0.611   2.883
 6014SOL     OW18940   5.878   0.306   0.353
 6014SOL    HW118941   5.859   0.315   0.255
 6014SOL    HW218942   5.889   0.397   0.393
 6015SOL     OW18943   5.499   1.684   3.889
 6015SOL    HW118944   5.577   1.621   3.899
 6015SOL    HW218945   5.452   1.692   3.977
 6016SOL     OW18946   2.141   0.981   5.363
 6016SOL    HW118947   2.096   0.975   5.453
 6016SOL    HW218948   2.123   1.072   5.324
 6017SOL     OW18949   6.492   5.397   2.765
 6017SOL    HW118950   6.485   5.315   2.823
 6017SOL    HW218951   6.514   5.369   2.671
 6018SOL     OW18952   2.467   3.855   0.914
 6018SOL    HW118953   2.474   3.759   0.942
 6018SOL    HW218954   2.465   3.860   0.814
 6019SOL     OW18955   3.695   0.870   4.104
 6019SOL    HW118956   3.645   0.922   4.034
 6019SOL    HW218957   3.762   0.811   4.059
 6020SOL     OW18958   3.975   0.446   2.698
 6020SOL    HW118959   3.975   0.410   2.605
 6020SOL    HW218960   3.988   0.545   2.696
 6021SOL     OW18961   4.357   1.503   2.095
 6021SOL    HW118962   4.444   1.525   2.139
 6021SOL    HW218963   4.283   1.550   2.143
 6022SOL     OW18964   4.273   1.540   3.232
 6022SOL    HW118965   4.201   1.609   3.237
 6022SOL    HW218966   4.276   1.489   3.319
 6023SOL     OW18967   0.366   1.731   2.879
 6023SOL    HW118968   0.404   1.713   2.970
 6023SOL    HW218969   0.417   1.678   2.811
 6024SOL     OW18970   0.661   4.892   1.568
 6024SOL    HW118971   0.696   4.851   1.652
 6024SOL    HW218972   0.738   4.931   1.515
 6025SOL     OW18973   4.747   1.675   1.234
 6025SOL    HW118974   4.681   1.601   1.225
 6025SOL    HW218975   4.798   1.685   1.149
 6026SOL     OW18976   6.645   4.531   5.430
 6026SOL    HW118977   6.652   4.517   5.332
 6026SOL    HW218978   6.584   4.608   5.449
 6027SOL     OW18979   2.707   3.491   6.827
 6027SOL    HW118980   2.729   3.577   6.780
 6027SOL    HW218981   2.777   3.472   6.895
 6028SOL     OW18982   1.743   3.841   0.489
 6028SOL    HW118983   1.673   3.890   0.436
 6028SOL    HW218984   1.834   3.868   0.457
 6029SOL     OW18985   2.337   6.422   1.503
 6029SOL    HW118986   2.414   6.370   1.468
 6029SOL    HW218987   2.328   6.508   1.452
 6030SOL     OW18988   1.981   0.859   1.988
 6030SOL    HW118989   2.074   0.821   1.989
 6030SOL    HW218990   1.984   0.954   2.017
 6031SOL     OW18991   4.891   6.645   5.660
 6031SOL    HW118992   4.915   6.559   5.615
 6031SOL    HW218993   4.899   6.720   5.595
 6032SOL     OW18994   0.520   2.700   2.576
 6032SOL    HW118995   0.487   2.780   2.625
 6032SOL    HW218996   0.593   2.657   2.628
 6033SOL     OW18997   1.008   1.446   3.312
 6033SOL    HW118998   1.046   1.421   3.401
 6033SOL    HW218999   0.914   1.477   3.324
 6034SOL     OW19000   1.682   4.262   5.007
 6034SOL    HW119001   1.687   4.249   4.908
 6034SOL    HW219002   1.633   4.347   5.028
 6035SOL     OW19003   6.004   0.238   4.165
 6035SOL    HW119004   5.946   0.166   4.127
 6035SOL    HW219005   5.945   0.311   4.201
 6036SOL     OW19006   0.570   6.216   5.345
 6036SOL    HW119007   0.581   6.137   5.404
 6036SOL    HW219008   0.653   6.229   5.290
 6037SOL     OW19009   6.000   5.539   5.105
 6037SOL    HW119010   6.022   5.482   5.025
 6037SOL    HW219011   5.931   5.607   5.079
 6038SOL     OW19012   6.291   4.375   5.930
 6038SOL    HW119013   6.219   4.415   5.873
 6038SOL    HW219014   6.250   4.312   5.996
 6039SOL     OW19015   3.563   3.543   2.689
 6039SOL    HW119016   3.514   3.623   2.725
 6039SOL    HW219017   3.599   3.490   2.765
 6040SOL     OW19018   0.467   2.169   0.220
 6040SOL    HW119019   0.450   2.261   0.184
 6040SOL    HW219020   0.395   2.108   0.189
 6041SOL     OW19021   1.193   1.930   0.023
 6041SOL    HW119022   1.204   1.837   7.015
 6041SOL    HW219023   1.263   1.989   7.007
 6042SOL     OW19024   4.962   5.103   3.090
 6042SOL    HW119025   4.911   5.139   3.169
 6042SOL    HW219026   5.016   5.177   3.049
 6043SOL     OW19027   1.092   4.576   4.644
 6043SOL    HW119028   1.037   4.589   4.727
 6043SOL    HW219029   1.121   4.666   4.610
 6044SOL     OW19030   0.560   0.740   0.882
 6044SOL    HW119031   0.629   0.803   0.847
 6044SOL    HW219032   0.480   0.740   0.821
 6045SOL     OW19033   6.681   4.279   1.492
 6045SOL    HW119034   6.771   4.319   1.475
 6045SOL    HW219035   6.671   4.258   1.589
 6046SOL     OW19036   3.294   2.577   0.409
 6046SOL    HW119037   3.304   2.656   0.348
 6046SOL    HW219038   3.377   2.521   0.407
 6047SOL     OW19039   6.607   0.195   4.353
 6047SOL    HW119040   6.610   0.279   4.300
 6047SOL    HW219041   6.573   0.120   4.295
 6048SOL     OW19042   4.219   7.017   4.536
 6048SOL    HW119043   4.239   6.957   4.458
 6048SOL    HW219044   4.129   6.994   4.574
 6049SOL     OW19045   5.204   4.490   6.820
 6049SOL    HW119046   5.293   4.448   6.838
 6049SOL    HW219047   5.216   4.574   6.767
 6050SOL     OW19048   4.399   4.369   5.563
 6050SOL    HW119049   4.369   4.363   5.467
 6050SOL    HW219050   4.319   4.386   5.621
 6051SOL     OW19051   1.894   1.765   2.807
 6051SOL    HW119052   1.975   1.822   2.796
 6051SOL    HW219053   1.817   1.822   2.836
 6052SOL     OW19054   0.670   1.519   0.857
 6052SOL    HW119055   0.664   1.507   0.758
 6052SOL    HW219056   0.706   1.610   0.877
 6053SOL     OW19057   1.745   6.914   6.815
 6053SOL    HW119058   1.777   7.009   6.806
 6053SOL    HW219059   1.823   6.855   6.839
 6054SOL     OW19060   1.785   4.686   0.203
 6054SOL    HW119061   1.729   4.762   0.234
 6054SOL    HW219062   1.726   4.611   0.172
 6055SOL     OW19063   4.627   0.709   4.916
 6055SOL    HW119064   4.570   0.747   4.988
 6055SOL    HW219065   4.672   0.783   4.866
 6056SOL     OW19066   4.135   2.116   6.510
 6056SOL    HW119067   4.187   2.105   6.595
 6056SOL    HW219068   4.180   2.185   6.453
 6057SOL     OW19069   3.029   1.034   4.661
 6057SOL    HW119070   3.104   1.004   4.602
 6057SOL    HW219071   2.986   1.115   4.622
 6058SOL     OW19072   5.694   2.128   4.198
 6058SOL    HW119073   5.627   2.140   4.124
 6058SOL    HW219074   5.781   2.170   4.171
 6059SOL     OW19075   5.479   4.131   0.048
 6059SOL    HW119076   5.481   4.219   0.095
 6059SOL    HW219077   5.484   4.146   6.973
 6060SOL     OW19078   4.212   5.357   5.673
 6060SOL    HW119079   4.233   5.261   5.689
 6060SOL    HW219080   4.248   5.412   5.748
 6061SOL     OW19081   3.090   1.568   6.593
 6061SOL    HW119082   3.039   1.582   6.678
 6061SOL    HW219083   3.166   1.633   6.589
 6062SOL     OW19084   1.810   0.615   5.057
 6062SOL    HW119085   1.781   0.677   4.984
 6062SOL    HW219086   1.732   0.593   5.115
 6063SOL     OW19087   4.309   1.039   7.020
 6063SOL    HW119088   4.408   1.024   7.017
 6063SOL    HW219089   4.267   0.969   0.054
 6064SOL     OW19090   0.867   5.713   3.613
 6064SOL    HW119091   0.890   5.733   3.518
 6064SOL    HW219092   0.849   5.615   3.622
 6065SOL     OW19093   0.011   6.880   0.626
 6065SOL    HW119094   6.983   6.933   0.693
 6065SOL    HW219095   0.041   6.941   0.552
 6066SOL     OW19096   4.132   2.430   0.524
 6066SOL    HW119097   4.088   2.390   0.604
 6066SOL    HW219098   4.070   2.424   0.445
 6067SOL     OW19099   5.980   1.257   6.330
 6067SOL    HW119100   5.949   1.164   6.312
 6067SOL    HW219101   6.079   1.258   6.346
 6068SOL     OW19102   4.654   2.755   4.761
 6068SOL    HW119103   4.683   2.844   4.797
 6068SOL    HW219104   4.606   2.703   4.832
 6069SOL     OW19105   6.622   3.885   4.905
 6069SOL    HW119106   6.650   3.940   4.983
 6069SOL    HW219107   6.577   3.801   4.937
 6070SOL     OW19108   3.997   2.616   6.435
 6070SOL    HW119109   4.036   2.606   6.343
 6070SOL    HW219110   4.044   2.690   6.483
 6071SOL     OW19111   3.935   6.680   5.156
 6071SOL    HW119112   3.920   6.768   5.111
 6071SOL    HW219113   4.031   6.653   5.145
 6072SOL     OW19114   0.423   1.617   1.655
 6072SOL    HW119115   0.391   1.707   1.626
 6072SOL    HW219116   0.498   1.588   1.595
 6073SOL     OW19117   6.654   2.465   0.851
 6073SOL    HW119118   6.707   2.398   0.799
 6073SOL    HW219119   6.636   2.545   0.794
 6074SOL     OW19120   0.207   6.963   5.061
 6074SOL    HW119121   0.240   7.017   4.983
 6074SOL    HW219122   0.109   6.944   5.049
 6075SOL     OW19123   5.745   3.521   0.510
 6075SOL    HW119124   5.767   3.450   0.444
 6075SOL    HW219125   5.800   3.602   0.491
 6076SOL     OW19126   1.844   6.345   3.641
 6076SOL    HW119127   1.852   6.306   3.549
 6076SOL    HW219128   1.890   6.285   3.707
 6077SOL     OW19129   5.825   6.016   2.062
 6077SOL    HW119130   5.767   5.935   2.045
 6077SOL    HW219131   5.819   6.077   1.984
 6078SOL     OW19132   2.938   4.845   4.023
 6078SOL    HW119133   2.896   4.783   3.957
 6078SOL    HW219134   2.891   4.837   4.111
 6079SOL     OW19135   2.259   2.048   6.754
 6079SOL    HW119136   2.351   2.017   6.729
 6079SOL    HW219137   2.193   1.976   6.735
 6080SOL     OW19138   5.838   2.325   1.299
 6080SOL    HW119139   5.873   2.400   1.356
 6080SOL    HW219140   5.757   2.285   1.342
 6081SOL     OW19141   6.917   3.086   3.958
 6081SOL    HW119142   6.890   3.178   3.987
 6081SOL    HW219143   6.835   3.032   3.936
 6082SOL     OW19144   4.137   1.378   2.920
 6082SOL    HW119145   4.233   1.386   2.891
 6082SOL    HW219146   4.098   1.470   2.932
 6083SOL     OW19147   1.479   6.233   0.036
 6083SOL    HW119148   1.579   6.227   0.025
 6083SOL    HW219149   1.444   6.308   7.004
 6084SOL     OW19150   0.082   5.696   5.412
 6084SOL    HW119151   0.064   5.760   5.337
 6084SOL    HW219152   0.012   5.625   5.413
 6085SOL     OW19153   5.979   3.728   0.058
 6085SOL    HW119154   6.066   3.771   0.033
 6085SOL    HW219155   5.923   3.793   0.110
 6086SOL     OW19156   3.239   2.163   4.210
 6086SOL    HW119157   3.231   2.083   4.269
 6086SOL    HW219158   3.153   2.213   4.209
 6087SOL     OW19159   5.684   6.599   6.436
 6087SOL    HW119160   5.763   6.601   6.497
 6087SOL    HW219161   5.613   6.542   6.475
 6088SOL     OW19162   0.755   7.013   5.155
 6088SOL    HW119163   0.712   6.930   5.190
 6088SOL    HW219164   0.784   6.998   5.060
 6089SOL     OW19165   0.298   3.464   1.023
 6089SOL    HW119166   0.221   3.527   1.034
 6089SOL    HW219167   0.379   3.502   1.067
 6090SOL     OW19168   0.787   5.254   5.204
 6090SOL    HW119169   0.823   5.236   5.112
 6090SOL    HW219170   0.688   5.268   5.198
 6091SOL     OW19171   6.231   1.355   1.824
 6091SOL    HW119172   6.328   1.364   1.804
 6091SOL    HW219173   6.216   1.276   1.884
 6092SOL     OW19174   1.889   1.345   2.692
 6092SOL    HW119175   1.944   1.289   2.753
 6092SOL    HW219176   1.937   1.432   2.675
 6093SOL     OW19177   1.298   2.718   1.393
 6093SOL    HW119178   1.263   2.811   1.381
 6093SOL    HW219179   1.360   2.696   1.318
 6094SOL     OW19180   0.576   1.107   1.351
 6094SOL    HW119181   0.570   1.170   1.428
 6094SOL    HW219182   0.485   1.088   1.315
 6095SOL     OW19183   6.556   3.450   6.498
 6095SOL    HW119184   6.476   3.467   6.440
 6095SOL    HW219185   6.526   3.413   6.585
 6096SOL     OW19186   3.822   2.024   3.650
 6096SOL    HW119187   3.758   2.045   3.724
 6096SOL    HW219188   3.807   2.086   3.573
 6097SOL     OW19189   2.649   1.200   2.217
 6097SOL    HW119190   2.697   1.126   2.170
 6097SOL    HW219191   2.707   1.238   2.288
 6098SOL     OW19192   2.208   2.277   5.605
 6098SOL    HW119193   2.224   2.207   5.674
 6098SOL    HW219194   2.263   2.358   5.627
 6099SOL     OW19195   5.901   5.774   5.003
 6099SOL    HW119196   5.928   5.830   4.925
 6099SOL    HW219197   5.820   5.720   4.979
 6100SOL     OW19198   6.194   2.579   0.043
 6100SOL    HW119199   6.201   2.485   0.010
 6100SOL    HW219200   6.103   2.593   0.084
 6101SOL     OW19201   6.874   1.272   5.487
 6101SOL    HW119202   6.793   1.262   5.430
 6101SOL    HW219203   6.886   1.189   5.542
 6102SOL     OW19204   2.843   0.883   4.834
 6102SOL    HW119205   2.902   0.943   4.779
 6102SOL    HW219206   2.887   0.794   4.846
 6103SOL     OW19207   6.509   6.603   5.040
 6103SOL    HW119208   6.605   6.632   5.040
 6103SOL    HW219209   6.485   6.567   5.130
 6104SOL     OW19210   6.287   1.702   6.292
 6104SOL    HW119211   6.277   1.607   6.322
 6104SOL    HW219212   6.205   1.754   6.318
 6105SOL     OW19213   3.292   5.792   5.033
 6105SOL    HW119214   3.313   5.811   4.937
 6105SOL    HW219215   3.366   5.741   5.075
 6106SOL     OW19216   3.454   5.038   5.760
 6106SOL    HW119217   3.541   4.997   5.734
 6106SOL    HW219218   3.443   5.032   5.860
 6107SOL     OW19219   2.035   4.681   5.140
 6107SOL    HW119220   1.998   4.588   5.138
 6107SOL    HW219221   2.007   4.730   5.058
 6108SOL     OW19222   0.886   1.934   4.483
 6108SOL    HW119223   0.980   1.908   4.461
 6108SOL    HW219224   0.823   1.876   4.432
 6109SOL     OW19225   5.599   3.469   1.111
 6109SOL    HW119226   5.675   3.411   1.079
 6109SOL    HW219227   5.557   3.514   1.032
 6110SOL     OW19228   3.514   1.713   4.840
 6110SOL    HW119229   3.468   1.780   4.898
 6110SOL    HW219230   3.581   1.760   4.782
 6111SOL     OW19231   1.394   4.729   3.207
 6111SOL    HW119232   1.361   4.634   3.202
 6111SOL    HW219233   1.463   4.737   3.279
 6112SOL     OW19234   0.787   1.998   3.023
 6112SOL    HW119235   0.867   2.057   3.030
 6112SOL    HW219236   0.731   2.008   3.106
 6113SOL     OW19237   2.001   6.810   5.699
 6113SOL    HW119238   2.086   6.861   5.711
 6113SOL    HW219239   1.936   6.835   5.771
 6114SOL     OW19240   4.320   5.917   0.883
 6114SOL    HW119241   4.248   5.849   0.895
 6114SOL    HW219242   4.373   5.924   0.968
 6115SOL     OW19243   5.352   5.140   2.478
 6115SOL    HW119244   5.300   5.070   2.429
 6115SOL    HW219245   5.442   5.104   2.503
 6116SOL     OW19246   4.012   0.895   1.939
 6116SOL    HW119247   4.071   0.976   1.947
 6116SOL    HW219248   4.036   0.845   1.856
 6117SOL     OW19249   5.747   6.982   4.838
 6117SOL    HW119250   5.792   7.021   4.758
 6117SOL    HW219251   5.766   0.014   4.918
 6118SOL     OW19252   6.112   0.853   3.428
 6118SOL    HW119253   6.194   0.868   3.373
 6118SOL    HW219254   6.113   0.916   3.506
 6119SOL     OW19255   6.970   4.932   5.022
 6119SOL    HW119256   6.947   4.883   4.938
 6119SOL    HW219257   0.044   4.927   5.038
 6120SOL     OW19258   2.263   0.058   2.506
 6120SOL    HW119259   2.260   0.158   2.506
 6120SOL    HW219260   2.324   0.027   2.433
 6121SOL     OW19261   0.672   2.219   3.984
 6121SOL    HW119262   0.630   2.192   3.897
 6121SOL    HW219263   0.769   2.237   3.971
 6122SOL     OW19264   3.956   5.620   3.218
 6122SOL    HW119265   3.963   5.524   3.191
 6122SOL    HW219266   3.898   5.668   3.152
 6123SOL     OW19267   6.413   1.094   2.267
 6123SOL    HW119268   6.362   1.039   2.334
 6123SOL    HW219269   6.462   1.033   2.205
 6124SOL     OW19270   3.406   0.332   5.589
 6124SOL    HW119271   3.448   0.302   5.674
 6124SOL    HW219272   3.417   0.431   5.580
 6125SOL     OW19273   2.267   6.176   1.918
 6125SOL    HW119274   2.290   6.104   1.853
 6125SOL    HW219275   2.264   6.138   2.011
 6126SOL     OW19276   5.316   4.909   2.852
 6126SOL    HW119277   5.357   4.991   2.892
 6126SOL    HW219278   5.231   4.934   2.806
 6127SOL     OW19279   1.877   6.309   1.678
 6127SOL    HW119280   1.934   6.286   1.757
 6127SOL    HW219281   1.935   6.332   1.600
 6128SOL     OW19282   6.078   2.146   0.349
 6128SOL    HW119283   6.090   2.242   0.376
 6128SOL    HW219284   5.996   2.110   0.392
 6129SOL     OW19285   6.252   4.412   3.265
 6129SOL    HW119286   6.260   4.316   3.237
 6129SOL    HW219287   6.169   4.451   3.225
 6130SOL     OW19288   5.137   3.085   2.872
 6130SOL    HW119289   5.201   3.085   2.948
 6130SOL    HW219290   5.122   2.991   2.841
 6131SOL     OW19291   6.349   1.154   5.444
 6131SOL    HW119292   6.415   1.164   5.519
 6131SOL    HW219293   6.317   1.060   5.440
 6132SOL     OW19294   3.990   3.011   0.648
 6132SOL    HW119295   4.024   2.975   0.735
 6132SOL    HW219296   4.037   3.096   0.626
 6133SOL     OW19297   0.849   4.021   1.588
 6133SOL    HW119298   0.900   4.002   1.505
 6133SOL    HW219299   0.756   4.050   1.565
 6134SOL     OW19300   4.373   3.614   6.633
 6134SOL    HW119301   4.361   3.612   6.733
 6134SOL    HW219302   4.341   3.702   6.599
 6135SOL     OW19303   6.217   6.412   1.396
 6135SOL    HW119304   6.276   6.478   1.350
 6135SOL    HW219305   6.273   6.339   1.435
 6136SOL     OW19306   1.378   1.727   1.746
 6136SOL    HW119307   1.386   1.654   1.678
 6136SOL    HW219308   1.449   1.716   1.815
 6137SOL     OW19309   3.076   6.579   5.532
 6137SOL    HW119310   3.039   6.501   5.583
 6137SOL    HW219311   3.097   6.654   5.595
 6138SOL     OW19312   3.697   6.004   3.261
 6138SOL    HW119313   3.774   6.000   3.325
 6138SOL    HW219314   3.715   5.943   3.183
 6139SOL     OW19315   1.455   4.658   4.617
 6139SOL    HW119316   1.428   4.586   4.553
 6139SOL    HW219317   1.536   4.705   4.582
 6140SOL     OW19318   1.404   6.800   1.321
 6140SOL    HW119319   1.398   6.742   1.402
 6140SOL    HW219320   1.493   6.846   1.320
 6141SOL     OW19321   6.476   5.607   5.981
 6141SOL    HW119322   6.545   5.559   5.926
 6141SOL    HW219323   6.401   5.544   6.002
 6142SOL     OW19324   6.771   4.529   0.947
 6142SOL    HW119325   6.711   4.460   0.989
 6142SOL    HW219326   6.812   4.492   0.864
 6143SOL     OW19327   5.688   5.051   6.505
 6143SOL    HW119328   5.633   5.031   6.423
 6143SOL    HW219329   5.672   5.145   6.533
 6144SOL     OW19330   0.218   4.160   4.095
 6144SOL    HW119331   0.297   4.219   4.114
 6144SOL    HW219332   0.235   4.070   4.133
 6145SOL     OW19333   5.193   5.508   3.052
 6145SOL    HW119334   5.096   5.504   3.028
 6145SOL    HW219335   5.222   5.604   3.053
 6146SOL     OW19336   5.487   1.400   3.606
 6146SOL    HW119337   5.496   1.359   3.697
 6146SOL    HW219338   5.577   1.424   3.571
 6147SOL     OW19339   2.121   3.555   2.363
 6147SOL    HW119340   2.207   3.600   2.386
 6147SOL    HW219341   2.085   3.594   2.278
 6148SOL     OW19342   6.018   6.155   4.365
 6148SOL    HW119343   6.023   6.254   4.376
 6148SOL    HW219344   6.107   6.114   4.388
 6149SOL     OW19345   3.267   5.571   3.168
 6149SOL    HW119346   3.321   5.514   3.230
 6149SOL    HW219347   3.183   5.524   3.143
 6150SOL     OW19348   4.614   5.901   5.908
 6150SOL    HW119349   4.699   5.878   5.862
 6150SOL    HW219350   4.551   5.943   5.843
 6151SOL     OW19351   5.185   2.683   5.495
 6151SOL    HW119352   5.163   2.684   5.398
 6151SOL    HW219353   5.204   2.589   5.525
 6152SOL     OW19354   6.122   4.524   6.654
 6152SOL    HW119355   6.195   4.568   6.704
 6152SOL    HW219356   6.156   4.490   6.566
 6153SOL     OW19357   4.069   3.546   1.558
 6153SOL    HW119358   4.136   3.604   1.512
 6153SOL    HW219359   3.976   3.577   1.534
 6154SOL     OW19360   4.909   3.031   3.291
 6154SOL    HW119361   4.950   3.010   3.202
 6154SOL    HW219362   4.813   3.003   3.291
 6155SOL     OW19363   0.257   3.835   5.254
 6155SOL    HW119364   0.318   3.757   5.242
 6155SOL    HW219365   0.264   3.869   5.348
 6156SOL     OW19366   6.298   6.795   3.415
 6156SOL    HW119367   6.388   6.824   3.382
 6156SOL    HW219368   6.306   6.704   3.455
 6157SOL     OW19369   2.404   0.974   4.062
 6157SOL    HW119370   2.325   0.988   4.003
 6157SOL    HW219371   2.373   0.957   4.156
 6158SOL     OW19372   4.627   1.381   5.957
 6158SOL    HW119373   4.614   1.428   6.044
 6158SOL    HW219374   4.705   1.421   5.908
 6159SOL     OW19375   5.239   3.191   0.136
 6159SOL    HW119376   5.229   3.217   0.040
 6159SOL    HW219377   5.237   3.092   0.144
 6160SOL     OW19378   5.482   6.008   1.903
 6160SOL    HW119379   5.412   6.065   1.946
 6160SOL    HW219380   5.558   6.065   1.873
 6161SOL     OW19381   5.678   0.156   5.849
 6161SOL    HW119382   5.628   0.191   5.928
 6161SOL    HW219383   5.688   0.057   5.856
 6162SOL     OW19384   6.664   4.906   4.842
 6162SOL    HW119385   6.758   4.878   4.825
 6162SOL    HW219386   6.606   4.876   4.766
 6163SOL     OW19387   6.405   4.637   1.533
 6163SOL    HW119388   6.412   4.575   1.612
 6163SOL    HW219389   6.317   4.683   1.534
 6164SOL     OW19390   3.738   1.809   1.103
 6164SOL    HW119391   3.672   1.881   1.086
 6164SOL    HW219392   3.798   1.835   1.179
 6165SOL     OW19393   3.348   6.063   7.017
 6165SOL    HW119394   3.440   6.102   7.020
 6165SOL    HW219395   3.297   6.101   6.940
 6166SOL     OW19396   2.821   1.560   6.068
 6166SOL    HW119397   2.751   1.587   6.001
 6166SOL    HW219398   2.778   1.540   6.155
 6167SOL     OW19399   0.685   4.047   3.586
 6167SOL    HW119400   0.607   4.110   3.578
 6167SOL    HW219401   0.700   4.001   3.499
 6168SOL     OW19402   0.074   4.183   2.494
 6168SOL    HW119403   0.064   4.214   2.400
 6168SOL    HW219404   0.035   4.092   2.503
 6169SOL     OW19405   2.070   4.105   2.387
 6169SOL    HW119406   2.095   4.018   2.345
 6169SOL    HW219407   1.971   4.119   2.378
 6170SOL     OW19408   0.475   3.213   5.458
 6170SOL    HW119409   0.440   3.158   5.381
 6170SOL    HW219410   0.537   3.283   5.423
 6171SOL     OW19411   0.019   0.429   6.410
 6171SOL    HW119412   0.006   0.428   6.509
 6171SOL    HW219413   6.955   0.418   6.365
 6172SOL     OW19414   0.521   3.504   2.979
 6172SOL    HW119415   0.522   3.473   2.884
 6172SOL    HW219416   0.502   3.602   2.982
 6173SOL     OW19417   6.822   6.945   3.268
 6173SOL    HW119418   6.866   6.856   3.260
 6173SOL    HW219419   6.788   6.956   3.362
 6174SOL     OW19420   5.449   3.858   2.815
 6174SOL    HW119421   5.547   3.876   2.803
 6174SOL    HW219422   5.430   3.763   2.791
 6175SOL     OW19423   2.575   2.026   5.510
 6175SOL    HW119424   2.483   2.049   5.478
 6175SOL    HW219425   2.637   2.022   5.432
 6176SOL     OW19426   3.991   4.264   5.340
 6176SOL    HW119427   4.090   4.253   5.326
 6176SOL    HW219428   3.945   4.264   5.252
 6177SOL     OW19429   5.752   0.795   1.567
 6177SOL    HW119430   5.801   0.882   1.572
 6177SOL    HW219431   5.815   0.724   1.535
 6178SOL     OW19432   4.625   4.579   1.605
 6178SOL    HW119433   4.562   4.625   1.668
 6178SOL    HW219434   4.683   4.647   1.560
 6179SOL     OW19435   5.635   4.934   3.117
 6179SOL    HW119436   5.547   4.911   3.157
 6179SOL    HW219437   5.674   5.013   3.165
 6180SOL     OW19438   2.770   4.157   0.180
 6180SOL    HW119439   2.796   4.110   0.096
 6180SOL    HW219440   2.791   4.099   0.258
 6181SOL     OW19441   5.074   5.180   6.002
 6181SOL    HW119442   5.028   5.104   5.955
 6181SOL    HW219443   5.090   5.156   6.097
 6182SOL     OW19444   3.361   3.290   0.348
 6182SOL    HW119445   3.456   3.296   0.319
 6182SOL    HW219446   3.327   3.197   0.332
 6183SOL     OW19447   0.841   1.984   1.457
 6183SOL    HW119448   0.814   1.915   1.524
 6183SOL    HW219449   0.941   1.990   1.453
 6184SOL     OW19450   2.567   0.578   5.791
 6184SOL    HW119451   2.593   0.596   5.696
 6184SOL    HW219452   2.610   0.645   5.851
 6185SOL     OW19453   3.420   2.807   5.693
 6185SOL    HW119454   3.509   2.774   5.662
 6185SOL    HW219455   3.349   2.743   5.663
 6186SOL     OW19456   6.489   1.389   1.953
 6186SOL    HW119457   6.490   1.406   2.052
 6186SOL    HW219458   6.497   1.291   1.935
 6187SOL     OW19459   5.523   1.553   5.271
 6187SOL    HW119460   5.579   1.625   5.229
 6187SOL    HW219461   5.447   1.530   5.210
 6188SOL     OW19462   1.353   2.264   5.264
 6188SOL    HW119463   1.281   2.298   5.203
 6188SOL    HW219464   1.350   2.314   5.351
 6189SOL     OW19465   6.476   6.090   2.560
 6189SOL    HW119466   6.409   6.021   2.587
 6189SOL    HW219467   6.555   6.046   2.518
 6190SOL     OW19468   0.132   2.501   5.672
 6190SOL    HW119469   0.151   2.456   5.759
 6190SOL    HW219470   0.219   2.519   5.625
 6191SOL     OW19471   3.759   3.438   6.525
 6191SOL    HW119472   3.740   3.530   6.491
 6191SOL    HW219473   3.817   3.444   6.607
 6192SOL     OW19474   2.843   1.301   0.022
 6192SOL    HW119475   2.859   1.380   0.081
 6192SOL    HW219476   2.921   1.289   6.985
 6193SOL     OW19477   4.627   5.458   6.732
 6193SOL    HW119478   4.623   5.358   6.725
 6193SOL    HW219479   4.607   5.499   6.643
 6194SOL     OW19480   6.381   0.124   6.009
 6194SOL    HW119481   6.447   0.143   5.937
 6194SOL    HW219482   6.314   0.199   6.014
 6195SOL     OW19483   6.693   6.571   5.925
 6195SOL    HW119484   6.693   6.668   5.948
 6195SOL    HW219485   6.753   6.555   5.846
 6196SOL     OW19486   5.775   3.859   3.242
 6196SOL    HW119487   5.752   3.913   3.161
 6196SOL    HW219488   5.721   3.775   3.242
 6197SOL     OW19489   3.170   5.861   1.757
 6197SOL    HW119490   3.218   5.898   1.836
 6197SOL    HW219491   3.201   5.767   1.740
 6198SOL     OW19492   6.420   6.458   6.292
 6198SOL    HW119493   6.483   6.524   6.252
 6198SOL    HW219494   6.402   6.482   6.387
 6199SOL     OW19495   1.351   0.265   0.921
 6199SOL    HW119496   1.263   0.219   0.917
 6199SOL    HW219497   1.419   0.204   0.961
 6200SOL     OW19498   1.846   2.171   3.004
 6200SOL    HW119499   1.882   2.255   2.962
 6200SOL    HW219500   1.804   2.115   2.933
 6201SOL     OW19501   6.858   3.662   3.710
 6201SOL    HW119502   6.906   3.575   3.708
 6201SOL    HW219503   6.878   3.711   3.795
 6202SOL     OW19504   6.152   1.402   2.334
 6202SOL    HW119505   6.157   1.491   2.378
 6202SOL    HW219506   6.085   1.345   2.381
 6203SOL     OW19507   6.912   6.159   2.477
 6203SOL    HW119508   6.947   6.118   2.392
 6203SOL    HW219509   6.916   6.259   2.469
 6204SOL     OW19510   2.541   6.881   5.145
 6204SOL    HW119511   2.512   6.787   5.163
 6204SOL    HW219512   2.581   6.920   5.228
 6205SOL     OW19513   5.276   4.067   3.241
 6205SOL    HW119514   5.193   4.084   3.187
 6205SOL    HW219515   5.347   4.133   3.214
 6206SOL     OW19516   5.273   2.175   3.766
 6206SOL    HW119517   5.263   2.083   3.727
 6206SOL    HW219518   5.337   2.228   3.711
 6207SOL     OW19519   2.033   5.254   4.279
 6207SOL    HW119520   2.062   5.167   4.316
 6207SOL    HW219521   2.112   5.315   4.269
 6208SOL     OW19522   3.566   3.426   5.633
 6208SOL    HW119523   3.545   3.446   5.537
 6208SOL    HW219524   3.514   3.345   5.662
 6209SOL     OW19525   3.176   3.066   0.795
 6209SOL    HW119526   3.276   3.074   0.787
 6209SOL    HW219527   3.154   2.997   0.864
 6210SOL     OW19528   4.754   1.837   3.821
 6210SOL    HW119529   4.789   1.832   3.915
 6210SOL    HW219530   4.685   1.909   3.815
 6211SOL     OW19531   5.844   5.006   4.801
 6211SOL    HW119532   5.893   4.918   4.805
 6211SOL    HW219533   5.907   5.078   4.771
 6212SOL     OW19534   4.370   4.815   5.441
 6212SOL    HW119535   4.423   4.780   5.364
 6212SOL    HW219536   4.302   4.880   5.409
 6213SOL     OW19537   4.368   5.941   0.130
 6213SOL    HW119538   4.437   6.002   0.091
 6213SOL    HW219539   4.373   5.943   0.230
 6214SOL     OW19540   5.899   5.647   6.499
 6214SOL    HW119541   5.926   5.694   6.415
 6214SOL    HW219542   5.947   5.560   6.506
 6215SOL     OW19543   5.887   2.634   5.820
 6215SOL    HW119544   5.884   2.539   5.789
 6215SOL    HW219545   5.935   2.690   5.753
 6216SOL     OW19546   4.623   2.064   2.801
 6216SOL    HW119547   4.703   2.124   2.791
 6216SOL    HW219548   4.565   2.098   2.875
 6217SOL     OW19549   0.804   4.681   2.194
 6217SOL    HW119550   0.712   4.668   2.157
 6217SOL    HW219551   0.870   4.634   2.135
 6218SOL     OW19552   4.865   6.712   6.756
 6218SOL    HW119553   4.787   6.698   6.818
 6218SOL    HW219554   4.939   6.755   6.807
 6219SOL     OW19555   0.992   0.845   6.089
 6219SOL    HW119556   0.920   0.908   6.058
 6219SOL    HW219557   0.965   0.804   6.176
 6220SOL     OW19558   4.111   0.881   0.889
 6220SOL    HW119559   4.204   0.846   0.875
 6220SOL    HW219560   4.099   0.907   0.985
 6221SOL     OW19561   6.293   5.590   6.424
 6221SOL    HW119562   6.212   5.534   6.407
 6221SOL    HW219563   6.291   5.671   6.366
 6222SOL     OW19564   6.426   1.346   2.379
 6222SOL    HW119565   6.339   1.383   2.346
 6222SOL    HW219566   6.439   1.254   2.342
 6223SOL     OW19567   0.056   4.977   3.394
 6223SOL    HW119568   7.005   5.033   3.426
 6223SOL    HW219569   0.108   5.028   3.325
 6224SOL     OW19570   3.834   1.405   6.574
 6224SOL    HW119571   3.851   1.446   6.485
 6224SOL    HW219572   3.913   1.422   6.634
 6225SOL     OW19573   4.680   6.532   6.574
 6225SOL    HW119574   4.750   6.590   6.531
 6225SOL    HW219575   4.724   6.450   6.612
 6226SOL     OW19576   1.211   1.043   4.870
 6226SOL    HW119577   1.258   1.131   4.881
 6226SOL    HW219578   1.188   1.006   4.960
 6227SOL     OW19579   2.787   3.972   5.540
 6227SOL    HW119580   2.699   4.001   5.504
 6227SOL    HW219581   2.826   4.045   5.596
 6228SOL     OW19582   1.505   3.179   4.241
 6228SOL    HW119583   1.595   3.216   4.216
 6228SOL    HW219584   1.439   3.202   4.170
 6229SOL     OW19585   0.525   3.879   4.042
 6229SOL    HW119586   0.433   3.915   4.055
 6229SOL    HW219587   0.592   3.953   4.052
 6230SOL     OW19588   0.220   0.838   2.059
 6230SOL    HW119589   0.206   0.831   2.158
 6230SOL    HW219590   0.243   0.747   2.023
 6231SOL     OW19591   1.120   5.286   0.040
 6231SOL    HW119592   1.204   5.241   0.069
 6231SOL    HW219593   1.099   5.361   0.102
 6232SOL     OW19594   4.037   1.254   6.351
 6232SOL    HW119595   4.108   1.318   6.321
 6232SOL    HW219596   3.949   1.300   6.354
 6233SOL     OW19597   6.850   3.854   1.647
 6233SOL    HW119598   6.942   3.815   1.645
 6233SOL    HW219599   6.825   3.877   1.741
 6234SOL     OW19600   4.929   6.409   4.830
 6234SOL    HW119601   4.989   6.489   4.836
 6234SOL    HW219602   4.882   6.396   4.918
 6235SOL     OW19603   6.655   0.777   2.940
 6235SOL    HW119604   6.589   0.786   2.866
 6235SOL    HW219605   6.694   0.866   2.963
 6236SOL     OW19606   1.127   5.256   0.837
 6236SOL    HW119607   1.087   5.190   0.900
 6236SOL    HW219608   1.100   5.349   0.864
 6237SOL     OW19609   3.756   1.338   1.021
 6237SOL    HW119610   3.680   1.327   0.958
 6237SOL    HW219611   3.842   1.318   0.974
 6238SOL     OW19612   2.331   6.770   4.332
 6238SOL    HW119613   2.402   6.774   4.262
 6238SOL    HW219614   2.366   6.807   4.418
 6239SOL     OW19615   4.628   1.419   3.360
 6239SOL    HW119616   4.706   1.356   3.364
 6239SOL    HW219617   4.606   1.439   3.264
 6240SOL     OW19618   4.137   3.517   4.226
 6240SOL    HW119619   4.157   3.467   4.311
 6240SOL    HW219620   4.165   3.612   4.236
 6241SOL     OW19621   3.690   0.207   2.855
 6241SOL    HW119622   3.736   0.150   2.923
 6241SOL    HW219623   3.757   0.266   2.810
 6242SOL     OW19624   2.643   2.027   3.818
 6242SOL    HW119625   2.714   2.080   3.864
 6242SOL    HW219626   2.563   2.020   3.878
 6243SOL     OW19627   4.845   0.965   5.853
 6243SOL    HW119628   4.904   1.042   5.877
 6243SOL    HW219629   4.902   0.888   5.822
 6244SOL     OW19630   4.435   4.793   2.937
 6244SOL    HW119631   4.355   4.851   2.921
 6244SOL    HW219632   4.452   4.736   2.856
 6245SOL     OW19633   0.869   4.381   2.601
 6245SOL    HW119634   0.852   4.470   2.558
 6245SOL    HW219635   0.782   4.342   2.630
 6246SOL     OW19636   6.588   6.231   4.202
 6246SOL    HW119637   6.537   6.294   4.260
 6246SOL    HW219638   6.556   6.138   4.218
 6247SOL     OW19639   6.465   6.652   2.630
 6247SOL    HW119640   6.526   6.704   2.691
 6247SOL    HW219641   6.500   6.559   2.619
 6248SOL     OW19642   3.053   3.480   6.206
 6248SOL    HW119643   3.109   3.398   6.218
 6248SOL    HW219644   3.111   3.558   6.184
 6249SOL     OW19645   6.100   3.409   1.786
 6249SOL    HW119646   6.140   3.422   1.695
 6249SOL    HW219647   6.040   3.329   1.784
 6250SOL     OW19648   6.761   7.015   0.440
 6250SOL    HW119649   6.696   7.015   0.364
 6250SOL    HW219650   6.728   6.954   0.513
 6251SOL     OW19651   2.556   6.768   4.163
 6251SOL    HW119652   2.570   6.670   4.152
 6251SOL    HW219653   2.547   6.811   4.073
 6252SOL     OW19654   2.658   5.417   6.772
 6252SOL    HW119655   2.742   5.437   6.720
 6252SOL    HW219656   2.579   5.434   6.714
 6253SOL     OW19657   3.774   4.943   4.980
 6253SOL    HW119658   3.792   4.918   5.075
 6253SOL    HW219659   3.684   4.987   4.973
 6254SOL     OW19660   0.395   6.628   1.380
 6254SOL    HW119661   0.317   6.685   1.354
 6254SOL    HW219662   0.480   6.675   1.355
 6255SOL     OW19663   0.420   1.169   2.187
 6255SOL    HW119664   0.351   1.119   2.134
 6255SOL    HW219665   0.487   1.104   2.223
 6256SOL     OW19666   4.870   5.913   2.313
 6256SOL    HW119667   4.894   5.840   2.378
 6256SOL    HW219668   4.786   5.889   2.265
 6257SOL     OW19669   3.689   4.201   1.501
 6257SOL    HW119670   3.613   4.263   1.487
 6257SOL    HW219671   3.659   4.121   1.553
 6258SOL     OW19672   4.232   6.081   5.412
 6258SOL    HW119673   4.222   6.026   5.495
 6258SOL    HW219674   4.155   6.145   5.405
 6259SOL     OW19675   2.753   0.453   4.955
 6259SOL    HW119676   2.664   0.464   4.999
 6259SOL    HW219677   2.760   0.517   4.879
 6260SOL     OW19678   1.955   1.553   0.523
 6260SOL    HW119679   1.986   1.647   0.536
 6260SOL    HW219680   2.008   1.510   0.449
 6261SOL     OW19681   3.613   0.049   1.128
 6261SOL    HW119682   3.576   0.134   1.090
 6261SOL    HW219683   3.573   0.033   1.218
 6262SOL     OW19684   6.350   0.242   2.327
 6262SOL    HW119685   6.417   0.174   2.356
 6262SOL    HW219686   6.396   0.331   2.315
 6263SOL     OW19687   5.854   6.056   6.192
 6263SOL    HW119688   5.941   6.057   6.143
 6263SOL    HW219689   5.793   5.990   6.150
 6264SOL     OW19690   1.739   0.175   0.856
 6264SOL    HW119691   1.831   0.189   0.818
 6264SOL    HW219692   1.678   0.142   0.784
 6265SOL     OW19693   4.595   1.028   0.009
 6265SOL    HW119694   4.663   1.072   0.067
 6265SOL    HW219695   4.589   0.931   0.033
 6266SOL     OW19696   2.510   4.972   2.661
 6266SOL    HW119697   2.579   4.944   2.594
 6266SOL    HW219698   2.474   5.062   2.637
 6267SOL     OW19699   1.641   6.355   4.857
 6267SOL    HW119700   1.665   6.290   4.929
 6267SOL    HW219701   1.554   6.397   4.878
 6268SOL     OW19702   3.427   1.262   1.278
 6268SOL    HW119703   3.447   1.167   1.301
 6268SOL    HW219704   3.432   1.318   1.361
 6269SOL     OW19705   6.352   5.229   0.385
 6269SOL    HW119706   6.258   5.239   0.417
 6269SOL    HW219707   6.372   5.133   0.369
 6270SOL     OW19708   2.076   6.724   0.126
 6270SOL    HW119709   2.088   6.636   0.172
 6270SOL    HW219710   2.154   6.740   0.065
 6271SOL     OW19711   5.794   3.355   6.379
 6271SOL    HW119712   5.737   3.355   6.462
 6271SOL    HW219713   5.743   3.399   6.305
 6272SOL     OW19714   0.626   6.915   1.006
 6272SOL    HW119715   0.576   6.845   0.956
 6272SOL    HW219716   0.725   6.900   0.996
 6273SOL     OW19717   0.069   6.459   1.276
 6273SOL    HW119718   0.054   6.543   1.329
 6273SOL    HW219719   0.166   6.451   1.254
 6274SOL     OW19720   3.275   5.807   4.123
 6274SOL    HW119721   3.241   5.750   4.198
 6274SOL    HW219722   3.356   5.764   4.082
 6275SOL     OW19723   1.978   5.457   6.882
 6275SOL    HW119724   1.916   5.470   6.805
 6275SOL    HW219725   2.033   5.539   6.895
 6276SOL     OW19726   1.315   5.659   2.884
 6276SOL    HW119727   1.320   5.683   2.981
 6276SOL    HW219728   1.403   5.679   2.840
 6277SOL     OW19729   5.083   3.882   1.007
 6277SOL    HW119730   5.096   3.792   1.050
 6277SOL    HW219731   4.987   3.909   1.016
 6278SOL     OW19732   2.421   1.123   6.151
 6278SOL    HW119733   2.347   1.183   6.120
 6278SOL    HW219734   2.385   1.057   6.218
 6279SOL     OW19735   2.559   0.043   1.398
 6279SOL    HW119736   2.483   0.083   1.347
 6279SOL    HW219737   2.531   0.029   1.493
 6280SOL     OW19738   6.324   2.114   0.222
 6280SOL    HW119739   6.356   2.205   0.248
 6280SOL    HW219740   6.231   2.101   0.257
 6281SOL     OW19741   5.878   3.939   6.003
 6281SOL    HW119742   5.882   3.892   6.091
 6281SOL    HW219743   5.900   3.874   5.929
 6282SOL     OW19744   0.028   3.206   5.782
 6282SOL    HW119745   0.113   3.164   5.814
 6282SOL    HW219746   0.045   3.255   5.697
 6283SOL     OW19747   1.203   6.065   4.591
 6283SOL    HW119748   1.126   6.029   4.644
 6283SOL    HW219749   1.257   5.988   4.555
 6284SOL     OW19750   1.941   4.415   6.632
 6284SOL    HW119751   1.974   4.324   6.605
 6284SOL    HW219752   1.917   4.467   6.551
 6285SOL     OW19753   0.813   3.850   3.342
 6285SOL    HW119754   0.905   3.885   3.325
 6285SOL    HW219755   0.751   3.883   3.271
 6286SOL     OW19756   0.821   2.396   6.761
 6286SOL    HW119757   0.812   2.299   6.738
 6286SOL    HW219758   0.733   2.430   6.795
 6287SOL     OW19759   4.716   4.971   4.751
 6287SOL    HW119760   4.808   5.000   4.724
 6287SOL    HW219761   4.712   4.871   4.753
 6288SOL     OW19762   3.542   3.043   6.429
 6288SOL    HW119763   3.449   3.047   6.395
 6288SOL    HW219764   3.562   2.950   6.461
 6289SOL     OW19765   2.649   4.357   5.787
 6289SOL    HW119766   2.626   4.445   5.830
 6289SOL    HW219767   2.630   4.362   5.689
 6290SOL     OW19768   5.455   5.483   4.164
 6290SOL    HW119769   5.414   5.422   4.096
 6290SOL    HW219770   5.446   5.578   4.134
 6291SOL     OW19771   4.010   3.804   3.306
 6291SOL    HW119772   3.958   3.872   3.255
 6291SOL    HW219773   4.010   3.827   3.403
 6292SOL     OW19774   1.224   3.231   4.375
 6292SOL    HW119775   1.318   3.208   4.349
 6292SOL    HW219776   1.207   3.202   4.469
 6293SOL     OW19777   3.721   0.750   6.478
 6293SOL    HW119778   3.801   0.809   6.465
 6293SOL    HW219779   3.747   0.670   6.531
 6294SOL     OW19780   1.509   1.380   3.295
 6294SOL    HW119781   1.471   1.415   3.381
 6294SOL    HW219782   1.607   1.396   3.293
 6295SOL     OW19783   5.377   3.797   6.036
 6295SOL    HW119784   5.460   3.836   5.997
 6295SOL    HW219785   5.379   3.808   6.136
 6296SOL     OW19786   0.739   2.819   0.028
 6296SOL    HW119787   0.710   2.756   0.100
 6296SOL    HW219788   0.805   2.884   0.065
 6297SOL     OW19789   5.701   1.046   4.153
 6297SOL    HW119790   5.754   1.005   4.227
 6297SOL    HW219791   5.759   1.107   4.099
 6298SOL     OW19792   6.248   5.582   0.646
 6298SOL    HW119793   6.257   5.603   0.743
 6298SOL    HW219794   6.253   5.666   0.593
 6299SOL     OW19795   4.233   1.435   2.403
 6299SOL    HW119796   4.205   1.479   2.488
 6299SOL    HW219797   4.232   1.502   2.329
 6300SOL     OW19798   2.869   1.039   6.301
 6300SOL    HW119799   2.792   0.976   6.298
 6300SOL    HW219800   2.836   1.133   6.294
 6301SOL     OW19801   3.796   6.322   6.729
 6301SOL    HW119802   3.841   6.341   6.816
 6301SOL    HW219803   3.731   6.247   6.740
 6302SOL     OW19804   3.137   2.011   6.255
 6302SOL    HW119805   3.073   2.084   6.230
 6302SOL    HW219806   3.086   1.932   6.288
 6303SOL     OW19807   0.826   5.958   5.078
 6303SOL    HW119808   0.828   5.887   5.008
 6303SOL    HW219809   0.795   5.919   5.164
 6304SOL     OW19810   4.310   0.763   3.418
 6304SOL    HW119811   4.352   0.808   3.497
 6304SOL    HW219812   4.334   0.813   3.335
 6305SOL     OW19813   0.939   6.014   6.079
 6305SOL    HW119814   0.958   6.015   6.177
 6305SOL    HW219815   1.022   5.988   6.029
 6306SOL     OW19816   0.262   4.605   4.537
 6306SOL    HW119817   0.360   4.614   4.520
 6306SOL    HW219818   0.213   4.604   4.450
 6307SOL     OW19819   4.020   3.583   3.153
 6307SOL    HW119820   4.040   3.663   3.209
 6307SOL    HW219821   3.930   3.594   3.109
 6308SOL     OW19822   0.023   2.356   0.588
 6308SOL    HW119823   0.027   2.351   0.688
 6308SOL    HW219824   0.084   2.287   0.549
 6309SOL     OW19825   2.190   6.098   4.594
 6309SOL    HW119826   2.096   6.081   4.566
 6309SOL    HW219827   2.204   6.196   4.607
 6310SOL     OW19828   1.304   6.584   3.177
 6310SOL    HW119829   1.341   6.540   3.095
 6310SOL    HW219830   1.205   6.596   3.166
 6311SOL     OW19831   5.262   0.891   5.918
 6311SOL    HW119832   5.341   0.846   5.960
 6311SOL    HW219833   5.289   0.979   5.880
 6312SOL     OW19834   3.620   6.003   6.504
 6312SOL    HW119835   3.688   5.934   6.477
 6312SOL    HW219836   3.613   6.072   6.432
 6313SOL     OW19837   5.682   5.427   4.500
 6313SOL    HW119838   5.703   5.473   4.414
 6313SOL    HW219839   5.741   5.347   4.511
 6314SOL     OW19840   1.726   0.149   2.505
 6314SOL    HW119841   1.768   0.112   2.422
 6314SOL    HW219842   1.738   0.084   2.580
 6315SOL     OW19843   2.035   2.555   4.710
 6315SOL    HW119844   1.939   2.562   4.682
 6315SOL    HW219845   2.051   2.616   4.788
 6316SOL     OW19846   5.016   0.949   4.605
 6316SOL    HW119847   5.023   1.047   4.626
 6316SOL    HW219848   5.012   0.897   4.690
 6317SOL     OW19849   5.257   4.970   1.693
 6317SOL    HW119850   5.220   4.890   1.741
 6317SOL    HW219851   5.198   4.994   1.617
 6318SOL     OW19852   6.758   6.852   6.492
 6318SOL    HW119853   6.820   6.857   6.414
 6318SOL    HW219854   6.799   6.898   6.571
 6319SOL     OW19855   5.442   0.984   4.123
 6319SOL    HW119856   5.537   1.015   4.131
 6319SOL    HW219857   5.383   1.063   4.105
 6320SOL     OW19858   6.329   0.426   5.614
 6320SOL    HW119859   6.309   0.445   5.518
 6320SOL    HW219860   6.247   0.389   5.658
 6321SOL     OW19861   6.021   2.209   6.626
 6321SOL    HW119862   6.088   2.134   6.620
 6321SOL    HW219863   6.050   2.274   6.696
 6322SOL     OW19864   1.166   1.477   1.806
 6322SOL    HW119865   1.245   1.429   1.845
 6322SOL    HW219866   1.166   1.465   1.706
 6323SOL     OW19867   2.547   4.140   1.367
 6323SOL    HW119868   2.572   4.095   1.281
 6323SOL    HW219869   2.462   4.101   1.401
 6324SOL     OW19870   4.885   1.659   0.993
 6324SOL    HW119871   4.838   1.586   0.945
 6324SOL    HW219872   4.972   1.626   1.028
 6325SOL     OW19873   1.797   2.963   3.938
 6325SOL    HW119874   1.845   3.031   3.994
 6325SOL    HW219875   1.753   3.009   3.860
 6326SOL     OW19876   5.432   4.830   5.857
 6326SOL    HW119877   5.398   4.764   5.790
 6326SOL    HW219878   5.368   4.907   5.863
 6327SOL     OW19879   0.142   0.927   3.864
 6327SOL    HW119880   0.177   0.838   3.894
 6327SOL    HW219881   0.104   0.976   3.942
 6328SOL     OW19882   4.483   3.488   5.269
 6328SOL    HW119883   4.565   3.527   5.228
 6328SOL    HW219884   4.437   3.557   5.324
 6329SOL     OW19885   1.151   2.253   5.830
 6329SOL    HW119886   1.136   2.221   5.924
 6329SOL    HW219887   1.153   2.174   5.768
 6330SOL     OW19888   5.231   1.322   3.477
 6330SOL    HW119889   5.145   1.358   3.514
 6330SOL    HW219890   5.308   1.355   3.533
 6331SOL     OW19891   0.993   3.372   3.826
 6331SOL    HW119892   0.912   3.323   3.859
 6331SOL    HW219893   1.003   3.356   3.727
 6332SOL     OW19894   3.273   1.421   0.149
 6332SOL    HW119895   3.189   1.415   0.204
 6332SOL    HW219896   3.352   1.424   0.210
 6333SOL     OW19897   5.238   1.798   0.776
 6333SOL    HW119898   5.168   1.866   0.758
 6333SOL    HW219899   5.307   1.800   0.703
 6334SOL     OW19900   1.557   1.409   2.407
 6334SOL    HW119901   1.574   1.396   2.504
 6334SOL    HW219902   1.535   1.321   2.365
 6335SOL     OW19903   6.396   1.471   0.107
 6335SOL    HW119904   6.411   1.398   0.174
 6335SOL    HW219905   6.343   1.544   0.150
 6336SOL     OW19906   0.706   3.181   5.831
 6336SOL    HW119907   0.676   3.146   5.920
 6336SOL    HW219908   0.804   3.164   5.820
 6337SOL     OW19909   4.609   5.413   5.397
 6337SOL    HW119910   4.643   5.392   5.306
 6337SOL    HW219911   4.568   5.504   5.398
 6338SOL     OW19912   2.476   1.323   3.163
 6338SOL    HW119913   2.414   1.376   3.221
 6338SOL    HW219914   2.542   1.274   3.220
 6339SOL     OW19915   0.707   4.651   3.269
 6339SOL    HW119916   0.707   4.569   3.326
 6339SOL    HW219917   0.668   4.630   3.180
 6340SOL     OW19918   1.859   4.170   1.147
 6340SOL    HW119919   1.842   4.089   1.092
 6340SOL    HW219920   1.954   4.198   1.138
 6341SOL     OW19921   0.535   5.195   3.436
 6341SOL    HW119922   0.566   5.259   3.507
 6341SOL    HW219923   0.575   5.105   3.453
 6342SOL     OW19924   2.166   1.505   1.656
 6342SOL    HW119925   2.198   1.457   1.574
 6342SOL    HW219926   2.182   1.447   1.736
 6343SOL     OW19927   1.288   5.800   1.263
 6343SOL    HW119928   1.371   5.822   1.314
 6343SOL    HW219929   1.295   5.838   1.171
 6344SOL     OW19930   6.739   1.152   4.127
 6344SOL    HW119931   6.802   1.159   4.050
 6344SOL    HW219932   6.649   1.188   4.100
 6345SOL     OW19933   5.733   3.720   2.274
 6345SOL    HW119934   5.707   3.789   2.206
 6345SOL    HW219935   5.688   3.741   2.361
 6346SOL     OW19936   6.744   4.290   5.484
 6346SOL    HW119937   6.842   4.301   5.468
 6346SOL    HW219938   6.701   4.380   5.489
 6347SOL     OW19939   2.013   1.761   3.196
 6347SOL    HW119940   2.016   1.674   3.148
 6347SOL    HW219941   2.085   1.763   3.266
 6348SOL     OW19942   0.089   2.152   6.034
 6348SOL    HW119943   0.154   2.188   5.968
 6348SOL    HW219944   0.015   2.218   6.048
 6349SOL     OW19945   0.023   1.319   0.001
 6349SOL    HW119946   6.968   1.376   0.023
 6349SOL    HW219947   0.044   1.327   6.929
 6350SOL     OW19948   1.195   5.102   1.921
 6350SOL    HW119949   1.188   5.169   1.995
 6350SOL    HW219950   1.239   5.144   1.842
 6351SOL     OW19951   5.728   2.843   1.929
 6351SOL    HW119952   5.713   2.745   1.915
 6351SOL    HW219953   5.688   2.870   2.016
 6352SOL     OW19954   3.117   0.558   4.295
 6352SOL    HW119955   3.185   0.603   4.238
 6352SOL    HW219956   3.125   0.592   4.389
 6353SOL     OW19957   3.449   6.145   5.702
 6353SOL    HW119958   3.541   6.112   5.682
 6353SOL    HW219959   3.437   6.153   5.801
 6354SOL     OW19960   4.644   5.676   1.828
 6354SOL    HW119961   4.671   5.730   1.908
 6354SOL    HW219962   4.664   5.580   1.844
 6355SOL     OW19963   2.378   4.732   0.956
 6355SOL    HW119964   2.318   4.796   0.908
 6355SOL    HW219965   2.473   4.762   0.948
 6356SOL     OW19966   6.349   4.774   6.396
 6356SOL    HW119967   6.420   4.844   6.408
 6356SOL    HW219968   6.388   4.684   6.417
 6357SOL     OW19969   5.858   1.030   1.521
 6357SOL    HW119970   5.893   1.118   1.553
 6357SOL    HW219971   5.841   1.034   1.423
 6358SOL     OW19972   1.432   2.094   6.426
 6358SOL    HW119973   1.458   2.166   6.491
 6358SOL    HW219974   1.378   2.134   6.352
 6359SOL     OW19975   5.518   6.536   0.379
 6359SOL    HW119976   5.445   6.520   0.446
 6359SOL    HW219977   5.592   6.471   0.394
 6360SOL     OW19978   0.751   2.624   2.244
 6360SOL    HW119979   0.729   2.687   2.170
 6360SOL    HW219980   0.784   2.537   2.206
 6361SOL     OW19981   0.246   0.611   6.620
 6361SOL    HW119982   0.161   0.560   6.635
 6361SOL    HW219983   0.305   0.558   6.559
 6362SOL     OW19984   1.462   5.887   0.688
 6362SOL    HW119985   1.527   5.828   0.640
 6362SOL    HW219986   1.399   5.832   0.741
 6363SOL     OW19987   2.380   4.415   3.077
 6363SOL    HW119988   2.364   4.411   2.978
 6363SOL    HW219989   2.304   4.463   3.121
 6364SOL     OW19990   2.351   2.667   4.222
 6364SOL    HW119991   2.322   2.594   4.284
 6364SOL    HW219992   2.326   2.756   4.261
 6365SOL     OW19993   5.831   5.800   3.116
 6365SOL    HW119994   5.801   5.798   3.211
 6365SOL    HW219995   5.778   5.869   3.066
 6366SOL     OW19996   6.125   0.122   4.749
 6366SOL    HW119997   6.026   0.118   4.736
 6366SOL    HW219998   6.150   0.209   4.792
 6367SOL     OW19999   2.310   2.152   2.098
 6367SOL    HW120000   2.282   2.177   2.191
 6367SOL    HW220001   2.232   2.115   2.048
 6368SOL     OW20002   4.872   3.093   4.521
 6368SOL    HW120003   4.792   3.038   4.544
 6368SOL    HW220004   4.953   3.055   4.566
 6369SOL     OW20005   3.859   5.477   6.972
 6369SOL    HW120006   3.765   5.465   6.939
 6369SOL    HW220007   3.868   5.438   0.039
 6370SOL     OW20008   5.230   3.630   4.233
 6370SOL    HW120009   5.275   3.573   4.164
 6370SOL    HW220010   5.300   3.677   4.288
 6371SOL     OW20011   4.997   4.181   1.433
 6371SOL    HW120012   4.928   4.232   1.382
 6371SOL    HW220013   5.057   4.133   1.370
 6372SOL     OW20014   6.457   1.466   2.610
 6372SOL    HW120015   6.443   1.563   2.590
 6372SOL    HW220016   6.435   1.412   2.528
 6373SOL     OW20017   4.475   4.478   1.402
 6373SOL    HW120018   4.552   4.510   1.456
 6373SOL    HW220019   4.419   4.556   1.373
 6374SOL     OW20020   4.636   3.695   6.735
 6374SOL    HW120021   4.548   3.684   6.689
 6374SOL    HW220022   4.627   3.671   6.831
 6375SOL     OW20023   5.434   2.211   1.952
 6375SOL    HW120024   5.340   2.192   1.921
 6375SOL    HW220025   5.432   2.283   2.022
 6376SOL     OW20026   3.744   1.158   6.502
 6376SOL    HW120027   3.803   1.093   6.551
 6376SOL    HW220028   3.777   1.251   6.519
 6377SOL     OW20029   6.719   0.523   0.503
 6377SOL    HW120030   6.709   0.620   0.483
 6377SOL    HW220031   6.629   0.480   0.506
 6378SOL     OW20032   5.495   5.333   1.998
 6378SOL    HW120033   5.538   5.337   1.908
 6378SOL    HW220034   5.545   5.392   2.062
 6379SOL     OW20035   2.132   5.947   6.398
 6379SOL    HW120036   2.111   5.963   6.494
 6379SOL    HW220037   2.124   6.033   6.347
 6380SOL     OW20038   1.184   3.478   5.134
 6380SOL    HW120039   1.087   3.453   5.136
 6380SOL    HW220040   1.203   3.545   5.206
 6381SOL     OW20041   4.114   2.372   0.072
 6381SOL    HW120042   4.212   2.355   0.057
 6381SOL    HW220043   4.065   2.360   7.011
 6382SOL     OW20044   1.694   1.870   1.164
 6382SOL    HW120045   1.768   1.823   1.212
 6382SOL    HW220046   1.731   1.948   1.113
 6383SOL     OW20047   2.401   2.650   2.648
 6383SOL    HW120048   2.344   2.569   2.633
 6383SOL    HW220049   2.364   2.728   2.598
 6384SOL     OW20050   6.363   2.613   2.794
 6384SOL    HW120051   6.353   2.675   2.872
 6384SOL    HW220052   6.443   2.639   2.740
 6385SOL     OW20053   6.974   3.129   1.486
 6385SOL    HW120054   6.913   3.061   1.527
 6385SOL    HW220055   6.982   3.111   1.388
 6386SOL     OW20056   2.366   4.040   0.523
 6386SOL    HW120057   2.413   4.118   0.564
 6386SOL    HW220058   2.416   4.010   0.442
 6387SOL     OW20059   6.785   0.140   6.663
 6387SOL    HW120060   6.811   0.052   6.703
 6387SOL    HW220061   6.822   0.146   6.570
 6388SOL     OW20062   6.692   5.251   2.244
 6388SOL    HW120063   6.601   5.217   2.266
 6388SOL    HW220064   6.749   5.251   2.326
 6389SOL     OW20065   0.949   0.458   0.027
 6389SOL    HW120066   0.877   0.406   7.005
 6389SOL    HW220067   0.908   0.511   0.101
 6390SOL     OW20068   5.721   0.668   6.823
 6390SOL    HW120069   5.642   0.628   6.868
 6390SOL    HW220070   5.801   0.659   6.883
 6391SOL     OW20071   0.961   1.613   5.072
 6391SOL    HW120072   0.967   1.608   5.172
 6391SOL    HW220073   0.893   1.547   5.039
 6392SOL     OW20074   3.813   6.789   3.473
 6392SOL    HW120075   3.826   6.693   3.497
 6392SOL    HW220076   3.771   6.796   3.383
 6393SOL     OW20077   0.309   5.651   0.100
 6393SOL    HW120078   0.287   5.744   0.130
 6393SOL    HW220079   0.408   5.639   0.099
 6394SOL     OW20080   1.192   5.657   1.525
 6394SOL    HW120081   1.203   5.728   1.455
 6394SOL    HW220082   1.269   5.660   1.588
 6395SOL     OW20083   2.133   3.781   3.302
 6395SOL    HW120084   2.139   3.686   3.335
 6395SOL    HW220085   2.122   3.781   3.203
 6396SOL     OW20086   1.180   3.489   6.698
 6396SOL    HW120087   1.126   3.481   6.782
 6396SOL    HW220088   1.147   3.567   6.645
 6397SOL     OW20089   5.303   3.433   4.058
 6397SOL    HW120090   5.388   3.386   4.034
 6397SOL    HW220091   5.225   3.375   4.035
 6398SOL     OW20092   2.191   0.500   0.983
 6398SOL    HW120093   2.112   0.560   0.968
 6398SOL    HW220094   2.201   0.483   1.081
 6399SOL     OW20095   3.581   0.784   6.066
 6399SOL    HW120096   3.538   0.696   6.047
 6399SOL    HW220097   3.681   0.773   6.066
 6400SOL     OW20098   1.493   6.503   3.488
 6400SOL    HW120099   1.551   6.439   3.438
 6400SOL    HW220100   1.543   6.589   3.503
 6401SOL     OW20101   3.682   5.692   3.493
 6401SOL    HW120102   3.651   5.686   3.398
 6401SOL    HW220103   3.782   5.696   3.496
 6402SOL     OW20104   1.886   4.575   4.884
 6402SOL    HW120105   1.842   4.508   4.824
 6402SOL    HW220106   1.816   4.633   4.925
 6403SOL     OW20107   5.085   5.678   5.057
 6403SOL    HW120108   5.013   5.716   5.115
 6403SOL    HW220109   5.087   5.727   4.970
 6404SOL     OW20110   4.531   6.877   1.968
 6404SOL    HW120111   4.594   6.923   2.031
 6404SOL    HW220112   4.437   6.900   1.993
 6405SOL     OW20113   5.108   1.871   2.116
 6405SOL    HW120114   5.069   1.951   2.163
 6405SOL    HW220115   5.205   1.864   2.138
 6406SOL     OW20116   0.422   3.053   2.954
 6406SOL    HW120117   0.355   2.981   2.972
 6406SOL    HW220118   0.490   3.054   3.027
 6407SOL     OW20119   1.088   6.035   2.306
 6407SOL    HW120120   1.023   5.971   2.266
 6407SOL    HW220121   1.115   6.003   2.397
 6408SOL     OW20122   6.644   0.409   1.711
 6408SOL    HW120123   6.570   0.393   1.645
 6408SOL    HW220124   6.613   0.474   1.781
 6409SOL     OW20125   5.535   5.063   3.461
 6409SOL    HW120126   5.578   5.076   3.372
 6409SOL    HW220127   5.476   5.141   3.481
 6410SOL     OW20128   2.169   1.278   6.134
 6410SOL    HW120129   2.203   1.371   6.143
 6410SOL    HW220130   2.131   1.265   6.043
 6411SOL     OW20131   0.489   2.340   2.000
 6411SOL    HW120132   0.422   2.304   2.065
 6411SOL    HW220133   0.514   2.269   1.935
 6412SOL     OW20134   3.638   0.762   0.332
 6412SOL    HW120135   3.696   0.810   0.398
 6412SOL    HW220136   3.622   0.821   0.253
 6413SOL     OW20137   4.871   6.493   3.211
 6413SOL    HW120138   4.911   6.571   3.260
 6413SOL    HW220139   4.791   6.461   3.261
 6414SOL     OW20140   1.637   0.266   0.302
 6414SOL    HW120141   1.671   0.319   0.380
 6414SOL    HW220142   1.624   0.171   0.330
 6415SOL     OW20143   0.447   2.459   3.672
 6415SOL    HW120144   0.511   2.513   3.619
 6415SOL    HW220145   0.363   2.445   3.620
 6416SOL     OW20146   2.798   6.776   0.322
 6416SOL    HW120147   2.745   6.746   0.243
 6416SOL    HW220148   2.882   6.722   0.329
 6417SOL     OW20149   3.803   1.864   0.766
 6417SOL    HW120150   3.728   1.854   0.701
 6417SOL    HW220151   3.804   1.786   0.829
 6418SOL     OW20152   4.062   4.889   0.341
 6418SOL    HW120153   4.132   4.819   0.351
 6418SOL    HW220154   4.024   4.885   0.249
 6419SOL     OW20155   1.504   6.502   6.472
 6419SOL    HW120156   1.473   6.514   6.567
 6419SOL    HW220157   1.427   6.519   6.410
 6420SOL     OW20158   2.141   4.260   4.678
 6420SOL    HW120159   2.177   4.296   4.764
 6420SOL    HW220160   2.215   4.253   4.612
 6421SOL     OW20161   4.212   6.836   2.000
 6421SOL    HW120162   4.237   6.880   2.086
 6421SOL    HW220163   4.122   6.870   1.971
 6422SOL     OW20164   5.803   1.814   4.352
 6422SOL    HW120165   5.745   1.741   4.387
 6422SOL    HW220166   5.758   1.858   4.274
 6423SOL     OW20167   2.214   4.546   4.258
 6423SOL    HW120168   2.264   4.460   4.257
 6423SOL    HW220169   2.128   4.535   4.209
 6424SOL     OW20170   6.126   4.331   5.579
 6424SOL    HW120171   6.209   4.376   5.547
 6424SOL    HW220172   6.149   4.240   5.613
 6425SOL     OW20173   6.699   5.604   3.766
 6425SOL    HW120174   6.650   5.551   3.836
 6425SOL    HW220175   6.796   5.582   3.771
 6426SOL     OW20176   4.655   4.337   5.229
 6426SOL    HW120177   4.674   4.335   5.327
 6426SOL    HW220178   4.700   4.260   5.184
 6427SOL     OW20179   3.949   3.199   3.254
 6427SOL    HW120180   3.917   3.106   3.236
 6427SOL    HW220181   3.894   3.263   3.201
 6428SOL     OW20182   5.302   3.394   0.484
 6428SOL    HW120183   5.363   3.360   0.412
 6428SOL    HW220184   5.239   3.322   0.511
 6429SOL     OW20185   2.106   1.476   5.379
 6429SOL    HW120186   2.200   1.505   5.360
 6429SOL    HW220187   2.106   1.414   5.457
 6430SOL     OW20188   6.642   6.913   5.007
 6430SOL    HW120189   6.581   6.837   5.029
 6430SOL    HW220190   6.661   6.967   5.089
 6431SOL     OW20191   3.714   4.797   1.664
 6431SOL    HW120192   3.674   4.816   1.574
 6431SOL    HW220193   3.647   4.751   1.721
 6432SOL     OW20194   4.685   4.699   5.821
 6432SOL    HW120195   4.784   4.712   5.819
 6432SOL    HW220196   4.662   4.616   5.769
 6433SOL     OW20197   3.261   5.187   6.961
 6433SOL    HW120198   3.291   5.099   6.999
 6433SOL    HW220199   3.186   5.171   6.897
 6434SOL     OW20200   4.361   5.250   5.990
 6434SOL    HW120201   4.455   5.278   6.010
 6434SOL    HW220202   4.346   5.157   6.025
 6435SOL     OW20203   4.963   1.926   0.995
 6435SOL    HW120204   4.943   1.830   0.975
 6435SOL    HW220205   4.979   1.937   1.093
 6436SOL     OW20206   6.668   3.869   3.976
 6436SOL    HW120207   6.732   3.795   3.999
 6436SOL    HW220208   6.652   3.925   4.058
 6437SOL     OW20209   0.964   2.060   5.531
 6437SOL    HW120210   1.002   2.065   5.438
 6437SOL    HW220211   0.865   2.054   5.526
 6438SOL     OW20212   0.657   5.197   0.548
 6438SOL    HW120213   0.633   5.290   0.575
 6438SOL    HW220214   0.624   5.179   0.455
 6439SOL     OW20215   5.920   0.080   3.175
 6439SOL    HW120216   5.937   0.177   3.157
 6439SOL    HW220217   5.959   0.055   3.264
 6440SOL     OW20218   2.831   2.031   6.855
 6440SOL    HW120219   2.915   2.010   6.804
 6440SOL    HW220220   2.811   1.957   6.919
 6441SOL     OW20221   0.765   1.810   2.841
 6441SOL    HW120222   0.759   1.866   2.759
 6441SOL    HW220223   0.771   1.870   2.922
 6442SOL     OW20224   2.987   2.643   5.482
 6442SOL    HW120225   2.980   2.552   5.440
 6442SOL    HW220226   2.898   2.688   5.478
 6443SOL     OW20227   5.089   2.842   0.110
 6443SOL    HW120228   5.096   2.869   0.206
 6443SOL    HW220229   5.053   2.749   0.103
 6444SOL     OW20230   6.159   2.973   4.841
 6444SOL    HW120231   6.132   2.900   4.904
 6444SOL    HW220232   6.217   2.934   4.769
 6445SOL     OW20233   3.533   2.841   3.105
 6445SOL    HW120234   3.463   2.860   3.175
 6445SOL    HW220235   3.624   2.857   3.144
 6446SOL     OW20236   2.309   0.983   6.374
 6446SOL    HW120237   2.230   0.923   6.389
 6446SOL    HW220238   2.384   0.955   6.434
 6447SOL     OW20239   6.609   3.082   1.728
 6447SOL    HW120240   6.525   3.030   1.745
 6447SOL    HW220241   6.638   3.127   1.813
 6448SOL     OW20242   3.267   5.510   1.226
 6448SOL    HW120243   3.168   5.503   1.216
 6448SOL    HW220244   3.290   5.539   1.319
 6449SOL     OW20245   2.426   5.590   1.492
 6449SOL    HW120246   2.497   5.634   1.547
 6449SOL    HW220247   2.455   5.587   1.397
 6450SOL     OW20248   0.865   4.140   1.208
 6450SOL    HW120249   0.952   4.128   1.257
 6450SOL    HW220250   0.855   4.236   1.181
 6451SOL     OW20251   4.030   2.348   1.461
 6451SOL    HW120252   4.029   2.274   1.393
 6451SOL    HW220253   4.075   2.428   1.421
 6452SOL     OW20254   4.827   2.144   3.407
 6452SOL    HW120255   4.780   2.171   3.491
 6452SOL    HW220256   4.800   2.051   3.382
 6453SOL     OW20257   2.669   1.049   1.204
 6453SOL    HW120258   2.676   1.103   1.288
 6453SOL    HW220259   2.598   1.088   1.146
 6454SOL     OW20260   5.438   2.347   3.641
 6454SOL    HW120261   5.408   2.334   3.546
 6454SOL    HW220262   5.457   2.444   3.657
 6455SOL     OW20263   6.884   3.791   3.474
 6455SOL    HW120264   6.977   3.780   3.438
 6455SOL    HW220265   6.872   3.734   3.555
 6456SOL     OW20266   5.930   1.303   2.449
 6456SOL    HW120267   5.841   1.316   2.492
 6456SOL    HW220268   6.001   1.335   2.512
 6457SOL     OW20269   3.743   6.967   2.066
 6457SOL    HW120270   3.705   6.904   2.135
 6457SOL    HW220271   3.668   7.014   2.019
 6458SOL     OW20272   7.009   5.252   3.469
 6458SOL    HW120273   0.064   5.294   3.426
 6458SOL    HW220274   6.930   5.261   3.409
 6459SOL     OW20275   6.496   3.956   2.439
 6459SOL    HW120276   6.418   3.904   2.406
 6459SOL    HW220277   6.556   3.895   2.493
 6460SOL     OW20278   0.909   5.612   5.947
 6460SOL    HW120279   0.953   5.646   6.031
 6460SOL    HW220280   0.978   5.600   5.876
 6461SOL     OW20281   1.782   5.804   1.310
 6461SOL    HW120282   1.856   5.743   1.281
 6461SOL    HW220283   1.821   5.890   1.343
 6462SOL     OW20284   1.635   4.013   5.331
 6462SOL    HW120285   1.663   4.030   5.426
 6462SOL    HW220286   1.697   4.062   5.270
 6463SOL     OW20287   4.692   2.055   1.492
 6463SOL    HW120288   4.695   1.956   1.506
 6463SOL    HW220289   4.614   2.093   1.542
 6464SOL     OW20290   0.880   4.366   4.262
 6464SOL    HW120291   0.932   4.321   4.334
 6464SOL    HW220292   0.794   4.317   4.246
 6465SOL     OW20293   4.120   0.995   3.231
 6465SOL    HW120294   4.060   1.040   3.165
 6465SOL    HW220295   4.073   0.985   3.318
 6466SOL     OW20296   0.350   3.245   0.347
 6466SOL    HW120297   0.371   3.340   0.370
 6466SOL    HW220298   0.383   3.185   0.420
 6467SOL     OW20299   2.840   2.653   0.780
 6467SOL    HW120300   2.849   2.741   0.734
 6467SOL    HW220301   2.906   2.648   0.856
 6468SOL     OW20302   2.410   1.476   0.833
 6468SOL    HW120303   2.317   1.455   0.863
 6468SOL    HW220304   2.407   1.510   0.739
 6469SOL     OW20305   3.530   1.313   2.653
 6469SOL    HW120306   3.600   1.261   2.703
 6469SOL    HW220307   3.442   1.301   2.698
 6470SOL     OW20308   6.443   1.992   6.983
 6470SOL    HW120309   6.518   2.036   0.009
 6470SOL    HW220310   6.367   1.976   0.021
 6471SOL     OW20311   1.104   6.579   6.038
 6471SOL    HW120312   1.177   6.513   6.018
 6471SOL    HW220313   1.034   6.534   6.095
 6472SOL     OW20314   6.435   6.294   2.872
 6472SOL    HW120315   6.350   6.251   2.841
 6472SOL    HW220316   6.442   6.386   2.834
 6473SOL     OW20317   2.502   1.231   3.982
 6473SOL    HW120318   2.486   1.135   4.006
 6473SOL    HW220319   2.578   1.267   4.036
 6474SOL     OW20320   3.640   5.461   5.057
 6474SOL    HW120321   3.652   5.468   5.156
 6474SOL    HW220322   3.726   5.433   5.015
 6475SOL     OW20323   6.139   5.184   2.783
 6475SOL    HW120324   6.084   5.136   2.715
 6475SOL    HW220325   6.086   5.195   2.867
 6476SOL     OW20326   3.685   1.766   6.368
 6476SOL    HW120327   3.663   1.863   6.352
 6476SOL    HW220328   3.648   1.738   6.456
 6477SOL     OW20329   6.324   5.818   1.549
 6477SOL    HW120330   6.416   5.779   1.552
 6477SOL    HW220331   6.327   5.914   1.574
 6478SOL     OW20332   3.335   5.569   1.485
 6478SOL    HW120333   3.373   5.477   1.486
 6478SOL    HW220334   3.304   5.594   1.576
 6479SOL     OW20335   3.273   5.913   3.755
 6479SOL    HW120336   3.352   5.859   3.727
 6479SOL    HW220337   3.239   5.966   3.677
 6480SOL     OW20338   3.602   2.074   6.701
 6480SOL    HW120339   3.536   2.134   6.747
 6480SOL    HW220340   3.571   2.057   6.607
 6481SOL     OW20341   3.444   2.731   1.782
 6481SOL    HW120342   3.352   2.697   1.760
 6481SOL    HW220343   3.511   2.660   1.763
 6482SOL     OW20344   5.362   4.182   5.804
 6482SOL    HW120345   5.396   4.121   5.733
 6482SOL    HW220346   5.393   4.276   5.785
 6483SOL     OW20347   1.070   6.490   4.972
 6483SOL    HW120348   1.142   6.522   4.909
 6483SOL    HW220349   1.103   6.496   5.066
 6484SOL     OW20350   2.627   0.888   3.860
 6484SOL    HW120351   2.719   0.911   3.893
 6484SOL    HW220352   2.566   0.876   3.938
 6485SOL     OW20353   2.213   6.360   4.583
 6485SOL    HW120354   2.118   6.384   4.605
 6485SOL    HW220355   2.250   6.426   4.518
 6486SOL     OW20356   1.767   5.008   3.311
 6486SOL    HW120357   1.843   5.034   3.370
 6486SOL    HW220358   1.795   4.930   3.254
 6487SOL     OW20359   5.885   4.820   3.342
 6487SOL    HW120360   5.941   4.743   3.372
 6487SOL    HW220361   5.848   4.868   3.422
 6488SOL     OW20362   4.697   5.430   4.797
 6488SOL    HW120363   4.784   5.381   4.791
 6488SOL    HW220364   4.623   5.370   4.769
 6489SOL     OW20365   4.724   3.024   5.815
 6489SOL    HW120366   4.652   3.021   5.746
 6489SOL    HW220367   4.808   2.986   5.776
 6490SOL     OW20368   1.714   2.370   0.307
 6490SOL    HW120369   1.774   2.385   0.229
 6490SOL    HW220370   1.754   2.412   0.389
 6491SOL     OW20371   2.965   0.083   1.673
 6491SOL    HW120372   2.915   0.168   1.654
 6491SOL    HW220373   3.027   0.063   1.598
 6492SOL     OW20374   3.548   3.541   4.725
 6492SOL    HW120375   3.495   3.615   4.685
 6492SOL    HW220376   3.612   3.506   4.656
 6493SOL     OW20377   0.729   3.997   5.553
 6493SOL    HW120378   0.795   3.937   5.508
 6493SOL    HW220379   0.765   4.091   5.555
 6494SOL     OW20380   5.925   0.629   1.431
 6494SOL    HW120381   5.943   0.665   1.339
 6494SOL    HW220382   5.873   0.545   1.424
 6495SOL     OW20383   6.019   0.388   3.869
 6495SOL    HW120384   5.928   0.429   3.880
 6495SOL    HW220385   6.086   0.440   3.922
 6496SOL     OW20386   3.668   1.615   1.418
 6496SOL    HW120387   3.583   1.566   1.435
 6496SOL    HW220388   3.713   1.578   1.336
 6497SOL     OW20389   0.305   1.394   0.415
 6497SOL    HW120390   0.389   1.353   0.379
 6497SOL    HW220391   0.236   1.394   0.343
 6498SOL     OW20392   0.638   4.223   4.275
 6498SOL    HW120393   0.636   4.151   4.344
 6498SOL    HW220394   0.545   4.253   4.255
 6499SOL     OW20395   5.218   3.663   3.269
 6499SOL    HW120396   5.255   3.571   3.287
 6499SOL    HW220397   5.281   3.712   3.209
 6500SOL     OW20398   1.309   4.180   2.988
 6500SOL    HW120399   1.286   4.083   2.976
 6500SOL    HW220400   1.225   4.232   3.005
 6501SOL     OW20401   6.150   2.152   1.368
 6501SOL    HW120402   6.227   2.089   1.381
 6501SOL    HW220403   6.182   2.234   1.320
 6502SOL     OW20404   6.741   3.686   1.856
 6502SOL    HW120405   6.702   3.776   1.841
 6502SOL    HW220406   6.689   3.618   1.804
 6503SOL     OW20407   6.379   3.107   5.527
 6503SOL    HW120408   6.408   3.077   5.436
 6503SOL    HW220409   6.442   3.071   5.596
 6504SOL     OW20410   4.529   5.778   6.489
 6504SOL    HW120411   4.500   5.780   6.394
 6504SOL    HW220412   4.462   5.825   6.546
 6505SOL     OW20413   7.023   5.743   0.471
 6505SOL    HW120414   0.038   5.789   0.550
 6505SOL    HW220415   6.924   5.735   0.482
 6506SOL     OW20416   6.950   4.117   2.215
 6506SOL    HW120417   6.857   4.116   2.251
 6506SOL    HW220418   6.989   4.025   2.221
 6507SOL     OW20419   3.495   4.493   6.736
 6507SOL    HW120420   3.543   4.481   6.650
 6507SOL    HW220421   3.550   4.455   6.810
 6508SOL     OW20422   0.815   0.210   2.734
 6508SOL    HW120423   0.903   0.168   2.754
 6508SOL    HW220424   0.754   0.199   2.812
 6509SOL     OW20425   3.058   1.698   6.040
 6509SOL    HW120426   3.140   1.673   6.092
 6509SOL    HW220427   2.979   1.651   6.079
 6510SOL     OW20428   3.799   5.793   5.742
 6510SOL    HW120429   3.716   5.848   5.737
 6510SOL    HW220430   3.796   5.736   5.824
 6511SOL     OW20431   3.364   1.120   0.377
 6511SOL    HW120432   3.383   1.055   0.303
 6511SOL    HW220433   3.267   1.143   0.377
 6512SOL     OW20434   4.080   1.809   0.321
 6512SOL    HW120435   4.022   1.787   0.243
 6512SOL    HW220436   4.160   1.860   0.290
 6513SOL     OW20437   2.053   5.099   3.218
 6513SOL    HW120438   2.008   5.110   3.307
 6513SOL    HW220439   2.151   5.112   3.228
 6514SOL     OW20440   5.301   6.946   5.805
 6514SOL    HW120441   5.312   0.021   5.795
 6514SOL    HW220442   5.298   6.922   5.902
 6515SOL     OW20443   2.037   5.329   2.278
 6515SOL    HW120444   2.016   5.238   2.241
 6515SOL    HW220445   2.099   5.319   2.356
 6516SOL     OW20446   6.760   4.197   1.247
 6516SOL    HW120447   6.716   4.253   1.177
 6516SOL    HW220448   6.728   4.226   1.338
 6517SOL     OW20449   6.688   3.067   0.810
 6517SOL    HW120450   6.781   3.087   0.842
 6517SOL    HW220451   6.629   3.145   0.830
 6518SOL     OW20452   1.145   1.732   2.893
 6518SOL    HW120453   1.236   1.702   2.923
 6518SOL    HW220454   1.095   1.771   2.970
 6519SOL     OW20455   1.351   0.800   2.974
 6519SOL    HW120456   1.360   0.862   2.896
 6519SOL    HW220457   1.288   0.841   3.041
 6520SOL     OW20458   0.528   5.248   6.547
 6520SOL    HW120459   0.617   5.281   6.514
 6520SOL    HW220460   0.542   5.198   6.633
 6521SOL     OW20461   0.951   4.165   3.930
 6521SOL    HW120462   0.956   4.074   3.887
 6521SOL    HW220463   0.982   4.234   3.865
 6522SOL     OW20464   2.512   3.239   5.382
 6522SOL    HW120465   2.506   3.159   5.323
 6522SOL    HW220466   2.582   3.224   5.452
 6523SOL     OW20467   5.779   6.810   0.394
 6523SOL    HW120468   5.775   6.904   0.430
 6523SOL    HW220469   5.698   6.792   0.339
 6524SOL     OW20470   2.412   2.940   1.347
 6524SOL    HW120471   2.387   3.028   1.307
 6524SOL    HW220472   2.365   2.866   1.298
 6525SOL     OW20473   1.260   4.476   3.210
 6525SOL    HW120474   1.264   4.448   3.306
 6525SOL    HW220475   1.216   4.405   3.156
 6526SOL     OW20476   0.759   6.355   6.615
 6526SOL    HW120477   0.789   6.305   6.534
 6526SOL    HW220478   0.731   6.448   6.589
 6527SOL     OW20479   0.247   2.012   0.126
 6527SOL    HW120480   0.212   1.971   0.041
 6527SOL    HW220481   0.171   2.026   0.189
 6528SOL     OW20482   5.072   0.234   6.584
 6528SOL    HW120483   4.981   0.196   6.570
 6528SOL    HW220484   5.132   0.165   6.624
 6529SOL     OW20485   6.942   0.849   2.338
 6529SOL    HW120486   6.860   0.803   2.373
 6529SOL    HW220487   6.938   0.946   2.361
 6530SOL     OW20488   1.018   3.353   2.639
 6530SOL    HW120489   1.022   3.254   2.649
 6530SOL    HW220490   1.004   3.377   2.543
 6531SOL     OW20491   3.716   4.195   4.883
 6531SOL    HW120492   3.720   4.279   4.829
 6531SOL    HW220493   3.679   4.121   4.827
 6532SOL     OW20494   1.070   0.802   0.750
 6532SOL    HW120495   1.163   0.783   0.784
 6532SOL    HW220496   1.044   0.895   0.777
 6533SOL     OW20497   4.650   3.483   0.500
 6533SOL    HW120498   4.732   3.429   0.516
 6533SOL    HW220499   4.586   3.470   0.575
 6534SOL     OW20500   6.633   4.360   3.158
 6534SOL    HW120501   6.617   4.303   3.078
 6534SOL    HW220502   6.670   4.448   3.129
 6535SOL     OW20503   5.829   2.970   5.461
 6535SOL    HW120504   5.901   3.028   5.499
 6535SOL    HW220505   5.869   2.909   5.392
 6536SOL     OW20506   0.479   4.144   5.706
 6536SOL    HW120507   0.504   4.193   5.623
 6536SOL    HW220508   0.506   4.198   5.786
 6537SOL     OW20509   6.161   5.434   4.507
 6537SOL    HW120510   6.122   5.505   4.448
 6537SOL    HW220511   6.089   5.370   4.534
 6538SOL     OW20512   2.089   3.302   5.812
 6538SOL    HW120513   2.010   3.246   5.789
 6538SOL    HW220514   2.161   3.288   5.743
 6539SOL     OW20515   5.692   1.026   5.747
 6539SOL    HW120516   5.782   1.007   5.707
 6539SOL    HW220517   5.643   0.940   5.762
 6540SOL     OW20518   6.319   2.822   5.660
 6540SOL    HW120519   6.418   2.835   5.653
 6540SOL    HW220520   6.277   2.903   5.701
 6541SOL     OW20521   6.211   0.700   4.585
 6541SOL    HW120522   6.201   0.609   4.546
 6541SOL    HW220523   6.278   0.698   4.659
 6542SOL     OW20524   1.458   3.981   3.353
 6542SOL    HW120525   1.466   3.891   3.397
 6542SOL    HW220526   1.408   3.972   3.267
 6543SOL     OW20527   4.110   1.812   4.835
 6543SOL    HW120528   4.072   1.898   4.801
 6543SOL    HW220529   4.127   1.750   4.758
 6544SOL     OW20530   1.218   6.452   1.639
 6544SOL    HW120531   1.128   6.476   1.602
 6544SOL    HW220532   1.208   6.387   1.715
 6545SOL     OW20533   4.368   0.001   0.152
 6545SOL    HW120534   4.375   6.934   0.192
 6545SOL    HW220535   4.443   0.015   0.087
 6546SOL     OW20536   4.801   3.074   6.699
 6546SOL    HW120537   4.708   3.093   6.668
 6546SOL    HW220538   4.852   3.031   6.625
 6547SOL     OW20539   6.447   5.333   6.521
 6547SOL    HW120540   6.391   5.404   6.564
 6547SOL    HW220541   6.529   5.374   6.480
 6548SOL     OW20542   0.448   1.667   5.590
 6548SOL    HW120543   0.363   1.672   5.539
 6548SOL    HW220544   0.458   1.749   5.646
 6549SOL     OW20545   4.855   0.453   1.859
 6549SOL    HW120546   4.926   0.501   1.910
 6549SOL    HW220547   4.780   0.429   1.921
 6550SOL     OW20548   6.267   0.103   3.597
 6550SOL    HW120549   6.243   0.010   3.627
 6550SOL    HW220550   6.328   0.098   3.518
 6551SOL     OW20551   3.128   4.160   0.299
 6551SOL    HW120552   3.106   4.103   0.219
 6551SOL    HW220553   3.193   4.231   0.273
 6552SOL     OW20554   2.119   6.152   0.401
 6552SOL    HW120555   2.174   6.125   0.321
 6552SOL    HW220556   2.173   6.140   0.484
 6553SOL     OW20557   0.490   1.400   4.071
 6553SOL    HW120558   0.408   1.410   4.128
 6553SOL    HW220559   0.535   1.489   4.062
 6554SOL     OW20560   2.497   1.072   4.479
 6554SOL    HW120561   2.558   1.054   4.556
 6554SOL    HW220562   2.536   1.144   4.422
 6555SOL     OW20563   6.704   4.002   3.420
 6555SOL    HW120564   6.767   3.927   3.440
 6555SOL    HW220565   6.733   4.049   3.336
 6556SOL     OW20566   4.983   2.853   3.065
 6556SOL    HW120567   5.049   2.785   3.036
 6556SOL    HW220568   4.891   2.813   3.063
 6557SOL     OW20569   2.093   0.849   1.568
 6557SOL    HW120570   2.118   0.939   1.533
 6557SOL    HW220571   2.033   0.859   1.647
 6558SOL     OW20572   5.302   5.377   0.222
 6558SOL    HW120573   5.337   5.443   0.155
 6558SOL    HW220574   5.331   5.405   0.314
 6559SOL     OW20575   0.043   2.300   6.341
 6559SOL    HW120576   0.027   2.210   6.299
 6559SOL    HW220577   0.080   2.363   6.272
 6560SOL     OW20578   5.783   5.213   0.445
 6560SOL    HW120579   5.710   5.271   0.481
 6560SOL    HW220580   5.746   5.152   0.374
 6561SOL     OW20581   3.878   4.258   0.188
 6561SOL    HW120582   3.867   4.236   0.285
 6561SOL    HW220583   3.954   4.205   0.151
 6562SOL     OW20584   5.266   3.133   1.439
 6562SOL    HW120585   5.363   3.150   1.423
 6562SOL    HW220586   5.238   3.050   1.392
 6563SOL     OW20587   5.371   5.760   5.187
 6563SOL    HW120588   5.322   5.769   5.100
 6563SOL    HW220589   5.306   5.736   5.259
 6564SOL     OW20590   6.460   3.839   2.937
 6564SOL    HW120591   6.472   3.935   2.910
 6564SOL    HW220592   6.471   3.831   3.036
 6565SOL     OW20593   5.545   0.612   3.116
 6565SOL    HW120594   5.580   0.621   3.023
 6565SOL    HW220595   5.579   0.528   3.157
 6566SOL     OW20596   4.777   6.054   2.714
 6566SOL    HW120597   4.750   5.964   2.749
 6566SOL    HW220598   4.780   6.119   2.790
 6567SOL     OW20599   4.275   0.828   1.265
 6567SOL    HW120600   4.331   0.850   1.185
 6567SOL    HW220601   4.183   0.803   1.236
 6568SOL     OW20602   4.329   1.569   0.940
 6568SOL    HW120603   4.357   1.648   0.885
 6568SOL    HW220604   4.334   1.593   1.037
 6569SOL     OW20605   6.824   4.235   5.823
 6569SOL    HW120606   6.805   4.270   5.915
 6569SOL    HW220607   6.843   4.312   5.762
 6570SOL     OW20608   4.116   6.513   2.023
 6570SOL    HW120609   4.066   6.567   2.091
 6570SOL    HW220610   4.087   6.541   1.932
 6571SOL     OW20611   3.258   6.051   2.616
 6571SOL    HW120612   3.305   6.080   2.533
 6571SOL    HW220613   3.233   5.955   2.609
 6572SOL     OW20614   0.890   5.476   3.992
 6572SOL    HW120615   0.976   5.505   3.948
 6572SOL    HW220616   0.830   5.555   4.003
 6573SOL     OW20617   1.365   1.495   4.042
 6573SOL    HW120618   1.302   1.425   4.077
 6573SOL    HW220619   1.403   1.546   4.119
 6574SOL     OW20620   1.661   6.212   2.174
 6574SOL    HW120621   1.736   6.171   2.225
 6574SOL    HW220622   1.626   6.146   2.107
 6575SOL     OW20623   6.672   1.376   2.997
 6575SOL    HW120624   6.720   1.458   3.029
 6575SOL    HW220625   6.624   1.334   3.074
 6576SOL     OW20626   4.577   5.962   1.387
 6576SOL    HW120627   4.621   5.908   1.458
 6576SOL    HW220628   4.520   6.033   1.429
 6577SOL     OW20629   2.702   0.731   3.616
 6577SOL    HW120630   2.615   0.695   3.581
 6577SOL    HW220631   2.684   0.799   3.686
 6578SOL     OW20632   1.433   4.952   1.998
 6578SOL    HW120633   1.489   4.959   1.915
 6578SOL    HW220634   1.339   4.982   1.977
 6579SOL     OW20635   6.449   0.857   4.002
 6579SOL    HW120636   6.470   0.908   4.085
 6579SOL    HW220637   6.485   0.764   4.011
 6580SOL     OW20638   1.862   1.339   6.968
 6580SOL    HW120639   1.882   1.428   6.927
 6580SOL    HW220640   1.765   1.318   6.956
 6581SOL     OW20641   0.782   2.309   0.144
 6581SOL    HW120642   0.773   2.314   0.244
 6581SOL    HW220643   0.725   2.235   0.109
 6582SOL     OW20644   6.713   1.532   3.517
 6582SOL    HW120645   6.779   1.605   3.505
 6582SOL    HW220646   6.635   1.547   3.457
 6583SOL     OW20647   4.221   5.701   6.240
 6583SOL    HW120648   4.219   5.631   6.169
 6583SOL    HW220649   4.165   5.672   6.318
 6584SOL     OW20650   3.542   3.061   0.465
 6584SOL    HW120651   3.611   3.051   0.536
 6584SOL    HW220652   3.464   3.002   0.485
 6585SOL     OW20653   6.364   6.341   0.629
 6585SOL    HW120654   6.345   6.286   0.548
 6585SOL    HW220655   6.280   6.382   0.662
 6586SOL     OW20656   6.203   2.012   6.683
 6586SOL    HW120657   6.222   1.916   6.707
 6586SOL    HW220658   6.282   2.050   6.635
 6587SOL     OW20659   1.301   4.915   5.482
 6587SOL    HW120660   1.334   4.982   5.415
 6587SOL    HW220661   1.253   4.842   5.434
 6588SOL     OW20662   6.317   3.325   0.475
 6588SOL    HW120663   6.285   3.414   0.443
 6588SOL    HW220664   6.348   3.333   0.570
 6589SOL     OW20665   0.365   0.602   1.966
 6589SOL    HW120666   0.397   0.590   1.872
 6589SOL    HW220667   0.272   0.568   1.975
 6590SOL     OW20668   1.525   7.008   4.164
 6590SOL    HW120669   1.513   6.978   4.069
 6590SOL    HW220670   1.610   6.969   4.200
 6591SOL     OW20671   5.830   4.242   4.290
 6591SOL    HW120672   5.759   4.176   4.263
 6591SOL    HW220673   5.808   4.332   4.252
 6592SOL     OW20674   5.898   6.904   2.695
 6592SOL    HW120675   5.897   6.969   2.770
 6592SOL    HW220676   5.993   6.882   2.670
 6593SOL     OW20677   2.784   2.074   1.970
 6593SOL    HW120678   2.822   2.162   1.998
 6593SOL    HW220679   2.685   2.075   1.983
 6594SOL     OW20680   4.848   1.269   6.306
 6594SOL    HW120681   4.850   1.174   6.336
 6594SOL    HW220682   4.762   1.287   6.257
 6595SOL     OW20683   1.440   2.612   5.705
 6595SOL    HW120684   1.399   2.700   5.727
 6595SOL    HW220685   1.530   2.626   5.663
 6596SOL     OW20686   6.015   6.293   2.543
 6596SOL    HW120687   6.021   6.340   2.455
 6596SOL    HW220688   5.957   6.345   2.605
 6597SOL     OW20689   1.699   5.023   2.387
 6597SOL    HW120690   1.651   5.053   2.305
 6597SOL    HW220691   1.637   5.025   2.465
 6598SOL     OW20692   2.124   4.936   4.653
 6598SOL    HW120693   2.210   4.972   4.689
 6598SOL    HW220694   2.100   4.984   4.569
 6599SOL     OW20695   6.162   5.175   6.279
 6599SOL    HW120696   6.094   5.113   6.319
 6599SOL    HW220697   6.202   5.231   6.352
 6600SOL     OW20698   4.930   0.099   5.391
 6600SOL    HW120699   4.854   0.130   5.448
 6600SOL    HW220700   4.941   0.161   5.313
 6601SOL     OW20701   1.341   1.986   1.744
 6601SOL    HW120702   1.367   1.999   1.648
 6601SOL    HW220703   1.350   1.889   1.769
 6602SOL     OW20704   1.912   6.758   1.578
 6602SOL    HW120705   1.888   6.718   1.490
 6602SOL    HW220706   1.870   6.704   1.652
 6603SOL     OW20707   0.120   3.768   2.672
 6603SOL    HW120708   0.078   3.832   2.608
 6603SOL    HW220709   0.143   3.683   2.624
 6604SOL     OW20710   2.269   6.130   2.552
 6604SOL    HW120711   2.243   6.096   2.462
 6604SOL    HW220712   2.250   6.228   2.557
 6605SOL     OW20713   0.053   5.613   0.968
 6605SOL    HW120714   0.057   5.514   0.978
 6605SOL    HW220715   0.138   5.653   1.002
 6606SOL     OW20716   1.853   4.032   3.322
 6606SOL    HW120717   1.850   3.962   3.393
 6606SOL    HW220718   1.824   3.993   3.235
 6607SOL     OW20719   6.005   4.072   3.485
 6607SOL    HW120720   5.944   4.144   3.519
 6607SOL    HW220721   6.088   4.070   3.540
 6608SOL     OW20722   1.174   6.023   5.931
 6608SOL    HW120723   1.208   6.069   5.849
 6608SOL    HW220724   1.211   5.931   5.936
 6609SOL     OW20725   4.674   1.940   6.221
 6609SOL    HW120726   4.655   1.869   6.289
 6609SOL    HW220727   4.667   1.901   6.129
 6610SOL     OW20728   2.801   5.216   1.089
 6610SOL    HW120729   2.771   5.266   1.170
 6610SOL    HW220730   2.884   5.258   1.053
 6611SOL     OW20731   4.365   1.511   4.031
 6611SOL    HW120732   4.368   1.437   4.099
 6611SOL    HW220733   4.291   1.493   3.966
 6612SOL     OW20734   6.922   1.228   6.165
 6612SOL    HW120735   6.857   1.219   6.089
 6612SOL    HW220736   7.015   1.237   6.129
 6613SOL     OW20737   4.680   6.682   6.952
 6613SOL    HW120738   4.639   6.593   6.971
 6613SOL    HW220739   4.609   6.745   6.920
 6614SOL     OW20740   4.368   5.175   0.952
 6614SOL    HW120741   4.431   5.241   0.993
 6614SOL    HW220742   4.371   5.183   0.853
 6615SOL     OW20743   3.274   4.349   6.641
 6615SOL    HW120744   3.312   4.266   6.600
 6615SOL    HW220745   3.348   4.405   6.676
 6616SOL     OW20746   4.221   1.140   5.481
 6616SOL    HW120747   4.174   1.179   5.402
 6616SOL    HW220748   4.265   1.054   5.455
 6617SOL     OW20749   4.128   0.023   4.000
 6617SOL    HW120750   4.113   0.050   4.095
 6617SOL    HW220751   4.061   6.979   3.972
 6618SOL     OW20752   6.492   2.136   2.838
 6618SOL    HW120753   6.506   2.068   2.910
 6618SOL    HW220754   6.512   2.227   2.873
 6619SOL     OW20755   4.860   6.254   3.841
 6619SOL    HW120756   4.804   6.283   3.918
 6619SOL    HW220757   4.802   6.214   3.770
 6620SOL     OW20758   0.487   3.465   3.304
 6620SOL    HW120759   0.556   3.404   3.343
 6620SOL    HW220760   0.489   3.458   3.204
 6621SOL     OW20761   3.946   3.479   4.763
 6621SOL    HW120762   3.873   3.489   4.830
 6621SOL    HW220763   4.001   3.562   4.760
 6622SOL     OW20764   0.769   5.399   0.728
 6622SOL    HW120765   0.678   5.433   0.704
 6622SOL    HW220766   0.795   5.328   0.662
 6623SOL     OW20767   3.619   3.871   5.892
 6623SOL    HW120768   3.545   3.906   5.835
 6623SOL    HW220769   3.606   3.903   5.986
 6624SOL     OW20770   1.564   2.182   3.699
 6624SOL    HW120771   1.544   2.108   3.762
 6624SOL    HW220772   1.516   2.265   3.728
 6625SOL     OW20773   6.059   3.346   6.118
 6625SOL    HW120774   6.124   3.386   6.183
 6625SOL    HW220775   6.001   3.418   6.081
 6626SOL     OW20776   2.091   6.475   4.852
 6626SOL    HW120777   2.000   6.485   4.812
 6626SOL    HW220778   2.159   6.476   4.780
 6627SOL     OW20779   1.724   5.710   4.183
 6627SOL    HW120780   1.799   5.776   4.183
 6627SOL    HW220781   1.760   5.618   4.198
 6628SOL     OW20782   4.325   6.165   4.344
 6628SOL    HW120783   4.304   6.262   4.331
 6628SOL    HW220784   4.275   6.130   4.424
 6629SOL     OW20785   5.295   5.403   6.564
 6629SOL    HW120786   5.297   5.340   6.486
 6629SOL    HW220787   5.214   5.461   6.557
 6630SOL     OW20788   2.203   1.296   1.834
 6630SOL    HW120789   2.219   1.212   1.782
 6630SOL    HW220790   2.168   1.273   1.925
 6631SOL     OW20791   2.077   4.586   6.186
 6631SOL    HW120792   2.112   4.661   6.130
 6631SOL    HW220793   2.118   4.499   6.156
 6632SOL     OW20794   1.152   1.208   1.251
 6632SOL    HW120795   1.227   1.146   1.229
 6632SOL    HW220796   1.143   1.216   1.350
 6633SOL     OW20797   3.788   5.682   5.995
 6633SOL    HW120798   3.798   5.709   6.091
 6633SOL    HW220799   3.739   5.595   5.990
 6634SOL     OW20800   4.468   2.095   4.346
 6634SOL    HW120801   4.480   2.144   4.259
 6634SOL    HW220802   4.380   2.047   4.344
 6635SOL     OW20803   5.111   4.947   3.533
 6635SOL    HW120804   5.072   4.861   3.504
 6635SOL    HW220805   5.134   5.003   3.453
 6636SOL     OW20806   3.728   0.314   0.283
 6636SOL    HW120807   3.654   0.322   0.350
 6636SOL    HW220808   3.696   0.343   0.193
 6637SOL     OW20809   1.534   1.265   1.394
 6637SOL    HW120810   1.628   1.236   1.380
 6637SOL    HW220811   1.491   1.209   1.464
 6638SOL     OW20812   2.977   3.244   3.692
 6638SOL    HW120813   3.059   3.191   3.712
 6638SOL    HW220814   2.931   3.207   3.612
 6639SOL     OW20815   4.888   3.085   1.190
 6639SOL    HW120816   4.814   3.043   1.137
 6639SOL    HW220817   4.879   3.185   1.186
 6640SOL     OW20818   1.055   2.683   4.844
 6640SOL    HW120819   1.056   2.775   4.883
 6640SOL    HW220820   1.012   2.685   4.754
 6641SOL     OW20821   4.895   2.225   0.800
 6641SOL    HW120822   4.993   2.210   0.815
 6641SOL    HW220823   4.871   2.319   0.827
 6642SOL     OW20824   1.248   5.799   0.859
 6642SOL    HW120825   1.308   5.736   0.907
 6642SOL    HW220826   1.169   5.750   0.823
 6643SOL     OW20827   4.148   6.287   6.764
 6643SOL    HW120828   4.166   6.192   6.737
 6643SOL    HW220829   4.229   6.326   6.806
 6644SOL     OW20830   2.042   6.611   3.307
 6644SOL    HW120831   1.983   6.655   3.374
 6644SOL    HW220832   2.113   6.675   3.278
 6645SOL     OW20833   5.918   2.802   0.636
 6645SOL    HW120834   5.820   2.789   0.655
 6645SOL    HW220835   5.929   2.860   0.556
 6646SOL     OW20836   4.820   6.920   6.237
 6646SOL    HW120837   4.816   6.867   6.153
 6646SOL    HW220838   4.904   6.898   6.287
 6647SOL     OW20839   4.340   4.942   1.186
 6647SOL    HW120840   4.349   5.013   1.116
 6647SOL    HW220841   4.268   4.968   1.251
 6648SOL     OW20842   2.769   6.141   5.664
 6648SOL    HW120843   2.685   6.161   5.613
 6648SOL    HW220844   2.768   6.045   5.694
 6649SOL     OW20845   5.657   2.919   6.732
 6649SOL    HW120846   5.652   2.874   6.643
 6649SOL    HW220847   5.721   2.996   6.727
 6650SOL     OW20848   2.477   1.800   5.339
 6650SOL    HW120849   2.526   1.867   5.395
 6650SOL    HW220850   2.505   1.809   5.244
 6651SOL     OW20851   6.480   1.685   6.511
 6651SOL    HW120852   6.564   1.708   6.463
 6651SOL    HW220853   6.404   1.683   6.447
 6652SOL     OW20854   0.094   4.358   0.602
 6652SOL    HW120855   0.084   4.358   0.502
 6652SOL    HW220856   0.142   4.274   0.630
 6653SOL     OW20857   5.424   4.450   0.391
 6653SOL    HW120858   5.411   4.426   0.295
 6653SOL    HW220859   5.357   4.402   0.447
 6654SOL     OW20860   0.080   4.592   3.121
 6654SOL    HW120861   0.080   4.643   3.035
 6654SOL    HW220862   0.075   4.657   3.198
 6655SOL     OW20863   6.415   5.237   2.308
 6655SOL    HW120864   6.328   5.265   2.269
 6655SOL    HW220865   6.412   5.140   2.334
 6656SOL     OW20866   4.086   1.513   2.627
 6656SOL    HW120867   4.004   1.548   2.581
 6656SOL    HW220868   4.083   1.540   2.723
 6657SOL     OW20869   5.754   2.026   3.371
 6657SOL    HW120870   5.788   2.115   3.402
 6657SOL    HW220871   5.682   2.040   3.303
 6658SOL     OW20872   6.240   5.992   5.271
 6658SOL    HW120873   6.328   5.949   5.254
 6658SOL    HW220874   6.167   5.923   5.264
 6659SOL     OW20875   1.354   4.885   2.358
 6659SOL    HW120876   1.400   4.825   2.424
 6659SOL    HW220877   1.391   4.978   2.366
 6660SOL     OW20878   6.570   6.318   3.394
 6660SOL    HW120879   6.488   6.285   3.346
 6660SOL    HW220880   6.650   6.302   3.337
 6661SOL     OW20881   3.891   6.165   4.269
 6661SOL    HW120882   3.905   6.233   4.341
 6661SOL    HW220883   3.796   6.167   4.240
 6662SOL     OW20884   3.283   7.013   3.015
 6662SOL    HW120885   3.233   0.059   3.067
 6662SOL    HW220886   3.314   0.027   2.928
 6663SOL     OW20887   0.966   4.257   5.932
 6663SOL    HW120888   0.885   4.213   5.893
 6663SOL    HW220889   1.040   4.256   5.865
 6664SOL     OW20890   2.803   0.627   1.469
 6664SOL    HW120891   2.777   0.694   1.399
 6664SOL    HW220892   2.723   0.573   1.495
 6665SOL     OW20893   1.958   0.485   6.044
 6665SOL    HW120894   2.036   0.450   5.992
 6665SOL    HW220895   1.878   0.490   5.985
 6666SOL     OW20896   4.352   6.538   5.410
 6666SOL    HW120897   4.391   6.478   5.480
 6666SOL    HW220898   4.376   6.502   5.319
 6667SOL     OW20899   0.334   6.095   6.513
 6667SOL    HW120900   0.431   6.110   6.493
 6667SOL    HW220901   0.302   6.014   6.464
 6668SOL     OW20902   7.015   5.808   0.196
 6668SOL    HW120903   6.926   5.834   0.158
 6668SOL    HW220904   7.009   5.801   0.295
 6669SOL     OW20905   1.819   0.879   2.907
 6669SOL    HW120906   1.918   0.866   2.904
 6669SOL    HW220907   1.773   0.790   2.904
 6670SOL     OW20908   4.071   2.802   0.809
 6670SOL    HW120909   3.999   2.780   0.875
 6670SOL    HW220910   4.036   2.789   0.716
 6671SOL     OW20911   4.127   5.930   0.593
 6671SOL    HW120912   4.138   6.026   0.565
 6671SOL    HW220913   4.098   5.926   0.689
 6672SOL     OW20914   1.466   2.570   1.165
 6672SOL    HW120915   1.543   2.585   1.227
 6672SOL    HW220916   1.496   2.515   1.087
 6673SOL     OW20917   5.504   3.666   3.797
 6673SOL    HW120918   5.443   3.671   3.718
 6673SOL    HW220919   5.464   3.715   3.874
 6674SOL     OW20920   6.932   2.581   0.109
 6674SOL    HW120921   6.945   2.580   0.208
 6674SOL    HW220922   6.836   2.597   0.088
 6675SOL     OW20923   5.311   2.110   0.136
 6675SOL    HW120924   5.302   2.185   0.071
 6675SOL    HW220925   5.408   2.086   0.145
 6676SOL     OW20926   1.645   3.631   3.491
 6676SOL    HW120927   1.576   3.669   3.552
 6676SOL    HW220928   1.600   3.586   3.414
 6677SOL     OW20929   0.422   1.668   0.516
 6677SOL    HW120930   0.378   1.583   0.547
 6677SOL    HW220931   0.482   1.649   0.439
 6678SOL     OW20932   2.007   4.773   0.103
 6678SOL    HW120933   2.039   4.728   0.020
 6678SOL    HW220934   1.926   4.726   0.138
 6679SOL     OW20935   1.817   1.260   4.065
 6679SOL    HW120936   1.833   1.164   4.041
 6679SOL    HW220937   1.841   1.318   3.988
 6680SOL     OW20938   6.034   6.811   1.233
 6680SOL    HW120939   6.028   6.797   1.134
 6680SOL    HW220940   5.966   6.754   1.278
 6681SOL     OW20941   3.259   6.139   1.450
 6681SOL    HW120942   3.236   6.177   1.360
 6681SOL    HW220943   3.220   6.047   1.458
 6682SOL     OW20944   3.150   5.365   6.351
 6682SOL    HW120945   3.178   5.367   6.256
 6682SOL    HW220946   3.140   5.271   6.382
 6683SOL     OW20947   6.282   3.916   6.393
 6683SOL    HW120948   6.333   3.886   6.473
 6683SOL    HW220949   6.251   3.837   6.341
 6684SOL     OW20950   2.735   6.422   1.308
 6684SOL    HW120951   2.741   6.521   1.295
 6684SOL    HW220952   2.796   6.395   1.382
 6685SOL     OW20953   4.962   3.229   6.853
 6685SOL    HW120954   4.921   3.182   6.776
 6685SOL    HW220955   4.958   3.171   6.935
 6686SOL     OW20956   5.434   5.192   3.946
 6686SOL    HW120957   5.511   5.242   3.984
 6686SOL    HW220958   5.416   5.110   4.002
 6687SOL     OW20959   6.455   1.805   1.527
 6687SOL    HW120960   6.524   1.732   1.528
 6687SOL    HW220961   6.382   1.783   1.592
 6688SOL     OW20962   3.721   5.666   0.430
 6688SOL    HW120963   3.786   5.632   0.362
 6688SOL    HW220964   3.750   5.756   0.461
 6689SOL     OW20965   2.114   4.795   6.008
 6689SOL    HW120966   2.152   4.881   5.974
 6689SOL    HW220967   2.123   4.724   5.938
 6690SOL     OW20968   1.282   0.031   6.095
 6690SOL    HW120969   1.295   6.985   6.164
 6690SOL    HW220970   1.324   0.116   6.127
 6691SOL     OW20971   2.590   2.443   2.730
 6691SOL    HW120972   2.535   2.512   2.682
 6691SOL    HW220973   2.630   2.380   2.664
 6692SOL     OW20974   4.713   5.217   1.272
 6692SOL    HW120975   4.764   5.205   1.357
 6692SOL    HW220976   4.751   5.158   1.201
 6693SOL     OW20977   4.522   1.839   4.606
 6693SOL    HW120978   4.439   1.810   4.558
 6693SOL    HW220979   4.579   1.760   4.625
 6694SOL     OW20980   3.276   5.027   0.953
 6694SOL    HW120981   3.223   5.022   0.868
 6694SOL    HW220982   3.370   5.000   0.935
 6695SOL     OW20983   2.675   2.084   6.416
 6695SOL    HW120984   2.725   2.034   6.344
 6695SOL    HW220985   2.733   2.156   6.453
 6696SOL     OW20986   3.947   3.835   4.281
 6696SOL    HW120987   3.907   3.784   4.205
 6696SOL    HW220988   3.972   3.772   4.354
 6697SOL     OW20989   4.631   2.586   2.314
 6697SOL    HW120990   4.655   2.661   2.253
 6697SOL    HW220991   4.542   2.549   2.290
 6698SOL     OW20992   3.433   4.273   1.457
 6698SOL    HW120993   3.351   4.247   1.405
 6698SOL    HW220994   3.423   4.367   1.490
 6699SOL     OW20995   1.681   4.512   5.315
 6699SOL    HW120996   1.683   4.612   5.308
 6699SOL    HW220997   1.592   4.478   5.283
 6700SOL     OW20998   5.561   0.040   0.171
 6700SOL    HW120999   5.623   0.046   0.093
 6700SOL    HW221000   5.588   6.987   0.228
 6701SOL     OW21001   5.884   0.340   1.207
 6701SOL    HW121002   5.969   0.324   1.257
 6701SOL    HW221003   5.885   0.287   1.122
 6702SOL     OW21004   3.027   2.677   0.993
 6702SOL    HW121005   2.981   2.741   1.054
 6702SOL    HW221006   3.070   2.605   1.047
 6703SOL     OW21007   0.506   1.374   6.989
 6703SOL    HW121008   0.482   1.321   0.045
 6703SOL    HW221009   0.600   1.353   6.962
 6704SOL     OW21010   3.401   1.090   4.971
 6704SOL    HW121011   3.397   1.107   5.070
 6704SOL    HW221012   3.384   0.993   4.953
 6705SOL     OW21013   6.274   3.795   2.408
 6705SOL    HW121014   6.289   3.697   2.396
 6705SOL    HW221015   6.179   3.811   2.434
 6706SOL     OW21016   0.192   0.079   1.918
 6706SOL    HW121017   0.138   0.064   2.001
 6706SOL    HW221018   0.157   0.159   1.870
 6707SOL     OW21019   5.957   0.458   2.109
 6707SOL    HW121020   5.940   0.362   2.085
 6707SOL    HW221021   5.912   0.479   2.196
 6708SOL     OW21022   0.366   4.026   1.619
 6708SOL    HW121023   0.396   4.016   1.524
 6708SOL    HW221024   0.268   4.006   1.625
 6709SOL     OW21025   1.827   5.207   2.704
 6709SOL    HW121026   1.833   5.160   2.792
 6709SOL    HW221027   1.871   5.152   2.634
 6710SOL     OW21028   4.700   1.242   1.444
 6710SOL    HW121029   4.730   1.308   1.513
 6710SOL    HW221030   4.780   1.209   1.393
 6711SOL     OW21031   3.785   6.034   6.102
 6711SOL    HW121032   3.695   5.993   6.084
 6711SOL    HW221033   3.843   5.967   6.148
 6712SOL     OW21034   6.205   3.680   1.422
 6712SOL    HW121035   6.176   3.592   1.459
 6712SOL    HW221036   6.144   3.706   1.347
 6713SOL     OW21037   1.278   6.338   4.622
 6713SOL    HW121038   1.289   6.239   4.619
 6713SOL    HW221039   1.192   6.363   4.577
 6714SOL     OW21040   5.392   0.977   0.507
 6714SOL    HW121041   5.395   1.072   0.539
 6714SOL    HW221042   5.334   0.923   0.568
 6715SOL     OW21043   1.141   1.011   0.355
 6715SOL    HW121044   1.053   0.968   0.376
 6715SOL    HW221045   1.144   1.034   0.258
 6716SOL     OW21046   0.057   5.352   2.829
 6716SOL    HW121047   0.038   5.282   2.898
 6716SOL    HW221048   0.103   5.310   2.750
 6717SOL     OW21049   4.083   2.591   6.145
 6717SOL    HW121050   4.142   2.596   6.064
 6717SOL    HW221051   4.005   2.652   6.132
 6718SOL     OW21052   3.653   6.963   1.730
 6718SOL    HW121053   3.744   7.005   1.739
 6718SOL    HW221054   3.589   0.004   1.691
 6719SOL     OW21055   1.755   1.027   6.885
 6719SOL    HW121056   1.719   1.112   6.923
 6719SOL    HW221057   1.715   0.949   6.932
 6720SOL     OW21058   1.824   0.633   6.321
 6720SOL    HW121059   1.913   0.663   6.355
 6720SOL    HW221060   1.836   0.551   6.264
 6721SOL     OW21061   0.940   1.790   0.655
 6721SOL    HW121062   0.849   1.779   0.693
 6721SOL    HW221063   0.937   1.849   0.574
 6722SOL     OW21064   6.377   3.367   0.764
 6722SOL    HW121065   6.283   3.343   0.740
 6722SOL    HW221066   6.397   3.335   0.857
 6723SOL     OW21067   1.731   2.245   7.015
 6723SOL    HW121068   1.636   2.249   0.024
 6723SOL    HW221069   1.785   2.316   0.036
 6724SOL     OW21070   1.959   3.704   5.954
 6724SOL    HW121071   1.954   3.804   5.959
 6724SOL    HW221072   1.904   3.672   5.877
 6725SOL     OW21073   5.555   2.625   3.423
 6725SOL    HW121074   5.493   2.606   3.346
 6725SOL    HW221075   5.506   2.612   3.509
 6726SOL     OW21076   7.011   0.896   5.449
 6726SOL    HW121077   6.987   0.806   5.485
 6726SOL    HW221078   6.972   0.907   5.358
 6727SOL     OW21079   1.082   4.900   5.670
 6727SOL    HW121080   1.153   4.880   5.603
 6727SOL    HW221081   0.994   4.910   5.623
 6728SOL     OW21082   4.076   1.935   3.725
 6728SOL    HW121083   4.123   1.875   3.660
 6728SOL    HW221084   4.002   1.983   3.678
 6729SOL     OW21085   5.189   1.297   1.251
 6729SOL    HW121086   5.222   1.362   1.318
 6729SOL    HW221087   5.160   1.213   1.297
 6730SOL     OW21088   0.882   1.377   1.514
 6730SOL    HW121089   0.934   1.448   1.467
 6730SOL    HW221090   0.941   1.332   1.582
 6731SOL     OW21091   3.289   6.426   6.771
 6731SOL    HW121092   3.218   6.490   6.741
 6731SOL    HW221093   3.264   6.334   6.742
 6732SOL     OW21094   6.098   5.146   4.557
 6732SOL    HW121095   6.081   5.048   4.545
 6732SOL    HW221096   6.129   5.162   4.651
 6733SOL     OW21097   4.056   5.218   6.362
 6733SOL    HW121098   4.037   5.256   6.453
 6733SOL    HW221099   4.135   5.158   6.366
 6734SOL     OW21100   5.849   1.208   4.855
 6734SOL    HW121101   5.849   1.270   4.934
 6734SOL    HW221102   5.795   1.127   4.877
 6735SOL     OW21103   5.976   3.114   3.586
 6735SOL    HW121104   5.897   3.081   3.535
 6735SOL    HW221105   6.038   3.038   3.605
 6736SOL     OW21106   3.506   4.077   0.509
 6736SOL    HW121107   3.467   4.001   0.561
 6736SOL    HW221108   3.579   4.120   0.562
 6737SOL     OW21109   0.432   3.612   1.220
 6737SOL    HW121110   0.485   3.675   1.163
 6737SOL    HW221111   0.493   3.544   1.260
 6738SOL     OW21112   2.009   6.089   2.983
 6738SOL    HW121113   2.060   6.172   3.004
 6738SOL    HW221114   1.918   6.113   2.951
 6739SOL     OW21115   6.920   6.777   4.616
 6739SOL    HW121116   6.960   6.867   4.601
 6739SOL    HW221117   6.971   6.709   4.564
 6740SOL     OW21118   0.174   6.687   4.305
 6740SOL    HW121119   0.130   6.735   4.228
 6740SOL    HW221120   0.176   6.589   4.286
 6741SOL     OW21121   4.924   2.065   5.932
 6741SOL    HW121122   4.905   2.158   5.962
 6741SOL    HW221123   4.980   2.067   5.849
 6742SOL     OW21124   5.719   4.601   3.657
 6742SOL    HW121125   5.649   4.607   3.729
 6742SOL    HW221126   5.770   4.687   3.653
 6743SOL     OW21127   4.272   4.009   1.372
 6743SOL    HW121128   4.176   3.998   1.397
 6743SOL    HW221129   4.280   4.084   1.307
 6744SOL     OW21130   6.922   5.611   5.853
 6744SOL    HW121131   6.941   5.703   5.817
 6744SOL    HW221132   6.862   5.562   5.790
 6745SOL     OW21133   6.906   6.477   4.092
 6745SOL    HW121134   6.964   6.398   4.075
 6745SOL    HW221135   6.817   6.463   4.049
 6746SOL     OW21136   1.660   1.180   2.638
 6746SOL    HW121137   1.732   1.251   2.637
 6746SOL    HW221138   1.695   1.097   2.595
 6747SOL     OW21139   1.451   6.489   6.734
 6747SOL    HW121140   1.493   6.577   6.759
 6747SOL    HW221141   1.353   6.493   6.750
 6748SOL     OW21142   2.411   1.487   4.422
 6748SOL    HW121143   2.364   1.473   4.334
 6748SOL    HW221144   2.464   1.572   4.418
 6749SOL     OW21145   3.658   4.703   1.027
 6749SOL    HW121146   3.732   4.741   1.084
 6749SOL    HW221147   3.633   4.613   1.063
 6750SOL     OW21148   3.330   1.814   4.526
 6750SOL    HW121149   3.403   1.746   4.519
 6750SOL    HW221150   3.361   1.892   4.579
 6751SOL     OW21151   4.116   6.489   3.714
 6751SOL    HW121152   4.117   6.514   3.617
 6751SOL    HW221153   4.156   6.398   3.725
 6752SOL     OW21154   1.952   6.168   2.613
 6752SOL    HW121155   2.026   6.224   2.649
 6752SOL    HW221156   1.864   6.207   2.640
 6753SOL     OW21157   3.976   3.084   5.289
 6753SOL    HW121158   3.949   3.093   5.193
 6753SOL    HW221159   3.916   3.141   5.346
 6754SOL     OW21160   5.883   1.298   1.440
 6754SOL    HW121161   5.823   1.246   1.380
 6754SOL    HW221162   5.952   1.346   1.386
 6755SOL     OW21163   2.453   5.386   6.126
 6755SOL    HW121164   2.419   5.427   6.041
 6755SOL    HW221165   2.553   5.384   6.125
 6756SOL     OW21166   2.623   2.286   5.706
 6756SOL    HW121167   2.634   2.187   5.704
 6756SOL    HW221168   2.710   2.328   5.731
 6757SOL     OW21169   3.769   0.873   0.559
 6757SOL    HW121170   3.846   0.830   0.511
 6757SOL    HW221171   3.768   0.841   0.654
 6758SOL     OW21172   6.111   2.674   1.884
 6758SOL    HW121173   6.204   2.710   1.885
 6758SOL    HW221174   6.045   2.748   1.895
 6759SOL     OW21175   0.770   3.259   3.215
 6759SOL    HW121176   0.766   3.281   3.313
 6759SOL    HW221177   0.857   3.216   3.194
 6760SOL     OW21178   5.305   2.806   3.066
 6760SOL    HW121179   5.304   2.876   3.137
 6760SOL    HW221180   5.254   2.839   2.986
 6761SOL     OW21181   5.123   2.054   4.779
 6761SOL    HW121182   5.179   2.015   4.852
 6761SOL    HW221183   5.032   2.013   4.781
 6762SOL     OW21184   6.980   5.388   3.964
 6762SOL    HW121185   6.926   5.351   3.888
 6762SOL    HW221186   0.036   5.435   3.928
 6763SOL     OW21187   4.974   5.010   4.678
 6763SOL    HW121188   5.043   4.951   4.720
 6763SOL    HW221189   5.017   5.061   4.603
 6764SOL     OW21190   1.376   5.681   1.739
 6764SOL    HW121191   1.290   5.666   1.788
 6764SOL    HW221192   1.452   5.652   1.796
 6765SOL     OW21193   6.428   4.463   2.736
 6765SOL    HW121194   6.342   4.416   2.753
 6765SOL    HW221195   6.412   4.561   2.726
 6766SOL     OW21196   5.107   6.966   0.626
 6766SOL    HW121197   5.070   6.882   0.665
 6766SOL    HW221198   5.169   6.943   0.550
 6767SOL     OW21199   3.101   1.424   0.387
 6767SOL    HW121200   3.026   1.485   0.361
 6767SOL    HW221201   3.124   1.439   0.483
 6768SOL     OW21202   1.975   0.696   0.924
 6768SOL    HW121203   1.906   0.693   0.996
 6768SOL    HW221204   1.937   0.657   0.840
 6769SOL     OW21205   3.943   2.558   1.139
 6769SOL    HW121206   3.917   2.633   1.078
 6769SOL    HW221207   3.913   2.471   1.099
 6770SOL     OW21208   6.776   0.220   1.878
 6770SOL    HW121209   6.741   0.276   1.804
 6770SOL    HW221210   6.705   0.204   1.946
 6771SOL     OW21211   4.258   2.149   2.799
 6771SOL    HW121212   4.243   2.162   2.701
 6771SOL    HW221213   4.171   2.151   2.847
 6772SOL     OW21214   3.083   1.735   2.510
 6772SOL    HW121215   3.146   1.812   2.515
 6772SOL    HW221216   3.133   1.650   2.525
 6773SOL     OW21217   6.570   3.891   1.639
 6773SOL    HW121218   6.667   3.908   1.622
 6773SOL    HW221219   6.522   3.978   1.653
 6774SOL     OW21220   0.564   2.898   6.323
 6774SOL    HW121221   0.637   2.944   6.373
 6774SOL    HW221222   0.491   2.873   6.387
 6775SOL     OW21223   2.598   4.527   0.931
 6775SOL    HW121224   2.636   4.581   1.006
 6775SOL    HW221225   2.534   4.459   0.968
 6776SOL     OW21226   5.817   5.101   0.010
 6776SOL    HW121227   5.812   5.068   6.940
 6776SOL    HW221228   5.907   5.082   0.048
 6777SOL     OW21229   4.643   4.982   5.957
 6777SOL    HW121230   4.629   4.883   5.964
 6777SOL    HW221231   4.684   5.004   5.869
 6778SOL     OW21232   0.623   4.280   2.686
 6778SOL    HW121233   0.612   4.199   2.629
 6778SOL    HW221234   0.638   4.252   2.781
 6779SOL     OW21235   0.150   4.389   0.333
 6779SOL    HW121236   0.102   4.475   0.348
 6779SOL    HW221237   0.232   4.407   0.278
 6780SOL     OW21238   0.167   2.479   3.158
 6780SOL    HW121239   0.178   2.578   3.166
 6780SOL    HW221240   0.251   2.439   3.120
 6781SOL     OW21241   5.028   6.496   5.964
 6781SOL    HW121242   5.066   6.577   5.922
 6781SOL    HW221243   5.064   6.414   5.919
 6782SOL     OW21244   7.017   1.115   2.411
 6782SOL    HW121245   0.017   1.069   2.496
 6782SOL    HW221246   0.074   1.154   2.369
 6783SOL     OW21247   0.131   6.322   6.450
 6783SOL    HW121248   0.049   6.287   6.405
 6783SOL    HW221249   0.195   6.247   6.466
 6784SOL     OW21250   3.891   4.216   6.855
 6784SOL    HW121251   3.991   4.211   6.857
 6784SOL    HW221252   3.853   4.126   6.878
 6785SOL     OW21253   6.275   5.550   1.547
 6785SOL    HW121254   6.269   5.648   1.528
 6785SOL    HW221255   6.195   5.522   1.601
 6786SOL     OW21256   1.440   2.443   6.826
 6786SOL    HW121257   1.381   2.429   6.905
 6786SOL    HW221258   1.530   2.474   6.855
 6787SOL     OW21259   1.494   3.870   1.296
 6787SOL    HW121260   1.401   3.870   1.260
 6787SOL    HW221261   1.492   3.864   1.395
 6788SOL     OW21262   2.810   3.959   1.741
 6788SOL    HW121263   2.849   3.915   1.822
 6788SOL    HW221264   2.759   3.891   1.687
 6789SOL     OW21265   0.828   6.769   2.008
 6789SOL    HW121266   0.829   6.790   1.910
 6789SOL    HW221267   0.908   6.809   2.052
 6790SOL     OW21268   2.057   2.915   0.098
 6790SOL    HW121269   1.975   2.938   0.150
 6790SOL    HW221270   2.081   2.819   0.116
 6791SOL     OW21271   3.857   2.779   6.741
 6791SOL    HW121272   3.906   2.857   6.701
 6791SOL    HW221273   3.915   2.736   6.810
 6792SOL     OW21274   6.428   6.005   6.637
 6792SOL    HW121275   6.412   6.095   6.597
 6792SOL    HW221276   6.459   6.015   6.732
 6793SOL     OW21277   1.433   2.302   0.448
 6793SOL    HW121278   1.526   2.338   0.436
 6793SOL    HW221279   1.369   2.357   0.395
 6794SOL     OW21280   4.957   0.969   4.334
 6794SOL    HW121281   4.858   0.987   4.338
 6794SOL    HW221282   4.994   0.964   4.426
 6795SOL     OW21283   2.810   5.905   0.570
 6795SOL    HW121284   2.741   5.835   0.550
 6795SOL    HW221285   2.771   5.996   0.557
 6796SOL     OW21286   5.342   1.305   2.624
 6796SOL    HW121287   5.398   1.376   2.581
 6796SOL    HW221288   5.321   1.332   2.718
 6797SOL     OW21289   5.638   3.844   2.049
 6797SOL    HW121290   5.566   3.913   2.044
 6797SOL    HW221291   5.661   3.813   1.957
 6798SOL     OW21292   5.415   5.731   2.649
 6798SOL    HW121293   5.366   5.725   2.562
 6798SOL    HW221294   5.447   5.640   2.675
 6799SOL     OW21295   4.563   5.797   0.489
 6799SOL    HW121296   4.656   5.835   0.485
 6799SOL    HW221297   4.563   5.706   0.446
 6800SOL     OW21298   1.717   4.384   0.540
 6800SOL    HW121299   1.696   4.287   0.545
 6800SOL    HW221300   1.640   4.432   0.497
 6801SOL     OW21301   1.541   2.616   2.250
 6801SOL    HW121302   1.571   2.622   2.154
 6801SOL    HW221303   1.538   2.708   2.289
 6802SOL     OW21304   2.407   5.896   0.769
 6802SOL    HW121305   2.430   5.991   0.744
 6802SOL    HW221306   2.312   5.877   0.746
 6803SOL     OW21307   5.184   2.087   6.026
 6803SOL    HW121308   5.139   2.069   5.939
 6803SOL    HW221309   5.159   2.178   6.059
 6804SOL     OW21310   1.351   5.468   3.420
 6804SOL    HW121311   1.293   5.437   3.495
 6804SOL    HW221312   1.437   5.503   3.456
 6805SOL     OW21313   5.883   0.062   4.601
 6805SOL    HW121314   5.869   7.003   4.548
 6805SOL    HW221315   5.834   0.138   4.556
 6806SOL     OW21316   4.885   1.342   4.510
 6806SOL    HW121317   4.953   1.310   4.576
 6806SOL    HW221318   4.816   1.271   4.495
 6807SOL     OW21319   2.498   3.080   0.226
 6807SOL    HW121320   2.452   3.010   0.172
 6807SOL    HW221321   2.473   3.070   0.322
 6808SOL     OW21322   0.552   2.515   4.941
 6808SOL    HW121323   0.490   2.543   4.867
 6808SOL    HW221324   0.527   2.563   5.025
 6809SOL     OW21325   1.580   4.661   6.868
 6809SOL    HW121326   1.583   4.737   6.803
 6809SOL    HW221327   1.489   4.656   6.910
 6810SOL     OW21328   0.551   1.010   2.566
 6810SOL    HW121329   0.587   1.041   2.478
 6810SOL    HW221330   0.545   1.088   2.628
 6811SOL     OW21331   6.394   4.517   0.897
 6811SOL    HW121332   6.304   4.502   0.937
 6811SOL    HW221333   6.447   4.576   0.958
 6812SOL     OW21334   3.817   3.996   3.211
 6812SOL    HW121335   3.808   4.017   3.309
 6812SOL    HW221336   3.742   4.039   3.161
 6813SOL     OW21337   4.669   2.195   1.243
 6813SOL    HW121338   4.701   2.149   1.160
 6813SOL    HW221339   4.696   2.141   1.323
 6814SOL     OW21340   2.640   3.620   0.941
 6814SOL    HW121341   2.687   3.569   0.869
 6814SOL    HW221342   2.706   3.660   1.004
 6815SOL     OW21343   2.950   6.991   1.961
 6815SOL    HW121344   2.851   7.008   1.965
 6815SOL    HW221345   2.983   7.011   1.868
 6816SOL     OW21346   6.492   5.027   6.919
 6816SOL    HW121347   6.414   5.089   6.912
 6816SOL    HW221348   6.567   5.073   6.967
 6817SOL     OW21349   6.509   1.523   5.330
 6817SOL    HW121350   6.429   1.516   5.270
 6817SOL    HW221351   6.525   1.620   5.352
 6818SOL     OW21352   3.624   6.370   2.251
 6818SOL    HW121353   3.536   6.324   2.246
 6818SOL    HW221354   3.620   6.443   2.320
 6819SOL     OW21355   3.146   0.527   3.601
 6819SOL    HW121356   3.104   0.602   3.652
 6819SOL    HW221357   3.204   0.473   3.662
 6820SOL     OW21358   0.806   4.394   3.665
 6820SOL    HW121359   0.717   4.392   3.711
 6820SOL    HW221360   0.795   4.433   3.574
 6821SOL     OW21361   2.573   2.411   4.989
 6821SOL    HW121362   2.541   2.490   5.040
 6821SOL    HW221363   2.575   2.432   4.892
 6822SOL     OW21364   5.404   1.460   5.797
 6822SOL    HW121365   5.391   1.519   5.717
 6822SOL    HW221366   5.370   1.507   5.878
 6823SOL     OW21367   3.384   3.233   3.679
 6823SOL    HW121368   3.295   3.187   3.679
 6823SOL    HW221369   3.392   3.289   3.596
 6824SOL     OW21370   0.391   3.997   6.381
 6824SOL    HW121371   0.420   3.938   6.306
 6824SOL    HW221372   0.355   4.083   6.344
 6825SOL     OW21373   5.385   6.896   2.296
 6825SOL    HW121374   5.457   6.829   2.277
 6825SOL    HW221375   5.344   6.927   2.210
 6826SOL     OW21376   2.075   3.169   2.604
 6826SOL    HW121377   2.150   3.119   2.648
 6826SOL    HW221378   2.109   3.215   2.523
 6827SOL     OW21379   4.944   5.985   6.797
 6827SOL    HW121380   4.986   5.992   6.706
 6827SOL    HW221381   4.859   5.933   6.789
 6828SOL     OW21382   1.637   2.220   1.305
 6828SOL    HW121383   1.706   2.287   1.277
 6828SOL    HW221384   1.546   2.258   1.288
 6829SOL     OW21385   5.016   6.483   3.857
 6829SOL    HW121386   5.111   6.455   3.864
 6829SOL    HW221387   4.957   6.402   3.862
 6830SOL     OW21388   5.370   1.668   3.153
 6830SOL    HW121389   5.419   1.587   3.184
 6830SOL    HW221390   5.435   1.736   3.119
 6831SOL     OW21391   0.750   0.994   6.056
 6831SOL    HW121392   0.661   0.972   6.094
 6831SOL    HW221393   0.740   1.057   5.980
 6832SOL     OW21394   3.056   4.770   2.118
 6832SOL    HW121395   3.042   4.804   2.211
 6832SOL    HW221396   2.976   4.716   2.091
 6833SOL     OW21397   3.619   4.939   6.339
 6833SOL    HW121398   3.690   4.974   6.400
 6833SOL    HW221399   3.616   4.840   6.344
 6834SOL     OW21400   4.352   6.698   1.804
 6834SOL    HW121401   4.439   6.694   1.854
 6834SOL    HW221402   4.280   6.729   1.866
 6835SOL     OW21403   4.342   0.198   4.672
 6835SOL    HW121404   4.295   0.117   4.639
 6835SOL    HW221405   4.390   0.242   4.596
 6836SOL     OW21406   2.860   6.646   0.590
 6836SOL    HW121407   2.936   6.703   0.622
 6836SOL    HW221408   2.773   6.690   0.612
 6837SOL     OW21409   1.899   3.620   1.830
 6837SOL    HW121410   1.871   3.709   1.795
 6837SOL    HW221411   1.974   3.584   1.774
 6838SOL     OW21412   2.725   1.041   0.357
 6838SOL    HW121413   2.657   0.968   0.364
 6838SOL    HW221414   2.732   1.072   0.262
 6839SOL     OW21415   4.396   0.955   1.065
 6839SOL    HW121416   4.434   0.950   0.973
 6839SOL    HW221417   4.434   1.035   1.112
 6840SOL     OW21418   2.704   1.240   6.238
 6840SOL    HW121419   2.620   1.205   6.197
 6840SOL    HW221420   2.699   1.340   6.244
 6841SOL     OW21421   6.471   3.113   6.277
 6841SOL    HW121422   6.502   3.019   6.267
 6841SOL    HW221423   6.545   3.169   6.313
 6842SOL     OW21424   2.168   5.551   1.432
 6842SOL    HW121425   2.143   5.491   1.509
 6842SOL    HW221426   2.261   5.585   1.444
 6843SOL     OW21427   5.309   6.707   6.737
 6843SOL    HW121428   5.338   6.780   6.675
 6843SOL    HW221429   5.383   6.641   6.748
 6844SOL     OW21430   4.879   0.673   3.764
 6844SOL    HW121431   4.794   0.683   3.711
 6844SOL    HW221432   4.865   0.607   3.837
 6845SOL     OW21433   4.932   2.342   3.070
 6845SOL    HW121434   4.934   2.333   2.971
 6845SOL    HW221435   4.847   2.388   3.097
 6846SOL     OW21436   2.910   4.052   0.409
 6846SOL    HW121437   2.896   3.957   0.381
 6846SOL    HW221438   2.991   4.089   0.365
 6847SOL     OW21439   6.006   3.736   4.181
 6847SOL    HW121440   5.954   3.785   4.250
 6847SOL    HW221441   5.954   3.657   4.149
 6848SOL     OW21442   4.948   4.385   3.627
 6848SOL    HW121443   4.889   4.444   3.571
 6848SOL    HW221444   5.040   4.384   3.588
 6849SOL     OW21445   4.103   3.579   6.225
 6849SOL    HW121446   4.101   3.528   6.138
 6849SOL    HW221447   4.009   3.590   6.258
 6850SOL     OW21448   4.251   2.236   3.418
 6850SOL    HW121449   4.191   2.229   3.338
 6850SOL    HW221450   4.312   2.158   3.421
 6851SOL     OW21451   1.662   2.883   3.132
 6851SOL    HW121452   1.657   2.974   3.090
 6851SOL    HW221453   1.614   2.817   3.074
 6852SOL     OW21454   2.748   5.378   0.303
 6852SOL    HW121455   2.796   5.372   0.391
 6852SOL    HW221456   2.681   5.451   0.306
 6853SOL     OW21457   5.034   3.340   6.466
 6853SOL    HW121458   4.979   3.277   6.411
 6853SOL    HW221459   5.090   3.287   6.530
 6854SOL     OW21460   5.177   6.390   6.186
 6854SOL    HW121461   5.267   6.427   6.207
 6854SOL    HW221462   5.131   6.449   6.119
 6855SOL     OW21463   3.775   4.980   3.507
 6855SOL    HW121464   3.849   4.925   3.546
 6855SOL    HW221465   3.757   5.058   3.567
 6856SOL     OW21466   0.897   2.309   6.461
 6856SOL    HW121467   0.875   2.218   6.426
 6856SOL    HW221468   0.830   2.336   6.529
 6857SOL     OW21469   0.952   3.499   6.440
 6857SOL    HW121470   1.009   3.563   6.491
 6857SOL    HW221471   1.000   3.471   6.356
 6858SOL     OW21472   3.105   4.284   1.755
 6858SOL    HW121473   3.049   4.344   1.812
 6858SOL    HW221474   3.176   4.338   1.710
 6859SOL     OW21475   1.178   1.265   2.391
 6859SOL    HW121476   1.132   1.233   2.309
 6859SOL    HW221477   1.159   1.363   2.405
 6860SOL     OW21478   0.147   6.310   2.065
 6860SOL    HW121479   0.190   6.267   1.985
 6860SOL    HW221480   0.141   6.408   2.050
 6861SOL     OW21481   5.194   2.902   5.065
 6861SOL    HW121482   5.131   2.980   5.068
 6861SOL    HW221483   5.142   2.818   5.051
 6862SOL     OW21484   0.232   4.614   5.905
 6862SOL    HW121485   0.303   4.546   5.885
 6862SOL    HW221486   0.209   4.610   6.002
 6863SOL     OW21487   7.024   6.693   5.285
 6863SOL    HW121488   0.086   6.743   5.294
 6863SOL    HW221489   0.002   6.612   5.343
 6864SOL     OW21490   1.828   3.733   5.304
 6864SOL    HW121491   1.767   3.806   5.273
 6864SOL    HW221492   1.913   3.738   5.252
 6865SOL     OW21493   1.720   0.253   4.714
 6865SOL    HW121494   1.641   0.221   4.765
 6865SOL    HW221495   1.693   0.276   4.620
 6866SOL     OW21496   0.097   4.523   1.708
 6866SOL    HW121497   0.078   4.585   1.784
 6866SOL    HW221498   0.085   4.429   1.738
 6867SOL     OW21499   2.277   3.359   0.678
 6867SOL    HW121500   2.321   3.285   0.626
 6867SOL    HW221501   2.212   3.321   0.743
 6868SOL     OW21502   1.978   5.263   4.824
 6868SOL    HW121503   2.021   5.329   4.762
 6868SOL    HW221504   2.018   5.172   4.808
 6869SOL     OW21505   3.626   6.967   5.897
 6869SOL    HW121506   3.595   6.962   5.992
 6869SOL    HW221507   3.644   6.875   5.863
 6870SOL     OW21508   0.388   2.837   0.333
 6870SOL    HW121509   0.360   2.889   0.413
 6870SOL    HW221510   0.366   2.887   0.249
 6871SOL     OW21511   6.847   3.681   2.427
 6871SOL    HW121512   6.822   3.643   2.516
 6871SOL    HW221513   6.843   3.609   2.358
 6872SOL     OW21514   1.658   3.009   1.583
 6872SOL    HW121515   1.621   3.089   1.538
 6872SOL    HW221516   1.586   2.941   1.598
 6873SOL     OW21517   1.090   3.954   4.584
 6873SOL    HW121518   1.178   4.001   4.577
 6873SOL    HW221519   1.087   3.902   4.669
 6874SOL     OW21520   5.716   5.759   2.617
 6874SOL    HW121521   5.616   5.757   2.618
 6874SOL    HW221522   5.750   5.675   2.574
 6875SOL     OW21523   1.191   2.961   1.344
 6875SOL    HW121524   1.230   3.052   1.359
 6875SOL    HW221525   1.152   2.957   1.252
 6876SOL     OW21526   4.296   5.559   3.501
 6876SOL    HW121527   4.264   5.532   3.591
 6876SOL    HW221528   4.263   5.493   3.433
 6877SOL     OW21529   2.207   4.044   2.003
 6877SOL    HW121530   2.122   4.096   2.011
 6877SOL    HW221531   2.266   4.086   1.934
 6878SOL     OW21532   2.217   1.009   3.889
 6878SOL    HW121533   2.196   1.088   3.832
 6878SOL    HW221534   2.146   0.940   3.879
 6879SOL     OW21535   2.335   2.310   0.966
 6879SOL    HW121536   2.372   2.245   1.032
 6879SOL    HW221537   2.261   2.267   0.915
 6880SOL     OW21538   1.592   5.507   6.489
 6880SOL    HW121539   1.526   5.532   6.560
 6880SOL    HW221540   1.556   5.533   6.399
 6881SOL     OW21541   1.320   3.327   0.328
 6881SOL    HW121542   1.332   3.427   0.322
 6881SOL    HW221543   1.395   3.288   0.381
 6882SOL     OW21544   2.978   6.546   0.341
 6882SOL    HW121545   2.934   6.518   0.256
 6882SOL    HW221546   2.910   6.547   0.415
 6883SOL     OW21547   4.771   0.212   6.446
 6883SOL    HW121548   4.733   0.286   6.503
 6883SOL    HW221549   4.749   0.229   6.350
 6884SOL     OW21550   2.162   3.476   3.071
 6884SOL    HW121551   2.218   3.555   3.045
 6884SOL    HW221552   2.191   3.396   3.017
 6885SOL     OW21553   5.380   5.685   3.654
 6885SOL    HW121554   5.440   5.611   3.683
 6885SOL    HW221555   5.291   5.647   3.628
 6886SOL     OW21556   4.961   1.218   5.882
 6886SOL    HW121557   4.900   1.286   5.840
 6886SOL    HW221558   5.023   1.181   5.813
 6887SOL     OW21559   5.191   6.163   6.505
 6887SOL    HW121560   5.209   6.225   6.582
 6887SOL    HW221561   5.099   6.181   6.469
 6888SOL     OW21562   5.551   4.781   6.557
 6888SOL    HW121563   5.475   4.817   6.502
 6888SOL    HW221564   5.611   4.856   6.584
 6889SOL     OW21565   0.995   2.711   6.363
 6889SOL    HW121566   0.967   2.764   6.443
 6889SOL    HW221567   1.094   2.698   6.365
 6890SOL     OW21568   3.650   5.137   2.707
 6890SOL    HW121569   3.599   5.213   2.749
 6890SOL    HW221570   3.665   5.157   2.610
 6891SOL     OW21571   2.271   2.569   0.999
 6891SOL    HW121572   2.344   2.634   0.977
 6891SOL    HW221573   2.306   2.476   0.986
 6892SOL     OW21574   3.616   1.012   3.893
 6892SOL    HW121575   3.579   0.968   3.812
 6892SOL    HW221576   3.625   1.110   3.877
 6893SOL     OW21577   6.412   2.707   6.951
 6893SOL    HW121578   6.491   2.649   6.969
 6893SOL    HW221579   6.329   2.662   6.983
 6894SOL     OW21580   5.397   4.731   1.120
 6894SOL    HW121581   5.321   4.796   1.117
 6894SOL    HW221582   5.409   4.689   1.030
 6895SOL     OW21583   1.459   6.168   1.764
 6895SOL    HW121584   1.519   6.239   1.728
 6895SOL    HW221585   1.371   6.208   1.790
 6896SOL     OW21586   4.258   2.019   4.560
 6896SOL    HW121587   4.330   2.002   4.627
 6896SOL    HW221588   4.258   2.116   4.534
 6897SOL     OW21589   5.141   3.978   4.981
 6897SOL    HW121590   5.195   3.910   4.931
 6897SOL    HW221591   5.062   3.933   5.024
 6898SOL     OW21592   2.670   1.654   1.683
 6898SOL    HW121593   2.704   1.728   1.624
 6898SOL    HW221594   2.680   1.681   1.779
 6899SOL     OW21595   6.123   5.622   2.856
 6899SOL    HW121596   6.141   5.712   2.816
 6899SOL    HW221597   6.206   5.586   2.897
 6900SOL     OW21598   6.415   4.608   6.038
 6900SOL    HW121599   6.375   4.521   6.010
 6900SOL    HW221600   6.362   4.647   6.113
 6901SOL     OW21601   4.655   5.191   6.668
 6901SOL    HW121602   4.600   5.180   6.585
 6901SOL    HW221603   4.668   5.101   6.711
 6902SOL     OW21604   0.503   5.813   6.117
 6902SOL    HW121605   0.581   5.810   6.054
 6902SOL    HW221606   0.499   5.728   6.169
 6903SOL     OW21607   2.662   4.913   4.796
 6903SOL    HW121608   2.746   4.950   4.836
 6903SOL    HW221609   2.662   4.814   4.804
 6904SOL     OW21610   0.034   6.132   4.373
 6904SOL    HW121611   0.051   6.147   4.470
 6904SOL    HW221612   6.973   6.179   4.347
 6905SOL     OW21613   5.336   5.407   6.129
 6905SOL    HW121614   5.247   5.386   6.089
 6905SOL    HW221615   5.342   5.505   6.146
 6906SOL     OW21616   3.985   1.034   3.468
 6906SOL    HW121617   3.903   1.088   3.454
 6906SOL    HW221618   4.050   1.085   3.524
 6907SOL     OW21619   6.200   1.704   1.204
 6907SOL    HW121620   6.132   1.752   1.149
 6907SOL    HW221621   6.258   1.648   1.145
 6908SOL     OW21622   2.484   4.429   6.617
 6908SOL    HW121623   2.406   4.368   6.603
 6908SOL    HW221624   2.569   4.381   6.595
 6909SOL     OW21625   5.618   4.874   1.277
 6909SOL    HW121626   5.699   4.889   1.333
 6909SOL    HW221627   5.608   4.777   1.258
 6910SOL     OW21628   1.406   2.451   3.481
 6910SOL    HW121629   1.390   2.356   3.456
 6910SOL    HW221630   1.501   2.475   3.464
 6911SOL     OW21631   3.221   0.004   5.935
 6911SOL    HW121632   3.287   7.003   6.006
 6911SOL    HW221633   3.176   0.089   5.961
 6912SOL     OW21634   2.172   3.779   6.515
 6912SOL    HW121635   2.247   3.845   6.508
 6912SOL    HW221636   2.191   3.714   6.589
 6913SOL     OW21637   4.510   6.019   5.671
 6913SOL    HW121638   4.508   6.069   5.584
 6913SOL    HW221639   4.439   5.948   5.670
 6914SOL     OW21640   6.491   3.327   2.210
 6914SOL    HW121641   6.488   3.423   2.182
 6914SOL    HW221642   6.399   3.288   2.206
 6915SOL     OW21643   1.343   3.085   2.541
 6915SOL    HW121644   1.282   3.163   2.531
 6915SOL    HW221645   1.302   3.004   2.499
 6916SOL     OW21646   4.473   6.354   6.511
 6916SOL    HW121647   4.387   6.328   6.467
 6916SOL    HW221648   4.494   6.450   6.491
 6917SOL     OW21649   5.724   5.504   1.592
 6917SOL    HW121650   5.700   5.591   1.549
 6917SOL    HW221651   5.766   5.444   1.524
 6918SOL     OW21652   1.446   3.147   2.013
 6918SOL    HW121653   1.532   3.097   2.027
 6918SOL    HW221654   1.404   3.117   1.927
 6919SOL     OW21655   6.591   6.575   3.212
 6919SOL    HW121656   6.668   6.550   3.269
 6919SOL    HW221657   6.512   6.518   3.235
 6920SOL     OW21658   4.545   0.613   5.592
 6920SOL    HW121659   4.543   0.670   5.674
 6920SOL    HW221660   4.617   0.544   5.601
 6921SOL     OW21661   3.271   0.306   4.581
 6921SOL    HW121662   3.293   0.239   4.652
 6921SOL    HW221663   3.355   0.342   4.542
 6922SOL     OW21664   1.161   6.209   5.453
 6922SOL    HW121665   1.099   6.240   5.525
 6922SOL    HW221666   1.122   6.128   5.408
 6923SOL     OW21667   6.418   6.943   1.963
 6923SOL    HW121668   6.391   6.932   1.867
 6923SOL    HW221669   6.361   7.012   2.006
 6924SOL     OW21670   3.553   6.742   0.461
 6924SOL    HW121671   3.611   6.822   0.444
 6924SOL    HW221672   3.597   6.661   0.423
 6925SOL     OW21673   5.513   6.188   6.532
 6925SOL    HW121674   5.502   6.163   6.436
 6925SOL    HW221675   5.594   6.142   6.569
 6926SOL     OW21676   3.088   1.934   0.923
 6926SOL    HW121677   3.063   1.891   1.010
 6926SOL    HW221678   3.182   1.907   0.899
 6927SOL     OW21679   4.100   1.197   0.345
 6927SOL    HW121680   4.115   1.278   0.289
 6927SOL    HW221681   4.039   1.134   0.296
 6928SOL     OW21682   4.500   4.807   0.672
 6928SOL    HW121683   4.508   4.868   0.593
 6928SOL    HW221684   4.404   4.797   0.698
 6929SOL     OW21685   5.323   5.775   1.019
 6929SOL    HW121686   5.329   5.740   0.926
 6929SOL    HW221687   5.227   5.785   1.045
 6930SOL     OW21688   0.311   0.847   0.369
 6930SOL    HW121689   0.397   0.803   0.395
 6930SOL    HW221690   0.314   0.873   0.272
 6931SOL     OW21691   2.662   2.634   1.380
 6931SOL    HW121692   2.605   2.565   1.423
 6931SOL    HW221693   2.628   2.725   1.403
 6932SOL     OW21694   4.348   5.628   0.367
 6932SOL    HW121695   4.418   5.628   0.296
 6932SOL    HW221696   4.317   5.721   0.384
 6933SOL     OW21697   3.036   5.608   6.456
 6933SOL    HW121698   3.064   5.523   6.411
 6933SOL    HW221699   3.097   5.682   6.427
 6934SOL     OW21700   4.911   4.257   6.161
 6934SOL    HW121701   4.922   4.165   6.125
 6934SOL    HW221702   4.819   4.289   6.143
 6935SOL     OW21703   5.531   5.363   1.733
 6935SOL    HW121704   5.586   5.423   1.676
 6935SOL    HW221705   5.549   5.268   1.710
 6936SOL     OW21706   0.838   1.782   4.714
 6936SOL    HW121707   0.745   1.791   4.680
 6936SOL    HW221708   0.901   1.777   4.636
 6937SOL     OW21709   5.201   5.730   0.461
 6937SOL    HW121710   5.119   5.715   0.517
 6937SOL    HW221711   5.255   5.646   0.459
 6938SOL     OW21712   0.367   0.305   4.730
 6938SOL    HW121713   0.441   0.349   4.781
 6938SOL    HW221714   0.355   0.211   4.762
 6939SOL     OW21715   6.529   4.664   3.010
 6939SOL    HW121716   6.469   4.602   2.961
 6939SOL    HW221717   6.625   4.639   2.993
 6940SOL     OW21718   4.214   6.782   0.498
 6940SOL    HW121719   4.128   6.741   0.528
 6940SOL    HW221720   4.214   6.879   0.522
 6941SOL     OW21721   3.345   3.365   2.666
 6941SOL    HW121722   3.364   3.454   2.625
 6941SOL    HW221723   3.286   3.312   2.605
 6942SOL     OW21724   6.340   6.475   1.781
 6942SOL    HW121725   6.391   6.550   1.823
 6942SOL    HW221726   6.402   6.420   1.725
 6943SOL     OW21727   4.001   4.786   6.394
 6943SOL    HW121728   3.978   4.787   6.297
 6943SOL    HW221729   3.926   4.827   6.446
 6944SOL     OW21730   1.064   3.759   5.807
 6944SOL    HW121731   0.973   3.761   5.848
 6944SOL    HW221732   1.115   3.839   5.835
 6945SOL     OW21733   5.364   2.892   0.871
 6945SOL    HW121734   5.367   2.888   0.771
 6945SOL    HW221735   5.302   2.966   0.899
 6946SOL     OW21736   4.422   5.819   2.711
 6946SOL    HW121737   4.495   5.853   2.653
 6946SOL    HW221738   4.388   5.732   2.675
 6947SOL     OW21739   5.462   5.369   5.550
 6947SOL    HW121740   5.491   5.310   5.625
 6947SOL    HW221741   5.364   5.383   5.555
 6948SOL     OW21742   0.580   5.658   0.305
 6948SOL    HW121743   0.563   5.677   0.209
 6948SOL    HW221744   0.580   5.743   0.357
 6949SOL     OW21745   2.776   2.400   3.636
 6949SOL    HW121746   2.824   2.486   3.653
 6949SOL    HW221747   2.682   2.419   3.607
 6950SOL     OW21748   0.809   6.623   4.917
 6950SOL    HW121749   0.899   6.578   4.926
 6950SOL    HW221750   0.758   6.612   5.002
 6951SOL     OW21751   6.896   5.099   6.537
 6951SOL    HW121752   6.903   5.013   6.586
 6951SOL    HW221753   6.849   5.084   6.449
 6952SOL     OW21754   3.475   4.951   3.016
 6952SOL    HW121755   3.404   4.923   3.081
 6952SOL    HW221756   3.451   4.920   2.924
 6953SOL     OW21757   5.296   0.819   0.993
 6953SOL    HW121758   5.345   0.857   1.071
 6953SOL    HW221759   5.361   0.805   0.918
 6954SOL     OW21760   6.450   3.727   0.603
 6954SOL    HW121761   6.392   3.725   0.521
 6954SOL    HW221762   6.543   3.753   0.578
 6955SOL     OW21763   5.243   6.407   2.389
 6955SOL    HW121764   5.148   6.378   2.377
 6955SOL    HW221765   5.246   6.505   2.409
 6956SOL     OW21766   5.141   5.519   2.190
 6956SOL    HW121767   5.051   5.561   2.179
 6956SOL    HW221768   5.132   5.438   2.249
 6957SOL     OW21769   5.344   5.185   6.293
 6957SOL    HW121770   5.348   5.267   6.235
 6957SOL    HW221771   5.251   5.175   6.330
 6958SOL     OW21772   3.635   2.940   3.360
 6958SOL    HW121773   3.628   3.040   3.359
 6958SOL    HW221774   3.732   2.914   3.356
 6959SOL     OW21775   1.074   4.308   3.075
 6959SOL    HW121776   1.028   4.220   3.089
 6959SOL    HW221777   1.009   4.374   3.039
 6960SOL     OW21778   2.690   4.577   0.247
 6960SOL    HW121779   2.661   4.536   0.334
 6960SOL    HW221780   2.725   4.669   0.265
 6961SOL     OW21781   4.568   2.253   5.338
 6961SOL    HW121782   4.581   2.281   5.434
 6961SOL    HW221783   4.569   2.153   5.332
 6962SOL     OW21784   3.092   6.832   6.166
 6962SOL    HW121785   3.012   6.892   6.162
 6962SOL    HW221786   3.086   6.774   6.247
 6963SOL     OW21787   5.490   6.427   1.023
 6963SOL    HW121788   5.392   6.415   1.003
 6963SOL    HW221789   5.543   6.357   0.974
 6964SOL     OW21790   1.882   0.335   6.254
 6964SOL    HW121791   1.928   0.246   6.251
 6964SOL    HW221792   1.885   0.377   6.164
 6965SOL     OW21793   0.724   2.047   0.066
 6965SOL    HW121794   0.797   1.995   0.023
 6965SOL    HW221795   0.670   1.986   0.125
 6966SOL     OW21796   0.766   0.953   1.724
 6966SOL    HW121797   0.677   0.999   1.714
 6966SOL    HW221798   0.794   0.955   1.819
 6967SOL     OW21799   4.385   1.665   6.104
 6967SOL    HW121800   4.460   1.648   6.167
 6967SOL    HW221801   4.412   1.735   6.038
 6968SOL     OW21802   3.629   6.630   2.878
 6968SOL    HW121803   3.659   6.634   2.783
 6968SOL    HW221804   3.611   6.723   2.911
 6969SOL     OW21805   2.306   1.872   1.941
 6969SOL    HW121806   2.360   1.937   1.888
 6969SOL    HW221807   2.340   1.869   2.035
 6970SOL     OW21808   3.871   4.447   5.828
 6970SOL    HW121809   3.813   4.471   5.750
 6970SOL    HW221810   3.844   4.358   5.865
 6971SOL     OW21811   6.716   4.432   0.259
 6971SOL    HW121812   6.771   4.386   0.329
 6971SOL    HW221813   6.776   4.479   0.195
 6972SOL     OW21814   5.056   3.627   2.575
 6972SOL    HW121815   5.005   3.694   2.521
 6972SOL    HW221816   5.060   3.540   2.526
 6973SOL     OW21817   0.995   2.607   2.990
 6973SOL    HW121818   1.076   2.665   2.996
 6973SOL    HW221819   1.014   2.530   2.929
 6974SOL     OW21820   3.648   3.881   2.754
 6974SOL    HW121821   3.629   3.934   2.672
 6974SOL    HW221822   3.563   3.837   2.785
 6975SOL     OW21823   3.332   5.920   4.763
 6975SOL    HW121824   3.409   5.974   4.797
 6975SOL    HW221825   3.253   5.979   4.747
 6976SOL     OW21826   5.175   4.517   5.744
 6976SOL    HW121827   5.107   4.453   5.708
 6976SOL    HW221828   5.219   4.476   5.824
 6977SOL     OW21829   4.205   4.783   1.571
 6977SOL    HW121830   4.285   4.766   1.628
 6977SOL    HW221831   4.139   4.708   1.582
 6978SOL     OW21832   5.448   3.596   1.956
 6978SOL    HW121833   5.449   3.521   1.890
 6978SOL    HW221834   5.533   3.649   1.948
 6979SOL     OW21835   1.028   3.958   1.396
 6979SOL    HW121836   1.127   3.970   1.399
 6979SOL    HW221837   1.002   3.916   1.309
 6980SOL     OW21838   1.288   6.697   3.457
 6980SOL    HW121839   1.243   6.755   3.390
 6980SOL    HW221840   1.361   6.644   3.412
 6981SOL     OW21841   3.495   3.352   6.666
 6981SOL    HW121842   3.403   3.314   6.678
 6981SOL    HW221843   3.506   3.432   6.725
 6982SOL     OW21844   1.226   1.416   3.782
 6982SOL    HW121845   1.287   1.474   3.836
 6982SOL    HW221846   1.180   1.351   3.843
 6983SOL     OW21847   5.092   0.774   3.942
 6983SOL    HW121848   5.081   0.701   4.009
 6983SOL    HW221849   5.038   0.753   3.860
 6984SOL     OW21850   0.492   2.670   3.214
 6984SOL    HW121851   0.503   2.659   3.115
 6984SOL    HW221852   0.395   2.665   3.238
 6985SOL     OW21853   6.197   3.483   6.947
 6985SOL    HW121854   6.275   3.540   6.975
 6985SOL    HW221855   6.143   3.458   0.002
 6986SOL     OW21856   3.860   5.205   5.382
 6986SOL    HW121857   3.762   5.186   5.390
 6986SOL    HW221858   3.885   5.203   5.285
 6987SOL     OW21859   0.582   1.699   6.470
 6987SOL    HW121860   0.660   1.640   6.447
 6987SOL    HW221861   0.520   1.649   6.531
 6988SOL     OW21862   3.113   1.214   6.287
 6988SOL    HW121863   3.096   1.312   6.278
 6988SOL    HW221864   3.027   1.164   6.281
 6989SOL     OW21865   0.102   4.843   2.489
 6989SOL    HW121866   0.014   4.888   2.504
 6989SOL    HW221867   0.173   4.912   2.472
 6990SOL     OW21868   3.231   2.866   1.501
 6990SOL    HW121869   3.159   2.836   1.564
 6990SOL    HW221870   3.214   2.826   1.411
 6991SOL     OW21871   5.659   3.809   2.522
 6991SOL    HW121872   5.613   3.898   2.512
 6991SOL    HW221873   5.591   3.740   2.546
 6992SOL     OW21874   1.059   0.161   6.920
 6992SOL    HW121875   1.086   0.242   6.972
 6992SOL    HW221876   1.118   0.084   6.946
 6993SOL     OW21877   5.141   1.079   1.513
 6993SOL    HW121878   5.214   1.024   1.472
 6993SOL    HW221879   5.066   1.087   1.448
 6994SOL     OW21880   2.211   6.895   4.112
 6994SOL    HW121881   2.211   6.849   4.200
 6994SOL    HW221882   2.118   6.899   4.076
 6995SOL     OW21883   0.365   3.396   0.738
 6995SOL    HW121884   0.429   3.390   0.814
 6995SOL    HW221885   0.289   3.333   0.753
 6996SOL     OW21886   1.533   1.625   0.100
 6996SOL    HW121887   1.551   1.616   0.002
 6996SOL    HW221888   1.584   1.702   0.137
 6997SOL     OW21889   6.563   5.232   5.087
 6997SOL    HW121890   6.561   5.316   5.141
 6997SOL    HW221891   6.657   5.203   5.073
 6998SOL     OW21892   0.078   1.343   0.936
 6998SOL    HW121893   0.039   1.312   0.849
 6998SOL    HW221894   0.019   1.315   1.011
 6999SOL     OW21895   1.158   3.084   0.254
 6999SOL    HW121896   1.124   3.161   0.308
 6999SOL    HW221897   1.229   3.115   0.191
 7000SOL     OW21898   6.818   0.388   2.773
 7000SOL    HW121899   6.723   0.373   2.798
 7000SOL    HW221900   6.875   0.387   2.856
 7001SOL     OW21901   1.263   1.632   4.488
 7001SOL    HW121902   1.259   1.726   4.455
 7001SOL    HW221903   1.206   1.623   4.570
 7002SOL     OW21904   0.279   5.756   3.141
 7002SOL    HW121905   0.375   5.781   3.155
 7002SOL    HW221906   0.229   5.835   3.106
 7003SOL     OW21907   5.993   4.326   1.197
 7003SOL    HW121908   5.943   4.293   1.117
 7003SOL    HW221909   6.069   4.264   1.217
 7004SOL     OW21910   1.642   5.530   0.330
 7004SOL    HW121911   1.709   5.519   0.257
 7004SOL    HW221912   1.655   5.456   0.397
 7005SOL     OW21913   1.509   0.063   0.052
 7005SOL    HW121914   1.442   0.019   0.112
 7005SOL    HW221915   1.463   0.101   6.997
 7006SOL     OW21916   0.237   0.026   4.031
 7006SOL    HW121917   0.137   0.022   4.029
 7006SOL    HW221918   0.274   6.972   3.983
 7007SOL     OW21919   3.987   0.401   5.590
 7007SOL    HW121920   3.891   0.428   5.586
 7007SOL    HW221921   4.044   0.482   5.575
 7008SOL     OW21922   6.268   4.391   3.645
 7008SOL    HW121923   6.275   4.491   3.649
 7008SOL    HW221924   6.227   4.358   3.730
 7009SOL     OW21925   4.447   5.885   1.949
 7009SOL    HW121926   4.458   5.893   1.850
 7009SOL    HW221927   4.447   5.977   1.990
 7010SOL     OW21928   5.095   4.003   2.023
 7010SOL    HW121929   5.186   4.019   2.059
 7010SOL    HW221930   5.101   3.975   1.927
 7011SOL     OW21931   3.568   6.435   0.086
 7011SOL    HW121932   3.636   6.473   0.024
 7011SOL    HW221933   3.567   6.336   0.079
 7012SOL     OW21934   0.469   1.891   0.708
 7012SOL    HW121935   0.451   1.827   0.633
 7012SOL    HW221936   0.469   1.984   0.672
 7013SOL     OW21937   2.748   1.688   6.926
 7013SOL    HW121938   2.663   1.697   6.874
 7013SOL    HW221939   2.727   1.684   7.024
 7014SOL     OW21940   6.640   3.494   1.674
 7014SOL    HW121941   6.574   3.470   1.603
 7014SOL    HW221942   6.728   3.449   1.655
 7015SOL     OW21943   4.803   5.087   1.073
 7015SOL    HW121944   4.884   5.142   1.053
 7015SOL    HW221945   4.758   5.062   0.987
 7016SOL     OW21946   3.170   5.096   0.687
 7016SOL    HW121947   3.142   5.126   0.596
 7016SOL    HW221948   3.173   4.996   0.690
 7017SOL     OW21949   4.671   5.309   3.908
 7017SOL    HW121950   4.598   5.357   3.957
 7017SOL    HW221951   4.731   5.264   3.973
 7018SOL     OW21952   4.791   2.961   4.186
 7018SOL    HW121953   4.782   3.060   4.175
 7018SOL    HW221954   4.781   2.937   4.282
 7019SOL     OW21955   5.183   4.621   1.758
 7019SOL    HW121956   5.170   4.650   1.664
 7019SOL    HW221957   5.212   4.525   1.760
 7020SOL     OW21958   0.639   3.157   6.950
 7020SOL    HW121959   0.602   3.177   0.017
 7020SOL    HW221960   0.563   3.140   6.887
 7021SOL     OW21961   1.238   2.300   4.836
 7021SOL    HW121962   1.255   2.238   4.913
 7021SOL    HW221963   1.223   2.247   4.753
 7022SOL     OW21964   4.088   1.064   1.120
 7022SOL    HW121965   4.146   1.100   1.193
 7022SOL    HW221966   4.021   1.000   1.158
 7023SOL     OW21967   0.707   2.222   1.492
 7023SOL    HW121968   0.736   2.287   1.562
 7023SOL    HW221969   0.786   2.166   1.465
 7024SOL     OW21970   3.680   3.730   3.761
 7024SOL    HW121971   3.779   3.732   3.747
 7024SOL    HW221972   3.653   3.640   3.795
 7025SOL     OW21973   3.197   0.266   0.247
 7025SOL    HW121974   3.174   0.340   0.185
 7025SOL    HW221975   3.199   0.179   0.196
 7026SOL     OW21976   3.417   2.033   1.319
 7026SOL    HW121977   3.386   2.039   1.224
 7026SOL    HW221978   3.389   2.115   1.369
 7027SOL     OW21979   2.032   5.797   1.529
 7027SOL    HW121980   2.063   5.731   1.460
 7027SOL    HW221981   2.096   5.873   1.533
 7028SOL     OW21982   3.292   0.372   3.788
 7028SOL    HW121983   3.274   0.411   3.878
 7028SOL    HW221984   3.387   0.387   3.763
 7029SOL     OW21985   3.234   3.145   5.181
 7029SOL    HW121986   3.271   3.219   5.237
 7029SOL    HW221987   3.164   3.096   5.232
 7030SOL     OW21988   6.734   1.670   4.526
 7030SOL    HW121989   6.708   1.581   4.565
 7030SOL    HW221990   6.809   1.709   4.579
 7031SOL     OW21991   4.407   6.666   0.671
 7031SOL    HW121992   4.467   6.715   0.735
 7031SOL    HW221993   4.347   6.732   0.626
 7032SOL     OW21994   3.858   6.870   4.543
 7032SOL    HW121995   3.914   6.910   4.616
 7032SOL    HW221996   3.802   6.941   4.501
 7033SOL     OW21997   1.412   2.411   5.518
 7033SOL    HW121998   1.405   2.314   5.544
 7033SOL    HW221999   1.427   2.466   5.600
 7034SOL     OW22000   6.076   1.325   2.905
 7034SOL    HW122001   6.160   1.325   2.960
 7034SOL    HW222002   6.024   1.242   2.926
 7035SOL     OW22003   2.198   0.836   0.812
 7035SOL    HW122004   2.283   0.832   0.864
 7035SOL    HW222005   2.128   0.782   0.858
 7036SOL     OW22006   0.074   1.317   2.139
 7036SOL    HW122007   0.123   1.373   2.206
 7036SOL    HW222008   0.138   1.289   2.067
 7037SOL     OW22009   0.494   0.617   6.135
 7037SOL    HW122010   0.424   0.670   6.087
 7037SOL    HW222011   0.558   0.577   6.069
 7038SOL     OW22012   1.564   3.006   6.418
 7038SOL    HW122013   1.495   3.075   6.395
 7038SOL    HW222014   1.520   2.918   6.436
 7039SOL     OW22015   0.163   5.940   2.996
 7039SOL    HW122016   0.098   5.902   2.930
 7039SOL    HW222017   0.220   6.008   2.950
 7040SOL     OW22018   4.275   2.167   5.426
 7040SOL    HW122019   4.246   2.191   5.334
 7040SOL    HW222020   4.253   2.071   5.444
 7041SOL     OW22021   1.370   0.468   4.074
 7041SOL    HW122022   1.356   0.531   4.151
 7041SOL    HW222023   1.358   0.517   3.988
 7042SOL     OW22024   4.617   6.326   5.193
 7042SOL    HW122025   4.666   6.394   5.249
 7042SOL    HW222026   4.659   6.322   5.102
 7043SOL     OW22027   2.316   4.703   3.023
 7043SOL    HW122028   2.302   4.734   2.929
 7043SOL    HW222029   2.412   4.714   3.049
 7044SOL     OW22030   5.475   6.438   4.067
 7044SOL    HW122031   5.503   6.457   4.161
 7044SOL    HW222032   5.444   6.523   4.024
 7045SOL     OW22033   6.224   5.423   2.620
 7045SOL    HW122034   6.260   5.489   2.686
 7045SOL    HW222035   6.224   5.331   2.661
 7046SOL     OW22036   3.006   2.247   4.458
 7046SOL    HW122037   2.980   2.182   4.530
 7046SOL    HW222038   3.101   2.232   4.431
 7047SOL     OW22039   0.608   7.011   0.307
 7047SOL    HW122040   0.657   0.073   0.310
 7047SOL    HW222041   0.552   7.006   0.224
 7048SOL     OW22042   6.944   5.452   4.854
 7048SOL    HW122043   6.917   5.392   4.779
 7048SOL    HW222044   0.012   5.428   4.884
 7049SOL     OW22045   4.042   1.028   2.261
 7049SOL    HW122046   4.138   1.019   2.237
 7049SOL    HW222047   3.994   0.942   2.239
 7050SOL     OW22048   4.163   3.889   0.997
 7050SOL    HW122049   4.262   3.883   0.986
 7050SOL    HW222050   4.118   3.838   0.923
 7051SOL     OW22051   0.358   6.962   1.153
 7051SOL    HW122052   0.370   0.031   1.186
 7051SOL    HW222053   0.445   6.914   1.159
 7052SOL     OW22054   5.664   0.007   2.294
 7052SOL    HW122055   5.710   0.084   2.249
 7052SOL    HW222056   5.565   0.018   2.286
 7053SOL     OW22057   1.767   2.723   3.707
 7053SOL    HW122058   1.774   2.805   3.651
 7053SOL    HW222059   1.833   2.654   3.675
 7054SOL     OW22060   6.699   0.213   0.725
 7054SOL    HW122061   6.771   0.144   0.715
 7054SOL    HW222062   6.740   0.304   0.722
 7055SOL     OW22063   2.168   1.003   6.708
 7055SOL    HW122064   2.180   0.948   6.790
 7055SOL    HW222065   2.079   0.982   6.667
 7056SOL     OW22066   0.364   5.603   1.464
 7056SOL    HW122067   0.329   5.511   1.479
 7056SOL    HW222068   0.463   5.600   1.449
 7057SOL     OW22069   3.134   4.981   5.033
 7057SOL    HW122070   3.142   5.080   5.045
 7057SOL    HW222071   3.202   4.950   4.966
 7058SOL     OW22072   5.124   2.663   6.012
 7058SOL    HW122073   5.070   2.588   5.974
 7058SOL    HW222074   5.210   2.627   6.048
 7059SOL     OW22075   1.746   0.737   4.800
 7059SOL    HW122076   1.823   0.714   4.741
 7059SOL    HW222077   1.730   0.836   4.795
 7060SOL     OW22078   3.353   0.450   2.176
 7060SOL    HW122079   3.329   0.482   2.268
 7060SOL    HW222080   3.317   0.514   2.108
 7061SOL     OW22081   0.821   2.346   3.067
 7061SOL    HW122082   0.884   2.422   3.083
 7061SOL    HW222083   0.803   2.298   3.153
 7062SOL     OW22084   4.165   1.847   3.291
 7062SOL    HW122085   4.181   1.863   3.193
 7062SOL    HW222086   4.082   1.896   3.320
 7063SOL     OW22087   0.550   1.190   1.827
 7063SOL    HW122088   0.638   1.207   1.871
 7063SOL    HW222089   0.506   1.111   1.869
 7064SOL     OW22090   4.865   1.964   5.126
 7064SOL    HW122091   4.832   1.875   5.155
 7064SOL    HW222092   4.962   1.974   5.148
 7065SOL     OW22093   3.712   4.494   5.596
 7065SOL    HW122094   3.724   4.397   5.576
 7065SOL    HW222095   3.655   4.536   5.525
 7066SOL     OW22096   3.952   0.755   0.129
 7066SOL    HW122097   3.931   0.852   0.130
 7066SOL    HW222098   3.920   0.713   0.215
 7067SOL     OW22099   2.101   3.186   0.061
 7067SOL    HW122100   2.022   3.207   0.003
 7067SOL    HW222101   2.120   3.088   0.058
 7068SOL     OW22102   4.999   4.348   4.126
 7068SOL    HW122103   4.907   4.369   4.159
 7068SOL    HW222104   5.064   4.413   4.164
 7069SOL     OW22105   5.818   0.138   6.554
 7069SOL    HW122106   5.809   0.074   6.477
 7069SOL    HW222107   5.770   0.102   6.633
 7070SOL     OW22108   0.056   6.415   5.336
 7070SOL    HW122109   7.011   6.377   5.397
 7070SOL    HW222110   0.138   6.356   5.338
 7071SOL     OW22111   5.292   5.911   6.517
 7071SOL    HW122112   5.382   5.892   6.480
 7071SOL    HW222113   5.269   6.007   6.503
 7072SOL     OW22114   0.401   3.524   6.676
 7072SOL    HW122115   0.400   3.438   6.625
 7072SOL    HW222116   0.308   3.559   6.682
 7073SOL     OW22117   5.369   1.343   3.191
 7073SOL    HW122118   5.348   1.290   3.273
 7073SOL    HW222119   5.458   1.316   3.155
 7074SOL     OW22120   5.679   4.053   3.018
 7074SOL    HW122121   5.703   4.000   2.937
 7074SOL    HW222122   5.740   4.133   3.024
 7075SOL     OW22123   3.008   5.186   4.133
 7075SOL    HW122124   2.954   5.251   4.079
 7075SOL    HW222125   2.951   5.109   4.160
 7076SOL     OW22126   5.528   3.275   2.728
 7076SOL    HW122127   5.519   3.198   2.664
 7076SOL    HW222128   5.437   3.306   2.755
 7077SOL     OW22129   2.889   5.258   1.500
 7077SOL    HW122130   2.910   5.164   1.473
 7077SOL    HW222131   2.795   5.264   1.531
 7078SOL     OW22132   5.317   0.135   0.607
 7078SOL    HW122133   5.289   0.213   0.551
 7078SOL    HW222134   5.237   0.080   0.630
 7079SOL     OW22135   1.411   6.998   4.578
 7079SOL    HW122136   1.490   6.956   4.622
 7079SOL    HW222137   1.430   7.011   4.480
 7080SOL     OW22138   3.863   1.841   5.100
 7080SOL    HW122139   3.918   1.920   5.125
 7080SOL    HW222140   3.867   1.828   5.001
 7081SOL     OW22141   1.868   1.183   6.684
 7081SOL    HW122142   1.802   1.116   6.717
 7081SOL    HW222143   1.951   1.178   6.739
 7082SOL     OW22144   6.717   4.376   2.671
 7082SOL    HW122145   6.747   4.361   2.577
 7082SOL    HW222146   6.626   4.416   2.672
 7083SOL     OW22147   0.024   3.316   2.437
 7083SOL    HW122148   0.048   3.274   2.525
 7083SOL    HW222149   6.975   3.264   2.394
 7084SOL     OW22150   0.860   5.842   0.104
 7084SOL    HW122151   0.937   5.816   0.161
 7084SOL    HW222152   0.814   5.921   0.143
 7085SOL     OW22153   0.614   3.100   2.493
 7085SOL    HW122154   0.560   3.031   2.445
 7085SOL    HW222155   0.678   3.143   2.429
 7086SOL     OW22156   5.698   0.981   4.932
 7086SOL    HW122157   5.742   0.894   4.953
 7086SOL    HW222158   5.655   0.976   4.842
 7087SOL     OW22159   5.590   3.158   3.427
 7087SOL    HW122160   5.684   3.130   3.408
 7087SOL    HW222161   5.565   3.132   3.521
 7088SOL     OW22162   5.871   1.666   5.003
 7088SOL    HW122163   5.952   1.703   5.048
 7088SOL    HW222164   5.897   1.627   4.915
 7089SOL     OW22165   3.244   5.612   1.724
 7089SOL    HW122166   3.176   5.539   1.714
 7089SOL    HW222167   3.299   5.595   1.805
 7090SOL     OW22168   3.938   2.130   1.293
 7090SOL    HW122169   3.855   2.143   1.347
 7090SOL    HW222170   3.957   2.033   1.283
 7091SOL     OW22171   0.271   6.763   6.498
 7091SOL    HW122172   0.259   6.673   6.540
 7091SOL    HW222173   0.255   6.834   6.567
 7092SOL     OW22174   4.513   2.310   6.806
 7092SOL    HW122175   4.508   2.308   6.706
 7092SOL    HW222176   4.601   2.272   6.836
 7093SOL     OW22177   3.242   4.222   0.851
 7093SOL    HW122178   3.198   4.260   0.769
 7093SOL    HW222179   3.185   4.148   0.888
 7094SOL     OW22180   2.858   0.184   5.390
 7094SOL    HW122181   2.833   0.104   5.336
 7094SOL    HW222182   2.776   0.228   5.426
 7095SOL     OW22183   2.606   4.345   5.503
 7095SOL    HW122184   2.697   4.348   5.462
 7095SOL    HW222185   2.544   4.402   5.450
 7096SOL     OW22186   0.035   1.051   1.037
 7096SOL    HW122187   0.065   1.074   0.944
 7096SOL    HW222188   0.079   0.966   1.066
 7097SOL     OW22189   4.906   0.897   1.595
 7097SOL    HW122190   4.929   0.808   1.556
 7097SOL    HW222191   4.987   0.936   1.640
 7098SOL     OW22192   0.789   6.769   4.499
 7098SOL    HW122193   0.778   6.708   4.421
 7098SOL    HW222194   0.737   6.734   4.576
 7099SOL     OW22195   2.796   2.204   4.006
 7099SOL    HW122196   2.721   2.265   3.980
 7099SOL    HW222197   2.804   2.201   4.105
 7100SOL     OW22198   6.372   3.956   1.037
 7100SOL    HW122199   6.361   3.921   1.130
 7100SOL    HW222200   6.326   4.044   1.029
 7101SOL     OW22201   2.187   6.375   5.274
 7101SOL    HW122202   2.233   6.310   5.215
 7101SOL    HW222203   2.165   6.332   5.362
 7102SOL     OW22204   5.965   0.792   1.187
 7102SOL    HW122205   6.035   0.863   1.188
 7102SOL    HW222206   5.910   0.800   1.104
 7103SOL     OW22207   4.738   4.226   3.031
 7103SOL    HW122208   4.740   4.137   2.985
 7103SOL    HW222209   4.703   4.215   3.124
 7104SOL     OW22210   4.910   3.451   3.381
 7104SOL    HW122211   4.964   3.531   3.409
 7104SOL    HW222212   4.863   3.472   3.295
 7105SOL     OW22213   2.965   3.694   4.050
 7105SOL    HW122214   2.913   3.647   4.121
 7105SOL    HW222215   2.949   3.650   3.962
 7106SOL     OW22216   2.628   3.408   1.145
 7106SOL    HW122217   2.634   3.333   1.079
 7106SOL    HW222218   2.630   3.495   1.096
 7107SOL     OW22219   4.121   0.720   6.763
 7107SOL    HW122220   4.055   0.671   6.821
 7107SOL    HW222221   4.121   0.817   6.787
 7108SOL     OW22222   3.272   0.229   2.732
 7108SOL    HW122223   3.341   0.166   2.769
 7108SOL    HW222224   3.315   0.317   2.711
 7109SOL     OW22225   2.249   6.907   5.748
 7109SOL    HW122226   2.323   6.846   5.722
 7109SOL    HW222227   2.257   6.993   5.697
 7110SOL     OW22228   3.505   6.283   4.696
 7110SOL    HW122229   3.596   6.255   4.666
 7110SOL    HW222230   3.438   6.259   4.625
 7111SOL     OW22231   0.092   0.698   4.222
 7111SOL    HW122232   0.046   0.652   4.145
 7111SOL    HW222233   0.122   0.789   4.192
 7112SOL     OW22234   1.752   4.903   4.451
 7112SOL    HW122235   1.724   4.852   4.531
 7112SOL    HW222236   1.729   5.000   4.463
 7113SOL     OW22237   3.257   5.135   5.410
 7113SOL    HW122238   3.224   5.200   5.342
 7113SOL    HW222239   3.314   5.066   5.365
 7114SOL     OW22240   4.979   5.021   0.232
 7114SOL    HW122241   4.958   4.949   0.298
 7114SOL    HW222242   4.958   4.989   0.140
 7115SOL     OW22243   6.348   4.458   0.334
 7115SOL    HW122244   6.316   4.517   0.408
 7115SOL    HW222245   6.413   4.391   0.371
 7116SOL     OW22246   6.720   3.517   4.263
 7116SOL    HW122247   6.670   3.443   4.217
 7116SOL    HW222248   6.667   3.550   4.341
 7117SOL     OW22249   6.207   0.010   3.130
 7117SOL    HW122250   6.257   6.949   3.116
 7117SOL    HW222251   6.109   7.015   3.137
 7118SOL     OW22252   4.118   4.815   5.236
 7118SOL    HW122253   4.179   4.836   5.160
 7118SOL    HW222254   4.057   4.892   5.252
 7119SOL     OW22255   3.966   6.634   4.490
 7119SOL    HW122256   3.904   6.705   4.523
 7119SOL    HW222257   4.045   6.627   4.552
 7120SOL     OW22258   4.791   0.788   0.741
 7120SOL    HW122259   4.750   0.780   0.832
 7120SOL    HW222260   4.872   0.846   0.746
 7121SOL     OW22261   1.399   6.453   2.974
 7121SOL    HW122262   1.491   6.473   2.940
 7121SOL    HW222263   1.396   6.358   3.006
 7122SOL     OW22264   2.275   0.844   5.752
 7122SOL    HW122265   2.239   0.785   5.680
 7122SOL    HW222266   2.368   0.871   5.728
 7123SOL     OW22267   5.288   5.055   5.880
 7123SOL    HW122268   5.204   5.047   5.933
 7123SOL    HW222269   5.268   5.100   5.793
 7124SOL     OW22270   1.340   2.280   1.516
 7124SOL    HW122271   1.418   2.275   1.578
 7124SOL    HW222272   1.299   2.372   1.523
 7125SOL     OW22273   1.413   6.778   0.865
 7125SOL    HW122274   1.512   6.788   0.874
 7125SOL    HW222275   1.374   6.756   0.954
 7126SOL     OW22276   3.964   5.856   1.410
 7126SOL    HW122277   3.906   5.776   1.391
 7126SOL    HW222278   4.034   5.863   1.339
 7127SOL     OW22279   2.831   6.514   5.343
 7127SOL    HW122280   2.821   6.595   5.286
 7127SOL    HW222281   2.895   6.533   5.417
 7128SOL     OW22282   3.892   4.052   6.500
 7128SOL    HW122283   3.966   4.007   6.450
 7128SOL    HW222284   3.823   4.084   6.435
 7129SOL     OW22285   0.417   0.215   0.430
 7129SOL    HW122286   0.491   0.232   0.495
 7129SOL    HW222287   0.377   0.124   0.448
 7130SOL     OW22288   3.423   6.673   4.412
 7130SOL    HW122289   3.435   6.760   4.365
 7130SOL    HW222290   3.473   6.601   4.363
 7131SOL     OW22291   4.284   0.554   2.449
 7131SOL    HW122292   4.283   0.492   2.527
 7131SOL    HW222293   4.227   0.634   2.470
 7132SOL     OW22294   5.323   4.226   0.587
 7132SOL    HW122295   5.253   4.165   0.624
 7132SOL    HW222296   5.404   4.173   0.564
 7133SOL     OW22297   3.591   5.576   3.243
 7133SOL    HW122298   3.564   5.607   3.151
 7133SOL    HW222299   3.537   5.495   3.267
 7134SOL     OW22300   5.597   4.950   0.987
 7134SOL    HW122301   5.580   5.045   0.962
 7134SOL    HW222302   5.584   4.939   1.086
 7135SOL     OW22303   1.920   3.175   1.427
 7135SOL    HW122304   1.982   3.103   1.458
 7135SOL    HW222305   1.935   3.257   1.482
 7136SOL     OW22306   2.180   1.634   1.978
 7136SOL    HW122307   2.255   1.568   1.977
 7136SOL    HW222308   2.216   1.726   1.966
 7137SOL     OW22309   2.699   2.039   1.587
 7137SOL    HW122310   2.754   2.121   1.605
 7137SOL    HW222311   2.759   1.965   1.555
 7138SOL     OW22312   1.313   2.763   1.005
 7138SOL    HW122313   1.359   2.686   1.050
 7138SOL    HW222314   1.382   2.829   0.975
 7139SOL     OW22315   5.992   5.866   1.409
 7139SOL    HW122316   6.071   5.891   1.466
 7139SOL    HW222317   6.013   5.782   1.359
 7140SOL     OW22318   6.562   2.939   0.463
 7140SOL    HW122319   6.547   3.027   0.507
 7140SOL    HW222320   6.494   2.873   0.496
 7141SOL     OW22321   3.539   0.317   1.077
 7141SOL    HW122322   3.581   0.392   1.027
 7141SOL    HW222323   3.515   0.348   1.169
 7142SOL     OW22324   2.746   0.155   5.067
 7142SOL    HW122325   2.704   0.195   4.986
 7142SOL    HW222326   2.840   0.189   5.076
 7143SOL     OW22327   2.667   4.574   7.001
 7143SOL    HW122328   2.683   4.542   0.070
 7143SOL    HW222329   2.584   4.532   6.965
 7144SOL     OW22330   6.618   0.327   5.396
 7144SOL    HW122331   6.637   0.278   5.311
 7144SOL    HW222332   6.534   0.291   5.437
 7145SOL     OW22333   4.994   2.352   6.510
 7145SOL    HW122334   5.084   2.316   6.535
 7145SOL    HW222335   4.939   2.364   6.593
 7146SOL     OW22336   1.746   1.923   5.217
 7146SOL    HW122337   1.649   1.901   5.204
 7146SOL    HW222338   1.786   1.858   5.281
 7147SOL     OW22339   6.063   5.532   1.731
 7147SOL    HW122340   5.984   5.585   1.764
 7147SOL    HW222341   6.100   5.478   1.806
 7148SOL     OW22342   6.860   6.601   0.754
 7148SOL    HW122343   6.934   6.629   0.816
 7148SOL    HW222344   6.772   6.609   0.801
 7149SOL     OW22345   6.515   4.805   4.649
 7149SOL    HW122346   6.436   4.749   4.625
 7149SOL    HW222347   6.515   4.888   4.593
 7150SOL     OW22348   3.883   3.434   6.790
 7150SOL    HW122349   3.868   3.455   6.886
 7150SOL    HW222350   3.981   3.441   6.769
 7151SOL     OW22351   3.741   0.953   1.164
 7151SOL    HW122352   3.832   0.923   1.193
 7151SOL    HW222353   3.726   1.047   1.194
 7152SOL     OW22354   6.513   1.401   6.535
 7152SOL    HW122355   6.520   1.490   6.580
 7152SOL    HW222356   6.595   1.385   6.480
 7153SOL     OW22357   3.885   6.062   1.007
 7153SOL    HW122358   3.977   6.085   1.041
 7153SOL    HW222359   3.835   6.147   0.988
 7154SOL     OW22360   4.190   1.818   1.587
 7154SOL    HW122361   4.253   1.750   1.624
 7154SOL    HW222362   4.096   1.785   1.595
 7155SOL     OW22363   2.893   1.250   2.335
 7155SOL    HW122364   2.885   1.332   2.279
 7155SOL    HW222365   2.956   1.268   2.412
 7156SOL     OW22366   6.075   4.032   6.958
 7156SOL    HW122367   6.144   3.972   6.916
 7156SOL    HW222368   6.006   4.056   6.889
 7157SOL     OW22369   6.023   4.830   6.635
 7157SOL    HW122370   6.058   4.736   6.642
 7157SOL    HW222371   6.098   4.895   6.644
 7158SOL     OW22372   4.824   6.606   3.987
 7158SOL    HW122373   4.905   6.579   3.936
 7158SOL    HW222374   4.844   6.688   4.041
 7159SOL     OW22375   0.733   5.947   3.269
 7159SOL    HW122376   0.766   6.032   3.228
 7159SOL    HW222377   0.791   5.871   3.239
 7160SOL     OW22378   6.431   0.112   3.390
 7160SOL    HW122379   6.469   0.089   3.300
 7160SOL    HW222380   6.426   0.211   3.400
 7161SOL     OW22381   4.043   3.180   3.648
 7161SOL    HW122382   4.023   3.082   3.641
 7161SOL    HW222383   3.963   3.233   3.621
 7162SOL     OW22384   0.318   5.662   2.096
 7162SOL    HW122385   0.245   5.617   2.044
 7162SOL    HW222386   0.311   5.637   2.192
 7163SOL     OW22387   0.847   1.451   2.228
 7163SOL    HW122388   0.927   1.509   2.213
 7163SOL    HW222389   0.766   1.509   2.236
 7164SOL     OW22390   1.885   1.382   6.521
 7164SOL    HW122391   1.880   1.305   6.585
 7164SOL    HW222392   1.913   1.349   6.431
 7165SOL     OW22393   5.871   1.028   0.381
 7165SOL    HW122394   5.876   1.100   0.450
 7165SOL    HW222395   5.820   1.061   0.301
 7166SOL     OW22396   6.155   6.303   5.831
 7166SOL    HW122397   6.253   6.319   5.841
 7166SOL    HW222398   6.108   6.327   5.916
 7167SOL     OW22399   5.759   2.035   4.932
 7167SOL    HW122400   5.756   2.016   5.030
 7167SOL    HW222401   5.767   2.133   4.917
 7168SOL     OW22402   2.760   0.982   2.052
 7168SOL    HW122403   2.711   1.028   1.978
 7168SOL    HW222404   2.821   0.912   2.014
 7169SOL     OW22405   1.312   4.092   6.529
 7169SOL    HW122406   1.366   4.173   6.507
 7169SOL    HW222407   1.371   4.023   6.570
 7170SOL     OW22408   4.024   1.267   1.326
 7170SOL    HW122409   3.947   1.324   1.296
 7170SOL    HW222410   4.107   1.324   1.332
 7171SOL     OW22411   6.763   4.362   0.719
 7171SOL    HW122412   6.679   4.316   0.692
 7171SOL    HW222413   6.806   4.404   0.639
 7172SOL     OW22414   1.541   1.338   3.899
 7172SOL    HW122415   1.490   1.411   3.946
 7172SOL    HW222416   1.532   1.253   3.950
 7173SOL     OW22417   4.937   5.586   6.103
 7173SOL    HW122418   4.997   5.625   6.173
 7173SOL    HW222419   4.991   5.529   6.041
 7174SOL     OW22420   6.144   4.755   1.564
 7174SOL    HW122421   6.077   4.699   1.611
 7174SOL    HW222422   6.111   4.779   1.473
 7175SOL     OW22423   5.428   3.533   6.422
 7175SOL    HW122424   5.463   3.627   6.420
 7175SOL    HW222425   5.405   3.504   6.329
 7176SOL     OW22426   0.657   0.535   5.683
 7176SOL    HW122427   0.737   0.595   5.668
 7176SOL    HW222428   0.671   0.481   5.766
 7177SOL     OW22429   1.638   5.082   3.712
 7177SOL    HW122430   1.617   4.998   3.762
 7177SOL    HW222431   1.586   5.084   3.627
 7178SOL     OW22432   1.679   0.861   5.540
 7178SOL    HW122433   1.707   0.957   5.548
 7178SOL    HW222434   1.754   0.808   5.501
 7179SOL     OW22435   3.178   5.860   6.372
 7179SOL    HW122436   3.164   5.937   6.434
 7179SOL    HW222437   3.145   5.884   6.281
 7180SOL     OW22438   1.240   4.088   1.032
 7180SOL    HW122439   1.303   4.121   0.962
 7180SOL    HW222440   1.211   4.165   1.090
 7181SOL     OW22441   2.690   1.502   6.295
 7181SOL    HW122442   2.706   1.528   6.390
 7181SOL    HW222443   2.613   1.554   6.258
 7182SOL     OW22444   1.511   2.013   4.624
 7182SOL    HW122445   1.499   1.974   4.715
 7182SOL    HW222446   1.590   2.075   4.625
 7183SOL     OW22447   0.541   6.428   2.123
 7183SOL    HW122448   0.476   6.427   2.047
 7183SOL    HW222449   0.506   6.486   2.196
 7184SOL     OW22450   6.407   0.275   3.763
 7184SOL    HW122451   6.358   0.311   3.843
 7184SOL    HW222452   6.356   0.198   3.725
 7185SOL     OW22453   4.376   0.911   4.481
 7185SOL    HW122454   4.386   0.988   4.545
 7185SOL    HW222455   4.467   0.879   4.454
 7186SOL     OW22456   0.484   0.147   6.950
 7186SOL    HW122457   0.431   0.182   6.874
 7186SOL    HW222458   0.456   0.193   0.010
 7187SOL     OW22459   3.240   2.967   4.250
 7187SOL    HW122460   3.243   2.981   4.349
 7187SOL    HW222461   3.155   3.005   4.213
 7188SOL     OW22462   3.812   4.363   6.529
 7188SOL    HW122463   3.866   4.350   6.612
 7188SOL    HW222464   3.841   4.299   6.459
 7189SOL     OW22465   6.444   3.050   5.971
 7189SOL    HW122466   6.348   3.070   5.951
 7189SOL    HW222467   6.455   3.028   6.068
 7190SOL     OW22468   5.561   5.765   1.201
 7190SOL    HW122469   5.568   5.667   1.183
 7190SOL    HW222470   5.473   5.798   1.166
 7191SOL     OW22471   0.476   4.728   3.554
 7191SOL    HW122472   0.513   4.753   3.644
 7191SOL    HW222473   0.471   4.809   3.497
 7192SOL     OW22474   1.631   4.880   6.745
 7192SOL    HW122475   1.724   4.916   6.749
 7192SOL    HW222476   1.580   4.927   6.672
 7193SOL     OW22477   2.465   2.598   2.969
 7193SOL    HW122478   2.422   2.508   2.957
 7193SOL    HW222479   2.551   2.601   2.918
 7194SOL     OW22480   2.909   2.657   5.768
 7194SOL    HW122481   2.959   2.651   5.681
 7194SOL    HW222482   2.964   2.708   5.834
 7195SOL     OW22483   6.997   3.876   5.827
 7195SOL    HW122484   6.901   3.896   5.806
 7195SOL    HW222485   0.012   3.823   5.753
 7196SOL     OW22486   3.294   3.756   2.132
 7196SOL    HW122487   3.274   3.825   2.063
 7196SOL    HW222488   3.210   3.733   2.181
 7197SOL     OW22489   2.256   3.814   5.885
 7197SOL    HW122490   2.264   3.714   5.888
 7197SOL    HW222491   2.286   3.848   5.796
 7198SOL     OW22492   0.099   0.884   1.617
 7198SOL    HW122493   0.109   0.954   1.688
 7198SOL    HW222494   0.075   0.797   1.660
 7199SOL     OW22495   0.801   1.182   2.241
 7199SOL    HW122496   0.803   1.282   2.241
 7199SOL    HW222497   0.824   1.148   2.150
 7200SOL     OW22498   1.047   2.607   0.814
 7200SOL    HW122499   1.087   2.547   0.744
 7200SOL    HW222500   1.121   2.650   0.867
 7201SOL     OW22501   5.671   5.336   3.970
 7201SOL    HW122502   5.752   5.300   3.923
 7201SOL    HW222503   5.688   5.430   3.998
 7202SOL     OW22504   5.122   0.226   5.673
 7202SOL    HW122505   5.203   0.175   5.703
 7202SOL    HW222506   5.125   0.238   5.573
 7203SOL     OW22507   0.410   1.471   1.892
 7203SOL    HW122508   0.411   1.530   1.973
 7203SOL    HW222509   0.420   1.528   1.810
 7204SOL     OW22510   6.986   6.841   1.161
 7204SOL    HW122511   6.993   6.940   1.158
 7204SOL    HW222512   6.909   6.814   1.219
 7205SOL     OW22513   2.488   2.127   4.987
 7205SOL    HW122514   2.422   2.138   4.913
 7205SOL    HW222515   2.534   2.214   5.004
 7206SOL     OW22516   1.956   2.917   0.957
 7206SOL    HW122517   1.921   2.970   0.880
 7206SOL    HW222518   1.905   2.831   0.964
 7207SOL     OW22519   1.861   1.463   4.372
 7207SOL    HW122520   1.956   1.480   4.401
 7207SOL    HW222521   1.809   1.549   4.378
 7208SOL     OW22522   2.900   0.420   4.415
 7208SOL    HW122523   2.964   0.495   4.429
 7208SOL    HW222524   2.907   0.387   4.321
 7209SOL     OW22525   2.787   2.012   2.556
 7209SOL    HW122526   2.756   1.993   2.463
 7209SOL    HW222527   2.712   2.053   2.608
 7210SOL     OW22528   2.727   1.132   3.101
 7210SOL    HW122529   2.668   1.096   3.029
 7210SOL    HW222530   2.752   1.058   3.163
 7211SOL     OW22531   3.294   5.529   4.823
 7211SOL    HW122532   3.314   5.432   4.808
 7211SOL    HW222533   3.198   5.540   4.849
 7212SOL     OW22534   5.909   4.561   6.194
 7212SOL    HW122535   5.847   4.530   6.123
 7212SOL    HW222536   5.968   4.633   6.159
 7213SOL     OW22537   4.281   1.654   0.577
 7213SOL    HW122538   4.194   1.628   0.620
 7213SOL    HW222539   4.330   1.718   0.637
 7214SOL     OW22540   0.065   1.297   6.700
 7214SOL    HW122541   0.116   1.341   6.626
 7214SOL    HW222542   7.005   1.257   6.663
 7215SOL     OW22543   6.738   2.377   2.602
 7215SOL    HW122544   6.784   2.342   2.521
 7215SOL    HW222545   6.639   2.366   2.591
 7216SOL     OW22546   3.275   6.116   3.120
 7216SOL    HW122547   3.369   6.114   3.153
 7216SOL    HW222548   3.214   6.080   3.191
 7217SOL     OW22549   1.385   4.235   3.478
 7217SOL    HW122550   1.416   4.159   3.420
 7217SOL    HW222551   1.443   4.240   3.560
 7218SOL     OW22552   6.172   3.964   4.340
 7218SOL    HW122553   6.193   4.008   4.428
 7218SOL    HW222554   6.089   3.908   4.350
 7219SOL     OW22555   3.730   6.047   2.098
 7219SOL    HW122556   3.787   6.129   2.104
 7219SOL    HW222557   3.770   5.983   2.032
 7220SOL     OW22558   6.296   4.941   4.340
 7220SOL    HW122559   6.365   4.966   4.408
 7220SOL    HW222560   6.258   5.024   4.300
 7221SOL     OW22561   3.549   5.622   4.837
 7221SOL    HW122562   3.455   5.592   4.823
 7221SOL    HW222563   3.585   5.583   4.922
 7222SOL     OW22564   6.959   6.902   4.267
 7222SOL    HW122565   7.024   6.913   4.342
 7222SOL    HW222566   7.008   6.907   4.180
 7223SOL     OW22567   0.827   2.524   0.966
 7223SOL    HW122568   0.776   2.461   0.910
 7223SOL    HW222569   0.904   2.561   0.914
 7224SOL     OW22570   3.873   2.178   3.423
 7224SOL    HW122571   3.910   2.238   3.352
 7224SOL    HW222572   3.883   2.083   3.395
 7225SOL     OW22573   1.741   0.429   0.923
 7225SOL    HW122574   1.755   0.339   0.883
 7225SOL    HW222575   1.677   0.481   0.866
 7226SOL     OW22576   6.174   6.213   0.409
 7226SOL    HW122577   6.115   6.133   0.404
 7226SOL    HW222578   6.233   6.216   0.328
 7227SOL     OW22579   2.525   1.096   1.903
 7227SOL    HW122580   2.557   1.187   1.927
 7227SOL    HW222581   2.425   1.094   1.902
 7228SOL     OW22582   0.683   3.493   2.026
 7228SOL    HW122583   0.769   3.532   1.992
 7228SOL    HW222584   0.671   3.520   2.122
 7229SOL     OW22585   6.911   0.224   5.225
 7229SOL    HW122586   6.985   0.160   5.248
 7229SOL    HW222587   6.933   0.314   5.263
 7230SOL     OW22588   2.041   4.975   4.373
 7230SOL    HW122589   1.945   4.968   4.343
 7230SOL    HW222590   2.098   4.917   4.315
 7231SOL     OW22591   4.546   1.772   6.401
 7231SOL    HW122592   4.537   1.676   6.429
 7231SOL    HW222593   4.529   1.832   6.479
 7232SOL     OW22594   6.116   6.676   3.221
 7232SOL    HW122595   6.055   6.727   3.282
 7232SOL    HW222596   6.210   6.684   3.254
 7233SOL     OW22597   6.769   1.459   5.129
 7233SOL    HW122598   6.833   1.536   5.137
 7233SOL    HW222599   6.703   1.463   5.204
 7234SOL     OW22600   5.225   3.842   2.626
 7234SOL    HW122601   5.312   3.835   2.674
 7234SOL    HW222602   5.172   3.758   2.641
 7235SOL     OW22603   0.134   6.137   1.509
 7235SOL    HW122604   0.061   6.166   1.447
 7235SOL    HW222605   0.127   6.038   1.523
 7236SOL     OW22606   2.671   2.344   3.189
 7236SOL    HW122607   2.680   2.256   3.236
 7236SOL    HW222608   2.701   2.335   3.094
 7237SOL     OW22609   5.038   0.508   0.128
 7237SOL    HW122610   5.076   0.460   0.048
 7237SOL    HW222611   5.050   0.607   0.116
 7238SOL     OW22612   4.588   3.591   0.251
 7238SOL    HW122613   4.587   3.544   0.339
 7238SOL    HW222614   4.519   3.663   0.250
 7239SOL     OW22615   0.913   3.696   2.421
 7239SOL    HW122616   0.913   3.706   2.521
 7239SOL    HW222617   0.883   3.782   2.380
 7240SOL     OW22618   6.389   1.771   5.882
 7240SOL    HW122619   6.417   1.758   5.787
 7240SOL    HW222620   6.425   1.859   5.915
 7241SOL     OW22621   2.672   1.671   2.135
 7241SOL    HW122622   2.727   1.696   2.215
 7241SOL    HW222623   2.655   1.572   2.137
 7242SOL     OW22624   6.737   5.071   4.365
 7242SOL    HW122625   6.756   5.169   4.365
 7242SOL    HW222626   6.810   5.023   4.414
 7243SOL     OW22627   6.221   4.209   6.107
 7243SOL    HW122628   6.211   4.238   6.202
 7243SOL    HW222629   6.273   4.124   6.104
 7244SOL     OW22630   0.286   6.554   6.675
 7244SOL    HW122631   0.307   6.626   6.741
 7244SOL    HW222632   0.249   6.475   6.724
 7245SOL     OW22633   1.769   2.525   6.688
 7245SOL    HW122634   1.710   2.561   6.760
 7245SOL    HW222635   1.715   2.506   6.606
 7246SOL     OW22636   3.094   0.182   3.813
 7246SOL    HW122637   3.043   0.197   3.897
 7246SOL    HW222638   3.177   0.238   3.813
 7247SOL     OW22639   2.436   2.615   5.408
 7247SOL    HW122640   2.485   2.562   5.477
 7247SOL    HW222641   2.402   2.700   5.449
 7248SOL     OW22642   3.485   1.077   4.472
 7248SOL    HW122643   3.410   1.013   4.489
 7248SOL    HW222644   3.572   1.030   4.483
 7249SOL     OW22645   3.797   5.314   1.738
 7249SOL    HW122646   3.752   5.323   1.827
 7249SOL    HW222647   3.804   5.217   1.714
 7250SOL     OW22648   5.237   5.732   5.412
 7250SOL    HW122649   5.313   5.745   5.476
 7250SOL    HW222650   5.154   5.713   5.464
 7251SOL     OW22651   0.592   5.968   5.497
 7251SOL    HW122652   0.651   6.015   5.563
 7251SOL    HW222653   0.498   5.967   5.532
 7252SOL     OW22654   3.046   3.924   2.430
 7252SOL    HW122655   3.126   3.983   2.442
 7252SOL    HW222656   2.994   3.919   2.515
 7253SOL     OW22657   1.285   5.752   5.426
 7253SOL    HW122658   1.218   5.745   5.352
 7253SOL    HW222659   1.319   5.845   5.431
 7254SOL     OW22660   5.363   4.361   3.969
 7254SOL    HW122661   5.377   4.284   4.032
 7254SOL    HW222662   5.318   4.328   3.886
 7255SOL     OW22663   4.893   2.771   6.594
 7255SOL    HW122664   4.976   2.749   6.542
 7255SOL    HW222665   4.813   2.755   6.538
 7256SOL     OW22666   3.461   6.538   6.260
 7256SOL    HW122667   3.527   6.575   6.195
 7256SOL    HW222668   3.509   6.484   6.329
 7257SOL     OW22669   0.536   1.339   4.852
 7257SOL    HW122670   0.634   1.358   4.857
 7257SOL    HW222671   0.521   1.250   4.807
 7258SOL     OW22672   6.109   1.813   2.757
 7258SOL    HW122673   6.170   1.748   2.802
 7258SOL    HW222674   6.026   1.766   2.727
 7259SOL     OW22675   0.815   3.602   3.463
 7259SOL    HW122676   0.858   3.672   3.405
 7259SOL    HW222677   0.717   3.619   3.469
 7260SOL     OW22678   5.287   2.873   0.548
 7260SOL    HW122679   5.333   2.886   0.461
 7260SOL    HW222680   5.290   2.777   0.574
 7261SOL     OW22681   0.062   3.859   0.323
 7261SOL    HW122682   0.114   3.889   0.403
 7261SOL    HW222683   0.119   3.798   0.267
 7262SOL     OW22684   5.848   2.122   5.871
 7262SOL    HW122685   5.801   2.188   5.812
 7262SOL    HW222686   5.877   2.044   5.816
 7263SOL     OW22687   0.343   5.880   0.244
 7263SOL    HW122688   0.420   5.927   0.201
 7263SOL    HW222689   0.266   5.943   0.253
 7264SOL     OW22690   5.711   1.083   0.160
 7264SOL    HW122691   5.710   0.986   0.137
 7264SOL    HW222692   5.694   1.137   0.077
 7265SOL     OW22693   4.559   5.858   5.267
 7265SOL    HW122694   4.507   5.826   5.188
 7265SOL    HW222695   4.556   5.958   5.270
 7266SOL     OW22696   6.736   0.801   3.919
 7266SOL    HW122697   6.725   0.900   3.929
 7266SOL    HW222698   6.798   0.783   3.843
 7267SOL     OW22699   6.837   5.485   5.117
 7267SOL    HW122700   6.810   5.399   5.161
 7267SOL    HW222701   6.877   5.466   5.028
 7268SOL     OW22702   6.293   6.104   4.477
 7268SOL    HW122703   6.317   6.082   4.572
 7268SOL    HW222704   6.362   6.066   4.416
 7269SOL     OW22705   2.079   5.169   5.765
 7269SOL    HW122706   1.987   5.149   5.732
 7269SOL    HW222707   2.082   5.262   5.803
 7270SOL     OW22708   0.678   1.173   3.984
 7270SOL    HW122709   0.748   1.138   4.046
 7270SOL    HW222710   0.646   1.262   4.016
 7271SOL     OW22711   0.210   4.978   4.258
 7271SOL    HW122712   0.144   4.970   4.183
 7271SOL    HW222713   0.274   4.901   4.254
 7272SOL     OW22714   6.267   5.594   2.224
 7272SOL    HW122715   6.344   5.612   2.162
 7272SOL    HW222716   6.298   5.602   2.319
 7273SOL     OW22717   6.166   3.323   5.847
 7273SOL    HW122718   6.249   3.379   5.854
 7273SOL    HW222719   6.119   3.323   5.935
 7274SOL     OW22720   0.294   4.508   0.124
 7274SOL    HW122721   0.319   4.462   0.039
 7274SOL    HW222722   0.227   4.580   0.104
 7275SOL     OW22723   6.464   0.554   3.292
 7275SOL    HW122724   6.513   0.529   3.209
 7275SOL    HW222725   6.448   0.473   3.348
 7276SOL     OW22726   4.860   6.606   3.653
 7276SOL    HW122727   4.922   6.594   3.731
 7276SOL    HW222728   4.827   6.700   3.652
 7277SOL     OW22729   4.217   0.772   5.749
 7277SOL    HW122730   4.185   0.700   5.810
 7277SOL    HW222731   4.200   0.746   5.654
 7278SOL     OW22732   3.046   3.703   2.253
 7278SOL    HW122733   3.040   3.790   2.302
 7278SOL    HW222734   3.000   3.631   2.306
 7279SOL     OW22735   3.710   6.193   0.307
 7279SOL    HW122736   3.764   6.135   0.245
 7279SOL    HW222737   3.768   6.222   0.383
 7280SOL     OW22738   4.468   6.620   4.983
 7280SOL    HW122739   4.503   6.563   4.909
 7280SOL    HW222740   4.544   6.666   5.029
 7281SOL     OW22741   3.890   2.212   6.371
 7281SOL    HW122742   3.930   2.280   6.309
 7281SOL    HW222743   3.958   2.142   6.392
 7282SOL     OW22744   5.868   5.679   1.808
 7282SOL    HW122745   5.856   5.663   1.906
 7282SOL    HW222746   5.809   5.617   1.757
 7283SOL     OW22747   2.861   0.728   2.533
 7283SOL    HW122748   2.812   0.645   2.506
 7283SOL    HW222749   2.853   0.797   2.461
 7284SOL     OW22750   6.850   3.907   5.355
 7284SOL    HW122751   6.894   3.953   5.433
 7284SOL    HW222752   6.921   3.870   5.295
 7285SOL     OW22753   4.756   5.345   1.862
 7285SOL    HW122754   4.716   5.253   1.858
 7285SOL    HW222755   4.825   5.348   1.934
 7286SOL     OW22756   2.617   2.641   1.100
 7286SOL    HW122757   2.662   2.592   1.026
 7286SOL    HW222758   2.649   2.605   1.188
 7287SOL     OW22759   6.245   1.128   6.432
 7287SOL    HW122760   6.316   1.134   6.361
 7287SOL    HW222761   6.283   1.159   6.519
 7288SOL     OW22762   4.005   0.485   6.348
 7288SOL    HW122763   3.911   0.504   6.322
 7288SOL    HW222764   4.040   0.409   6.293
 7289SOL     OW22765   5.739   1.433   3.484
 7289SOL    HW122766   5.801   1.492   3.433
 7289SOL    HW222767   5.728   1.346   3.435
 7290SOL     OW22768   2.815   5.218   5.623
 7290SOL    HW122769   2.810   5.190   5.527
 7290SOL    HW222770   2.727   5.203   5.667
 7291SOL     OW22771   2.003   0.154   1.597
 7291SOL    HW122772   2.022   0.056   1.599
 7291SOL    HW222773   1.993   0.188   1.690
 7292SOL     OW22774   3.117   6.588   3.618
 7292SOL    HW122775   3.085   6.494   3.631
 7292SOL    HW222776   3.038   6.649   3.611
 7293SOL     OW22777   2.086   1.592   4.905
 7293SOL    HW122778   2.108   1.497   4.883
 7293SOL    HW222779   2.108   1.609   5.001
 7294SOL     OW22780   2.857   5.366   6.984
 7294SOL    HW122781   2.867   5.268   7.003
 7294SOL    HW222782   2.796   5.378   6.905
 7295SOL     OW22783   0.950   2.096   0.268
 7295SOL    HW122784   0.981   2.191   0.264
 7295SOL    HW222785   0.888   2.078   0.191
 7296SOL     OW22786   2.841   4.663   1.360
 7296SOL    HW122787   2.847   4.653   1.460
 7296SOL    HW222788   2.906   4.732   1.330
 7297SOL     OW22789   3.846   6.230   0.529
 7297SOL    HW122790   3.770   6.196   0.584
 7297SOL    HW222791   3.928   6.238   0.586
 7298SOL     OW22792   5.360   4.164   4.172
 7298SOL    HW122793   5.265   4.138   4.191
 7298SOL    HW222794   5.405   4.192   4.257
 7299SOL     OW22795   6.778   2.263   0.433
 7299SOL    HW122796   6.714   2.339   0.443
 7299SOL    HW222797   6.847   2.268   0.505
 7300SOL     OW22798   5.258   5.727   0.779
 7300SOL    HW122799   5.166   5.761   0.760
 7300SOL    HW222800   5.257   5.627   0.777
 7301SOL     OW22801   6.908   0.352   5.727
 7301SOL    HW122802   7.007   0.350   5.744
 7301SOL    HW222803   6.882   0.272   5.673
 7302SOL     OW22804   0.115   1.258   0.224
 7302SOL    HW122805   0.051   1.285   0.295
 7302SOL    HW222806   0.083   1.290   0.135
 7303SOL     OW22807   3.997   0.235   6.839
 7303SOL    HW122808   4.055   0.267   6.765
 7303SOL    HW222809   4.039   0.154   6.881
 7304SOL     OW22810   4.228   3.822   6.554
 7304SOL    HW122811   4.190   3.867   6.473
 7304SOL    HW222812   4.296   3.882   6.597
 7305SOL     OW22813   5.130   2.205   0.506
 7305SOL    HW122814   5.081   2.279   0.553
 7305SOL    HW222815   5.107   2.118   0.550
 7306SOL     OW22816   5.181   3.733   1.847
 7306SOL    HW122817   5.266   3.694   1.881
 7306SOL    HW222818   5.104   3.702   1.903
 7307SOL     OW22819   2.673   6.409   1.871
 7307SOL    HW122820   2.647   6.373   1.782
 7307SOL    HW222821   2.667   6.336   1.940
 7308SOL     OW22822   6.673   3.429   4.758
 7308SOL    HW122823   6.710   3.488   4.830
 7308SOL    HW222824   6.734   3.352   4.743
 7309SOL     OW22825   4.573   6.058   0.854
 7309SOL    HW122826   4.608   5.967   0.832
 7309SOL    HW222827   4.494   6.078   0.796
 7310SOL     OW22828   2.078   5.151   0.913
 7310SOL    HW122829   2.071   5.075   0.977
 7310SOL    HW222830   2.024   5.228   0.947
 7311SOL     OW22831   2.776   1.757   1.917
 7311SOL    HW122832   2.777   1.856   1.907
 7311SOL    HW222833   2.732   1.732   2.003
 7312SOL     OW22834   6.736   2.213   5.625
 7312SOL    HW122835   6.674   2.205   5.547
 7312SOL    HW222836   6.808   2.278   5.604
 7313SOL     OW22837   4.368   2.732   6.153
 7313SOL    HW122838   4.355   2.682   6.238
 7313SOL    HW222839   4.332   2.678   6.077
 7314SOL     OW22840   6.323   3.346   5.052
 7314SOL    HW122841   6.347   3.417   5.118
 7314SOL    HW222842   6.249   3.379   4.993
 7315SOL     OW22843   5.900   6.906   3.850
 7315SOL    HW122844   5.945   6.971   3.788
 7315SOL    HW222845   5.808   6.886   3.817
 7316SOL     OW22846   3.686   3.156   5.142
 7316SOL    HW122847   3.661   3.245   5.103
 7316SOL    HW222848   3.769   3.122   5.097
 7317SOL     OW22849   4.459   0.506   2.239
 7317SOL    HW122850   4.376   0.533   2.288
 7317SOL    HW222851   4.532   0.486   2.304
 7318SOL     OW22852   0.977   1.650   1.405
 7318SOL    HW122853   1.064   1.695   1.385
 7318SOL    HW222854   0.927   1.703   1.473
 7319SOL     OW22855   6.549   4.562   6.935
 7319SOL    HW122856   6.475   4.601   6.990
 7319SOL    HW222857   6.534   4.463   6.924
 7320SOL     OW22858   6.573   3.584   2.171
 7320SOL    HW122859   6.589   3.666   2.116
 7320SOL    HW222860   6.660   3.548   2.204
 7321SOL     OW22861   2.410   0.990   4.955
 7321SOL    HW122862   2.356   1.067   4.989
 7321SOL    HW222863   2.498   0.988   5.002
 7322SOL     OW22864   1.530   3.408   2.921
 7322SOL    HW122865   1.487   3.479   2.864
 7322SOL    HW222866   1.472   3.327   2.923
 7323SOL     OW22867   1.614   1.742   2.994
 7323SOL    HW122868   1.644   1.731   3.089
 7323SOL    HW222869   1.515   1.742   2.990
 7324SOL     OW22870   5.484   0.151   3.027
 7324SOL    HW122871   5.501   0.111   3.117
 7324SOL    HW222872   5.410   0.217   3.034
 7325SOL     OW22873   4.134   6.977   6.229
 7325SOL    HW122874   4.152   6.907   6.298
 7325SOL    HW222875   4.210   6.981   6.164
 7326SOL     OW22876   2.640   6.050   5.282
 7326SOL    HW122877   2.615   6.021   5.190
 7326SOL    HW222878   2.732   6.088   5.282
 7327SOL     OW22879   0.506   3.055   5.696
 7327SOL    HW122880   0.478   3.099   5.611
 7327SOL    HW222881   0.581   3.106   5.737
 7328SOL     OW22882   3.365   0.619   0.099
 7328SOL    HW122883   3.293   0.562   0.061
 7328SOL    HW222884   3.326   0.685   0.163
 7329SOL     OW22885   4.449   3.659   0.997
 7329SOL    HW122886   4.410   3.610   1.075
 7329SOL    HW222887   4.491   3.744   1.028
 7330SOL     OW22888   3.188   1.729   0.213
 7330SOL    HW122889   3.226   1.707   0.123
 7330SOL    HW222890   3.254   1.705   0.284
 7331SOL     OW22891   5.143   1.071   1.920
 7331SOL    HW122892   5.049   1.083   1.951
 7331SOL    HW222893   5.202   1.054   1.999
 7332SOL     OW22894   2.743   6.002   0.265
 7332SOL    HW122895   2.725   6.092   0.226
 7332SOL    HW222896   2.665   5.942   0.247
 7333SOL     OW22897   0.588   4.380   3.899
 7333SOL    HW122898   0.549   4.359   3.809
 7333SOL    HW222899   0.608   4.294   3.947
 7334SOL     OW22900   4.027   6.068   5.704
 7334SOL    HW122901   3.954   6.111   5.758
 7334SOL    HW222902   4.056   5.984   5.749
 7335SOL     OW22903   1.564   2.612   2.610
 7335SOL    HW122904   1.539   2.651   2.699
 7335SOL    HW222905   1.659   2.582   2.612
 7336SOL     OW22906   1.489   6.343   4.148
 7336SOL    HW122907   1.487   6.259   4.094
 7336SOL    HW222908   1.535   6.414   4.096
 7337SOL     OW22909   1.266   2.873   2.387
 7337SOL    HW122910   1.274   2.802   2.318
 7337SOL    HW222911   1.174   2.873   2.425
 7338SOL     OW22912   6.627   2.555   1.452
 7338SOL    HW122913   6.534   2.526   1.474
 7338SOL    HW222914   6.663   2.497   1.379
 7339SOL     OW22915   6.287   6.187   4.015
 7339SOL    HW122916   6.301   6.286   4.021
 7339SOL    HW222917   6.337   6.151   3.936
 7340SOL     OW22918   2.203   0.497   0.250
 7340SOL    HW122919   2.111   0.472   0.219
 7340SOL    HW222920   2.240   0.424   0.307
 7341SOL     OW22921   6.457   1.906   0.318
 7341SOL    HW122922   6.422   1.988   0.271
 7341SOL    HW222923   6.381   1.852   0.352
 7342SOL     OW22924   6.507   0.069   2.515
 7342SOL    HW122925   6.575   0.082   2.587
 7342SOL    HW222926   6.530   7.011   2.463
 7343SOL     OW22927   4.633   2.406   0.135
 7343SOL    HW122928   4.719   2.375   0.093
 7343SOL    HW222929   4.619   2.358   0.222
 7344SOL     OW22930   1.358   6.700   6.067
 7344SOL    HW122931   1.369   6.772   6.135
 7344SOL    HW222932   1.343   6.741   5.977
 7345SOL     OW22933   3.723   3.126   5.395
 7345SOL    HW122934   3.644   3.116   5.455
 7345SOL    HW222935   3.693   3.135   5.300
 7346SOL     OW22936   3.431   6.212   2.791
 7346SOL    HW122937   3.357   6.155   2.757
 7346SOL    HW222938   3.403   6.308   2.789
 7347SOL     OW22939   6.876   2.210   0.191
 7347SOL    HW122940   6.963   2.160   0.188
 7347SOL    HW222941   6.851   2.228   0.286
 7348SOL     OW22942   1.713   4.243   3.488
 7348SOL    HW122943   1.811   4.228   3.475
 7348SOL    HW222944   1.668   4.157   3.510
 7349SOL     OW22945   3.885   0.303   0.988
 7349SOL    HW122946   3.821   0.369   0.947
 7349SOL    HW222947   3.954   0.353   1.041
 7350SOL     OW22948   2.776   0.568   5.291
 7350SOL    HW122949   2.807   0.551   5.385
 7350SOL    HW222950   2.851   0.609   5.239
 7351SOL     OW22951   4.728   4.921   3.636
 7351SOL    HW122952   4.756   5.007   3.678
 7351SOL    HW222953   4.639   4.894   3.671
 7352SOL     OW22954   0.592   2.287   3.390
 7352SOL    HW122955   0.511   2.261   3.442
 7352SOL    HW222956   0.620   2.379   3.415
 7353SOL     OW22957   5.951   0.207   6.958
 7353SOL    HW122958   5.878   0.254   7.008
 7353SOL    HW222959   5.982   0.265   6.882
 7354SOL     OW22960   1.396   1.144   3.086
 7354SOL    HW122961   1.329   1.079   3.123
 7354SOL    HW222962   1.460   1.094   3.028
 7355SOL     OW22963   0.020   1.862   6.493
 7355SOL    HW122964   6.966   1.878   6.553
 7355SOL    HW222965   0.104   1.889   6.540
 7356SOL     OW22966   3.635   3.597   5.938
 7356SOL    HW122967   3.688   3.547   5.869
 7356SOL    HW222968   3.641   3.695   5.919
 7357SOL     OW22969   4.921   5.945   1.323
 7357SOL    HW122970   4.841   5.886   1.309
 7357SOL    HW222971   4.892   6.032   1.362
 7358SOL     OW22972   6.291   2.710   2.233
 7358SOL    HW122973   6.389   2.694   2.250
 7358SOL    HW222974   6.269   2.684   2.139
 7359SOL     OW22975   4.167   0.943   6.253
 7359SOL    HW122976   4.186   1.038   6.230
 7359SOL    HW222977   4.253   0.891   6.252
 7360SOL     OW22978   2.619   3.402   5.752
 7360SOL    HW122979   2.706   3.424   5.796
 7360SOL    HW222980   2.575   3.487   5.721
 7361SOL     OW22981   4.981   0.195   2.311
 7361SOL    HW122982   5.045   0.165   2.381
 7361SOL    HW222983   4.972   0.124   2.240
 7362SOL     OW22984   4.291   5.498   5.895
 7362SOL    HW122985   4.293   5.412   5.946
 7362SOL    HW222986   4.207   5.548   5.916
 7363SOL     OW22987   4.242   1.069   1.372
 7363SOL    HW122988   4.158   1.072   1.426
 7363SOL    HW222989   4.253   0.977   1.333
 7364SOL     OW22990   4.413   6.918   1.650
 7364SOL    HW122991   4.507   6.945   1.669
 7364SOL    HW222992   4.391   6.833   1.698
 7365SOL     OW22993   6.018   4.910   2.903
 7365SOL    HW122994   6.045   4.853   2.825
 7365SOL    HW222995   5.968   4.990   2.870
 7366SOL     OW22996   2.566   0.798   4.323
 7366SOL    HW122997   2.592   0.764   4.413
 7366SOL    HW222998   2.476   0.840   4.326
 7367SOL     OW22999   4.520   1.907   6.650
 7367SOL    HW123000   4.586   1.916   6.724
 7367SOL    HW223001   4.470   1.821   6.661
 7368SOL     OW23002   3.884   3.391   2.617
 7368SOL    HW123003   3.957   3.350   2.672
 7368SOL    HW223004   3.801   3.335   2.626
 7369SOL     OW23005   4.122   2.716   0.471
 7369SOL    HW123006   4.064   2.688   0.547
 7369SOL    HW223007   4.115   2.650   0.396
 7370SOL     OW23008   2.728   1.771   5.071
 7370SOL    HW123009   2.729   1.671   5.081
 7370SOL    HW223010   2.809   1.809   5.113
 7371SOL     OW23011   3.935   7.010   3.556
 7371SOL    HW123012   3.895   6.931   3.510
 7371SOL    HW223013   3.891   0.069   3.523
 7372SOL     OW23014   3.720   0.269   4.770
 7372SOL    HW123015   3.738   0.356   4.725
 7372SOL    HW223016   3.665   0.285   4.852
 7373SOL     OW23017   4.589   2.237   4.935
 7373SOL    HW123018   4.658   2.263   5.003
 7373SOL    HW223019   4.530   2.316   4.916
 7374SOL     OW23020   1.161   1.698   4.748
 7374SOL    HW123021   1.252   1.738   4.739
 7374SOL    HW223022   1.098   1.767   4.783
 7375SOL     OW23023   2.190   3.061   2.281
 7375SOL    HW123024   2.134   3.040   2.201
 7375SOL    HW223025   2.182   3.158   2.303
 7376SOL     OW23026   0.665   3.438   0.887
 7376SOL    HW123027   0.710   3.526   0.895
 7376SOL    HW223028   0.702   3.375   0.955
 7377SOL     OW23029   3.083   5.229   0.453
 7377SOL    HW123030   3.129   5.240   0.365
 7377SOL    HW223031   3.036   5.314   0.477
 7378SOL     OW23032   1.849   6.414   4.010
 7378SOL    HW123033   1.917   6.479   4.043
 7378SOL    HW223034   1.767   6.463   3.981
 7379SOL     OW23035   3.821   0.655   1.440
 7379SOL    HW123036   3.806   0.721   1.513
 7379SOL    HW223037   3.789   0.564   1.469
 7380SOL     OW23038   6.005   4.097   3.197
 7380SOL    HW123039   5.962   4.159   3.130
 7380SOL    HW223040   6.005   4.141   3.287
 7381SOL     OW23041   4.199   1.539   0.303
 7381SOL    HW123042   4.247   1.577   0.382
 7381SOL    HW223043   4.158   1.613   0.250
 7382SOL     OW23044   0.267   1.596   6.069
 7382SOL    HW123045   0.353   1.556   6.036
 7382SOL    HW223046   0.209   1.619   5.991
 7383SOL     OW23047   1.670   0.030   1.771
 7383SOL    HW123048   1.684   0.129   1.768
 7383SOL    HW223049   1.744   7.012   1.823
 7384SOL     OW23050   0.853   6.783   0.870
 7384SOL    HW123051   0.950   6.802   0.863
 7384SOL    HW223052   0.837   6.714   0.941
 7385SOL     OW23053   3.923   5.215   2.880
 7385SOL    HW123054   3.881   5.270   2.808
 7385SOL    HW223055   3.956   5.129   2.841
 7386SOL     OW23056   6.120   3.288   0.740
 7386SOL    HW123057   6.056   3.365   0.739
 7386SOL    HW223058   6.071   3.205   0.766
 7387SOL     OW23059   6.472   4.680   5.691
 7387SOL    HW123060   6.398   4.617   5.670
 7387SOL    HW223061   6.500   4.728   5.608
 7388SOL     OW23062   1.593   6.470   2.161
 7388SOL    HW123063   1.613   6.373   2.175
 7388SOL    HW223064   1.641   6.502   2.080
 7389SOL     OW23065   6.769   3.472   0.509
 7389SOL    HW123066   6.705   3.403   0.477
 7389SOL    HW223067   6.758   3.485   0.607
 7390SOL     OW23068   2.302   1.545   3.183
 7390SOL    HW123069   2.209   1.516   3.158
 7390SOL    HW223070   2.356   1.557   3.100
 7391SOL     OW23071   3.944   3.055   2.572
 7391SOL    HW123072   3.954   3.154   2.575
 7391SOL    HW223073   3.847   3.031   2.569
 7392SOL     OW23074   4.004   5.320   6.598
 7392SOL    HW123075   4.043   5.305   6.689
 7392SOL    HW223076   3.922   5.265   6.588
 7393SOL     OW23077   6.302   4.828   4.067
 7393SOL    HW123078   6.394   4.862   4.052
 7393SOL    HW223079   6.276   4.842   4.163
 7394SOL     OW23080   2.058   2.723   6.073
 7394SOL    HW123081   2.036   2.643   6.017
 7394SOL    HW223082   2.032   2.806   6.024
 7395SOL     OW23083   2.413   4.330   1.086
 7395SOL    HW123084   2.360   4.252   1.053
 7395SOL    HW223085   2.398   4.341   1.184
 7396SOL     OW23086   3.067   5.397   1.661
 7396SOL    HW123087   3.001   5.358   1.597
 7396SOL    HW223088   3.121   5.324   1.702
 7397SOL     OW23089   5.554   3.867   4.213
 7397SOL    HW123090   5.483   3.875   4.283
 7397SOL    HW223091   5.574   3.958   4.176
 7398SOL     OW23092   2.120   4.413   3.315
 7398SOL    HW123093   2.075   4.368   3.238
 7398SOL    HW223094   2.054   4.471   3.363
 7399SOL     OW23095   5.697   2.313   4.831
 7399SOL    HW123096   5.706   2.404   4.871
 7399SOL    HW223097   5.745   2.310   4.744
 7400SOL     OW23098   5.525   2.453   5.300
 7400SOL    HW123099   5.540   2.528   5.237
 7400SOL    HW223100   5.449   2.475   5.361
 7401SOL     OW23101   1.514   3.311   3.564
 7401SOL    HW123102   1.434   3.306   3.504
 7401SOL    HW223103   1.597   3.318   3.508
 7402SOL     OW23104   2.804   5.691   4.994
 7402SOL    HW123105   2.707   5.668   5.005
 7402SOL    HW223106   2.821   5.717   4.899
 7403SOL     OW23107   1.285   2.701   3.874
 7403SOL    HW123108   1.355   2.632   3.855
 7403SOL    HW223109   1.219   2.664   3.939
 7404SOL     OW23110   2.903   3.834   1.423
 7404SOL    HW123111   2.961   3.761   1.458
 7404SOL    HW223112   2.808   3.815   1.445
 7405SOL     OW23113   2.984   5.856   5.205
 7405SOL    HW123114   2.909   5.796   5.234
 7405SOL    HW223115   2.964   5.950   5.232
 7406SOL     OW23116   0.770   0.802   5.043
 7406SOL    HW123117   0.732   0.751   5.120
 7406SOL    HW223118   0.725   0.891   5.035
 7407SOL     OW23119   0.559   5.754   0.046
 7407SOL    HW123120   0.504   5.826   0.003
 7407SOL    HW223121   0.650   5.752   0.005
 7408SOL     OW23122   3.447   4.339   5.242
 7408SOL    HW123123   3.359   4.359   5.287
 7408SOL    HW223124   3.444   4.246   5.205
 7409SOL     OW23125   6.223   4.229   0.881
 7409SOL    HW123126   6.261   4.260   0.968
 7409SOL    HW223127   6.284   4.257   0.807
 7410SOL     OW23128   0.036   0.074   1.143
 7410SOL    HW123129   0.083   0.085   1.056
 7410SOL    HW223130   0.100   0.094   1.218
 7411SOL     OW23131   0.586   1.777   5.882
 7411SOL    HW123132   0.515   1.838   5.848
 7411SOL    HW223133   0.657   1.831   5.928
 7412SOL     OW23134   3.893   6.921   0.040
 7412SOL    HW123135   3.905   6.979   0.120
 7412SOL    HW223136   3.970   6.933   7.003
 7413SOL     OW23137   3.997   5.656   3.487
 7413SOL    HW123138   3.967   5.577   3.539
 7413SOL    HW223139   3.967   5.648   3.392
 7414SOL     OW23140   2.239   2.049   4.458
 7414SOL    HW123141   2.272   1.965   4.500
 7414SOL    HW223142   2.254   2.044   4.359
 7415SOL     OW23143   3.751   6.711   6.513
 7415SOL    HW123144   3.659   6.689   6.545
 7415SOL    HW223145   3.779   6.800   6.550
 7416SOL     OW23146   0.793   2.010   2.623
 7416SOL    HW123147   0.845   1.958   2.555
 7416SOL    HW223148   0.805   2.108   2.606
 7417SOL     OW23149   0.955   2.137   3.690
 7417SOL    HW123150   0.977   2.160   3.595
 7417SOL    HW223151   0.874   2.078   3.692
 7418SOL     OW23152   1.498   3.620   6.484
 7418SOL    HW123153   1.587   3.657   6.510
 7418SOL    HW223154   1.508   3.525   6.456
 7419SOL     OW23155   6.538   4.294   3.656
 7419SOL    HW123156   6.514   4.198   3.674
 7419SOL    HW223157   6.461   4.340   3.614
 7420SOL     OW23158   6.946   6.864   1.985
 7420SOL    HW123159   6.909   6.895   1.897
 7420SOL    HW223160   6.991   6.939   2.031
 7421SOL     OW23161   4.796   3.570   1.704
 7421SOL    HW123162   4.795   3.667   1.681
 7421SOL    HW223163   4.753   3.518   1.630
 7422SOL     OW23164   5.993   2.894   1.961
 7422SOL    HW123165   5.899   2.868   1.938
 7422SOL    HW223166   5.999   2.993   1.971
 7423SOL     OW23167   5.959   2.301   5.491
 7423SOL    HW123168   6.023   2.233   5.456
 7423SOL    HW223169   5.980   2.320   5.587
 7424SOL     OW23170   7.011   0.770   5.062
 7424SOL    HW123171   7.010   0.790   4.964
 7424SOL    HW223172   0.058   0.704   5.081
 7425SOL     OW23173   5.682   6.812   0.724
 7425SOL    HW123174   5.697   6.809   0.626
 7425SOL    HW223175   5.756   6.865   0.767
 7426SOL     OW23176   3.894   2.852   5.820
 7426SOL    HW123177   3.826   2.918   5.851
 7426SOL    HW223178   3.882   2.834   5.723
 7427SOL     OW23179   3.550   1.233   3.639
 7427SOL    HW123180   3.463   1.188   3.660
 7427SOL    HW223181   3.563   1.309   3.703
 7428SOL     OW23182   4.400   6.745   5.623
 7428SOL    HW123183   4.382   6.731   5.721
 7428SOL    HW223184   4.373   6.664   5.572
 7429SOL     OW23185   1.398   6.953   2.784
 7429SOL    HW123186   1.492   6.952   2.819
 7429SOL    HW223187   1.356   0.016   2.807
 7430SOL     OW23188   6.854   5.094   2.824
 7430SOL    HW123189   6.783   5.029   2.852
 7430SOL    HW223190   6.902   5.127   2.906
 7431SOL     OW23191   2.274   2.436   4.739
 7431SOL    HW123192   2.178   2.463   4.733
 7431SOL    HW223193   2.332   2.516   4.728
 7432SOL     OW23194   1.984   0.021   3.713
 7432SOL    HW123195   2.079   7.013   3.712
 7432SOL    HW223196   1.966   0.068   3.800
 7433SOL     OW23197   2.887   6.727   6.407
 7433SOL    HW123198   2.826   6.785   6.353
 7433SOL    HW223199   2.882   6.633   6.373
 7434SOL     OW23200   4.224   6.311   5.760
 7434SOL    HW123201   4.215   6.289   5.857
 7434SOL    HW223202   4.186   6.237   5.705
 7435SOL     OW23203   4.534   6.316   2.873
 7435SOL    HW123204   4.545   6.409   2.839
 7435SOL    HW223205   4.578   6.307   2.963
 7436SOL     OW23206   4.885   3.627   6.410
 7436SOL    HW123207   4.871   3.543   6.463
 7436SOL    HW223208   4.892   3.704   6.473
 7437SOL     OW23209   4.119   6.234   1.174
 7437SOL    HW123210   4.091   6.147   1.215
 7437SOL    HW223211   4.127   6.303   1.246
 7438SOL     OW23212   2.510   0.872   0.321
 7438SOL    HW123213   2.506   0.926   0.237
 7438SOL    HW223214   2.417   0.854   0.353
 7439SOL     OW23215   1.502   4.632   6.165
 7439SOL    HW123216   1.474   4.559   6.103
 7439SOL    HW223217   1.424   4.692   6.184
 7440SOL     OW23218   4.872   2.855   3.803
 7440SOL    HW123219   4.832   2.888   3.718
 7440SOL    HW223220   4.943   2.788   3.782
 7441SOL     OW23221   6.188   5.880   1.966
 7441SOL    HW123222   6.170   5.974   1.936
 7441SOL    HW223223   6.282   5.872   1.997
 7442SOL     OW23224   5.368   0.173   5.784
 7442SOL    HW123225   5.406   0.196   5.873
 7442SOL    HW223226   5.436   0.189   5.713
 7443SOL     OW23227   0.173   6.704   2.227
 7443SOL    HW123228   0.221   6.791   2.226
 7443SOL    HW223229   0.133   6.687   2.137
 7444SOL     OW23230   0.985   0.027   6.205
 7444SOL    HW123231   1.066   0.048   6.151
 7444SOL    HW223232   0.918   0.100   6.195
 7445SOL     OW23233   4.478   6.007   2.368
 7445SOL    HW123234   4.454   6.056   2.451
 7445SOL    HW223235   4.433   5.917   2.368
 7446SOL     OW23236   5.274   3.556   0.054
 7446SOL    HW123237   5.180   3.546   0.022
 7446SOL    HW223238   5.336   3.510   7.014
 7447SOL     OW23239   0.523   4.540   0.980
 7447SOL    HW123240   0.582   4.484   1.038
 7447SOL    HW223241   0.452   4.582   1.036
 7448SOL     OW23242   4.687   5.279   5.997
 7448SOL    HW123243   4.660   5.351   5.933
 7448SOL    HW223244   4.722   5.201   5.946
 7449SOL     OW23245   0.512   4.275   6.929
 7449SOL    HW123246   0.426   4.324   6.915
 7449SOL    HW223247   0.589   4.337   6.914
 7450SOL     OW23248   5.555   1.603   5.533
 7450SOL    HW123249   5.611   1.536   5.581
 7450SOL    HW223250   5.544   1.575   5.438
 7451SOL     OW23251   5.649   5.101   2.490
 7451SOL    HW123252   5.669   5.119   2.587
 7451SOL    HW223253   5.658   5.185   2.438
 7452SOL     OW23254   5.017   6.024   5.221
 7452SOL    HW123255   5.050   6.064   5.306
 7452SOL    HW223256   4.921   6.048   5.207
 7453SOL     OW23257   4.101   5.554   6.454
 7453SOL    HW123258   4.065   5.486   6.518
 7453SOL    HW223259   4.089   5.521   6.360
 7454SOL     OW23260   3.552   2.491   0.448
 7454SOL    HW123261   3.613   2.469   0.372
 7454SOL    HW223262   3.572   2.432   0.526
 7455SOL     OW23263   6.124   2.679   2.606
 7455SOL    HW123264   6.071   2.602   2.571
 7455SOL    HW223265   6.203   2.645   2.657
 7456SOL     OW23266   3.069   1.839   5.594
 7456SOL    HW123267   3.109   1.797   5.675
 7456SOL    HW223268   2.980   1.797   5.574
 7457SOL     OW23269   2.898   0.124   3.059
 7457SOL    HW123270   2.917   0.026   3.059
 7457SOL    HW223271   2.884   0.155   2.965
 7458SOL     OW23272   0.826   6.427   5.491
 7458SOL    HW123273   0.734   6.464   5.484
 7458SOL    HW223274   0.890   6.500   5.516
 7459SOL     OW23275   6.148   1.055   2.749
 7459SOL    HW123276   6.164   1.028   2.844
 7459SOL    HW223277   6.050   1.055   2.730
 7460SOL     OW23278   0.903   0.051   0.760
 7460SOL    HW123279   0.824   0.111   0.767
 7460SOL    HW223280   0.873   6.982   0.742
 7461SOL     OW23281   0.710   5.862   5.964
 7461SOL    HW123282   0.766   5.923   6.020
 7461SOL    HW223283   0.765   5.784   5.934
 7462SOL     OW23284   1.107   5.389   1.466
 7462SOL    HW123285   1.136   5.477   1.505
 7462SOL    HW223286   1.050   5.341   1.532
 7463SOL     OW23287   4.415   4.703   6.769
 7463SOL    HW123288   4.341   4.650   6.728
 7463SOL    HW223289   4.493   4.643   6.786
 7464SOL     OW23290   6.550   5.440   5.255
 7464SOL    HW123291   6.502   5.500   5.192
 7464SOL    HW223292   6.596   5.495   5.325
 7465SOL     OW23293   2.546   5.225   0.210
 7465SOL    HW123294   2.637   5.248   0.246
 7465SOL    HW223295   2.504   5.308   0.173
 7466SOL     OW23296   0.156   6.388   4.265
 7466SOL    HW123297   0.127   6.370   4.358
 7466SOL    HW223298   0.102   6.334   4.201
 7467SOL     OW23299   0.241   3.382   6.030
 7467SOL    HW123300   0.328   3.361   6.075
 7467SOL    HW223301   0.168   3.328   6.073
 7468SOL     OW23302   5.723   3.307   5.782
 7468SOL    HW123303   5.810   3.320   5.736
 7468SOL    HW223304   5.711   3.210   5.804
 7469SOL     OW23305   6.629   2.468   0.509
 7469SOL    HW123306   6.702   2.532   0.486
 7469SOL    HW223307   6.556   2.517   0.559
 7470SOL     OW23308   5.671   3.436   3.763
 7470SOL    HW123309   5.623   3.523   3.765
 7470SOL    HW223310   5.764   3.450   3.729
 7471SOL     OW23311   5.854   5.376   6.673
 7471SOL    HW123312   5.843   5.430   6.756
 7471SOL    HW223313   5.766   5.340   6.645
 7472SOL     OW23314   6.278   6.252   5.207
 7472SOL    HW123315   6.189   6.271   5.166
 7472SOL    HW223316   6.284   6.155   5.230
 7473SOL     OW23317   4.458   6.678   3.874
 7473SOL    HW123318   4.373   6.729   3.878
 7473SOL    HW223319   4.514   6.712   3.799
 7474SOL     OW23320   6.191   1.989   5.904
 7474SOL    HW123321   6.285   2.011   5.877
 7474SOL    HW223322   6.191   1.911   5.966
 7475SOL     OW23323   4.566   2.440   1.186
 7475SOL    HW123324   4.480   2.447   1.136
 7475SOL    HW223325   4.592   2.344   1.195
 7476SOL     OW23326   2.298   1.201   3.018
 7476SOL    HW123327   2.372   1.253   3.060
 7476SOL    HW223328   2.322   1.178   2.924
 7477SOL     OW23329   1.002   4.214   5.469
 7477SOL    HW123330   1.036   4.246   5.557
 7477SOL    HW223331   1.044   4.267   5.395
 7478SOL     OW23332   0.190   2.061   5.077
 7478SOL    HW123333   0.210   2.157   5.095
 7478SOL    HW223334   0.275   2.010   5.066
 7479SOL     OW23335   6.334   3.051   6.709
 7479SOL    HW123336   6.367   3.092   6.794
 7479SOL    HW223337   6.396   2.977   6.682
 7480SOL     OW23338   3.664   4.896   2.269
 7480SOL    HW123339   3.638   4.847   2.186
 7480SOL    HW223340   3.581   4.927   2.316
 7481SOL     OW23341   6.816   4.112   6.674
 7481SOL    HW123342   6.877   4.034   6.690
 7481SOL    HW223343   6.871   4.194   6.658
 7482SOL     OW23344   4.044   2.114   2.340
 7482SOL    HW123345   4.005   2.163   2.262
 7482SOL    HW223346   4.118   2.055   2.308
 7483SOL     OW23347   4.444   2.616   5.612
 7483SOL    HW123348   4.533   2.634   5.570
 7483SOL    HW223349   4.392   2.554   5.555
 7484SOL     OW23350   2.894   6.778   4.559
 7484SOL    HW123351   2.821   6.725   4.603
 7484SOL    HW223352   2.978   6.769   4.612
 7485SOL     OW23353   2.637   0.008   4.090
 7485SOL    HW123354   2.578   0.076   4.134
 7485SOL    HW223355   2.732   0.035   4.102
 7486SOL     OW23356   1.660   6.632   0.548
 7486SOL    HW123357   1.666   6.551   0.490
 7486SOL    HW223358   1.570   6.635   0.592
 7487SOL     OW23359   4.109   6.550   3.447
 7487SOL    HW123360   4.018   6.533   3.486
 7487SOL    HW223361   4.129   6.480   3.378
 7488SOL     OW23362   0.762   5.709   4.030
 7488SOL    HW123363   0.787   5.804   4.052
 7488SOL    HW223364   0.680   5.710   3.972
 7489SOL     OW23365   6.053   3.882   6.691
 7489SOL    HW123366   6.146   3.861   6.722
 7489SOL    HW223367   6.008   3.797   6.662
 7490SOL     OW23368   1.102   2.150   2.679
 7490SOL    HW123369   1.143   2.193   2.598
 7490SOL    HW223370   1.060   2.063   2.652
 7491SOL     OW23371   4.398   3.205   0.117
 7491SOL    HW123372   4.434   3.137   0.182
 7491SOL    HW223373   4.320   3.252   0.158
 7492SOL     OW23374   1.393   0.385   4.592
 7492SOL    HW123375   1.421   0.471   4.634
 7492SOL    HW223376   1.346   0.328   4.659
 7493SOL     OW23377   5.997   4.014   5.306
 7493SOL    HW123378   6.035   3.999   5.397
 7493SOL    HW223379   5.948   3.932   5.276
 7494SOL     OW23380   5.666   1.381   2.566
 7494SOL    HW123381   5.626   1.391   2.657
 7494SOL    HW223382   5.660   1.285   2.537
 7495SOL     OW23383   2.062   3.602   4.620
 7495SOL    HW123384   2.053   3.657   4.703
 7495SOL    HW223385   2.118   3.521   4.639
 7496SOL     OW23386   5.726   3.857   2.803
 7496SOL    HW123387   5.710   3.831   2.708
 7496SOL    HW223388   5.799   3.800   2.841
 7497SOL     OW23389   0.637   6.633   0.627
 7497SOL    HW123390   0.583   6.698   0.681
 7497SOL    HW223391   0.689   6.682   0.558
 7498SOL     OW23392   3.158   0.217   3.108
 7498SOL    HW123393   3.060   0.214   3.089
 7498SOL    HW223394   3.172   0.236   3.205
 7499SOL     OW23395   3.559   2.040   3.811
 7499SOL    HW123396   3.639   2.053   3.869
 7499SOL    HW223397   3.485   2.099   3.844
 7500SOL     OW23398   4.272   6.733   3.318
 7500SOL    HW123399   4.197   6.692   3.369
 7500SOL    HW223400   4.283   6.828   3.346
 7501SOL     OW23401   5.837   2.388   4.594
 7501SOL    HW123402   5.780   2.336   4.530
 7501SOL    HW223403   5.844   2.482   4.563
 7502SOL     OW23404   3.777   0.127   4.320
 7502SOL    HW123405   3.877   0.121   4.320
 7502SOL    HW223406   3.749   0.205   4.264
 7503SOL     OW23407   2.044   6.370   1.451
 7503SOL    HW123408   2.051   6.345   1.354
 7503SOL    HW223409   2.128   6.418   1.478
 7504SOL     OW23410   6.861   6.739   3.519
 7504SOL    HW123411   6.882   6.691   3.604
 7504SOL    HW223412   6.788   6.804   3.534
 7505SOL     OW23413   0.409   6.779   5.027
 7505SOL    HW123414   0.350   6.858   5.014
 7505SOL    HW223415   0.396   6.715   4.952
 7506SOL     OW23416   2.767   1.480   3.315
 7506SOL    HW123417   2.685   1.537   3.320
 7506SOL    HW223418   2.786   1.440   3.405
 7507SOL     OW23419   6.346   3.698   4.489
 7507SOL    HW123420   6.311   3.687   4.396
 7507SOL    HW223421   6.440   3.665   4.494
 7508SOL     OW23422   1.801   6.042   6.950
 7508SOL    HW123423   1.878   6.038   6.886
 7508SOL    HW223424   1.832   6.017   0.017
 7509SOL     OW23425   4.822   3.716   0.431
 7509SOL    HW123426   4.768   3.788   0.473
 7509SOL    HW223427   4.774   3.628   0.440
 7510SOL     OW23428   3.364   4.097   3.630
 7510SOL    HW123429   3.283   4.105   3.688
 7510SOL    HW223430   3.444   4.130   3.680
 7511SOL     OW23431   3.458   5.681   3.010
 7511SOL    HW123432   3.489   5.774   2.991
 7511SOL    HW223433   3.386   5.684   3.079
 7512SOL     OW23434   3.306   6.323   6.176
 7512SOL    HW123435   3.233   6.375   6.132
 7512SOL    HW223436   3.377   6.385   6.208
 7513SOL     OW23437   1.782   1.949   3.454
 7513SOL    HW123438   1.835   1.917   3.532
 7513SOL    HW223439   1.777   2.049   3.456
 7514SOL     OW23440   2.222   4.149   2.803
 7514SOL    HW123441   2.229   4.132   2.901
 7514SOL    HW223442   2.134   4.115   2.769
 7515SOL     OW23443   6.727   3.900   4.653
 7515SOL    HW123444   6.695   3.894   4.748
 7515SOL    HW223445   6.827   3.891   4.651
 7516SOL     OW23446   1.094   5.181   5.387
 7516SOL    HW123447   0.999   5.168   5.416
 7516SOL    HW223448   1.130   5.264   5.430
 7517SOL     OW23449   0.318   2.140   6.744
 7517SOL    HW123450   0.298   2.061   6.685
 7517SOL    HW223451   0.384   2.113   6.814
 7518SOL     OW23452   4.726   2.770   4.023
 7518SOL    HW123453   4.722   2.820   4.110
 7518SOL    HW223454   4.763   2.830   3.952
 7519SOL     OW23455   3.606   6.730   5.115
 7519SOL    HW123456   3.510   6.738   5.089
 7519SOL    HW223457   3.656   6.812   5.086
 7520SOL     OW23458   2.031   2.164   2.018
 7520SOL    HW123459   1.998   2.253   1.986
 7520SOL    HW223460   2.022   2.098   1.943
 7521SOL     OW23461   4.600   1.237   4.810
 7521SOL    HW123462   4.532   1.296   4.854
 7521SOL    HW223463   4.690   1.254   4.852
 7522SOL     OW23464   1.693   6.506   2.950
 7522SOL    HW123465   1.712   6.586   2.893
 7522SOL    HW223466   1.759   6.501   3.025
 7523SOL     OW23467   5.594   1.654   6.313
 7523SOL    HW123468   5.646   1.568   6.307
 7523SOL    HW223469   5.654   1.726   6.349
 7524SOL     OW23470   0.336   2.551   4.759
 7524SOL    HW123471   0.268   2.546   4.685
 7524SOL    HW223472   0.293   2.524   4.845
 7525SOL     OW23473   4.510   6.102   6.119
 7525SOL    HW123474   4.473   6.029   6.177
 7525SOL    HW223475   4.538   6.063   6.031
 7526SOL     OW23476   2.163   3.538   1.684
 7526SOL    HW123477   2.254   3.555   1.646
 7526SOL    HW223478   2.171   3.519   1.782
 7527SOL     OW23479   3.964   5.465   3.685
 7527SOL    HW123480   4.062   5.480   3.700
 7527SOL    HW223481   3.952   5.395   3.615
 7528SOL     OW23482   6.507   2.850   6.169
 7528SOL    HW123483   6.475   2.830   6.077
 7528SOL    HW223484   6.478   2.778   6.232
 7529SOL     OW23485   6.080   2.298   3.935
 7529SOL    HW123486   6.040   2.250   4.013
 7529SOL    HW223487   6.025   2.281   3.853
 7530SOL     OW23488   0.071   1.785   2.150
 7530SOL    HW123489   0.097   1.724   2.075
 7530SOL    HW223490   0.021   1.732   2.219
 7531SOL     OW23491   4.515   1.981   3.655
 7531SOL    HW123492   4.471   1.909   3.709
 7531SOL    HW223493   4.461   1.998   3.573
 7532SOL     OW23494   4.369   5.557   6.789
 7532SOL    HW123495   4.442   5.489   6.791
 7532SOL    HW223496   4.280   5.511   6.797
 7533SOL     OW23497   4.606   3.383   1.527
 7533SOL    HW123498   4.564   3.331   1.451
 7533SOL    HW223499   4.657   3.320   1.586
 7534SOL     OW23500   4.695   0.185   4.016
 7534SOL    HW123501   4.751   0.135   3.951
 7534SOL    HW223502   4.639   0.121   4.069
 7535SOL     OW23503   0.733   5.613   4.329
 7535SOL    HW123504   0.658   5.664   4.372
 7535SOL    HW223505   0.749   5.649   4.237
 7536SOL     OW23506   5.129   5.577   4.192
 7536SOL    HW123507   5.030   5.570   4.181
 7536SOL    HW223508   5.175   5.540   4.111
 7537SOL     OW23509   2.872   5.996   2.748
 7537SOL    HW123510   2.892   6.074   2.689
 7537SOL    HW223511   2.957   5.949   2.772
 7538SOL     OW23512   0.700   3.791   1.328
 7538SOL    HW123513   0.782   3.844   1.308
 7538SOL    HW223514   0.657   3.761   1.243
 7539SOL     OW23515   0.305   5.691   3.683
 7539SOL    HW123516   0.334   5.725   3.773
 7539SOL    HW223517   0.384   5.652   3.635
 7540SOL     OW23518   5.765   5.146   4.186
 7540SOL    HW123519   5.797   5.055   4.159
 7540SOL    HW223520   5.685   5.171   4.131
 7541SOL     OW23521   0.868   3.760   6.701
 7541SOL    HW123522   0.776   3.765   6.662
 7541SOL    HW223523   0.867   3.697   6.779
 7542SOL     OW23524   6.091   5.467   6.258
 7542SOL    HW123525   6.024   5.539   6.241
 7542SOL    HW223526   6.055   5.403   6.326
 7543SOL     OW23527   2.647   0.930   5.333
 7543SOL    HW123528   2.603   0.845   5.304
 7543SOL    HW223529   2.588   0.978   5.397
 7544SOL     OW23530   0.003   3.010   3.504
 7544SOL    HW123531   0.015   3.059   3.591
 7544SOL    HW223532   7.019   3.077   3.430
 7545SOL     OW23533   0.544   5.250   0.044
 7545SOL    HW123534   0.584   5.229   0.134
 7545SOL    HW223535   0.564   5.175   7.006
 7546SOL     OW23536   2.992   3.041   1.718
 7546SOL    HW123537   3.032   3.124   1.681
 7546SOL    HW223538   3.044   3.012   1.798
 7547SOL     OW23539   4.582   0.162   1.809
 7547SOL    HW123540   4.671   0.166   1.855
 7547SOL    HW223541   4.509   0.169   1.877
 7548SOL     OW23542   4.634   2.451   6.303
 7548SOL    HW123543   4.662   2.526   6.244
 7548SOL    HW223544   4.695   2.373   6.290
 7549SOL     OW23545   4.495   2.474   5.204
 7549SOL    HW123546   4.397   2.492   5.196
 7549SOL    HW223547   4.509   2.387   5.251
 7550SOL     OW23548   1.692   3.930   3.925
 7550SOL    HW123549   1.700   3.978   4.012
 7550SOL    HW223550   1.743   3.845   3.928
 7551SOL     OW23551   5.979   1.863   5.325
 7551SOL    HW123552   5.952   1.819   5.411
 7551SOL    HW223553   6.016   1.794   5.263
 7552SOL     OW23554   2.540   5.938   5.049
 7552SOL    HW123555   2.527   5.839   5.052
 7552SOL    HW223556   2.533   5.970   4.955
 7553SOL     OW23557   5.392   6.134   6.291
 7553SOL    HW123558   5.348   6.140   6.202
 7553SOL    HW223559   5.324   6.144   6.363
 7554SOL     OW23560   4.876   1.176   0.527
 7554SOL    HW123561   4.950   1.114   0.554
 7554SOL    HW223562   4.789   1.139   0.560
 7555SOL     OW23563   3.803   5.395   6.047
 7555SOL    HW123564   3.705   5.388   6.064
 7555SOL    HW223565   3.820   5.388   5.948
 7556SOL     OW23566   0.307   0.257   0.850
 7556SOL    HW123567   0.243   0.330   0.830
 7556SOL    HW223568   0.257   0.177   0.883
 7557SOL     OW23569   4.705   0.151   0.596
 7557SOL    HW123570   4.672   0.245   0.590
 7557SOL    HW223571   4.786   0.148   0.655
 7558SOL     OW23572   1.701   2.322   4.145
 7558SOL    HW123573   1.691   2.390   4.073
 7558SOL    HW223574   1.728   2.367   4.230
 7559SOL     OW23575   4.188   2.230   4.826
 7559SOL    HW123576   4.276   2.183   4.836
 7559SOL    HW223577   4.177   2.294   4.902
 7560SOL     OW23578   6.814   0.420   6.226
 7560SOL    HW123579   6.859   0.454   6.144
 7560SOL    HW223580   6.726   0.467   6.237
 7561SOL     OW23581   5.710   2.225   5.366
 7561SOL    HW123582   5.804   2.238   5.397
 7561SOL    HW223583   5.668   2.313   5.349
 7562SOL     OW23584   1.610   5.011   4.105
 7562SOL    HW123585   1.551   5.063   4.044
 7562SOL    HW223586   1.704   5.012   4.070
 7563SOL     OW23587   3.650   6.055   2.384
 7563SOL    HW123588   3.683   6.087   2.295
 7563SOL    HW223589   3.727   6.050   2.448
 7564SOL     OW23590   4.613   1.139   4.193
 7564SOL    HW123591   4.632   1.055   4.142
 7564SOL    HW223592   4.647   1.218   4.141
 7565SOL     OW23593   5.604   3.373   6.563
 7565SOL    HW123594   5.601   3.356   6.661
 7565SOL    HW223595   5.540   3.446   6.539
 7566SOL     OW23596   4.199   4.263   1.465
 7566SOL    HW123597   4.237   4.297   1.551
 7566SOL    HW223598   4.220   4.165   1.457
 7567SOL     OW23599   0.630   0.480   4.914
 7567SOL    HW123600   0.589   0.390   4.927
 7567SOL    HW223601   0.625   0.531   5.000
 7568SOL     OW23602   5.677   5.502   1.138
 7568SOL    HW123603   5.704   5.522   1.044
 7568SOL    HW223604   5.759   5.490   1.194
 7569SOL     OW23605   4.080   3.808   6.916
 7569SOL    HW123606   4.170   3.848   6.898
 7569SOL    HW223607   4.013   3.848   6.853
 7570SOL     OW23608   6.466   2.944   3.402
 7570SOL    HW123609   6.397   3.005   3.365
 7570SOL    HW223610   6.540   2.998   3.443
 7571SOL     OW23611   4.872   2.938   2.761
 7571SOL    HW123612   4.796   3.002   2.753
 7571SOL    HW223613   4.921   2.954   2.846
 7572SOL     OW23614   5.135   6.043   2.373
 7572SOL    HW123615   5.116   5.978   2.447
 7572SOL    HW223616   5.049   6.077   2.335
 7573SOL     OW23617   5.560   6.674   6.019
 7573SOL    HW123618   5.509   6.618   5.954
 7573SOL    HW223619   5.656   6.646   6.019
 7574SOL     OW23620   6.904   1.414   4.176
 7574SOL    HW123621   7.003   1.425   4.189
 7574SOL    HW223622   6.879   1.318   4.191
 7575SOL     OW23623   6.972   6.183   1.291
 7575SOL    HW123624   6.903   6.146   1.229
 7575SOL    HW223625   6.990   6.278   1.268
 7576SOL     OW23626   5.333   3.122   0.654
 7576SOL    HW123627   5.412   3.183   0.655
 7576SOL    HW223628   5.357   3.038   0.605
 7577SOL     OW23629   0.885   6.948   0.311
 7577SOL    HW123630   0.861   0.020   0.301
 7577SOL    HW223631   0.809   6.900   0.355
 7578SOL     OW23632   6.827   5.556   3.481
 7578SOL    HW123633   6.920   5.555   3.446
 7578SOL    HW223634   6.792   5.650   3.482
 7579SOL     OW23635   6.491   1.125   0.584
 7579SOL    HW123636   6.571   1.135   0.524
 7579SOL    HW223637   6.429   1.058   0.544
 7580SOL     OW23638   2.358   4.805   3.633
 7580SOL    HW123639   2.411   4.863   3.570
 7580SOL    HW223640   2.417   4.733   3.668
 7581SOL     OW23641   0.127   1.005   1.848
 7581SOL    HW123642   0.177   0.946   1.911
 7581SOL    HW223643   0.137   1.100   1.876
 7582SOL     OW23644   3.661   1.913   4.304
 7582SOL    HW123645   3.757   1.900   4.277
 7582SOL    HW223646   3.650   2.002   4.347
 7583SOL     OW23647   4.865   3.328   3.636
 7583SOL    HW123648   4.878   3.345   3.538
 7583SOL    HW223649   4.848   3.415   3.683
 7584SOL     OW23650   0.658   0.730   3.227
 7584SOL    HW123651   0.682   0.633   3.228
 7584SOL    HW223652   0.612   0.753   3.141
 7585SOL     OW23653   0.669   2.130   6.685
 7585SOL    HW123654   0.659   2.163   6.779
 7585SOL    HW223655   0.592   2.162   6.630
 7586SOL     OW23656   1.082   1.140   2.886
 7586SOL    HW123657   1.085   1.201   2.965
 7586SOL    HW223658   1.174   1.118   2.856
 7587SOL     OW23659   3.299   1.336   0.577
 7587SOL    HW123660   3.312   1.293   0.488
 7587SOL    HW223661   3.327   1.272   0.649
 7588SOL     OW23662   1.533   2.769   4.569
 7588SOL    HW123663   1.438   2.791   4.591
 7588SOL    HW223664   1.591   2.848   4.590
 7589SOL     OW23665   0.018   1.117   3.139
 7589SOL    HW123666   0.104   1.127   3.090
 7589SOL    HW223667   0.027   1.043   3.207
 7590SOL     OW23668   0.069   1.634   0.053
 7590SOL    HW123669   0.163   1.639   0.087
 7590SOL    HW223670   0.005   1.637   0.130
 7591SOL     OW23671   4.176   3.008   5.827
 7591SOL    HW123672   4.199   3.020   5.731
 7591SOL    HW223673   4.088   2.962   5.836
 7592SOL     OW23674   6.860   6.336   4.745
 7592SOL    HW123675   6.790   6.315   4.677
 7592SOL    HW223676   6.858   6.266   4.817
 7593SOL     OW23677   0.200   1.578   5.783
 7593SOL    HW123678   0.185   1.480   5.769
 7593SOL    HW223679   0.299   1.597   5.782
 7594SOL     OW23680   0.540   4.116   1.052
 7594SOL    HW123681   0.553   4.120   0.952
 7594SOL    HW223682   0.546   4.021   1.082
 7595SOL     OW23683   6.368   2.540   5.865
 7595SOL    HW123684   6.329   2.584   5.946
 7595SOL    HW223685   6.396   2.447   5.888
 7596SOL     OW23686   2.686   1.016   5.045
 7596SOL    HW123687   2.678   0.973   5.135
 7596SOL    HW223688   2.745   0.959   4.987
 7597SOL     OW23689   1.827   4.615   2.029
 7597SOL    HW123690   1.745   4.671   2.026
 7597SOL    HW223691   1.815   4.542   2.097
 7598SOL     OW23692   5.700   0.911   3.333
 7598SOL    HW123693   5.756   0.887   3.412
 7598SOL    HW223694   5.622   0.848   3.327
 7599SOL     OW23695   3.735   3.010   1.054
 7599SOL    HW123696   3.677   3.001   1.134
 7599SOL    HW223697   3.802   3.082   1.069
 7600SOL     OW23698   1.049   1.181   4.333
 7600SOL    HW123699   1.124   1.239   4.365
 7600SOL    HW223700   1.060   1.089   4.371
 7601SOL     OW23701   3.837   5.923   1.859
 7601SOL    HW123702   3.933   5.906   1.839
 7601SOL    HW223703   3.795   5.973   1.784
 7602SOL     OW23704   0.700   1.818   0.872
 7602SOL    HW123705   0.668   1.869   0.952
 7602SOL    HW223706   0.635   1.830   0.796
 7603SOL     OW23707   2.339   0.335   5.614
 7603SOL    HW123708   2.337   0.251   5.559
 7603SOL    HW223709   2.433   0.363   5.628
 7604SOL     OW23710   0.884   2.504   4.917
 7604SOL    HW123711   0.970   2.542   4.883
 7604SOL    HW223712   0.873   2.526   5.014
 7605SOL     OW23713   2.640   0.035   6.929
 7605SOL    HW123714   2.690   0.118   6.957
 7605SOL    HW223715   2.638   6.995   7.006
 7606SOL     OW23716   6.369   1.720   3.753
 7606SOL    HW123717   6.311   1.778   3.811
 7606SOL    HW223718   6.357   1.747   3.658
 7607SOL     OW23719   2.875   5.732   6.015
 7607SOL    HW123720   2.954   5.689   6.058
 7607SOL    HW223721   2.794   5.675   6.028
 7608SOL     OW23722   5.965   3.042   6.121
 7608SOL    HW123723   6.015   3.128   6.130
 7608SOL    HW223724   5.884   3.044   6.179
 7609SOL     OW23725   0.566   2.195   4.842
 7609SOL    HW123726   0.532   2.236   4.757
 7609SOL    HW223727   0.663   2.176   4.833
 7610SOL     OW23728   3.253   4.509   5.511
 7610SOL    HW123729   3.200   4.587   5.545
 7610SOL    HW223730   3.344   4.541   5.484
 7611SOL     OW23731   4.488   3.260   1.310
 7611SOL    HW123732   4.537   3.241   1.226
 7611SOL    HW223733   4.458   3.174   1.351
 7612SOL     OW23734   3.030   1.159   3.168
 7612SOL    HW123735   2.934   1.185   3.158
 7612SOL    HW223736   3.037   1.059   3.168
 7613SOL     OW23737   1.053   1.652   2.270
 7613SOL    HW123738   1.138   1.656   2.322
 7613SOL    HW223739   1.072   1.631   2.175
 7614SOL     OW23740   5.153   3.542   0.299
 7614SOL    HW123741   5.216   3.545   0.222
 7614SOL    HW223742   5.203   3.515   0.382
 7615SOL     OW23743   5.251   3.314   4.474
 7615SOL    HW123744   5.233   3.225   4.516
 7615SOL    HW223745   5.347   3.319   4.446
 7616SOL     OW23746   6.724   6.975   3.517
 7616SOL    HW123747   6.645   6.980   3.456
 7616SOL    HW223748   6.733   0.036   3.567
 7617SOL     OW23749   5.241   5.402   3.361
 7617SOL    HW123750   5.310   5.441   3.300
 7617SOL    HW223751   5.242   5.450   3.448
 7618SOL     OW23752   2.999   2.826   0.559
 7618SOL    HW123753   3.090   2.808   0.596
 7618SOL    HW223754   2.952   2.892   0.617
 7619SOL     OW23755   0.578   2.054   4.220
 7619SOL    HW123756   0.575   2.101   4.132
 7619SOL    HW223757   0.661   2.081   4.269
 7620SOL     OW23758   4.042   3.966   1.501
 7620SOL    HW123759   3.943   3.960   1.512
 7620SOL    HW223760   4.084   3.994   1.587
 7621SOL     OW23761   0.469   5.663   0.813
 7621SOL    HW123762   0.441   5.690   0.722
 7621SOL    HW223763   0.568   5.672   0.822
 7622SOL     OW23764   3.691   4.406   0.535
 7622SOL    HW123765   3.702   4.505   0.532
 7622SOL    HW223766   3.619   4.379   0.471
 7623SOL     OW23767   4.869   4.876   1.270
 7623SOL    HW123768   4.863   4.956   1.211
 7623SOL    HW223769   4.811   4.889   1.350
 7624SOL     OW23770   0.475   2.630   2.006
 7624SOL    HW123771   0.472   2.531   1.996
 7624SOL    HW223772   0.561   2.665   1.968
 7625SOL     OW23773   5.149   1.929   0.352
 7625SOL    HW123774   5.182   2.016   0.313
 7625SOL    HW223775   5.228   1.872   0.376
 7626SOL     OW23776   5.555   0.314   5.198
 7626SOL    HW123777   5.486   0.340   5.130
 7626SOL    HW223778   5.641   0.291   5.151
 7627SOL     OW23779   3.105   1.962   6.698
 7627SOL    HW123780   3.161   1.985   6.618
 7627SOL    HW223781   3.162   1.917   6.767
 7628SOL     OW23782   3.425   3.134   0.909
 7628SOL    HW123783   3.444   3.066   0.979
 7628SOL    HW223784   3.433   3.226   0.948
 7629SOL     OW23785   5.996   3.295   4.217
 7629SOL    HW123786   6.080   3.317   4.267
 7629SOL    HW223787   5.951   3.379   4.188
 7630SOL     OW23788   1.561   0.108   5.433
 7630SOL    HW123789   1.507   0.027   5.454
 7630SOL    HW223790   1.618   0.091   5.352
 7631SOL     OW23791   1.924   0.207   5.231
 7631SOL    HW123792   1.910   0.162   5.320
 7631SOL    HW223793   1.996   0.158   5.181
 7632SOL     OW23794   4.683   5.549   0.917
 7632SOL    HW123795   4.778   5.530   0.894
 7632SOL    HW223796   4.648   5.623   0.860
 7633SOL     OW23797   6.023   1.295   0.981
 7633SOL    HW123798   5.926   1.307   0.957
 7633SOL    HW223799   6.073   1.262   0.901
 7634SOL     OW23800   0.851   1.682   0.217
 7634SOL    HW123801   0.916   1.738   0.270
 7634SOL    HW223802   0.846   1.716   0.124
 7635SOL     OW23803   2.698   5.227   6.206
 7635SOL    HW123804   2.665   5.139   6.238
 7635SOL    HW223805   2.744   5.216   6.117
 7636SOL     OW23806   0.703   3.816   5.059
 7636SOL    HW123807   0.701   3.790   4.963
 7636SOL    HW223808   0.671   3.740   5.115
 7637SOL     OW23809   0.374   6.254   4.077
 7637SOL    HW123810   0.468   6.285   4.060
 7637SOL    HW223811   0.334   6.310   4.150
 7638SOL     OW23812   0.919   5.259   1.615
 7638SOL    HW123813   0.826   5.259   1.579
 7638SOL    HW223814   0.947   5.165   1.635
 7639SOL     OW23815   1.425   1.153   0.122
 7639SOL    HW123816   1.420   1.060   0.087
 7639SOL    HW223817   1.450   1.151   0.219
 7640SOL     OW23818   3.348   1.120   6.204
 7640SOL    HW123819   3.256   1.150   6.229
 7640SOL    HW223820   3.347   1.083   6.111
 7641SOL     OW23821   0.105   3.988   2.874
 7641SOL    HW123822   0.110   3.916   2.805
 7641SOL    HW223823   0.016   3.984   2.920
 7642SOL     OW23824   6.514   1.054   3.640
 7642SOL    HW123825   6.432   1.004   3.668
 7642SOL    HW223826   6.518   1.141   3.689
 7643SOL     OW23827   5.138   2.425   3.247
 7643SOL    HW123828   5.115   2.487   3.322
 7643SOL    HW223829   5.056   2.376   3.217
 7644SOL     OW23830   5.031   3.828   1.435
 7644SOL    HW123831   4.946   3.871   1.464
 7644SOL    HW223832   5.048   3.747   1.491
 7645SOL     OW23833   2.654   3.509   6.207
 7645SOL    HW123834   2.669   3.424   6.156
 7645SOL    HW223835   2.728   3.521   6.273
 7646SOL     OW23836   0.229   2.413   3.473
 7646SOL    HW123837   0.287   2.334   3.455
 7646SOL    HW223838   0.171   2.431   3.393
 7647SOL     OW23839   7.018   3.050   5.118
 7647SOL    HW123840   6.924   3.074   5.142
 7647SOL    HW223841   0.056   3.085   5.187
 7648SOL     OW23842   2.368   1.906   2.656
 7648SOL    HW123843   2.387   1.835   2.724
 7648SOL    HW223844   2.363   1.865   2.565
 7649SOL     OW23845   5.798   0.858   5.381
 7649SOL    HW123846   5.750   0.941   5.354
 7649SOL    HW223847   5.740   0.805   5.444
 7650SOL     OW23848   4.213   1.673   1.208
 7650SOL    HW123849   4.298   1.725   1.215
 7650SOL    HW223850   4.213   1.599   1.276
 7651SOL     OW23851   2.330   5.080   5.227
 7651SOL    HW123852   2.314   4.982   5.217
 7651SOL    HW223853   2.282   5.129   5.154
 7652SOL     OW23854   5.763   1.866   4.061
 7652SOL    HW123855   5.764   1.767   4.046
 7652SOL    HW223856   5.724   1.911   3.981
 7653SOL     OW23857   0.411   1.736   6.783
 7653SOL    HW123858   0.384   1.651   6.738
 7653SOL    HW223859   0.361   1.745   6.869
 7654SOL     OW23860   5.952   2.973   5.839
 7654SOL    HW123861   5.862   2.999   5.803
 7654SOL    HW223862   5.956   2.993   5.937
 7655SOL     OW23863   3.432   0.428   3.489
 7655SOL    HW123864   3.407   0.525   3.500
 7655SOL    HW223865   3.501   0.404   3.556
 7656SOL     OW23866   6.586   3.079   6.991
 7656SOL    HW123867   6.660   3.104   0.029
 7656SOL    HW223868   6.498   3.106   0.006
 7657SOL     OW23869   1.345   4.090   4.605
 7657SOL    HW123870   1.369   4.174   4.655
 7657SOL    HW223871   1.413   4.073   4.534
 7658SOL     OW23872   2.725   1.330   0.668
 7658SOL    HW123873   2.816   1.306   0.703
 7658SOL    HW223874   2.656   1.305   0.735
 7659SOL     OW23875   4.400   3.753   5.396
 7659SOL    HW123876   4.427   3.848   5.377
 7659SOL    HW223877   4.426   3.729   5.490
 7660SOL     OW23878   6.902   4.991   4.553
 7660SOL    HW123879   6.872   4.908   4.600
 7660SOL    HW223880   7.001   5.002   4.564
 7661SOL     OW23881   4.828   2.976   6.077
 7661SOL    HW123882   4.739   2.983   6.032
 7661SOL    HW223883   4.899   2.968   6.008
 7662SOL     OW23884   1.202   1.957   2.409
 7662SOL    HW123885   1.283   1.929   2.460
 7662SOL    HW223886   1.123   1.905   2.442
 7663SOL     OW23887   6.437   5.241   5.402
 7663SOL    HW123888   6.355   5.223   5.348
 7663SOL    HW223889   6.493   5.310   5.356
 7664SOL     OW23890   3.586   1.774   2.833
 7664SOL    HW123891   3.651   1.698   2.839
 7664SOL    HW223892   3.494   1.737   2.823
 7665SOL     OW23893   4.125   1.625   4.643
 7665SOL    HW123894   4.182   1.684   4.585
 7665SOL    HW223895   4.126   1.532   4.606
 7666SOL     OW23896   5.986   5.321   4.213
 7666SOL    HW123897   5.943   5.411   4.211
 7666SOL    HW223898   5.920   5.253   4.246
 7667SOL     OW23899   5.303   6.202   2.041
 7667SOL    HW123900   5.261   6.275   2.093
 7667SOL    HW223901   5.297   6.116   2.092
 7668SOL     OW23902   2.091   5.413   1.677
 7668SOL    HW123903   2.122   5.322   1.704
 7668SOL    HW223904   2.060   5.463   1.757
 7669SOL     OW23905   2.768   6.617   5.683
 7669SOL    HW123906   2.682   6.590   5.640
 7669SOL    HW223907   2.797   6.705   5.646
 7670SOL     OW23908   0.349   6.660   0.420
 7670SOL    HW123909   0.441   6.699   0.425
 7670SOL    HW223910   0.356   6.560   0.420
 7671SOL     OW23911   4.701   0.684   1.228
 7671SOL    HW123912   4.666   0.666   1.320
 7671SOL    HW223913   4.790   0.639   1.217
 7672SOL     OW23914   5.431   5.128   2.997
 7672SOL    HW123915   5.431   5.050   3.060
 7672SOL    HW223916   5.466   5.209   3.045
 7673SOL     OW23917   0.543   5.570   3.915
 7673SOL    HW123918   0.584   5.626   3.843
 7673SOL    HW223919   0.531   5.477   3.882
 7674SOL     OW23920   4.448   6.617   4.551
 7674SOL    HW123921   4.364   6.661   4.580
 7674SOL    HW223922   4.508   6.603   4.630
 7675SOL     OW23923   3.654   6.965   2.536
 7675SOL    HW123924   3.596   0.016   2.505
 7675SOL    HW223925   3.743   7.001   2.565
 7676SOL     OW23926   2.868   2.951   5.727
 7676SOL    HW123927   2.815   2.871   5.699
 7676SOL    HW223928   2.931   2.925   5.800
 7677SOL     OW23929   6.038   4.913   1.767
 7677SOL    HW123930   5.995   4.931   1.855
 7677SOL    HW223931   5.990   4.839   1.721
 7678SOL     OW23932   1.280   1.256   5.644
 7678SOL    HW123933   1.215   1.329   5.624
 7678SOL    HW223934   1.254   1.173   5.596
 7679SOL     OW23935   1.556   5.353   5.323
 7679SOL    HW123936   1.498   5.311   5.254
 7679SOL    HW223937   1.637   5.295   5.338
 7680SOL     OW23938   1.920   0.749   5.437
 7680SOL    HW123939   1.898   0.666   5.385
 7680SOL    HW223940   1.973   0.812   5.379
 7681SOL     OW23941   2.701   3.333   6.559
 7681SOL    HW123942   2.680   3.361   6.653
 7681SOL    HW223943   2.745   3.409   6.511
 7682SOL     OW23944   3.318   1.720   2.885
 7682SOL    HW123945   3.250   1.647   2.879
 7682SOL    HW223946   3.323   1.754   2.979
 7683SOL     OW23947   0.988   1.118   4.672
 7683SOL    HW123948   0.942   1.205   4.691
 7683SOL    HW223949   1.056   1.100   4.743
 7684SOL     OW23950   3.727   2.127   1.470
 7684SOL    HW123951   3.669   2.049   1.491
 7684SOL    HW223952   3.772   2.159   1.554
 7685SOL     OW23953   3.019   0.984   0.156
 7685SOL    HW123954   2.935   1.022   0.118
 7685SOL    HW223955   3.044   1.036   0.239
 7686SOL     OW23956   5.456   0.766   4.258
 7686SOL    HW123957   5.431   0.851   4.212
 7686SOL    HW223958   5.549   0.740   4.232
 7687SOL     OW23959   5.482   5.260   4.832
 7687SOL    HW123960   5.450   5.166   4.815
 7687SOL    HW223961   5.507   5.303   4.746
 7688SOL     OW23962   0.716   4.757   6.483
 7688SOL    HW123963   0.712   4.856   6.497
 7688SOL    HW223964   0.789   4.736   6.418
 7689SOL     OW23965   4.958   0.435   1.589
 7689SOL    HW123966   4.906   0.441   1.674
 7689SOL    HW223967   4.987   0.340   1.574
 7690SOL     OW23968   6.548   5.739   0.939
 7690SOL    HW123969   6.640   5.701   0.947
 7690SOL    HW223970   6.547   5.832   0.975
 7691SOL     OW23971   4.682   4.893   2.974
 7691SOL    HW123972   4.747   4.819   2.955
 7691SOL    HW223973   4.589   4.857   2.977
 7692SOL     OW23974   1.835   6.640   2.297
 7692SOL    HW123975   1.812   6.543   2.309
 7692SOL    HW223976   1.843   6.661   2.200
 7693SOL     OW23977   2.739   1.843   1.308
 7693SOL    HW123978   2.675   1.915   1.283
 7693SOL    HW223979   2.689   1.766   1.346
 7694SOL     OW23980   6.142   1.999   4.801
 7694SOL    HW123981   6.056   1.970   4.760
 7694SOL    HW223982   6.123   2.044   4.889
 7695SOL     OW23983   6.031   0.361   2.575
 7695SOL    HW123984   6.099   0.413   2.524
 7695SOL    HW223985   6.046   0.372   2.673
 7696SOL     OW23986   0.346   2.769   6.502
 7696SOL    HW123987   0.260   2.818   6.518
 7696SOL    HW223988   0.357   2.697   6.570
 7697SOL     OW23989   4.197   0.068   2.834
 7697SOL    HW123990   4.118   0.120   2.801
 7697SOL    HW223991   4.257   0.045   2.757
 7698SOL     OW23992   6.225   1.543   6.865
 7698SOL    HW123993   6.293   1.490   6.916
 7698SOL    HW223994   6.135   1.532   6.908
 7699SOL     OW23995   3.509   5.238   5.503
 7699SOL    HW123996   3.498   5.251   5.601
 7699SOL    HW223997   3.419   5.241   5.459
 7700SOL     OW23998   5.214   4.879   2.398
 7700SOL    HW123999   5.262   4.801   2.357
 7700SOL    HW224000   5.116   4.861   2.400
 7701SOL     OW24001   0.113   2.550   6.242
 7701SOL    HW124002   0.058   2.584   6.318
 7701SOL    HW224003   0.173   2.623   6.209
 7702SOL     OW24004   4.887   0.162   4.722
 7702SOL    HW124005   4.835   0.172   4.807
 7702SOL    HW224006   4.904   0.065   4.704
 7703SOL     OW24007   6.445   6.380   4.695
 7703SOL    HW124008   6.462   6.478   4.710
 7703SOL    HW224009   6.385   6.368   4.616
 7704SOL     OW24010   6.576   1.346   4.336
 7704SOL    HW124011   6.535   1.336   4.246
 7704SOL    HW224012   6.521   1.410   4.391
 7705SOL     OW24013   2.401   5.312   0.512
 7705SOL    HW124014   2.367   5.402   0.485
 7705SOL    HW224015   2.382   5.297   0.609
 7706SOL     OW24016   3.593   3.092   2.343
 7706SOL    HW124017   3.583   3.148   2.261
 7706SOL    HW224018   3.673   3.033   2.334
 7707SOL     OW24019   6.726   5.503   6.787
 7707SOL    HW124020   6.815   5.500   6.743
 7707SOL    HW224021   6.690   5.409   6.795
 7708SOL     OW24022   2.277   6.766   4.842
 7708SOL    HW124023   2.321   6.856   4.845
 7708SOL    HW224024   2.296   6.722   4.755
 7709SOL     OW24025   0.371   4.914   1.449
 7709SOL    HW124026   0.464   4.896   1.483
 7709SOL    HW224027   0.310   4.840   1.479
 7710SOL     OW24028   1.259   3.698   0.915
 7710SOL    HW124029   1.314   3.651   0.983
 7710SOL    HW224030   1.318   3.750   0.853
 7711SOL     OW24031   0.060   5.079   5.305
 7711SOL    HW124032   0.128   5.015   5.268
 7711SOL    HW224033   7.023   5.030   5.367
 7712SOL     OW24034   6.569   4.787   5.911
 7712SOL    HW124035   6.543   4.757   5.819
 7712SOL    HW224036   6.520   4.732   5.978
 7713SOL     OW24037   2.147   4.978   0.365
 7713SOL    HW124038   2.054   4.959   0.335
 7713SOL    HW224039   2.186   4.895   0.405
 7714SOL     OW24040   6.682   0.730   4.695
 7714SOL    HW124041   6.678   0.662   4.622
 7714SOL    HW224042   6.679   0.685   4.784
 7715SOL     OW24043   2.645   2.730   5.743
 7715SOL    HW124044   2.740   2.712   5.770
 7715SOL    HW224045   2.585   2.718   5.822
 7716SOL     OW24046   1.187   5.413   5.468
 7716SOL    HW124047   1.181   5.513   5.469
 7716SOL    HW224048   1.278   5.386   5.500
 7717SOL     OW24049   1.538   1.954   0.014
 7717SOL    HW124050   1.531   1.958   0.114
 7717SOL    HW224051   1.477   2.021   6.998
 7718SOL     OW24052   1.284   4.221   2.526
 7718SOL    HW124053   1.197   4.197   2.568
 7718SOL    HW224054   1.278   4.313   2.486
 7719SOL     OW24055   1.420   3.764   5.014
 7719SOL    HW124056   1.451   3.670   4.994
 7719SOL    HW224057   1.364   3.797   4.938
 7720SOL     OW24058   5.686   1.735   6.691
 7720SOL    HW124059   5.723   1.643   6.681
 7720SOL    HW224060   5.758   1.797   6.721
 7721SOL     OW24061   0.674   0.741   2.524
 7721SOL    HW124062   0.635   0.816   2.577
 7721SOL    HW224063   0.600   0.688   2.482
 7722SOL     OW24064   2.382   5.877   3.491
 7722SOL    HW124065   2.428   5.872   3.403
 7722SOL    HW224066   2.303   5.815   3.491
 7723SOL     OW24067   5.072   4.360   0.372
 7723SOL    HW124068   5.013   4.343   0.450
 7723SOL    HW224069   5.118   4.275   0.345
 7724SOL     OW24070   2.323   4.234   1.849
 7724SOL    HW124071   2.284   4.262   1.761
 7724SOL    HW224072   2.312   4.308   1.915
 7725SOL     OW24073   5.663   2.818   3.626
 7725SOL    HW124074   5.584   2.861   3.582
 7725SOL    HW224075   5.746   2.836   3.572
 7726SOL     OW24076   0.264   2.785   6.199
 7726SOL    HW124077   0.335   2.830   6.145
 7726SOL    HW224078   0.301   2.761   6.288
 7727SOL     OW24079   5.331   2.315   2.276
 7727SOL    HW124080   5.294   2.399   2.237
 7727SOL    HW224081   5.423   2.332   2.312
 7728SOL     OW24082   2.155   3.350   4.704
 7728SOL    HW124083   2.182   3.258   4.676
 7728SOL    HW224084   2.181   3.365   4.800
 7729SOL     OW24085   6.209   1.926   3.939
 7729SOL    HW124086   6.124   1.918   3.990
 7729SOL    HW224087   6.213   2.014   3.893
 7730SOL     OW24088   6.509   4.175   5.138
 7730SOL    HW124089   6.423   4.227   5.139
 7730SOL    HW224090   6.541   4.161   5.232
 7731SOL     OW24091   6.165   6.944   0.203
 7731SOL    HW124092   6.157   6.995   0.117
 7731SOL    HW224093   6.169   6.846   0.184
 7732SOL     OW24094   4.520   0.028   6.557
 7732SOL    HW124095   4.518   0.070   6.466
 7732SOL    HW224096   4.536   6.954   6.548
 7733SOL     OW24097   6.695   5.974   2.392
 7733SOL    HW124098   6.768   6.023   2.439
 7733SOL    HW224099   6.712   5.977   2.293
 7734SOL     OW24100   3.314   3.866   5.288
 7734SOL    HW124101   3.266   3.952   5.274
 7734SOL    HW224102   3.387   3.857   5.221
 7735SOL     OW24103   0.016   6.073   0.677
 7735SOL    HW124104   0.073   6.149   0.708
 7735SOL    HW224105   6.986   6.102   0.599
 7736SOL     OW24106   3.234   3.431   0.613
 7736SOL    HW124107   3.187   3.508   0.570
 7736SOL    HW224108   3.267   3.369   0.541
 7737SOL     OW24109   3.959   4.637   1.643
 7737SOL    HW124110   3.877   4.693   1.630
 7737SOL    HW224111   3.933   4.551   1.687
 7738SOL     OW24112   2.642   6.425   6.749
 7738SOL    HW124113   2.663   6.520   6.727
 7738SOL    HW224114   2.585   6.386   6.677
 7739SOL     OW24115   1.418   2.199   0.698
 7739SOL    HW124116   1.359   2.122   0.723
 7739SOL    HW224117   1.391   2.235   0.609
 7740SOL     OW24118   1.552   0.863   4.533
 7740SOL    HW124119   1.563   0.787   4.470
 7740SOL    HW224120   1.457   0.868   4.564
 7741SOL     OW24121   1.625   4.025   6.447
 7741SOL    HW124122   1.552   3.972   6.405
 7741SOL    HW224123   1.689   4.056   6.376
 7742SOL     OW24124   3.975   1.557   4.061
 7742SOL    HW124125   3.912   1.509   4.121
 7742SOL    HW224126   3.924   1.617   4.000
 7743SOL     OW24127   4.827   1.428   5.756
 7743SOL    HW124128   4.797   1.432   5.661
 7743SOL    HW224129   4.889   1.504   5.774
 7744SOL     OW24130   0.256   6.167   3.850
 7744SOL    HW124131   0.251   6.068   3.854
 7744SOL    HW224132   0.295   6.201   3.936
 7745SOL     OW24133   1.937   6.774   0.726
 7745SOL    HW124134   1.950   6.751   0.629
 7745SOL    HW224135   1.992   6.854   0.749
 7746SOL     OW24136   1.074   6.146   1.026
 7746SOL    HW124137   1.049   6.132   0.930
 7746SOL    HW224138   1.054   6.241   1.052
 7747SOL     OW24139   0.957   6.282   0.663
 7747SOL    HW124140   0.872   6.317   0.702
 7747SOL    HW224141   1.030   6.348   0.677
 7748SOL     OW24142   4.297   2.814   5.496
 7748SOL    HW124143   4.335   2.744   5.556
 7748SOL    HW224144   4.222   2.775   5.443
 7749SOL     OW24145   3.523   3.449   4.390
 7749SOL    HW124146   3.438   3.397   4.398
 7749SOL    HW224147   3.591   3.411   4.454
 7750SOL     OW24148   5.664   4.705   5.281
 7750SOL    HW124149   5.661   4.609   5.308
 7750SOL    HW224150   5.636   4.714   5.185
 7751SOL     OW24151   6.989   1.014   5.180
 7751SOL    HW124152   6.910   1.049   5.131
 7751SOL    HW224153   0.015   0.951   5.120
 7752SOL     OW24154   5.882   5.493   5.361
 7752SOL    HW124155   5.820   5.568   5.382
 7752SOL    HW224156   5.937   5.516   5.281
 7753SOL     OW24157   1.814   0.536   4.494
 7753SOL    HW124158   1.909   0.509   4.511
 7753SOL    HW224159   1.760   0.454   4.472
 7754SOL     OW24160   5.899   0.156   1.014
 7754SOL    HW124161   5.853   0.068   1.021
 7754SOL    HW224162   5.957   0.157   0.932
 7755SOL     OW24163   0.461   5.735   5.700
 7755SOL    HW124164   0.554   5.708   5.678
 7755SOL    HW224165   0.459   5.783   5.788
 7756SOL     OW24166   3.476   5.181   2.215
 7756SOL    HW124167   3.391   5.172   2.164
 7756SOL    HW224168   3.488   5.102   2.274
 7757SOL     OW24169   4.446   6.391   5.601
 7757SOL    HW124170   4.515   6.443   5.652
 7757SOL    HW224171   4.378   6.354   5.665
 7758SOL     OW24172   2.481   2.155   5.949
 7758SOL    HW124173   2.545   2.154   5.873
 7758SOL    HW224174   2.487   2.242   5.997
 7759SOL     OW24175   2.072   0.694   4.280
 7759SOL    HW124176   2.035   0.602   4.271
 7759SOL    HW224177   2.103   0.709   4.373
 7760SOL     OW24178   5.207   2.936   2.209
 7760SOL    HW124179   5.118   2.969   2.178
 7760SOL    HW224180   5.214   2.950   2.308
 7761SOL     OW24181   2.976   0.013   6.912
 7761SOL    HW124182   2.904   0.064   6.865
 7761SOL    HW224183   3.037   6.997   6.844
 7762SOL     OW24184   4.172   2.009   0.130
 7762SOL    HW124185   4.205   1.948   0.058
 7762SOL    HW224186   4.168   2.102   0.095
 7763SOL     OW24187   2.200   2.044   0.651
 7763SOL    HW124188   2.174   2.062   0.746
 7763SOL    HW224189   2.221   2.131   0.606
 7764SOL     OW24190   3.681   2.898   2.049
 7764SOL    HW124191   3.723   2.923   2.136
 7764SOL    HW224192   3.751   2.888   1.979
 7765SOL     OW24193   6.574   2.777   2.745
 7765SOL    HW124194   6.665   2.761   2.781
 7765SOL    HW224195   6.508   2.785   2.820
 7766SOL     OW24196   5.934   1.881   6.718
 7766SOL    HW124197   6.004   1.944   6.684
 7766SOL    HW224198   5.957   1.788   6.689
 7767SOL     OW24199   4.377   5.963   3.974
 7767SOL    HW124200   4.345   5.911   4.053
 7767SOL    HW224201   4.327   6.049   3.969
 7768SOL     OW24202   3.903   5.010   2.149
 7768SOL    HW124203   3.829   4.984   2.210
 7768SOL    HW224204   3.910   5.110   2.145
 7769SOL     OW24205   5.258   2.387   0.866
 7769SOL    HW124206   5.261   2.288   0.857
 7769SOL    HW224207   5.170   2.422   0.833
 7770SOL     OW24208   3.113   5.114   1.741
 7770SOL    HW124209   3.015   5.115   1.756
 7770SOL    HW224210   3.144   5.021   1.721
 7771SOL     OW24211   3.130   2.051   5.817
 7771SOL    HW124212   3.098   2.071   5.724
 7771SOL    HW224213   3.209   1.990   5.812
 7772SOL     OW24214   4.642   0.597   3.963
 7772SOL    HW124215   4.559   0.653   3.967
 7772SOL    HW224216   4.623   0.513   3.913
 7773SOL     OW24217   4.416   3.692   5.687
 7773SOL    HW124218   4.476   3.703   5.766
 7773SOL    HW224219   4.381   3.598   5.684
 7774SOL     OW24220   5.281   1.508   6.037
 7774SOL    HW124221   5.227   1.462   6.108
 7774SOL    HW224222   5.362   1.549   6.079
 7775SOL     OW24223   3.389   6.793   2.092
 7775SOL    HW124224   3.432   6.767   2.006
 7775SOL    HW224225   3.460   6.809   2.161
 7776SOL     OW24226   3.339   3.541   6.250
 7776SOL    HW124227   3.359   3.447   6.277
 7776SOL    HW224228   3.295   3.589   6.326
 7777SOL     OW24229   2.625   0.780   6.945
 7777SOL    HW124230   2.667   0.815   6.861
 7777SOL    HW224231   2.695   0.772   7.016
 7778SOL     OW24232   5.609   0.362   6.702
 7778SOL    HW124233   5.582   0.451   6.738
 7778SOL    HW224234   5.708   0.361   6.684
 7779SOL     OW24235   3.517   2.760   0.492
 7779SOL    HW124236   3.435   2.812   0.516
 7779SOL    HW224237   3.500   2.663   0.508
 7780SOL     OW24238   1.634   6.151   4.660
 7780SOL    HW124239   1.627   6.239   4.708
 7780SOL    HW224240   1.659   6.168   4.564
 7781SOL     OW24241   1.456   3.802   5.293
 7781SOL    HW124242   1.528   3.869   5.309
 7781SOL    HW224243   1.446   3.787   5.194
 7782SOL     OW24244   2.482   4.399   6.216
 7782SOL    HW124245   2.428   4.322   6.250
 7782SOL    HW224246   2.571   4.400   6.261
 7783SOL     OW24247   2.352   6.050   0.184
 7783SOL    HW124248   2.427   5.984   0.173
 7783SOL    HW224249   2.364   6.125   0.120
 7784SOL     OW24250   0.757   2.963   6.801
 7784SOL    HW124251   0.746   2.887   6.865
 7784SOL    HW224252   0.737   3.050   6.847
 7785SOL     OW24253   2.300   6.472   4.359
 7785SOL    HW124254   2.391   6.504   4.334
 7785SOL    HW224255   2.261   6.418   4.285
 7786SOL     OW24256   3.101   4.776   5.243
 7786SOL    HW124257   3.113   4.847   5.173
 7786SOL    HW224258   3.023   4.718   5.218
 7787SOL     OW24259   2.352   2.889   5.400
 7787SOL    HW124260   2.260   2.855   5.380
 7787SOL    HW224261   2.381   2.953   5.329
 7788SOL     OW24262   0.660   1.551   1.549
 7788SOL    HW124263   0.708   1.499   1.478
 7788SOL    HW224264   0.721   1.618   1.589
 7789SOL     OW24265   2.744   0.784   1.268
 7789SOL    HW124266   2.734   0.884   1.266
 7789SOL    HW224267   2.691   0.744   1.193
 7790SOL     OW24268   5.780   3.282   2.855
 7790SOL    HW124269   5.842   3.231   2.795
 7790SOL    HW224270   5.689   3.285   2.815
 7791SOL     OW24271   2.456   4.909   4.442
 7791SOL    HW124272   2.554   4.930   4.449
 7791SOL    HW224273   2.409   4.946   4.523
 7792SOL     OW24274   2.640   5.876   6.161
 7792SOL    HW124275   2.569   5.817   6.199
 7792SOL    HW224276   2.730   5.847   6.194
 7793SOL     OW24277   1.272   0.819   6.016
 7793SOL    HW124278   1.177   0.839   6.041
 7793SOL    HW224279   1.308   0.748   6.076
 7794SOL     OW24280   5.275   5.488   4.617
 7794SOL    HW124281   5.268   5.462   4.520
 7794SOL    HW224282   5.254   5.408   4.674
 7795SOL     OW24283   2.021   4.072   5.785
 7795SOL    HW124284   2.105   4.117   5.814
 7795SOL    HW224285   1.997   4.102   5.693
 7796SOL     OW24286   3.723   4.075   3.457
 7796SOL    HW124287   3.633   4.114   3.442
 7796SOL    HW224288   3.729   4.039   3.551
 7797SOL     OW24289   0.079   6.542   3.043
 7797SOL    HW124290   0.059   6.463   3.101
 7797SOL    HW224291   0.031   6.623   3.078
 7798SOL     OW24292   3.172   5.829   0.842
 7798SOL    HW124293   3.117   5.874   0.772
 7798SOL    HW224294   3.233   5.896   0.884
 7799SOL     OW24295   0.060   5.355   1.089
 7799SOL    HW124296   0.100   5.337   0.999
 7799SOL    HW224297   0.125   5.326   1.160
 7800SOL     OW24298   0.340   5.062   1.783
 7800SOL    HW124299   0.378   5.099   1.698
 7800SOL    HW224300   0.414   5.020   1.836
 7801SOL     OW24301   2.190   1.752   0.020
 7801SOL    HW124302   2.111   1.716   0.069
 7801SOL    HW224303   2.179   1.851   0.007
 7802SOL     OW24304   5.166   2.589   1.613
 7802SOL    HW124305   5.250   2.630   1.577
 7802SOL    HW224306   5.189   2.533   1.693
 7803SOL     OW24307   4.023   4.156   5.867
 7803SOL    HW124308   4.067   4.145   5.957
 7803SOL    HW224309   3.946   4.093   5.860
 7804SOL     OW24310   5.294   1.804   5.511
 7804SOL    HW124311   5.340   1.715   5.516
 7804SOL    HW224312   5.352   1.868   5.462
 7805SOL     OW24313   5.252   2.457   1.826
 7805SOL    HW124314   5.221   2.364   1.808
 7805SOL    HW224315   5.351   2.457   1.839
 7806SOL     OW24316   5.504   2.725   6.203
 7806SOL    HW124317   5.588   2.680   6.172
 7806SOL    HW224318   5.427   2.664   6.188
 7807SOL     OW24319   0.016   3.867   6.241
 7807SOL    HW124320   0.050   3.939   6.180
 7807SOL    HW224321   6.941   3.874   6.249
 7808SOL     OW24322   0.791   0.962   4.577
 7808SOL    HW124323   0.862   1.028   4.600
 7808SOL    HW224324   0.811   0.921   4.488
 7809SOL     OW24325   2.221   5.542   4.679
 7809SOL    HW124326   2.137   5.521   4.629
 7809SOL    HW224327   2.290   5.472   4.659
 7810SOL     OW24328   2.912   0.860   5.249
 7810SOL    HW124329   2.976   0.935   5.258
 7810SOL    HW224330   2.826   0.884   5.295
 7811SOL     OW24331   5.317   4.690   3.272
 7811SOL    HW124332   5.229   4.652   3.300
 7811SOL    HW224333   5.388   4.621   3.283
 7812SOL     OW24334   2.120   1.463   4.513
 7812SOL    HW124335   2.212   1.502   4.510
 7812SOL    HW224336   2.120   1.375   4.465
 7813SOL     OW24337   6.384   2.776   6.692
 7813SOL    HW124338   6.351   2.687   6.661
 7813SOL    HW224339   6.382   2.779   6.792
 7814SOL     OW24340   6.700   3.090   3.507
 7814SOL    HW124341   6.738   3.148   3.579
 7814SOL    HW224342   6.760   3.010   3.493
 7815SOL     OW24343   6.278   1.443   6.130
 7815SOL    HW124344   6.273   1.403   6.222
 7815SOL    HW224345   6.346   1.516   6.128
 7816SOL     OW24346   0.297   3.721   5.858
 7816SOL    HW124347   0.385   3.757   5.829
 7816SOL    HW224348   0.284   3.740   5.956
 7817SOL     OW24349   5.441   4.200   4.415
 7817SOL    HW124350   5.501   4.139   4.467
 7817SOL    HW224351   5.448   4.293   4.451
 7818SOL     OW24352   5.971   6.380   1.808
 7818SOL    HW124353   5.880   6.397   1.844
 7818SOL    HW224354   6.024   6.328   1.876
 7819SOL     OW24355   6.855   2.510   1.117
 7819SOL    HW124356   6.769   2.467   1.143
 7819SOL    HW224357   6.930   2.469   1.171
 7820SOL     OW24358   1.638   1.690   6.542
 7820SOL    HW124359   1.694   1.699   6.460
 7820SOL    HW224360   1.557   1.749   6.533
 7821SOL     OW24361   3.567   5.233   1.297
 7821SOL    HW124362   3.499   5.227   1.370
 7821SOL    HW224363   3.525   5.269   1.214
 7822SOL     OW24364   1.036   5.606   5.069
 7822SOL    HW124365   1.078   5.693   5.096
 7822SOL    HW224366   1.006   5.557   5.151
 7823SOL     OW24367   2.094   4.082   5.161
 7823SOL    HW124368   2.181   4.044   5.128
 7823SOL    HW224369   2.112   4.149   5.233
 7824SOL     OW24370   0.460   2.831   5.562
 7824SOL    HW124371   0.472   2.916   5.613
 7824SOL    HW224372   0.518   2.759   5.602
 7825SOL     OW24373   2.544   1.762   6.779
 7825SOL    HW124374   2.538   1.848   6.729
 7825SOL    HW224375   2.452   1.725   6.793
 7826SOL     OW24376   6.876   2.405   6.778
 7826SOL    HW124377   6.943   2.391   6.851
 7826SOL    HW224378   6.889   2.335   6.707
 7827SOL     OW24379   6.895   6.101   3.373
 7827SOL    HW124380   6.980   6.097   3.321
 7827SOL    HW224381   6.903   6.169   3.445
 7828SOL     OW24382   0.243   4.097   6.614
 7828SOL    HW124383   0.281   4.080   6.705
 7828SOL    HW224384   0.317   4.108   6.548
 7829SOL     OW24385   3.195   2.754   1.229
 7829SOL    HW124386   3.277   2.715   1.187
 7829SOL    HW224387   3.133   2.680   1.256
 7830SOL     OW24388   2.741   4.919   4.399
 7830SOL    HW124389   2.832   4.959   4.395
 7830SOL    HW224390   2.729   4.855   4.323
 7831SOL     OW24391   2.143   2.163   0.885
 7831SOL    HW124392   2.137   2.105   0.966
 7831SOL    HW224393   2.052   2.197   0.861
 7832SOL     OW24394   5.381   0.406   5.026
 7832SOL    HW124395   5.323   0.485   5.005
 7832SOL    HW224396   5.368   0.336   4.957
 7833SOL     OW24397   2.132   0.625   4.024
 7833SOL    HW124398   2.218   0.641   3.976
 7833SOL    HW224399   2.135   0.668   4.114
 7834SOL     OW24400   6.427   2.866   4.705
 7834SOL    HW124401   6.517   2.898   4.677
 7834SOL    HW224402   6.427   2.846   4.803
 7835SOL     OW24403   4.550   1.810   4.975
 7835SOL    HW124404   4.639   1.776   5.005
 7835SOL    HW224405   4.497   1.734   4.937
 7836SOL     OW24406   3.839   4.260   5.131
 7836SOL    HW124407   3.808   4.199   5.057
 7836SOL    HW224408   3.787   4.345   5.128
 7837SOL     OW24409   6.117   6.422   6.644
 7837SOL    HW124410   6.100   6.354   6.573
 7837SOL    HW224411   6.207   6.463   6.630
 7838SOL     OW24412   5.216   5.479   0.957
 7838SOL    HW124413   5.159   5.557   0.985
 7838SOL    HW224414   5.293   5.470   1.020
 7839SOL     OW24415   5.928   4.007   4.737
 7839SOL    HW124416   5.905   4.096   4.699
 7839SOL    HW224417   5.863   3.939   4.704
 7840SOL     OW24418   2.127   3.455   3.361
 7840SOL    HW124419   2.142   3.368   3.408
 7840SOL    HW224420   2.152   3.446   3.265
 7841SOL     OW24421   5.127   2.385   5.796
 7841SOL    HW124422   5.044   2.384   5.851
 7841SOL    HW224423   5.106   2.417   5.704
 7842SOL     OW24424   1.945   1.391   2.308
 7842SOL    HW124425   1.895   1.440   2.379
 7842SOL    HW224426   1.881   1.336   2.253
 7843SOL     OW24427   0.210   6.545   3.364
 7843SOL    HW124428   0.290   6.571   3.310
 7843SOL    HW224429   0.178   6.455   3.335
 7844SOL     OW24430   3.838   0.699   2.424
 7844SOL    HW124431   3.747   0.741   2.416
 7844SOL    HW224432   3.890   0.746   2.495
 7845SOL     OW24433   6.019   1.902   1.475
 7845SOL    HW124434   6.096   1.840   1.490
 7845SOL    HW224435   6.054   1.991   1.448
 7846SOL     OW24436   0.650   2.617   0.227
 7846SOL    HW124437   0.658   2.519   0.213
 7846SOL    HW224438   0.584   2.635   0.300
 7847SOL     OW24439   5.401   2.619   4.305
 7847SOL    HW124440   5.403   2.578   4.214
 7847SOL    HW224441   5.333   2.573   4.362
 7848SOL     OW24442   2.769   4.871   0.863
 7848SOL    HW124443   2.824   4.791   0.842
 7848SOL    HW224444   2.731   4.864   0.955
 7849SOL     OW24445   4.448   3.786   6.081
 7849SOL    HW124446   4.438   3.873   6.033
 7849SOL    HW224447   4.480   3.803   6.174
 7850SOL     OW24448   6.511   1.614   3.328
 7850SOL    HW124449   6.505   1.657   3.238
 7850SOL    HW224450   6.463   1.527   3.326
 7851SOL     OW24451   0.909   4.307   1.853
 7851SOL    HW124452   0.887   4.257   1.936
 7851SOL    HW224453   1.008   4.305   1.839
 7852SOL     OW24454   2.046   2.319   0.405
 7852SOL    HW124455   2.034   2.231   0.359
 7852SOL    HW224456   2.134   2.320   0.451
 7853SOL     OW24457   3.957   2.960   1.515
 7853SOL    HW124458   3.881   2.895   1.527
 7853SOL    HW224459   4.029   2.940   1.581
 7854SOL     OW24460   5.116   2.113   5.760
 7854SOL    HW124461   5.131   2.212   5.753
 7854SOL    HW224462   5.132   2.071   5.671
 7855SOL     OW24463   5.527   6.906   4.446
 7855SOL    HW124464   5.536   6.932   4.350
 7855SOL    HW224465   5.551   6.983   4.504
 7856SOL     OW24466   1.777   5.680   4.747
 7856SOL    HW124467   1.717   5.732   4.686
 7856SOL    HW224468   1.864   5.728   4.757
 7857SOL     OW24469   5.157   4.121   0.314
 7857SOL    HW124470   5.228   4.102   0.246
 7857SOL    HW224471   5.146   4.042   0.374
 7858SOL     OW24472   0.826   5.321   5.989
 7858SOL    HW124473   0.827   5.253   5.916
 7858SOL    HW224474   0.859   5.409   5.954
 7859SOL     OW24475   5.142   2.648   6.762
 7859SOL    HW124476   5.086   2.565   6.759
 7859SOL    HW224477   5.084   2.726   6.787
 7860SOL     OW24478   2.884   0.810   4.454
 7860SOL    HW124479   2.790   0.783   4.434
 7860SOL    HW224480   2.890   0.910   4.457
 7861SOL     OW24481   2.581   6.554   1.060
 7861SOL    HW124482   2.665   6.556   1.007
 7861SOL    HW224483   2.590   6.614   1.140
 7862SOL     OW24484   2.811   6.544   0.906
 7862SOL    HW124485   2.839   6.501   0.820
 7862SOL    HW224486   2.845   6.489   0.983
 7863SOL     OW24487   6.846   4.021   3.777
 7863SOL    HW124488   6.765   4.032   3.834
 7863SOL    HW224489   6.893   3.936   3.802
 7864SOL     OW24490   2.577   6.475   5.485
 7864SOL    HW124491   2.651   6.512   5.429
 7864SOL    HW224492   2.571   6.376   5.470
 7865SOL     OW24493   6.425   5.845   3.968
 7865SOL    HW124494   6.457   5.857   3.874
 7865SOL    HW224495   6.399   5.934   4.006
 7866SOL     OW24496   1.056   0.426   6.307
 7866SOL    HW124497   1.132   0.414   6.370
 7866SOL    HW224498   1.087   0.410   6.213
 7867SOL     OW24499   5.612   0.083   3.677
 7867SOL    HW124500   5.689   0.084   3.613
 7867SOL    HW224501   5.606   7.018   3.721
 7868SOL     OW24502   3.610   6.514   1.125
 7868SOL    HW124503   3.608   6.468   1.214
 7868SOL    HW224504   3.703   6.544   1.105
 7869SOL     OW24505   5.227   4.006   5.980
 7869SOL    HW124506   5.275   3.918   5.980
 7869SOL    HW224507   5.275   4.070   5.921
 7870SOL     OW24508   4.870   5.801   5.201
 7870SOL    HW124509   4.935   5.871   5.228
 7870SOL    HW224510   4.842   5.748   5.281
 7871SOL     OW24511   5.300   1.670   1.653
 7871SOL    HW124512   5.218   1.614   1.660
 7871SOL    HW224513   5.274   1.767   1.650
 7872SOL     OW24514   1.984   6.488   2.720
 7872SOL    HW124515   1.885   6.482   2.730
 7872SOL    HW224516   2.015   6.579   2.750
 7873SOL     OW24517   6.646   1.259   0.406
 7873SOL    HW124518   6.603   1.219   0.325
 7873SOL    HW224519   6.659   1.357   0.392
 7874SOL     OW24520   5.625   2.565   1.021
 7874SOL    HW124521   5.624   2.508   0.938
 7874SOL    HW224522   5.556   2.532   1.085
 7875SOL     OW24523   4.450   4.197   6.251
 7875SOL    HW124524   4.358   4.200   6.291
 7875SOL    HW224525   4.446   4.149   6.163
 7876SOL     OW24526   0.599   0.386   2.377
 7876SOL    HW124527   0.679   0.330   2.358
 7876SOL    HW224528   0.554   0.411   2.291
 7877SOL     OW24529   6.593   1.692   3.080
 7877SOL    HW124530   6.678   1.642   3.092
 7877SOL    HW224531   6.537   1.647   3.010
 7878SOL     OW24532   4.615   4.711   3.433
 7878SOL    HW124533   4.591   4.797   3.479
 7878SOL    HW224534   4.610   4.724   3.334
 7879SOL     OW24535   2.572   4.562   3.285
 7879SOL    HW124536   2.483   4.571   3.332
 7879SOL    HW224537   2.584   4.467   3.255
 7880SOL     OW24538   1.425   4.074   1.715
 7880SOL    HW124539   1.329   4.094   1.698
 7880SOL    HW224540   1.482   4.124   1.649
 7881SOL     OW24541   5.046   3.994   3.871
 7881SOL    HW124542   5.006   4.085   3.883
 7881SOL    HW224543   4.973   3.926   3.868
 7882SOL     OW24544   1.943   3.385   1.641
 7882SOL    HW124545   1.897   3.472   1.620
 7882SOL    HW224546   2.041   3.401   1.653
 7883SOL     OW24547   0.705   1.226   5.276
 7883SOL    HW124548   0.683   1.312   5.230
 7883SOL    HW224549   0.800   1.201   5.257
 7884SOL     OW24550   0.291   3.092   4.794
 7884SOL    HW124551   0.197   3.106   4.825
 7884SOL    HW224552   0.293   3.085   4.694
 7885SOL     OW24553   5.853   5.764   7.014
 7885SOL    HW124554   5.831   5.717   6.929
 7885SOL    HW224555   5.930   5.717   0.034
 7886SOL     OW24556   4.579   5.594   0.216
 7886SOL    HW124557   4.569   5.644   0.130
 7886SOL    HW224558   4.671   5.553   0.221
 7887SOL     OW24559   4.706   2.047   0.117
 7887SOL    HW124560   4.608   2.059   0.101
 7887SOL    HW224561   4.737   2.113   0.185
 7888SOL     OW24562   4.440   0.780   3.974
 7888SOL    HW124563   4.352   0.776   3.927
 7888SOL    HW224564   4.425   0.798   4.071
 7889SOL     OW24565   0.158   6.488   2.405
 7889SOL    HW124566   0.163   6.572   2.351
 7889SOL    HW224567   0.248   6.467   2.442
 7890SOL     OW24568   1.835   3.809   2.274
 7890SOL    HW124569   1.840   3.814   2.374
 7890SOL    HW224570   1.851   3.715   2.245
 7891SOL     OW24571   2.385   4.763   2.245
 7891SOL    HW124572   2.436   4.679   2.265
 7891SOL    HW224573   2.365   4.766   2.147
 7892SOL     OW24574   2.081   2.250   5.969
 7892SOL    HW124575   2.130   2.246   6.056
 7892SOL    HW224576   2.139   2.214   5.896
 7893SOL     OW24577   6.184   6.416   1.085
 7893SOL    HW124578   6.213   6.511   1.084
 7893SOL    HW224579   6.109   6.404   1.150
 7894SOL     OW24580   2.659   6.656   1.948
 7894SOL    HW124581   2.714   6.678   1.868
 7894SOL    HW224582   2.636   6.559   1.947
 7895SOL     OW24583   6.849   1.138   4.751
 7895SOL    HW124584   6.909   1.190   4.690
 7895SOL    HW224585   6.755   1.142   4.716
 7896SOL     OW24586   4.874   3.817   5.794
 7896SOL    HW124587   4.789   3.868   5.777
 7896SOL    HW224588   4.944   3.848   5.730
 7897SOL     OW24589   2.669   3.003   6.804
 7897SOL    HW124590   2.743   3.014   6.738
 7897SOL    HW224591   2.598   2.944   6.765
 7898SOL     OW24592   4.062   2.236   3.617
 7898SOL    HW124593   4.139   2.258   3.557
 7898SOL    HW224594   3.985   2.204   3.563
 7899SOL     OW24595   5.419   2.122   2.563
 7899SOL    HW124596   5.341   2.162   2.612
 7899SOL    HW224597   5.466   2.194   2.512
 7900SOL     OW24598   1.991   6.014   1.281
 7900SOL    HW124599   2.048   6.006   1.363
 7900SOL    HW224600   1.958   6.108   1.272
 7901SOL     OW24601   6.628   6.351   6.579
 7901SOL    HW124602   6.594   6.309   6.495
 7901SOL    HW224603   6.632   6.451   6.567
 7902SOL     OW24604   4.457   4.084   0.222
 7902SOL    HW124605   4.523   4.013   0.198
 7902SOL    HW224606   4.491   4.173   0.191
 7903SOL     OW24607   6.142   1.842   7.024
 7903SOL    HW124608   6.073   1.809   0.064
 7903SOL    HW224609   6.179   1.765   6.973
 7904SOL     OW24610   6.872   1.258   2.229
 7904SOL    HW124611   6.897   1.213   2.315
 7904SOL    HW224612   6.955   1.284   2.181
 7905SOL     OW24613   3.956   0.846   1.285
 7905SOL    HW124614   3.924   0.760   1.325
 7905SOL    HW224615   3.957   0.917   1.355
 7906SOL     OW24616   5.573   6.164   0.006
 7906SOL    HW124617   5.481   6.138   0.036
 7906SOL    HW224618   5.598   6.110   6.950
 7907SOL     OW24619   0.128   3.192   2.674
 7907SOL    HW124620   0.182   3.116   2.639
 7907SOL    HW224621   0.064   3.158   2.743
 7908SOL     OW24622   6.529   2.104   3.831
 7908SOL    HW124623   6.440   2.139   3.859
 7908SOL    HW224624   6.528   2.086   3.732
 7909SOL     OW24625   4.568   4.556   4.679
 7909SOL    HW124626   4.563   4.538   4.777
 7909SOL    HW224627   4.505   4.631   4.655
 7910SOL     OW24628   5.241   3.347   5.515
 7910SOL    HW124629   5.181   3.296   5.577
 7910SOL    HW224630   5.210   3.334   5.421
 7911SOL     OW24631   6.331   4.570   0.082
 7911SOL    HW124632   6.353   4.505   0.156
 7911SOL    HW224633   6.258   4.531   0.025
 7912SOL     OW24634   6.195   4.738   6.180
 7912SOL    HW124635   6.234   4.763   6.268
 7912SOL    HW224636   6.190   4.818   6.121
 7913SOL     OW24637   6.882   5.589   6.464
 7913SOL    HW124638   6.902   5.527   6.541
 7913SOL    HW224639   6.797   5.560   6.420
 7914SOL     OW24640   6.007   3.805   1.253
 7914SOL    HW124641   5.967   3.758   1.174
 7914SOL    HW224642   5.934   3.834   1.315
 7915SOL     OW24643   3.885   1.913   3.323
 7915SOL    HW124644   3.884   1.890   3.226
 7915SOL    HW224645   3.821   1.853   3.372
 7916SOL     OW24646   5.432   3.932   5.442
 7916SOL    HW124647   5.516   3.956   5.491
 7916SOL    HW224648   5.449   3.853   5.383
 7917SOL     OW24649   3.520   3.700   4.282
 7917SOL    HW124650   3.528   3.614   4.333
 7917SOL    HW224651   3.436   3.699   4.229
 7918SOL     OW24652   5.923   1.631   2.590
 7918SOL    HW124653   6.002   1.649   2.533
 7918SOL    HW224654   5.839   1.638   2.536
 7919SOL     OW24655   5.354   5.068   1.910
 7919SOL    HW124656   5.310   5.039   1.825
 7919SOL    HW224657   5.308   5.150   1.945
 7920SOL     OW24658   0.658   4.877   1.142
 7920SOL    HW124659   0.596   4.809   1.181
 7920SOL    HW224660   0.630   4.896   1.048
 7921SOL     OW24661   2.133   0.063   1.231
 7921SOL    HW124662   2.075   7.007   1.221
 7921SOL    HW224663   2.076   0.146   1.222
 7922SOL     OW24664   1.098   5.704   6.498
 7922SOL    HW124665   1.180   5.719   6.553
 7922SOL    HW224666   1.036   5.782   6.508
 7923SOL     OW24667   1.335   1.487   3.475
 7923SOL    HW124668   1.385   1.574   3.474
 7923SOL    HW224669   1.242   1.502   3.510
 7924SOL     OW24670   2.885   0.082   4.112
 7924SOL    HW124671   2.930   0.109   4.197
 7924SOL    HW224672   2.925   7.021   4.079
 7925SOL     OW24673   6.128   1.620   5.917
 7925SOL    HW124674   6.201   1.668   5.868
 7925SOL    HW224675   6.166   1.540   5.964
 7926SOL     OW24676   4.143   0.344   2.202
 7926SOL    HW124677   4.173   0.415   2.139
 7926SOL    HW224678   4.078   0.283   2.156
 7927SOL     OW24679   4.756   5.283   4.364
 7927SOL    HW124680   4.756   5.186   4.387
 7927SOL    HW224681   4.803   5.335   4.435
 7928SOL     OW24682   1.672   5.465   2.046
 7928SOL    HW124683   1.768   5.477   2.070
 7928SOL    HW224684   1.644   5.536   1.981
 7929SOL     OW24685   3.871   3.507   4.292
 7929SOL    HW124686   3.830   3.424   4.255
 7929SOL    HW224687   3.962   3.520   4.252
 7930SOL     OW24688   5.096   5.492   3.703
 7930SOL    HW124689   5.070   5.395   3.706
 7930SOL    HW224690   5.017   5.547   3.675
 7931SOL     OW24691   2.599   1.856   0.654
 7931SOL    HW124692   2.674   1.841   0.718
 7931SOL    HW224693   2.514   1.824   0.696
 7932SOL     OW24694   2.189   0.289   0.617
 7932SOL    HW124695   2.161   0.242   0.533
 7932SOL    HW224696   2.229   0.223   0.681
 7933SOL     OW24697   1.084   0.561   6.625
 7933SOL    HW124698   0.990   0.525   6.623
 7933SOL    HW224699   1.086   0.650   6.580
 7934SOL     OW24700   2.514   3.779   6.487
 7934SOL    HW124701   2.473   3.690   6.471
 7934SOL    HW224702   2.540   3.788   6.583
 7935SOL     OW24703   4.563   6.477   1.884
 7935SOL    HW124704   4.482   6.432   1.846
 7935SOL    HW224705   4.560   6.471   1.983
 7936SOL     OW24706   4.214   5.575   3.068
 7936SOL    HW124707   4.205   5.640   3.143
 7936SOL    HW224708   4.138   5.510   3.072
 7937SOL     OW24709   6.415   6.434   5.849
 7937SOL    HW124710   6.477   6.361   5.820
 7937SOL    HW224711   6.450   6.522   5.818
 7938SOL     OW24712   4.512   5.280   4.682
 7938SOL    HW124713   4.481   5.268   4.588
 7938SOL    HW224714   4.503   5.194   4.732
 7939SOL     OW24715   1.399   0.820   5.586
 7939SOL    HW124716   1.418   0.858   5.676
 7939SOL    HW224717   1.482   0.823   5.530
 7940SOL     OW24718   1.974   5.658   0.974
 7940SOL    HW124719   1.972   5.753   0.944
 7940SOL    HW224720   1.979   5.598   0.894
 7941SOL     OW24721   0.255   0.826   0.786
 7941SOL    HW124722   0.318   0.885   0.736
 7941SOL    HW224723   0.161   0.857   0.772
 7942SOL     OW24724   0.085   0.555   1.817
 7942SOL    HW124725   0.112   0.475   1.764
 7942SOL    HW224726   7.021   0.588   1.785
 7943SOL     OW24727   5.084   1.524   1.126
 7943SOL    HW124728   5.153   1.585   1.165
 7943SOL    HW224729   5.097   1.432   1.162
 7944SOL     OW24730   0.757   4.613   1.307
 7944SOL    HW124731   0.807   4.626   1.392
 7944SOL    HW224732   0.678   4.554   1.323
 7945SOL     OW24733   5.675   6.650   2.752
 7945SOL    HW124734   5.618   6.623   2.674
 7945SOL    HW224735   5.731   6.729   2.726
 7946SOL     OW24736   1.778   2.175   5.930
 7946SOL    HW124737   1.832   2.258   5.912
 7946SOL    HW224738   1.722   2.188   6.011
 7947SOL     OW24739   4.065   3.196   6.456
 7947SOL    HW124740   4.126   3.220   6.381
 7947SOL    HW224741   3.973   3.228   6.436
 7948SOL     OW24742   0.217   6.697   0.692
 7948SOL    HW124743   0.207   6.598   0.703
 7948SOL    HW224744   0.129   6.737   0.666
 7949SOL     OW24745   5.247   4.643   3.607
 7949SOL    HW124746   5.223   4.692   3.690
 7949SOL    HW224747   5.195   4.680   3.530
 7950SOL     OW24748   3.848   5.184   4.056
 7950SOL    HW124749   3.764   5.235   4.039
 7950SOL    HW224750   3.911   5.196   3.980
 7951SOL     OW24751   3.538   3.718   1.029
 7951SOL    HW124752   3.597   3.647   0.992
 7951SOL    HW224753   3.583   3.763   1.107
 7952SOL     OW24754   5.821   2.990   1.096
 7952SOL    HW124755   5.888   3.011   1.168
 7952SOL    HW224756   5.853   3.028   1.009
 7953SOL     OW24757   2.240   2.407   3.180
 7953SOL    HW124758   2.233   2.390   3.082
 7953SOL    HW224759   2.328   2.451   3.199
 7954SOL     OW24760   3.968   5.174   4.779
 7954SOL    HW124761   3.998   5.130   4.695
 7954SOL    HW224762   4.048   5.200   4.833
 7955SOL     OW24763   0.897   6.223   6.413
 7955SOL    HW124764   0.899   6.245   6.316
 7955SOL    HW224765   0.990   6.216   6.448
 7956SOL     OW24766   6.154   6.492   4.276
 7956SOL    HW124767   6.172   6.590   4.278
 7956SOL    HW224768   6.103   6.469   4.194
 7957SOL     OW24769   1.230   1.793   1.331
 7957SOL    HW124770   1.208   1.723   1.263
 7957SOL    HW224771   1.325   1.823   1.319
 7958SOL     OW24772   2.752   4.733   2.925
 7958SOL    HW124773   2.688   4.656   2.931
 7958SOL    HW224774   2.779   4.761   3.017
 7959SOL     OW24775   6.212   4.828   0.761
 7959SOL    HW124776   6.157   4.909   0.741
 7959SOL    HW224777   6.159   4.746   0.739
 7960SOL     OW24778   2.599   1.640   1.392
 7960SOL    HW124779   2.617   1.559   1.337
 7960SOL    HW224780   2.524   1.622   1.456
 7961SOL     OW24781   1.785   5.761   6.385
 7961SOL    HW124782   1.767   5.859   6.399
 7961SOL    HW224783   1.872   5.751   6.335
 7962SOL     OW24784   1.084   1.206   2.142
 7962SOL    HW124785   1.042   1.119   2.168
 7962SOL    HW224786   1.023   1.256   2.080
 7963SOL     OW24787   0.638   0.931   5.661
 7963SOL    HW124788   0.717   0.871   5.650
 7963SOL    HW224789   0.556   0.877   5.676
 7964SOL     OW24790   6.104   5.370   3.963
 7964SOL    HW124791   6.080   5.339   4.054
 7964SOL    HW224792   6.061   5.311   3.894
 7965SOL     OW24793   5.276   2.534   0.271
 7965SOL    HW124794   5.351   2.506   0.211
 7965SOL    HW224795   5.191   2.537   0.218
 7966SOL     OW24796   6.805   4.725   3.990
 7966SOL    HW124797   6.767   4.643   3.945
 7966SOL    HW224798   6.744   4.753   4.063
 7967SOL     OW24799   3.021   6.601   2.409
 7967SOL    HW124800   3.100   6.610   2.349
 7967SOL    HW224801   2.949   6.549   2.362
 7968SOL     OW24802   2.114   1.939   2.782
 7968SOL    HW124803   2.177   1.927   2.705
 7968SOL    HW224804   2.160   1.985   2.857
 7969SOL     OW24805   3.309   1.739   3.579
 7969SOL    HW124806   3.400   1.775   3.597
 7969SOL    HW224807   3.316   1.642   3.556
 7970SOL     OW24808   0.332   4.526   3.011
 7970SOL    HW124809   0.349   4.552   3.107
 7970SOL    HW224810   0.266   4.588   2.971
 7971SOL     OW24811   3.409   0.694   1.309
 7971SOL    HW124812   3.339   0.722   1.244
 7971SOL    HW224813   3.499   0.699   1.266
 7972SOL     OW24814   0.298   4.652   1.561
 7972SOL    HW124815   0.383   4.672   1.609
 7972SOL    HW224816   0.227   4.630   1.628
 7973SOL     OW24817   4.853   3.046   3.566
 7973SOL    HW124818   4.844   3.135   3.610
 7973SOL    HW224819   4.913   3.054   3.486
 7974SOL     OW24820   5.057   0.543   4.071
 7974SOL    HW124821   5.016   0.472   4.013
 7974SOL    HW224822   5.072   0.506   4.163
 7975SOL     OW24823   3.270   1.407   4.237
 7975SOL    HW124824   3.279   1.506   4.223
 7975SOL    HW224825   3.284   1.360   4.150
 7976SOL     OW24826   0.730   5.690   5.602
 7976SOL    HW124827   0.747   5.659   5.508
 7976SOL    HW224828   0.806   5.746   5.633
 7977SOL     OW24829   5.472   6.225   1.661
 7977SOL    HW124830   5.535   6.231   1.584
 7977SOL    HW224831   5.379   6.212   1.628
 7978SOL     OW24832   4.587   3.597   5.921
 7978SOL    HW124833   4.673   3.569   5.963
 7978SOL    HW224834   4.544   3.669   5.975
 7979SOL     OW24835   3.066   0.148   4.295
 7979SOL    HW124836   3.036   0.187   4.382
 7979SOL    HW224837   3.117   0.064   4.313
 7980SOL     OW24838   3.538   6.198   0.549
 7980SOL    HW124839   3.571   6.186   0.455
 7980SOL    HW224840   3.438   6.187   0.550
 7981SOL     OW24841   1.058   4.999   2.468
 7981SOL    HW124842   1.035   4.903   2.487
 7981SOL    HW224843   1.148   5.004   2.426
 7982SOL     OW24844   6.476   2.186   0.665
 7982SOL    HW124845   6.464   2.129   0.583
 7982SOL    HW224846   6.459   2.131   0.746
 7983SOL     OW24847   5.210   2.110   2.387
 7983SOL    HW124848   5.253   2.187   2.342
 7983SOL    HW224849   5.273   2.072   2.455
 7984SOL     OW24850   0.523   2.055   1.988
 7984SOL    HW124851   0.519   1.995   1.909
 7984SOL    HW224852   0.450   2.032   2.052
 7985SOL     OW24853   0.710   1.364   2.523
 7985SOL    HW124854   0.808   1.344   2.522
 7985SOL    HW224855   0.692   1.439   2.587
 7986SOL     OW24856   4.221   1.202   6.599
 7986SOL    HW124857   4.267   1.268   6.658
 7986SOL    HW224858   4.150   1.248   6.545
 7987SOL     OW24859   0.654   2.893   5.348
 7987SOL    HW124860   0.593   2.893   5.269
 7987SOL    HW224861   0.600   2.902   5.432
 7988SOL     OW24862   2.580   1.697   4.505
 7988SOL    HW124863   2.597   1.749   4.589
 7988SOL    HW224864   2.582   1.759   4.427
 7989SOL     OW24865   3.309   2.379   5.693
 7989SOL    HW124866   3.348   2.360   5.603
 7989SOL    HW224867   3.278   2.294   5.735
 7990SOL     OW24868   1.487   2.540   4.694
 7990SOL    HW124869   1.426   2.551   4.772
 7990SOL    HW224870   1.492   2.627   4.643
 7991SOL     OW24871   0.669   2.752   6.130
 7991SOL    HW124872   0.618   2.667   6.120
 7991SOL    HW224873   0.623   2.811   6.197
 7992SOL     OW24874   2.295   6.982   0.996
 7992SOL    HW124875   2.376   6.937   1.035
 7992SOL    HW224876   2.227   6.995   1.068
 7993SOL     OW24877   2.040   6.400   0.018
 7993SOL    HW124878   1.940   6.402   0.016
 7993SOL    HW224879   2.075   6.395   6.949
 7994SOL     OW24880   4.942   1.395   3.881
 7994SOL    HW124881   4.939   1.452   3.800
 7994SOL    HW224882   5.014   1.427   3.942
 7995SOL     OW24883   2.785   5.049   3.879
 7995SOL    HW124884   2.839   4.970   3.908
 7995SOL    HW224885   2.699   5.018   3.839
 7996SOL     OW24886   3.791   6.970   5.152
 7996SOL    HW124887   3.834   6.956   5.241
 7996SOL    HW224888   3.862   6.995   5.085
 7997SOL     OW24889   5.834   2.705   1.070
 7997SOL    HW124890   5.805   2.784   1.123
 7997SOL    HW224891   5.754   2.654   1.038
 7998SOL     OW24892   5.865   4.604   0.107
 7998SOL    HW124893   5.768   4.585   0.124
 7998SOL    HW224894   5.909   4.626   0.194
 7999SOL     OW24895   1.389   6.908   5.426
 7999SOL    HW124896   1.411   6.845   5.500
 7999SOL    HW224897   1.318   6.972   5.456
 8000SOL     OW24898   6.261   6.850   5.609
 8000SOL    HW124899   6.263   6.880   5.704
 8000SOL    HW224900   6.287   6.926   5.549
 8001SOL     OW24901   2.111   6.929   1.614
 8001SOL    HW124902   2.020   6.897   1.590
 8001SOL    HW224903   2.162   6.855   1.657
 8002SOL     OW24904   5.985   2.714   4.976
 8002SOL    HW124905   5.992   2.728   5.074
 8002SOL    HW224906   6.074   2.688   4.938
 8003SOL     OW24907   3.306   4.909   3.225
 8003SOL    HW124908   3.386   4.884   3.281
 8003SOL    HW224909   3.231   4.847   3.246
 8004SOL     OW24910   2.101   3.821   3.045
 8004SOL    HW124911   2.058   3.813   2.955
 8004SOL    HW224912   2.123   3.916   3.064
 8005SOL     OW24913   3.030   1.069   1.463
 8005SOL    HW124914   3.123   1.090   1.493
 8005SOL    HW224915   3.017   0.970   1.463
 8006SOL     OW24916   3.105   5.928   0.533
 8006SOL    HW124917   3.083   5.951   0.439
 8006SOL    HW224918   3.022   5.901   0.582
 8007SOL     OW24919   0.310   0.319   4.389
 8007SOL    HW124920   0.353   0.409   4.380
 8007SOL    HW224921   0.381   0.250   4.406
 8008SOL     OW24922   6.254   6.579   0.336
 8008SOL    HW124923   6.268   6.670   0.376
 8008SOL    HW224924   6.337   6.552   0.286
 8009SOL     OW24925   6.999   6.962   3.957
 8009SOL    HW124926   7.015   6.864   3.951
 8009SOL    HW224927   6.997   7.001   3.864
 8010SOL     OW24928   1.925   2.547   0.446
 8010SOL    HW124929   1.975   2.604   0.381
 8010SOL    HW224930   1.953   2.451   0.434
 8011SOL     OW24931   3.204   2.355   1.212
 8011SOL    HW124932   3.241   2.360   1.304
 8011SOL    HW224933   3.140   2.278   1.207
 8012SOL     OW24934   2.680   6.301   1.580
 8012SOL    HW124935   2.683   6.206   1.613
 8012SOL    HW224936   2.635   6.304   1.491
 8013SOL     OW24937   5.798   4.706   4.561
 8013SOL    HW124938   5.765   4.667   4.475
 8013SOL    HW224939   5.781   4.642   4.635
 8014SOL     OW24940   2.272   6.834   6.907
 8014SOL    HW124941   2.254   6.912   6.967
 8014SOL    HW224942   2.370   6.828   6.888
 8015SOL     OW24943   2.529   2.625   0.304
 8015SOL    HW124944   2.497   2.642   0.211
 8015SOL    HW224945   2.544   2.527   0.317
 8016SOL     OW24946   4.389   6.431   6.918
 8016SOL    HW124947   4.473   6.426   6.972
 8016SOL    HW224948   4.401   6.494   6.842
 8017SOL     OW24949   6.167   4.082   4.851
 8017SOL    HW124950   6.233   4.035   4.794
 8017SOL    HW224951   6.074   4.053   4.826
 8018SOL     OW24952   4.813   1.726   5.240
 8018SOL    HW124953   4.906   1.706   5.270
 8018SOL    HW224954   4.748   1.698   5.310
 8019SOL     OW24955   1.849   5.844   0.477
 8019SOL    HW124956   1.754   5.811   0.482
 8019SOL    HW224957   1.908   5.771   0.442
 8020SOL     OW24958   4.954   5.367   6.992
 8020SOL    HW124959   5.002   5.452   6.974
 8020SOL    HW224960   4.990   5.325   0.051
 8021SOL     OW24961   0.795   0.920   0.805
 8021SOL    HW124962   0.837   0.837   0.770
 8021SOL    HW224963   0.845   0.952   0.885
 8022SOL     OW24964   4.528   6.488   3.127
 8022SOL    HW124965   4.465   6.410   3.126
 8022SOL    HW224966   4.601   6.470   3.194
 8023SOL     OW24967   5.845   5.617   2.871
 8023SOL    HW124968   5.945   5.613   2.874
 8023SOL    HW224969   5.813   5.688   2.934
 8024SOL     OW24970   4.888   5.153   5.360
 8024SOL    HW124971   4.805   5.152   5.304
 8024SOL    HW224972   4.947   5.229   5.331
 8025SOL     OW24973   3.835   5.580   6.633
 8025SOL    HW124974   3.916   5.537   6.672
 8025SOL    HW224975   3.825   5.552   6.537
 8026SOL     OW24976   1.285   3.351   0.056
 8026SOL    HW124977   1.316   3.306   0.140
 8026SOL    HW224978   1.285   3.286   7.005
 8027SOL     OW24979   4.828   1.667   4.975
 8027SOL    HW124980   4.901   1.605   4.945
 8027SOL    HW224981   4.849   1.699   5.068
 8028SOL     OW24982   4.683   4.916   6.710
 8028SOL    HW124983   4.654   4.852   6.638
 8028SOL    HW224984   4.744   4.868   6.774
 8029SOL     OW24985   4.109   4.372   0.433
 8029SOL    HW124986   4.184   4.363   0.368
 8029SOL    HW224987   4.047   4.294   0.423
 8030SOL     OW24988   5.612   4.037   6.297
 8030SOL    HW124989   5.623   3.990   6.209
 8030SOL    HW224990   5.577   4.129   6.281
 8031SOL     OW24991   3.673   5.448   1.535
 8031SOL    HW124992   3.605   5.388   1.494
 8031SOL    HW224993   3.737   5.394   1.589
 8032SOL     OW24994   5.358   4.208   5.491
 8032SOL    HW124995   5.262   4.209   5.461
 8032SOL    HW224996   5.401   4.123   5.461
 8033SOL     OW24997   5.791   2.355   0.298
 8033SOL    HW124998   5.856   2.410   0.350
 8033SOL    HW224999   5.834   2.319   0.216
 8034SOL     OW25000   5.372   6.792   4.657
 8034SOL    HW125001   5.461   6.799   4.703
 8034SOL    HW225002   5.376   6.841   4.570
 8035SOL     OW25003   5.569   6.514   6.801
 8035SOL    HW125004   5.642   6.581   6.818
 8035SOL    HW225005   5.558   6.457   6.883
 8036SOL     OW25006   2.063   4.184   1.670
 8036SOL    HW125007   2.006   4.183   1.752
 8036SOL    HW225008   2.006   4.193   1.589
 8037SOL     OW25009   1.707   2.882   1.134
 8037SOL    HW125010   1.687   2.833   1.219
 8037SOL    HW225011   1.764   2.962   1.154
 8038SOL     OW25012   0.538   2.164   3.735
 8038SOL    HW125013   0.554   2.258   3.703
 8038SOL    HW225014   0.441   2.150   3.752
 8039SOL     OW25015   2.322   6.926   3.356
 8039SOL    HW125016   2.266   6.883   3.286
 8039SOL    HW225017   2.418   6.923   3.328
 8040SOL     OW25018   0.282   5.743   1.000
 8040SOL    HW125019   0.335   5.713   0.921
 8040SOL    HW225020   0.326   5.713   1.084
 8041SOL     OW25021   4.451   1.222   0.441
 8041SOL    HW125022   4.366   1.194   0.487
 8041SOL    HW225023   4.527   1.165   0.473
 8042SOL     OW25024   3.273   2.896   2.291
 8042SOL    HW125025   3.235   2.968   2.232
 8042SOL    HW225026   3.296   2.816   2.235
 8043SOL     OW25027   2.815   0.286   1.613
 8043SOL    HW125028   2.743   0.287   1.683
 8043SOL    HW225029   2.851   0.379   1.601
 8044SOL     OW25030   3.089   3.741   1.202
 8044SOL    HW125031   3.080   3.840   1.204
 8044SOL    HW225032   3.152   3.714   1.130
 8045SOL     OW25033   5.396   2.571   3.187
 8045SOL    HW125034   5.316   2.514   3.204
 8045SOL    HW225035   5.368   2.660   3.150
 8046SOL     OW25036   6.204   4.743   5.600
 8046SOL    HW125037   6.211   4.758   5.501
 8046SOL    HW225038   6.197   4.831   5.646
 8047SOL     OW25039   3.757   5.649   4.188
 8047SOL    HW125040   3.825   5.626   4.257
 8047SOL    HW225041   3.786   5.613   4.099
 8048SOL     OW25042   6.430   6.892   5.169
 8048SOL    HW125043   6.386   6.921   5.253
 8048SOL    HW225044   6.372   6.914   5.091
 8049SOL     OW25045   1.311   6.456   1.065
 8049SOL    HW125046   1.383   6.411   1.118
 8049SOL    HW225047   1.316   6.555   1.079
 8050SOL     OW25048   1.939   3.555   1.265
 8050SOL    HW125049   2.014   3.502   1.226
 8050SOL    HW225050   1.971   3.647   1.289
 8051SOL     OW25051   4.755   0.921   3.228
 8051SOL    HW125052   4.753   0.994   3.160
 8051SOL    HW225053   4.847   0.913   3.266
 8052SOL     OW25054   3.117   1.525   2.902
 8052SOL    HW125055   3.076   1.547   2.991
 8052SOL    HW225056   3.052   1.473   2.846
 8053SOL     OW25057   3.861   3.970   2.930
 8053SOL    HW125058   3.767   3.941   2.913
 8053SOL    HW225059   3.879   3.968   3.028
 8054SOL     OW25060   4.759   6.783   4.474
 8054SOL    HW125061   4.789   6.730   4.554
 8054SOL    HW225062   4.717   6.722   4.407
 8055SOL     OW25063   1.581   6.946   6.131
 8055SOL    HW125064   1.560   0.014   6.101
 8055SOL    HW225065   1.618   6.894   6.054
 8056SOL     OW25066   4.094   1.653   2.875
 8056SOL    HW125067   4.189   1.674   2.899
 8056SOL    HW225068   4.034   1.676   2.952
 8057SOL     OW25069   3.235   6.736   3.419
 8057SOL    HW125070   3.209   6.692   3.505
 8057SOL    HW225071   3.190   6.825   3.412
 8058SOL     OW25072   3.094   1.056   2.102
 8058SOL    HW125073   3.085   1.096   2.011
 8058SOL    HW225074   3.087   1.128   2.171
 8059SOL     OW25075   3.174   1.977   4.400
 8059SOL    HW125076   3.235   1.901   4.421
 8059SOL    HW225077   3.125   2.005   4.483
 8060SOL     OW25078   6.917   0.865   4.769
 8060SOL    HW125079   6.889   0.957   4.796
 8060SOL    HW225080   6.835   0.807   4.761
 8061SOL     OW25081   6.471   5.695   3.115
 8061SOL    HW125082   6.534   5.773   3.112
 8061SOL    HW225083   6.433   5.686   3.207
 8062SOL     OW25084   1.470   4.275   3.719
 8062SOL    HW125085   1.419   4.254   3.803
 8062SOL    HW225086   1.546   4.336   3.741
 8063SOL     OW25087   2.828   2.962   6.583
 8063SOL    HW125088   2.915   3.000   6.551
 8063SOL    HW225089   2.763   2.959   6.507
 8064SOL     OW25090   6.972   3.431   0.337
 8064SOL    HW125091   6.882   3.428   0.380
 8064SOL    HW225092   0.013   3.470   0.401
 8065SOL     OW25093   5.002   6.929   4.773
 8065SOL    HW125094   5.031   6.843   4.731
 8065SOL    HW225095   5.077   6.965   4.830
 8066SOL     OW25096   1.589   1.029   1.762
 8066SOL    HW125097   1.646   1.110   1.777
 8066SOL    HW225098   1.561   0.991   1.850
 8067SOL     OW25099   4.874   2.639   1.553
 8067SOL    HW125100   4.964   2.615   1.588
 8067SOL    HW225101   4.804   2.605   1.616
 8068SOL     OW25102   1.099   4.371   4.935
 8068SOL    HW125103   1.032   4.318   4.883
 8068SOL    HW225104   1.124   4.321   5.018
 8069SOL     OW25105   1.205   6.275   1.881
 8069SOL    HW125106   1.235   6.208   1.949
 8069SOL    HW225107   1.184   6.362   1.927
 8070SOL     OW25108   3.910   6.380   1.422
 8070SOL    HW125109   3.905   6.281   1.411
 8070SOL    HW225110   3.851   6.408   1.498
 8071SOL     OW25111   3.603   0.224   6.122
 8071SOL    HW125112   3.618   0.128   6.147
 8071SOL    HW225113   3.505   0.244   6.127
 8072SOL     OW25114   5.115   1.478   0.585
 8072SOL    HW125115   5.204   1.450   0.621
 8072SOL    HW225116   5.121   1.489   0.486
 8073SOL     OW25117   4.139   6.584   5.806
 8073SOL    HW125118   4.172   6.492   5.786
 8073SOL    HW225119   4.212   6.639   5.846
 8074SOL     OW25120   3.571   3.544   0.241
 8074SOL    HW125121   3.500   3.544   0.311
 8074SOL    HW225122   3.629   3.624   0.252
 8075SOL     OW25123   6.891   1.442   2.744
 8075SOL    HW125124   6.859   1.400   2.829
 8075SOL    HW225125   6.931   1.372   2.685
 8076SOL     OW25126   5.655   2.789   5.587
 8076SOL    HW125127   5.570   2.803   5.536
 8076SOL    HW225128   5.730   2.837   5.541
 8077SOL     OW25129   1.046   0.173   0.989
 8077SOL    HW125130   1.016   0.254   1.039
 8077SOL    HW225131   0.988   0.160   0.909
 8078SOL     OW25132   6.231   2.407   1.179
 8078SOL    HW125133   6.290   2.452   1.112
 8078SOL    HW225134   6.136   2.431   1.162
 8079SOL     OW25135   6.638   1.971   2.459
 8079SOL    HW125136   6.724   1.980   2.509
 8079SOL    HW225137   6.637   1.883   2.411
 8080SOL     OW25138   3.364   4.570   0.379
 8080SOL    HW125139   3.382   4.474   0.354
 8080SOL    HW225140   3.423   4.629   0.324
 8081SOL     OW25141   6.020   0.621   5.153
 8081SOL    HW125142   5.967   0.591   5.232
 8081SOL    HW225143   6.118   0.616   5.175
 8082SOL     OW25144   6.910   2.728   3.591
 8082SOL    HW125145   6.893   2.635   3.559
 8082SOL    HW225146   6.865   2.793   3.530
 8083SOL     OW25147   4.445   2.435   3.470
 8083SOL    HW125148   4.469   2.448   3.566
 8083SOL    HW225149   4.370   2.370   3.463
 8084SOL     OW25150   6.817   6.591   1.543
 8084SOL    HW125151   6.901   6.637   1.574
 8084SOL    HW225152   6.739   6.627   1.594
 8085SOL     OW25153   5.703   0.537   1.068
 8085SOL    HW125154   5.721   0.636   1.073
 8085SOL    HW225155   5.775   0.488   1.117
 8086SOL     OW25156   3.747   0.893   5.191
 8086SOL    HW125157   3.768   0.876   5.095
 8086SOL    HW225158   3.695   0.978   5.199
 8087SOL     OW25159   2.874   2.274   1.605
 8087SOL    HW125160   2.810   2.343   1.640
 8087SOL    HW225161   2.942   2.253   1.675
 8088SOL     OW25162   4.620   1.104   2.519
 8088SOL    HW125163   4.535   1.151   2.545
 8088SOL    HW225164   4.598   1.013   2.484
 8089SOL     OW25165   5.839   2.960   0.182
 8089SOL    HW125166   5.873   2.986   0.091
 8089SOL    HW225167   5.809   2.865   0.180
 8090SOL     OW25168   5.074   1.839   5.671
 8090SOL    HW125169   5.144   1.839   5.599
 8090SOL    HW225170   5.080   1.754   5.724
 8091SOL     OW25171   2.673   5.030   5.848
 8091SOL    HW125172   2.689   4.985   5.936
 8091SOL    HW225173   2.745   5.004   5.784
 8092SOL     OW25174   1.616   1.880   4.924
 8092SOL    HW125175   1.674   1.800   4.936
 8092SOL    HW225176   1.651   1.955   4.981
 8093SOL     OW25177   5.432   5.385   1.134
 8093SOL    HW125178   5.521   5.431   1.133
 8093SOL    HW225179   5.440   5.299   1.183
 8094SOL     OW25180   1.234   3.984   5.822
 8094SOL    HW125181   1.321   3.944   5.792
 8094SOL    HW225182   1.251   4.050   5.894
 8095SOL     OW25183   5.506   3.377   4.329
 8095SOL    HW125184   5.562   3.459   4.338
 8095SOL    HW225185   5.505   3.348   4.233
 8096SOL     OW25186   3.467   6.343   1.919
 8096SOL    HW125187   3.479   6.246   1.938
 8096SOL    HW225188   3.371   6.367   1.933
 8097SOL     OW25189   4.993   1.117   3.831
 8097SOL    HW125190   4.975   1.215   3.838
 8097SOL    HW225191   5.039   1.085   3.913
 8098SOL     OW25192   3.172   6.628   3.941
 8098SOL    HW125193   3.193   6.651   3.846
 8098SOL    HW225194   3.204   6.702   4.001
 8099SOL     OW25195   4.258   0.008   5.301
 8099SOL    HW125196   4.241   0.026   5.398
 8099SOL    HW225197   4.247   6.934   5.284
 8100SOL     OW25198   0.413   6.467   0.702
 8100SOL    HW125199   0.397   6.445   0.605
 8100SOL    HW225200   0.493   6.526   0.709
 8101SOL     OW25201   1.629   6.446   3.743
 8101SOL    HW125202   1.709   6.415   3.692
 8101SOL    HW225203   1.548   6.445   3.684
 8102SOL     OW25204   6.464   5.865   5.836
 8102SOL    HW125205   6.476   5.781   5.889
 8102SOL    HW225206   6.374   5.864   5.793
 8103SOL     OW25207   3.281   1.526   2.584
 8103SOL    HW125208   3.299   1.547   2.680
 8103SOL    HW225209   3.357   1.560   2.528
 8104SOL     OW25210   2.717   6.865   6.256
 8104SOL    HW125211   2.717   6.798   6.181
 8104SOL    HW225212   2.642   6.930   6.243
 8105SOL     OW25213   2.388   1.913   3.650
 8105SOL    HW125214   2.473   1.861   3.652
 8105SOL    HW225215   2.401   2.001   3.696
 8106SOL     OW25216   1.415   4.126   4.045
 8106SOL    HW125217   1.397   4.042   3.994
 8106SOL    HW225218   1.513   4.148   4.040
 8107SOL     OW25219   1.869   6.457   6.050
 8107SOL    HW125220   1.786   6.424   6.005
 8107SOL    HW225221   1.924   6.511   5.986
 8108SOL     OW25222   0.947   3.259   4.183
 8108SOL    HW125223   1.029   3.316   4.175
 8108SOL    HW225224   0.958   3.196   4.259
 8109SOL     OW25225   1.451   4.852   4.827
 8109SOL    HW125226   1.396   4.923   4.783
 8109SOL    HW225227   1.453   4.770   4.770
 8110SOL     OW25228   2.291   5.548   0.407
 8110SOL    HW125229   2.302   5.646   0.391
 8110SOL    HW225230   2.194   5.525   0.407
 8111SOL     OW25231   2.650   5.141   4.622
 8111SOL    HW125232   2.712   5.174   4.693
 8111SOL    HW225233   2.656   5.041   4.617
 8112SOL     OW25234   2.208   0.800   4.917
 8112SOL    HW125235   2.147   0.822   4.993
 8112SOL    HW225236   2.276   0.872   4.907
 8113SOL     OW25237   3.834   2.689   6.037
 8113SOL    HW125238   3.775   2.730   6.107
 8113SOL    HW225239   3.860   2.759   5.970
 8114SOL     OW25240   2.098   3.022   2.017
 8114SOL    HW125241   2.191   3.055   2.003
 8114SOL    HW225242   2.040   3.055   1.942
 8115SOL     OW25243   3.362   1.752   1.137
 8115SOL    HW125244   3.401   1.663   1.112
 8115SOL    HW225245   3.293   1.740   1.208
 8116SOL     OW25246   5.828   0.455   5.304
 8116SOL    HW125247   5.836   0.381   5.371
 8116SOL    HW225248   5.754   0.433   5.240
 8117SOL     OW25249   1.468   1.982   5.274
 8117SOL    HW125250   1.536   1.979   5.348
 8117SOL    HW225251   1.416   2.067   5.280
 8118SOL     OW25252   0.528   3.658   5.231
 8118SOL    HW125253   0.591   3.615   5.295
 8118SOL    HW225254   0.486   3.589   5.172
 8119SOL     OW25255   0.626   6.304   2.777
 8119SOL    HW125256   0.657   6.247   2.700
 8119SOL    HW225257   0.580   6.247   2.845
 8120SOL     OW25258   4.597   4.035   1.580
 8120SOL    HW125259   4.522   3.982   1.619
 8120SOL    HW225260   4.578   4.133   1.591
 8121SOL     OW25261   6.190   0.674   2.644
 8121SOL    HW125262   6.114   0.736   2.622
 8121SOL    HW225263   6.214   0.621   2.563
 8122SOL     OW25264   6.517   6.420   2.257
 8122SOL    HW125265   6.531   6.383   2.349
 8122SOL    HW225266   6.421   6.444   2.245
 8123SOL     OW25267   1.776   6.393   0.011
 8123SOL    HW125268   1.762   6.374   6.938
 8123SOL    HW225269   1.724   6.474   0.037
 8124SOL     OW25270   1.333   6.222   2.156
 8124SOL    HW125271   1.415   6.167   2.150
 8124SOL    HW225272   1.355   6.318   2.137
 8125SOL     OW25273   5.727   5.384   2.910
 8125SOL    HW125274   5.766   5.466   2.868
 8125SOL    HW225275   5.797   5.337   2.964
 8126SOL     OW25276   5.520   4.601   2.771
 8126SOL    HW125277   5.454   4.676   2.762
 8126SOL    HW225278   5.527   4.553   2.683
 8127SOL     OW25279   2.099   5.002   7.014
 8127SOL    HW125280   2.042   4.944   0.048
 8127SOL    HW225281   2.161   4.945   6.960
 8128SOL     OW25282   3.883   2.532   5.303
 8128SOL    HW125283   3.847   2.624   5.287
 8128SOL    HW225284   3.970   2.521   5.255
 8129SOL     OW25285   5.219   0.346   6.385
 8129SOL    HW125286   5.154   0.296   6.441
 8129SOL    HW225287   5.198   0.444   6.388
 8130SOL     OW25288   1.539   5.876   6.910
 8130SOL    HW125289   1.615   5.926   6.952
 8130SOL    HW225290   1.464   5.869   6.975
 8131SOL     OW25291   2.918   1.067   0.580
 8131SOL    HW125292   2.893   0.975   0.610
 8131SOL    HW225293   2.844   1.107   0.527
 8132SOL     OW25294   6.230   5.139   3.812
 8132SOL    HW125295   6.257   5.175   3.901
 8132SOL    HW225296   6.162   5.067   3.826
 8133SOL     OW25297   2.140   5.566   2.367
 8133SOL    HW125298   2.073   5.498   2.337
 8133SOL    HW225299   2.093   5.642   2.412
 8134SOL     OW25300   2.383   2.684   3.685
 8134SOL    HW125301   2.459   2.620   3.682
 8134SOL    HW225302   2.339   2.680   3.775
 8135SOL     OW25303   4.091   5.482   1.900
 8135SOL    HW125304   4.148   5.562   1.886
 8135SOL    HW225305   4.116   5.438   1.987
 8136SOL     OW25306   4.307   5.802   2.398
 8136SOL    HW125307   4.227   5.848   2.435
 8136SOL    HW225308   4.309   5.707   2.432
 8137SOL     OW25309   2.284   4.268   4.912
 8137SOL    HW125310   2.293   4.311   5.002
 8137SOL    HW225311   2.263   4.171   4.924
 8138SOL     OW25312   4.845   1.080   2.767
 8138SOL    HW125313   4.839   0.998   2.710
 8138SOL    HW225314   4.936   1.121   2.759
 8139SOL     OW25315   1.499   1.998   3.412
 8139SOL    HW125316   1.588   1.985   3.455
 8139SOL    HW225317   1.492   1.941   3.330
 8140SOL     OW25318   4.596   1.106   0.920
 8140SOL    HW125319   4.584   1.198   0.882
 8140SOL    HW225320   4.520   1.048   0.893
 8141SOL     OW25321   5.051   1.139   5.114
 8141SOL    HW125322   5.076   1.130   5.018
 8141SOL    HW225323   4.976   1.077   5.135
 8142SOL     OW25324   1.982   5.671   0.344
 8142SOL    HW125325   1.963   5.584   0.297
 8142SOL    HW225326   2.028   5.734   0.282
 8143SOL     OW25327   5.437   4.642   0.863
 8143SOL    HW125328   5.427   4.739   0.839
 8143SOL    HW225329   5.375   4.588   0.806
 8144SOL     OW25330   6.843   4.686   6.270
 8144SOL    HW125331   6.823   4.694   6.368
 8144SOL    HW225332   6.772   4.631   6.225
 8145SOL     OW25333   5.109   5.569   6.903
 8145SOL    HW125334   5.063   5.563   6.814
 8145SOL    HW225335   5.179   5.640   6.900
 8146SOL     OW25336   5.986   0.446   4.630
 8146SOL    HW125337   6.080   0.476   4.614
 8146SOL    HW225338   5.972   0.432   4.728
 8147SOL     OW25339   1.694   0.772   5.915
 8147SOL    HW125340   1.620   0.808   5.859
 8147SOL    HW225341   1.669   0.777   6.012
 8148SOL     OW25342   4.034   4.878   0.067
 8148SOL    HW125343   4.028   4.974   0.040
 8148SOL    HW225344   4.122   4.840   0.037
 8149SOL     OW25345   0.970   5.929   4.716
 8149SOL    HW125346   0.870   5.924   4.707
 8149SOL    HW225347   1.009   5.839   4.700
 8150SOL     OW25348   0.910   3.059   0.655
 8150SOL    HW125349   0.869   3.108   0.578
 8150SOL    HW225350   0.857   2.977   0.674
 8151SOL     OW25351   6.488   4.973   3.369
 8151SOL    HW125352   6.432   4.907   3.319
 8151SOL    HW225353   6.441   4.997   3.455
 8152SOL     OW25354   4.500   1.719   3.281
 8152SOL    HW125355   4.434   1.662   3.232
 8152SOL    HW225356   4.590   1.710   3.238
 8153SOL     OW25357   0.279   2.077   3.754
 8153SOL    HW125358   0.209   2.118   3.812
 8153SOL    HW225359   0.256   1.981   3.736
 8154SOL     OW25360   1.941   1.305   3.792
 8154SOL    HW125361   1.982   1.396   3.792
 8154SOL    HW225362   1.998   1.243   3.737
 8155SOL     OW25363   1.342   5.333   2.425
 8155SOL    HW125364   1.414   5.402   2.432
 8155SOL    HW225365   1.380   5.251   2.382
 8156SOL     OW25366   6.339   5.409   1.278
 8156SOL    HW125367   6.294   5.407   1.367
 8156SOL    HW225368   6.418   5.348   1.279
 8157SOL     OW25369   6.762   2.778   5.936
 8157SOL    HW125370   6.833   2.743   5.875
 8157SOL    HW225371   6.765   2.878   5.936
 8158SOL     OW25372   5.309   4.914   6.474
 8158SOL    HW125373   5.352   4.941   6.388
 8158SOL    HW225374   5.216   4.951   6.478
 8159SOL     OW25375   3.090   6.090   5.331
 8159SOL    HW125376   3.149   6.055   5.258
 8159SOL    HW225377   3.128   6.063   5.420
 8160SOL     OW25378   4.863   1.271   3.413
 8160SOL    HW125379   4.856   1.344   3.482
 8160SOL    HW225380   4.850   1.182   3.457
 8161SOL     OW25381   5.834   2.785   1.349
 8161SOL    HW125382   5.906   2.853   1.336
 8161SOL    HW225383   5.771   2.817   1.421
 8162SOL     OW25384   0.179   4.813   6.335
 8162SOL    HW125385   0.122   4.772   6.406
 8162SOL    HW225386   0.204   4.906   6.361
 8163SOL     OW25387   4.788   4.610   5.049
 8163SOL    HW125388   4.825   4.565   5.130
 8163SOL    HW225389   4.860   4.622   4.981
 8164SOL     OW25390   5.433   1.061   0.229
 8164SOL    HW125391   5.532   1.073   0.234
 8164SOL    HW225392   5.397   1.036   0.319
 8165SOL     OW25393   6.847   1.527   6.955
 8165SOL    HW125394   6.921   1.594   6.963
 8165SOL    HW225395   6.759   1.573   6.959
 8166SOL     OW25396   1.867   2.270   5.024
 8166SOL    HW125397   1.877   2.171   5.033
 8166SOL    HW225398   1.790   2.301   5.080
 8167SOL     OW25399   0.356   2.523   4.238
 8167SOL    HW125400   0.307   2.568   4.163
 8167SOL    HW225401   0.421   2.457   4.201
 8168SOL     OW25402   2.616   0.748   1.801
 8168SOL    HW125403   2.706   0.788   1.817
 8168SOL    HW225404   2.590   0.763   1.705
 8169SOL     OW25405   5.050   2.777   1.070
 8169SOL    HW125406   5.132   2.822   1.106
 8169SOL    HW225407   4.999   2.736   1.146
 8170SOL     OW25408   6.159   4.768   2.341
 8170SOL    HW125409   6.066   4.798   2.323
 8170SOL    HW225410   6.193   4.715   2.264
 8171SOL     OW25411   1.852   1.004   0.626
 8171SOL    HW125412   1.779   1.002   0.693
 8171SOL    HW225413   1.940   1.012   0.673
 8172SOL     OW25414   0.672   2.989   1.793
 8172SOL    HW125415   0.604   2.999   1.865
 8172SOL    HW225416   0.739   3.062   1.801
 8173SOL     OW25417   5.445   1.130   1.751
 8173SOL    HW125418   5.517   1.141   1.819
 8173SOL    HW225419   5.355   1.136   1.795
 8174SOL     OW25420   2.821   5.310   2.629
 8174SOL    HW125421   2.741   5.356   2.589
 8174SOL    HW225422   2.824   5.215   2.598
 8175SOL     OW25423   0.614   1.616   4.930
 8175SOL    HW125424   0.547   1.569   4.871
 8175SOL    HW225425   0.695   1.639   4.876
 8176SOL     OW25426   1.923   4.360   0.760
 8176SOL    HW125427   1.841   4.355   0.703
 8176SOL    HW225428   1.957   4.268   0.780
 8177SOL     OW25429   4.008   1.246   2.622
 8177SOL    HW125430   4.036   1.341   2.633
 8177SOL    HW225431   4.078   1.186   2.661
 8178SOL     OW25432   2.120   6.403   0.947
 8178SOL    HW125433   2.216   6.430   0.940
 8178SOL    HW225434   2.061   6.480   0.922
 8179SOL     OW25435   5.423   1.005   3.466
 8179SOL    HW125436   5.338   1.052   3.441
 8179SOL    HW225437   5.438   0.928   3.404
 8180SOL     OW25438   4.653   6.415   7.009
 8180SOL    HW125439   4.738   6.377   6.972
 8180SOL    HW225440   4.649   6.398   0.083
 8181SOL     OW25441   0.659   1.091   0.671
 8181SOL    HW125442   0.581   1.136   0.714
 8181SOL    HW225443   0.705   1.032   0.737
 8182SOL     OW25444   3.003   3.729   4.802
 8182SOL    HW125445   2.946   3.774   4.872
 8182SOL    HW225446   3.099   3.751   4.818
 8183SOL     OW25447   6.759   0.257   4.987
 8183SOL    HW125448   6.824   0.240   5.062
 8183SOL    HW225449   6.788   0.207   4.906
 8184SOL     OW25450   0.702   6.006   6.633
 8184SOL    HW125451   0.665   6.074   6.569
 8184SOL    HW225452   0.691   6.039   6.727
 8185SOL     OW25453   0.810   6.853   7.018
 8185SOL    HW125454   0.849   6.910   0.066
 8185SOL    HW225455   0.809   6.757   0.022
 8186SOL     OW25456   1.229   5.242   6.789
 8186SOL    HW125457   1.324   5.226   6.762
 8186SOL    HW225458   1.185   5.155   6.810
 8187SOL     OW25459   0.946   0.687   6.308
 8187SOL    HW125460   0.998   0.601   6.301
 8187SOL    HW225461   0.848   0.667   6.298
 8188SOL     OW25462   2.727   1.932   3.577
 8188SOL    HW125463   2.704   1.842   3.615
 8188SOL    HW225464   2.705   2.003   3.643
 8189SOL     OW25465   4.931   4.665   3.948
 8189SOL    HW125466   4.903   4.721   3.869
 8189SOL    HW225467   5.020   4.624   3.930
 8190SOL     OW25468   6.297   3.532   3.254
 8190SOL    HW125469   6.205   3.501   3.231
 8190SOL    HW225470   6.364   3.477   3.204
 8191SOL     OW25471   3.841   5.065   1.678
 8191SOL    HW125472   3.807   5.001   1.747
 8191SOL    HW225473   3.847   5.019   1.590
 8192SOL     OW25474   1.233   5.083   4.104
 8192SOL    HW125475   1.249   4.993   4.065
 8192SOL    HW225476   1.312   5.142   4.086
 8193SOL     OW25477   0.549   4.012   5.169
 8193SOL    HW125478   0.615   3.941   5.144
 8193SOL    HW225479   0.523   4.003   5.265
 8194SOL     OW25480   4.874   6.643   1.809
 8194SOL    HW125481   4.892   6.602   1.720
 8194SOL    HW225482   4.840   6.573   1.872
 8195SOL     OW25483   5.807   6.939   3.544
 8195SOL    HW125484   5.754   6.933   3.460
 8195SOL    HW225485   5.896   6.895   3.530
 8196SOL     OW25486   4.566   0.122   7.018
 8196SOL    HW125487   4.621   0.182   0.051
 8196SOL    HW225488   4.604   0.122   6.925
 8197SOL     OW25489   4.700   1.774   2.024
 8197SOL    HW125490   4.742   1.847   2.078
 8197SOL    HW225491   4.605   1.798   2.004
 8198SOL     OW25492   1.911   0.311   2.171
 8198SOL    HW125493   1.826   0.263   2.148
 8198SOL    HW225494   1.979   0.246   2.201
 8199SOL     OW25495   5.328   2.948   5.898
 8199SOL    HW125496   5.391   2.871   5.902
 8199SOL    HW225497   5.365   3.024   5.952
 8200SOL     OW25498   4.320   3.067   1.439
 8200SOL    HW125499   4.339   3.042   1.534
 8200SOL    HW225500   4.267   3.152   1.437
 8201SOL     OW25501   6.811   6.922   5.544
 8201SOL    HW125502   6.877   6.921   5.620
 8201SOL    HW225503   6.747   6.846   5.555
 8202SOL     OW25504   0.596   6.171   2.134
 8202SOL    HW125505   0.575   6.269   2.125
 8202SOL    HW225506   0.512   6.118   2.128
 8203SOL     OW25507   1.272   3.220   1.099
 8203SOL    HW125508   1.218   3.136   1.104
 8203SOL    HW225509   1.369   3.197   1.085
 8204SOL     OW25510   3.879   3.198   1.620
 8204SOL    HW125511   3.929   3.123   1.577
 8204SOL    HW225512   3.918   3.216   1.710
 8205SOL     OW25513   1.330   3.396   0.838
 8205SOL    HW125514   1.373   3.308   0.817
 8205SOL    HW225515   1.376   3.437   0.917
 8206SOL     OW25516   4.036   1.430   6.750
 8206SOL    HW125517   4.128   1.466   6.763
 8206SOL    HW225518   4.011   1.373   6.829
 8207SOL     OW25519   4.053   3.234   4.741
 8207SOL    HW125520   4.002   3.317   4.764
 8207SOL    HW225521   4.036   3.209   4.646
 8208SOL     OW25522   1.846   1.067   0.125
 8208SOL    HW125523   1.844   1.008   0.044
 8208SOL    HW225524   1.902   1.148   0.106
 8209SOL     OW25525   6.446   0.799   5.516
 8209SOL    HW125526   6.359   0.840   5.488
 8209SOL    HW225527   6.489   0.755   5.438
 8210SOL     OW25528   1.961   3.033   0.712
 8210SOL    HW125529   2.009   2.950   0.686
 8210SOL    HW225530   1.928   3.081   0.630
 8211SOL     OW25531   2.862   4.600   0.776
 8211SOL    HW125532   2.858   4.548   0.690
 8211SOL    HW225533   2.802   4.558   0.843
 8212SOL     OW25534   1.728   2.336   3.216
 8212SOL    HW125535   1.729   2.290   3.305
 8212SOL    HW225536   1.773   2.278   3.148
 8213SOL     OW25537   0.496   4.698   1.730
 8213SOL    HW125538   0.511   4.779   1.787
 8213SOL    HW225539   0.557   4.625   1.761
 8214SOL     OW25540   5.463   4.206   2.823
 8214SOL    HW125541   5.500   4.118   2.854
 8214SOL    HW225542   5.364   4.207   2.835
 8215SOL     OW25543   3.510   5.028   4.970
 8215SOL    HW125544   3.414   5.017   4.943
 8215SOL    HW225545   3.557   5.088   4.905
 8216SOL     OW25546   4.673   4.515   4.002
 8216SOL    HW125547   4.744   4.585   4.000
 8216SOL    HW225548   4.687   4.455   4.081
 8217SOL     OW25549   2.291   6.122   0.618
 8217SOL    HW125550   2.348   6.204   0.627
 8217SOL    HW225551   2.252   6.098   0.707
 8218SOL     OW25552   0.367   1.649   0.211
 8218SOL    HW125553   0.335   1.689   0.297
 8218SOL    HW225554   0.450   1.597   0.227
 8219SOL     OW25555   5.579   2.098   6.277
 8219SOL    HW125556   5.661   2.081   6.221
 8219SOL    HW225557   5.589   2.051   6.365
 8220SOL     OW25558   3.809   3.757   2.516
 8220SOL    HW125559   3.763   3.840   2.547
 8220SOL    HW225560   3.907   3.773   2.513
 8221SOL     OW25561   5.698   6.021   3.643
 8221SOL    HW125562   5.720   6.056   3.734
 8221SOL    HW225563   5.605   6.046   3.619
 8222SOL     OW25564   6.023   1.462   1.669
 8222SOL    HW125565   6.088   1.413   1.727
 8222SOL    HW225566   5.957   1.398   1.630
 8223SOL     OW25567   0.773   4.339   6.361
 8223SOL    HW125568   0.690   4.394   6.361
 8223SOL    HW225569   0.756   4.253   6.313
 8224SOL     OW25570   0.951   3.086   2.877
 8224SOL    HW125571   0.998   3.128   2.955
 8224SOL    HW225572   0.874   3.143   2.850
 8225SOL     OW25573   4.987   1.678   6.576
 8225SOL    HW125574   5.057   1.712   6.639
 8225SOL    HW225575   4.986   1.578   6.578
 8226SOL     OW25576   5.059   0.476   0.875
 8226SOL    HW125577   5.035   0.452   0.781
 8226SOL    HW225578   4.977   0.511   0.921
 8227SOL     OW25579   6.306   3.149   3.327
 8227SOL    HW125580   6.364   3.215   3.375
 8227SOL    HW225581   6.283   3.184   3.237
 8228SOL     OW25582   0.031   2.454   4.789
 8228SOL    HW125583   0.053   2.513   4.711
 8228SOL    HW225584   6.962   2.471   4.819
 8229SOL     OW25585   3.350   5.586   6.950
 8229SOL    HW125586   3.270   5.531   6.973
 8229SOL    HW225587   3.346   5.673   6.999
 8230SOL     OW25588   5.122   0.187   4.836
 8230SOL    HW125589   5.196   0.218   4.776
 8230SOL    HW225590   5.036   0.188   4.785
 8231SOL     OW25591   5.546   5.191   0.864
 8231SOL    HW125592   5.451   5.214   0.843
 8231SOL    HW225593   5.590   5.268   0.909
 8232SOL     OW25594   3.956   1.681   0.102
 8232SOL    HW125595   3.944   1.582   0.117
 8232SOL    HW225596   3.875   1.716   0.054
 8233SOL     OW25597   0.966   5.443   6.216
 8233SOL    HW125598   0.919   5.521   6.257
 8233SOL    HW225599   0.923   5.421   6.129
 8234SOL     OW25600   3.024   2.238   6.689
 8234SOL    HW125601   3.048   2.141   6.687
 8234SOL    HW225602   2.958   2.258   6.616
 8235SOL     OW25603   4.083   3.642   1.247
 8235SOL    HW125604   4.142   3.699   1.304
 8235SOL    HW225605   3.989   3.648   1.281
 8236SOL     OW25606   6.575   2.648   0.244
 8236SOL    HW125607   6.638   2.654   0.321
 8236SOL    HW225608   6.527   2.736   0.234
 8237SOL     OW25609   3.735   5.712   5.230
 8237SOL    HW125610   3.805   5.765   5.182
 8237SOL    HW225611   3.753   5.713   5.328
 8238SOL     OW25612   2.232   3.618   6.764
 8238SOL    HW125613   2.166   3.607   6.838
 8238SOL    HW225614   2.278   3.531   6.747
 8239SOL     OW25615   6.958   1.749   5.490
 8239SOL    HW125616   6.970   1.802   5.573
 8239SOL    HW225617   6.944   1.811   5.412
 8240SOL     OW25618   3.235   4.084   2.499
 8240SOL    HW125619   3.310   4.023   2.470
 8240SOL    HW225620   3.264   4.179   2.487
 8241SOL     OW25621   3.161   6.993   0.169
 8241SOL    HW125622   3.111   6.990   0.083
 8241SOL    HW225623   3.178   6.901   0.202
 8242SOL     OW25624   0.667   4.605   5.502
 8242SOL    HW125625   0.611   4.590   5.420
 8242SOL    HW225626   0.722   4.688   5.490
 8243SOL     OW25627   0.285   3.119   5.923
 8243SOL    HW125628   0.364   3.095   5.867
 8243SOL    HW225629   0.312   3.186   5.993
 8244SOL     OW25630   1.260   6.484   3.993
 8244SOL    HW125631   1.352   6.474   4.030
 8244SOL    HW225632   1.259   6.554   3.923
 8245SOL     OW25633   4.756   2.102   1.010
 8245SOL    HW125634   4.780   2.151   0.927
 8245SOL    HW225635   4.815   2.022   1.021
 8246SOL     OW25636   5.969   3.846   6.259
 8246SOL    HW125637   5.998   3.919   6.320
 8246SOL    HW225638   5.896   3.793   6.302
 8247SOL     OW25639   0.607   0.335   1.465
 8247SOL    HW125640   0.570   0.397   1.396
 8247SOL    HW225641   0.577   0.365   1.556
 8248SOL     OW25642   5.777   4.066   3.683
 8248SOL    HW125643   5.792   3.984   3.628
 8248SOL    HW225644   5.681   4.092   3.679
 8249SOL     OW25645   1.882   4.367   4.319
 8249SOL    HW125646   1.887   4.268   4.305
 8249SOL    HW225647   1.928   4.390   4.405
 8250SOL     OW25648   3.601   4.075   3.069
 8250SOL    HW125649   3.528   4.007   3.064
 8250SOL    HW225650   3.561   4.166   3.059
 8251SOL     OW25651   5.553   1.810   4.911
 8251SOL    HW125652   5.609   1.888   4.941
 8251SOL    HW225653   5.518   1.762   4.991
 8252SOL     OW25654   2.476   3.023   6.075
 8252SOL    HW125655   2.403   2.958   6.055
 8252SOL    HW225656   2.491   3.082   5.995
 8253SOL     OW25657   3.138   2.847   5.214
 8253SOL    HW125658   3.125   2.758   5.258
 8253SOL    HW225659   3.228   2.850   5.172
 8254SOL     OW25660   4.180   4.798   4.299
 8254SOL    HW125661   4.266   4.791   4.350
 8254SOL    HW225662   4.198   4.844   4.212
 8255SOL     OW25663   4.537   5.634   3.757
 8255SOL    HW125664   4.534   5.734   3.748
 8255SOL    HW225665   4.600   5.596   3.690
 8256SOL     OW25666   5.232   1.199   4.229
 8256SOL    HW125667   5.168   1.134   4.189
 8256SOL    HW225668   5.184   1.261   4.290
 8257SOL     OW25669   5.565   4.549   3.334
 8257SOL    HW125670   5.578   4.638   3.378
 8257SOL    HW225671   5.608   4.550   3.244
 8258SOL     OW25672   4.462   1.491   0.447
 8258SOL    HW125673   4.416   1.523   0.530
 8258SOL    HW225674   4.437   1.396   0.428
 8259SOL     OW25675   3.547   1.906   3.555
 8259SOL    HW125676   3.551   1.977   3.626
 8259SOL    HW225677   3.510   1.946   3.471
 8260SOL     OW25678   2.840   6.738   2.150
 8260SOL    HW125679   2.788   6.715   2.067
 8260SOL    HW225680   2.937   6.744   2.127
 8261SOL     OW25681   5.451   1.032   1.464
 8261SOL    HW125682   5.450   1.010   1.562
 8261SOL    HW225683   5.508   1.112   1.449
 8262SOL     OW25684   1.223   2.566   1.605
 8262SOL    HW125685   1.248   2.618   1.524
 8262SOL    HW225686   1.142   2.607   1.648
 8263SOL     OW25687   6.739   1.322   1.612
 8263SOL    HW125688   6.649   1.344   1.574
 8263SOL    HW225689   6.802   1.298   1.538
 8264SOL     OW25690   1.231   5.903   2.516
 8264SOL    HW125691   1.287   5.981   2.488
 8264SOL    HW225692   1.234   5.832   2.445
 8265SOL     OW25693   1.431   0.615   1.689
 8265SOL    HW125694   1.372   0.574   1.619
 8265SOL    HW225695   1.498   0.675   1.645
 8266SOL     OW25696   2.441   6.730   2.802
 8266SOL    HW125697   2.381   6.807   2.783
 8266SOL    HW225698   2.527   6.764   2.842
 8267SOL     OW25699   1.779   3.411   1.094
 8267SOL    HW125700   1.707   3.460   1.045
 8267SOL    HW225701   1.819   3.470   1.164
 8268SOL     OW25702   2.417   6.757   6.193
 8268SOL    HW125703   2.509   6.758   6.153
 8268SOL    HW225704   2.357   6.701   6.137
 8269SOL     OW25705   5.424   1.906   1.064
 8269SOL    HW125706   5.506   1.917   1.120
 8269SOL    HW225707   5.361   1.982   1.081
 8270SOL     OW25708   3.365   6.422   4.046
 8270SOL    HW125709   3.392   6.444   4.140
 8270SOL    HW225710   3.285   6.477   4.021
 8271SOL     OW25711   6.724   1.872   2.753
 8271SOL    HW125712   6.775   1.925   2.685
 8271SOL    HW225713   6.716   1.926   2.837
 8272SOL     OW25714   4.615   0.400   2.026
 8272SOL    HW125715   4.542   0.467   2.036
 8272SOL    HW225716   4.627   0.350   2.112
 8273SOL     OW25717   1.890   0.228   1.222
 8273SOL    HW125718   1.872   0.139   1.180
 8273SOL    HW225719   1.824   0.245   1.294
 8274SOL     OW25720   4.275   5.392   3.301
 8274SOL    HW125721   4.320   5.405   3.213
 8274SOL    HW225722   4.305   5.305   3.341
 8275SOL     OW25723   4.779   2.195   6.269
 8275SOL    HW125724   4.742   2.102   6.274
 8275SOL    HW225725   4.861   2.201   6.326
 8276SOL     OW25726   1.395   2.388   4.481
 8276SOL    HW125727   1.327   2.325   4.519
 8276SOL    HW225728   1.433   2.443   4.555
 8277SOL     OW25729   6.689   0.424   6.599
 8277SOL    HW125730   6.735   0.335   6.593
 8277SOL    HW225731   6.625   0.422   6.676
 8278SOL     OW25732   2.730   1.845   0.396
 8278SOL    HW125733   2.814   1.795   0.417
 8278SOL    HW225734   2.686   1.872   0.482
 8279SOL     OW25735   0.681   6.240   3.741
 8279SOL    HW125736   0.658   6.252   3.838
 8279SOL    HW225737   0.735   6.318   3.710
 8280SOL     OW25738   3.128   2.679   6.576
 8280SOL    HW125739   3.148   2.589   6.615
 8280SOL    HW225740   3.186   2.748   6.619
 8281SOL     OW25741   0.869   5.514   1.780
 8281SOL    HW125742   0.844   5.582   1.712
 8281SOL    HW225743   0.907   5.433   1.735
 8282SOL     OW25744   5.001   2.775   6.217
 8282SOL    HW125745   5.075   2.761   6.151
 8282SOL    HW225746   4.942   2.849   6.185
 8283SOL     OW25747   1.163   4.599   5.799
 8283SOL    HW125748   1.086   4.585   5.861
 8283SOL    HW225749   1.189   4.695   5.799
 8284SOL     OW25750   0.599   4.354   2.036
 8284SOL    HW125751   0.565   4.428   1.977
 8284SOL    HW225752   0.651   4.289   1.982
 8285SOL     OW25753   4.221   3.629   5.069
 8285SOL    HW125754   4.198   3.649   5.164
 8285SOL    HW225755   4.302   3.570   5.066
 8286SOL     OW25756   6.562   2.538   5.528
 8286SOL    HW125757   6.597   2.611   5.470
 8286SOL    HW225758   6.566   2.567   5.624
 8287SOL     OW25759   1.079   5.841   4.372
 8287SOL    HW125760   1.002   5.905   4.377
 8287SOL    HW225761   1.081   5.784   4.454
 8288SOL     OW25762   2.772   2.348   2.927
 8288SOL    HW125763   2.869   2.327   2.938
 8288SOL    HW225764   2.756   2.387   2.836
 8289SOL     OW25765   1.049   0.438   0.480
 8289SOL    HW125766   1.106   0.427   0.561
 8289SOL    HW225767   1.014   0.532   0.477
 8290SOL     OW25768   6.293   1.747   0.513
 8290SOL    HW125769   6.260   1.829   0.560
 8290SOL    HW225770   6.322   1.679   0.580
 8291SOL     OW25771   4.175   0.260   6.610
 8291SOL    HW125772   4.212   0.168   6.625
 8291SOL    HW225773   4.196   0.290   6.517
 8292SOL     OW25774   2.604   6.761   0.599
 8292SOL    HW125775   2.614   6.774   0.698
 8292SOL    HW225776   2.597   6.850   0.554
 8293SOL     OW25777   4.365   6.708   5.910
 8293SOL    HW125778   4.458   6.744   5.921
 8293SOL    HW225779   4.338   6.661   5.993
 8294SOL     OW25780   6.316   2.536   6.590
 8294SOL    HW125781   6.385   2.490   6.645
 8294SOL    HW225782   6.306   2.490   6.502
 8295SOL     OW25783   5.831   4.756   1.670
 8295SOL    HW125784   5.769   4.690   1.628
 8295SOL    HW225785   5.781   4.841   1.688
 8296SOL     OW25786   1.212   6.100   6.616
 8296SOL    HW125787   1.174   6.180   6.662
 8296SOL    HW225788   1.138   6.034   6.597
 8297SOL     OW25789   6.173   2.292   3.299
 8297SOL    HW125790   6.109   2.335   3.236
 8297SOL    HW225791   6.202   2.203   3.263
 8298SOL     OW25792   4.761   1.372   1.665
 8298SOL    HW125793   4.757   1.466   1.700
 8298SOL    HW225794   4.844   1.328   1.700
 8299SOL     OW25795   0.261   2.734   1.888
 8299SOL    HW125796   0.264   2.776   1.798
 8299SOL    HW225797   0.353   2.705   1.914
 8300SOL     OW25798   0.920   4.598   4.844
 8300SOL    HW125799   0.979   4.537   4.896
 8300SOL    HW225800   0.858   4.646   4.907
 8301SOL     OW25801   4.157   2.549   1.311
 8301SOL    HW125802   4.223   2.551   1.236
 8301SOL    HW225803   4.080   2.609   1.289
 8302SOL     OW25804   5.903   6.632   6.570
 8302SOL    HW125805   5.952   6.549   6.598
 8302SOL    HW225806   5.969   6.703   6.545
 8303SOL     OW25807   0.518   0.163   4.449
 8303SOL    HW125808   0.606   0.207   4.429
 8303SOL    HW225809   0.510   0.148   4.547
 8304SOL     OW25810   0.554   3.960   6.615
 8304SOL    HW125811   0.585   3.865   6.627
 8304SOL    HW225812   0.522   3.973   6.521
 8305SOL     OW25813   2.968   5.221   3.838
 8305SOL    HW125814   3.041   5.171   3.791
 8305SOL    HW225815   2.891   5.160   3.853
 8306SOL     OW25816   0.679   2.666   5.626
 8306SOL    HW125817   0.707   2.721   5.705
 8306SOL    HW225818   0.738   2.687   5.548
 8307SOL     OW25819   3.603   5.162   0.893
 8307SOL    HW125820   3.670   5.233   0.870
 8307SOL    HW225821   3.539   5.198   0.962
 8308SOL     OW25822   3.977   6.649   1.792
 8308SOL    HW125823   3.985   6.722   1.860
 8308SOL    HW225824   3.945   6.687   1.705
 8309SOL     OW25825   6.071   6.061   2.893
 8309SOL    HW125826   6.123   6.125   2.836
 8309SOL    HW225827   5.989   6.031   2.843
 8310SOL     OW25828   0.663   4.512   0.592
 8310SOL    HW125829   0.652   4.591   0.652
 8310SOL    HW225830   0.580   4.457   0.594
 8311SOL     OW25831   6.895   0.954   6.536
 8311SOL    HW125832   6.845   0.901   6.468
 8311SOL    HW225833   6.993   0.933   6.530
 8312SOL     OW25834   4.874   6.593   1.534
 8312SOL    HW125835   4.809   6.641   1.475
 8312SOL    HW225836   4.940   6.543   1.478
 8313SOL     OW25837   3.780   1.553   2.854
 8313SOL    HW125838   3.739   1.489   2.918
 8313SOL    HW225839   3.851   1.507   2.800
 8314SOL     OW25840   5.781   6.682   1.338
 8314SOL    HW125841   5.765   6.586   1.314
 8314SOL    HW225842   5.767   6.694   1.437
 8315SOL     OW25843   4.559   3.189   0.760
 8315SOL    HW125844   4.604   3.166   0.674
 8315SOL    HW225845   4.489   3.120   0.780
 8316SOL     OW25846   0.830   4.380   1.063
 8316SOL    HW125847   0.842   4.478   1.080
 8316SOL    HW225848   0.851   4.360   0.967
 8317SOL     OW25849   1.960   3.792   2.810
 8317SOL    HW125850   1.995   3.792   2.716
 8317SOL    HW225851   1.864   3.764   2.810
 8318SOL     OW25852   4.420   1.586   4.956
 8318SOL    HW125853   4.476   1.526   5.013
 8318SOL    HW225854   4.323   1.574   4.980
 8319SOL     OW25855   3.388   1.340   5.227
 8319SOL    HW125856   3.448   1.401   5.279
 8319SOL    HW225857   3.307   1.391   5.197
 8320SOL     OW25858   3.158   4.748   1.373
 8320SOL    HW125859   3.099   4.798   1.311
 8320SOL    HW225860   3.186   4.662   1.331
 8321SOL     OW25861   0.380   1.204   0.181
 8321SOL    HW125862   0.377   1.115   0.135
 8321SOL    HW225863   0.287   1.234   0.202
 8322SOL     OW25864   0.120   0.083   6.877
 8322SOL    HW125865   0.096   7.013   6.856
 8322SOL    HW225866   0.191   0.114   6.813
 8323SOL     OW25867   0.861   0.911   2.394
 8323SOL    HW125868   0.784   0.862   2.435
 8323SOL    HW225869   0.914   0.955   2.466
 8324SOL     OW25870   6.239   0.530   2.109
 8324SOL    HW125871   6.251   0.629   2.110
 8324SOL    HW225872   6.141   0.509   2.117
 8325SOL     OW25873   3.907   3.071   4.140
 8325SOL    HW125874   3.970   3.103   4.069
 8325SOL    HW225875   3.851   3.148   4.171
 8326SOL     OW25876   4.625   3.327   5.444
 8326SOL    HW125877   4.598   3.340   5.540
 8326SOL    HW225878   4.560   3.373   5.384
 8327SOL     OW25879   5.423   2.308   5.794
 8327SOL    HW125880   5.481   2.339   5.870
 8327SOL    HW225881   5.331   2.346   5.804
 8328SOL     OW25882   2.386   3.958   6.104
 8328SOL    HW125883   2.322   3.899   6.055
 8328SOL    HW225884   2.445   3.901   6.162
 8329SOL     OW25885   0.395   3.070   5.252
 8329SOL    HW125886   0.403   3.128   5.170
 8329SOL    HW225887   0.352   2.984   5.227
 8330SOL     OW25888   1.545   6.293   0.954
 8330SOL    HW125889   1.572   6.380   0.912
 8330SOL    HW225890   1.523   6.227   0.882
 8331SOL     OW25891   3.403   0.129   1.325
 8331SOL    HW125892   3.349   0.094   1.248
 8331SOL    HW225893   3.424   0.226   1.309
 8332SOL     OW25894   4.778   4.997   1.724
 8332SOL    HW125895   4.703   5.027   1.781
 8332SOL    HW225896   4.850   4.958   1.781
 8333SOL     OW25897   0.777   6.087   0.240
 8333SOL    HW125898   0.744   6.177   0.212
 8333SOL    HW225899   0.711   6.044   0.301
 8334SOL     OW25900   5.771   1.615   3.691
 8334SOL    HW125901   5.766   1.704   3.645
 8334SOL    HW225902   5.769   1.542   3.624
 8335SOL     OW25903   6.099   5.924   6.081
 8335SOL    HW125904   6.103   5.901   5.983
 8335SOL    HW225905   6.174   5.986   6.104
 8336SOL     OW25906   0.199   1.612   2.485
 8336SOL    HW125907   0.114   1.575   2.520
 8336SOL    HW225908   0.214   1.704   2.522
 8337SOL     OW25909   0.718   6.246   3.344
 8337SOL    HW125910   0.801   6.232   3.290
 8337SOL    HW225911   0.638   6.228   3.287
 8338SOL     OW25912   1.779   5.028   1.521
 8338SOL    HW125913   1.745   5.108   1.470
 8338SOL    HW225914   1.744   4.945   1.479
 8339SOL     OW25915   6.258   0.934   2.465
 8339SOL    HW125916   6.163   0.956   2.445
 8339SOL    HW225917   6.276   0.947   2.563
 8340SOL     OW25918   4.797   3.831   1.031
 8340SOL    HW125919   4.785   3.731   1.038
 8340SOL    HW225920   4.707   3.875   1.031
 8341SOL     OW25921   1.999   0.027   0.496
 8341SOL    HW125922   1.938   0.046   0.573
 8341SOL    HW225923   1.978   6.961   0.459
 8342SOL     OW25924   3.766   0.526   0.879
 8342SOL    HW125925   3.828   0.602   0.855
 8342SOL    HW225926   3.677   0.543   0.838
 8343SOL     OW25927   1.621   5.564   5.960
 8343SOL    HW125928   1.692   5.634   5.952
 8343SOL    HW225929   1.662   5.474   5.947
 8344SOL     OW25930   4.200   6.253   6.032
 8344SOL    HW125931   4.105   6.259   6.064
 8344SOL    HW225932   4.262   6.260   6.111
 8345SOL     OW25933   5.911   1.591   3.102
 8345SOL    HW125934   5.891   1.558   3.010
 8345SOL    HW225935   5.893   1.689   3.107
 8346SOL     OW25936   2.479   5.015   0.528
 8346SOL    HW125937   2.458   4.920   0.554
 8346SOL    HW225938   2.570   5.039   0.561
 8347SOL     OW25939   2.637   6.330   5.096
 8347SOL    HW125940   2.577   6.408   5.116
 8347SOL    HW225941   2.687   6.305   5.179
 8348SOL     OW25942   1.131   0.843   1.209
 8348SOL    HW125943   1.166   0.819   1.299
 8348SOL    HW225944   1.177   0.787   1.140
 8349SOL     OW25945   5.543   3.631   0.906
 8349SOL    HW125946   5.550   3.728   0.929
 8349SOL    HW225947   5.523   3.622   0.808
 8350SOL     OW25948   6.147   0.952   4.961
 8350SOL    HW125949   6.109   0.890   4.892
 8350SOL    HW225950   6.076   1.016   4.991
 8351SOL     OW25951   3.594   5.853   4.241
 8351SOL    HW125952   3.648   5.774   4.213
 8351SOL    HW225953   3.550   5.893   4.161
 8352SOL     OW25954   6.580   6.863   2.256
 8352SOL    HW125955   6.559   6.837   2.161
 8352SOL    HW225956   6.663   6.815   2.285
 8353SOL     OW25957   5.972   3.512   2.440
 8353SOL    HW125958   5.950   3.517   2.343
 8353SOL    HW225959   6.022   3.428   2.459
 8354SOL     OW25960   2.993   1.562   6.844
 8354SOL    HW125961   3.008   1.463   6.851
 8354SOL    HW225962   2.909   1.586   6.893
 8355SOL     OW25963   2.838   0.430   0.146
 8355SOL    HW125964   2.747   0.473   0.140
 8355SOL    HW225965   2.880   0.453   0.234
 8356SOL     OW25966   1.125   6.162   0.468
 8356SOL    HW125967   1.067   6.204   0.537
 8356SOL    HW225968   1.221   6.186   0.486
 8357SOL     OW25969   3.311   5.278   4.727
 8357SOL    HW125970   3.275   5.185   4.738
 8357SOL    HW225971   3.409   5.277   4.742
 8358SOL     OW25972   1.742   2.455   5.577
 8358SOL    HW125973   1.801   2.376   5.558
 8358SOL    HW225974   1.726   2.462   5.675
 8359SOL     OW25975   4.215   5.303   4.453
 8359SOL    HW125976   4.124   5.321   4.415
 8359SOL    HW225977   4.228   5.358   4.536
 8360SOL     OW25978   4.284   6.992   3.060
 8360SOL    HW125979   4.330   6.904   3.050
 8360SOL    HW225980   4.261   0.003   2.969
 8361SOL     OW25981   1.855   1.603   2.461
 8361SOL    HW125982   1.799   1.685   2.475
 8361SOL    HW225983   1.951   1.628   2.462
 8362SOL     OW25984   2.479   2.903   0.661
 8362SOL    HW125985   2.473   2.916   0.760
 8362SOL    HW225986   2.531   2.819   0.642
 8363SOL     OW25987   1.212   3.081   0.591
 8363SOL    HW125988   1.204   3.040   0.500
 8363SOL    HW225989   1.121   3.105   0.625
 8364SOL     OW25990   6.255   3.342   2.835
 8364SOL    HW125991   6.325   3.271   2.828
 8364SOL    HW225992   6.274   3.416   2.770
 8365SOL     OW25993   1.904   3.424   0.585
 8365SOL    HW125994   1.929   3.370   0.666
 8365SOL    HW225995   1.971   3.497   0.571
 8366SOL     OW25996   4.875   6.163   2.470
 8366SOL    HW125997   4.859   6.152   2.568
 8366SOL    HW225998   4.850   6.079   2.422
 8367SOL     OW25999   4.547   6.111   3.597
 8367SOL    HW126000   4.634   6.082   3.638
 8367SOL    HW226001   4.560   6.127   3.499
 8368SOL     OW26002   2.703   5.553   6.145
 8368SOL    HW126003   2.756   5.468   6.141
 8368SOL    HW226004   2.669   5.567   6.238
 8369SOL     OW26005   1.954   0.586   6.981
 8369SOL    HW126006   1.883   0.543   0.014
 8369SOL    HW226007   1.991   0.666   0.003
 8370SOL     OW26008   1.889   2.095   6.216
 8370SOL    HW126009   1.906   2.088   6.118
 8370SOL    HW226010   1.929   2.180   6.251
 8371SOL     OW26011   1.443   3.160   0.762
 8371SOL    HW126012   1.501   3.229   0.718
 8371SOL    HW226013   1.372   3.131   0.699
 8372SOL     OW26014   0.541   0.121   2.609
 8372SOL    HW126015   0.614   0.054   2.624
 8372SOL    HW226016   0.464   0.101   2.670
 8373SOL     OW26017   1.016   6.601   5.610
 8373SOL    HW126018   0.965   6.667   5.665
 8373SOL    HW226019   1.098   6.572   5.659
 8374SOL     OW26020   6.663   0.928   0.057
 8374SOL    HW126021   6.663   0.849   0.119
 8374SOL    HW226022   6.738   0.989   0.081
 8375SOL     OW26023   3.498   5.749   5.839
 8375SOL    HW126024   3.517   5.657   5.805
 8375SOL    HW226025   3.402   5.771   5.824
 8376SOL     OW26026   2.831   0.319   3.950
 8376SOL    HW126027   2.802   0.228   3.981
 8376SOL    HW226028   2.778   0.345   3.870
 8377SOL     OW26029   5.799   5.818   1.074
 8377SOL    HW126030   5.815   5.847   0.980
 8377SOL    HW226031   5.702   5.799   1.087
 8378SOL     OW26032   5.325   3.134   3.075
 8378SOL    HW126033   5.369   3.223   3.085
 8378SOL    HW226034   5.315   3.091   3.165
 8379SOL     OW26035   6.345   3.894   1.934
 8379SOL    HW126036   6.390   3.975   1.896
 8379SOL    HW226037   6.371   3.813   1.881
 8380SOL     OW26038   6.014   1.049   2.394
 8380SOL    HW126039   5.939   1.004   2.347
 8380SOL    HW226040   5.985   1.139   2.427
 8381SOL     OW26041   1.278   5.262   4.759
 8381SOL    HW126042   1.264   5.355   4.726
 8381SOL    HW226043   1.264   5.259   4.858
 8382SOL     OW26044   1.423   2.209   2.561
 8382SOL    HW126045   1.421   2.258   2.649
 8382SOL    HW226046   1.477   2.125   2.571
 8383SOL     OW26047   2.616   2.221   6.813
 8383SOL    HW126048   2.708   2.189   6.836
 8383SOL    HW226049   2.622   2.308   6.764
 8384SOL     OW26050   6.750   6.147   0.834
 8384SOL    HW126051   6.669   6.205   0.840
 8384SOL    HW226052   6.813   6.183   0.765
 8385SOL     OW26053   4.735   1.979   2.225
 8385SOL    HW126054   4.832   2.001   2.221
 8385SOL    HW226055   4.717   1.920   2.304
 8386SOL     OW26056   0.882   4.076   2.824
 8386SOL    HW126057   0.787   4.044   2.825
 8386SOL    HW226058   0.937   4.020   2.885
 8387SOL     OW26059   1.580   1.418   1.163
 8387SOL    HW126060   1.522   1.495   1.136
 8387SOL    HW226061   1.541   1.376   1.245
 8388SOL     OW26062   2.892   5.994   1.723
 8388SOL    HW126063   2.917   5.904   1.757
 8388SOL    HW226064   2.794   6.008   1.734
 8389SOL     OW26065   5.250   2.803   1.925
 8389SOL    HW126066   5.185   2.735   1.894
 8389SOL    HW226067   5.206   2.864   1.991
 8390SOL     OW26068   4.268   2.033   5.758
 8390SOL    HW126069   4.319   2.029   5.672
 8390SOL    HW226070   4.178   1.993   5.745
 8391SOL     OW26071   6.499   0.131   0.539
 8391SOL    HW126072   6.516   0.145   0.441
 8391SOL    HW226073   6.575   0.171   0.590
 8392SOL     OW26074   5.866   3.475   4.511
 8392SOL    HW126075   5.782   3.445   4.556
 8392SOL    HW226076   5.923   3.395   4.490
 8393SOL     OW26077   4.948   7.021   1.843
 8393SOL    HW126078   4.870   6.979   1.798
 8393SOL    HW226079   4.999   0.051   1.777
 8394SOL     OW26080   6.112   3.982   2.676
 8394SOL    HW126081   6.103   4.002   2.773
 8394SOL    HW226082   6.122   3.884   2.662
 8395SOL     OW26083   2.193   0.611   5.344
 8395SOL    HW126084   2.206   0.614   5.443
 8395SOL    HW226085   2.120   0.546   5.322
 8396SOL     OW26086   4.492   5.818   5.002
 8396SOL    HW126087   4.546   5.902   5.005
 8396SOL    HW226088   4.402   5.837   4.962
 8397SOL     OW26089   6.741   1.502   3.796
 8397SOL    HW126090   6.841   1.502   3.802
 8397SOL    HW226091   6.713   1.549   3.713
 8398SOL     OW26092   5.405   2.040   5.741
 8398SOL    HW126093   5.417   2.136   5.768
 8398SOL    HW226094   5.312   2.010   5.765
 8399SOL     OW26095   0.067   5.728   6.963
 8399SOL    HW126096   0.064   5.629   6.979
 8399SOL    HW226097   0.075   5.776   0.026
 8400SOL     OW26098   1.600   2.044   4.149
 8400SOL    HW126099   1.603   2.018   4.052
 8400SOL    HW226100   1.628   2.139   4.159
 8401SOL     OW26101   2.597   0.384   5.536
 8401SOL    HW126102   2.587   0.350   5.443
 8401SOL    HW226103   2.615   0.482   5.534
 8402SOL     OW26104   4.433   0.932   5.761
 8402SOL    HW126105   4.427   0.995   5.839
 8402SOL    HW226106   4.355   0.869   5.764
 8403SOL     OW26107   6.325   4.320   4.106
 8403SOL    HW126108   6.233   4.345   4.139
 8403SOL    HW226109   6.326   4.223   4.081
 8404SOL     OW26110   2.223   1.941   6.231
 8404SOL    HW126111   2.278   1.998   6.291
 8404SOL    HW226112   2.148   1.900   6.283
 8405SOL     OW26113   3.895   1.639   5.301
 8405SOL    HW126114   3.989   1.612   5.279
 8405SOL    HW226115   3.858   1.695   5.227
 8406SOL     OW26116   4.901   0.880   6.205
 8406SOL    HW126117   4.848   0.796   6.211
 8406SOL    HW226118   4.896   0.916   6.112
 8407SOL     OW26119   3.559   6.350   3.439
 8407SOL    HW126120   3.552   6.267   3.493
 8407SOL    HW226121   3.512   6.425   3.486
 8408SOL     OW26122   5.472   7.001   0.803
 8408SOL    HW126123   5.553   6.948   0.779
 8408SOL    HW226124   5.419   7.021   0.720
 8409SOL     OW26125   4.480   2.514   1.926
 8409SOL    HW126126   4.459   2.489   2.021
 8409SOL    HW226127   4.514   2.435   1.877
 8410SOL     OW26128   6.857   1.906   1.789
 8410SOL    HW126129   6.936   1.915   1.727
 8410SOL    HW226130   6.871   1.829   1.851
 8411SOL     OW26131   0.719   6.414   0.773
 8411SOL    HW126132   0.698   6.493   0.716
 8411SOL    HW226133   0.648   6.402   0.842
 8412SOL     OW26134   3.109   3.697   0.594
 8412SOL    HW126135   3.121   3.768   0.663
 8412SOL    HW226136   3.126   3.735   0.504
 8413SOL     OW26137   4.054   5.534   5.506
 8413SOL    HW126138   4.115   5.464   5.543
 8413SOL    HW226139   3.960   5.500   5.506
 8414SOL     OW26140   1.533   0.812   2.487
 8414SOL    HW126141   1.476   0.815   2.404
 8414SOL    HW226142   1.494   0.748   2.552
 8415SOL     OW26143   2.486   0.250   4.376
 8415SOL    HW126144   2.524   0.307   4.302
 8415SOL    HW226145   2.561   0.216   4.433
 8416SOL     OW26146   6.464   1.555   4.484
 8416SOL    HW126147   6.517   1.626   4.438
 8416SOL    HW226148   6.520   1.513   4.555
 8417SOL     OW26149   1.032   3.173   5.126
 8417SOL    HW126150   1.052   3.088   5.175
 8417SOL    HW226151   1.081   3.173   5.039
 8418SOL     OW26152   0.808   5.552   2.258
 8418SOL    HW126153   0.884   5.505   2.304
 8418SOL    HW226154   0.784   5.502   2.175
 8419SOL     OW26155   5.155   0.571   3.369
 8419SOL    HW126156   5.216   0.607   3.299
 8419SOL    HW226157   5.199   0.496   3.417
 8420SOL     OW26158   3.245   6.557   2.254
 8420SOL    HW126159   3.317   6.493   2.282
 8420SOL    HW226160   3.283   6.624   2.190
 8421SOL     OW26161   3.822   6.458   5.929
 8421SOL    HW126162   3.874   6.532   5.887
 8421SOL    HW226163   3.729   6.456   5.891
 8422SOL     OW26164   4.578   2.602   2.617
 8422SOL    HW126165   4.590   2.604   2.518
 8422SOL    HW226166   4.509   2.534   2.642
 8423SOL     OW26167   5.286   4.438   5.989
 8423SOL    HW126168   5.270   4.359   6.047
 8423SOL    HW226169   5.368   4.487   6.019
 8424SOL     OW26170   2.108   0.253   3.430
 8424SOL    HW126171   2.180   0.288   3.370
 8424SOL    HW226172   2.135   0.267   3.525
 8425SOL     OW26173   3.010   3.363   3.394
 8425SOL    HW126174   2.959   3.448   3.378
 8425SOL    HW226175   3.099   3.385   3.433
 8426SOL     OW26176   3.838   2.999   2.304
 8426SOL    HW126177   3.892   2.966   2.382
 8426SOL    HW226178   3.874   3.087   2.273
 8427SOL     OW26179   3.055   3.081   3.397
 8427SOL    HW126180   3.048   3.181   3.397
 8427SOL    HW226181   3.101   3.051   3.481
 8428SOL     OW26182   6.922   0.659   0.851
 8428SOL    HW126183   6.927   0.636   0.948
 8428SOL    HW226184   6.924   0.759   0.840
 8429SOL     OW26185   1.915   5.526   6.171
 8429SOL    HW126186   1.953   5.557   6.258
 8429SOL    HW226187   1.869   5.439   6.184
 8430SOL     OW26188   4.373   5.898   4.259
 8430SOL    HW126189   4.457   5.863   4.301
 8430SOL    HW226190   4.371   5.997   4.267
 8431SOL     OW26191   2.508   3.169   6.459
 8431SOL    HW126192   2.573   3.231   6.502
 8431SOL    HW226193   2.476   3.209   6.373
 8432SOL     OW26194   0.027   5.698   6.242
 8432SOL    HW126195   0.025   5.676   6.339
 8432SOL    HW226196   0.097   5.642   6.197
 8433SOL     OW26197   4.327   2.519   1.078
 8433SOL    HW126198   4.302   2.446   1.015
 8433SOL    HW226199   4.334   2.605   1.028
 8434SOL     OW26200   2.056   5.776   5.023
 8434SOL    HW126201   2.055   5.803   5.119
 8434SOL    HW226202   2.038   5.855   4.965
 8435SOL     OW26203   5.049   0.755   2.538
 8435SOL    HW126204   5.054   0.822   2.464
 8435SOL    HW226205   5.104   0.787   2.615
 8436SOL     OW26206   2.415   6.642   3.507
 8436SOL    HW126207   2.392   6.670   3.600
 8436SOL    HW226208   2.423   6.723   3.448
 8437SOL     OW26209   2.302   2.867   2.480
 8437SOL    HW126210   2.369   2.916   2.534
 8437SOL    HW226211   2.255   2.930   2.419
 8438SOL     OW26212   1.655   4.424   3.263
 8438SOL    HW126213   1.661   4.375   3.351
 8438SOL    HW226214   1.622   4.361   3.193
 8439SOL     OW26215   5.804   5.490   3.290
 8439SOL    HW126216   5.762   5.556   3.227
 8439SOL    HW226217   5.892   5.461   3.254
 8440SOL     OW26218   2.192   1.411   3.474
 8440SOL    HW126219   2.213   1.465   3.393
 8440SOL    HW226220   2.275   1.397   3.528
 8441SOL     OW26221   5.328   6.456   5.581
 8441SOL    HW126222   5.259   6.488   5.516
 8441SOL    HW226223   5.387   6.388   5.538
 8442SOL     OW26224   3.828   0.888   4.907
 8442SOL    HW126225   3.836   0.790   4.889
 8442SOL    HW226226   3.887   0.939   4.845
 8443SOL     OW26227   1.283   4.942   3.467
 8443SOL    HW126228   1.363   5.002   3.467
 8443SOL    HW226229   1.295   4.871   3.537
 8444SOL     OW26230   4.320   5.766   3.288
 8444SOL    HW126231   4.287   5.710   3.364
 8444SOL    HW226232   4.265   5.849   3.281
 8445SOL     OW26233   3.327   6.962   6.771
 8445SOL    HW126234   3.390   0.012   6.792
 8445SOL    HW226235   3.348   6.883   6.828
 8446SOL     OW26236   0.304   6.279   5.362
 8446SOL    HW126237   0.394   6.277   5.319
 8446SOL    HW226238   0.296   6.205   5.428
 8447SOL     OW26239   3.906   1.212   2.372
 8447SOL    HW126240   3.936   1.240   2.462
 8447SOL    HW226241   3.964   1.138   2.338
 8448SOL     OW26242   4.764   6.572   2.975
 8448SOL    HW126243   4.795   6.531   3.061
 8448SOL    HW226244   4.843   6.601   2.922
 8449SOL     OW26245   1.886   2.556   3.496
 8449SOL    HW126246   1.947   2.552   3.416
 8449SOL    HW226247   1.885   2.466   3.540
 8450SOL     OW26248   6.536   0.528   7.017
 8450SOL    HW126249   6.534   0.480   6.929
 8450SOL    HW226250   6.446   0.523   0.035
 8451SOL     OW26251   4.294   2.119   1.206
 8451SOL    HW126252   4.386   2.094   1.235
 8451SOL    HW226253   4.227   2.083   1.271
 8452SOL     OW26254   5.297   1.944   4.954
 8452SOL    HW126255   5.351   1.989   4.882
 8452SOL    HW226256   5.338   1.856   4.977
 8453SOL     OW26257   0.746   6.062   6.930
 8453SOL    HW126258   0.794   5.975   6.935
 8453SOL    HW226259   0.695   6.076   7.014
 8454SOL     OW26260   0.663   4.510   6.958
 8454SOL    HW126261   0.752   4.541   6.925
 8454SOL    HW226262   0.652   4.535   0.030
 8455SOL     OW26263   1.053   0.846   2.643
 8455SOL    HW126264   0.972   0.883   2.689
 8455SOL    HW226265   1.090   0.770   2.697
 8456SOL     OW26266   5.235   0.867   3.085
 8456SOL    HW126267   5.248   0.963   3.061
 8456SOL    HW226268   5.167   0.860   3.157
 8457SOL     OW26269   6.044   6.308   5.088
 8457SOL    HW126270   6.003   6.316   5.179
 8457SOL    HW226271   6.068   6.399   5.054
 8458SOL     OW26272   0.030   0.443   6.692
 8458SOL    HW126273   6.989   0.512   6.723
 8458SOL    HW226274   0.076   0.403   6.771
 8459SOL     OW26275   1.502   5.817   3.369
 8459SOL    HW126276   1.508   5.717   3.369
 8459SOL    HW226277   1.478   5.849   3.277
 8460SOL     OW26278   3.174   4.051   5.002
 8460SOL    HW126279   3.136   4.074   4.912
 8460SOL    HW226280   3.264   4.093   5.012
 8461SOL     OW26281   0.128   2.824   4.770
 8461SOL    HW126282   0.045   2.786   4.731
 8461SOL    HW226283   0.185   2.863   4.698
 8462SOL     OW26284   2.488   2.000   1.777
 8462SOL    HW126285   2.529   2.064   1.842
 8462SOL    HW226286   2.544   1.996   1.694
 8463SOL     OW26287   5.992   0.661   2.286
 8463SOL    HW126288   5.901   0.623   2.302
 8463SOL    HW226289   5.991   0.717   2.203
 8464SOL     OW26290   5.849   3.093   4.338
 8464SOL    HW126291   5.763   3.128   4.373
 8464SOL    HW226292   5.896   3.166   4.288
 8465SOL     OW26293   1.756   1.877   0.731
 8465SOL    HW126294   1.818   1.839   0.662
 8465SOL    HW226295   1.728   1.969   0.704
 8466SOL     OW26296   0.850   5.586   3.344
 8466SOL    HW126297   0.821   5.499   3.304
 8466SOL    HW226298   0.889   5.644   3.272
 8467SOL     OW26299   2.915   5.573   0.982
 8467SOL    HW126300   2.828   5.541   1.021
 8467SOL    HW226301   2.987   5.507   1.004
 8468SOL     OW26302   4.730   2.121   6.823
 8468SOL    HW126303   4.824   2.142   6.850
 8468SOL    HW226304   4.712   2.023   6.839
 8469SOL     OW26305   3.096   2.985   6.476
 8469SOL    HW126306   3.153   2.974   6.558
 8469SOL    HW226307   3.154   2.995   6.396
 8470SOL     OW26308   2.900   3.161   6.995
 8470SOL    HW126309   2.809   3.196   7.014
 8470SOL    HW226310   2.897   3.061   6.986
 8471SOL     OW26311   3.231   1.047   3.760
 8471SOL    HW126312   3.140   1.081   3.783
 8471SOL    HW226313   3.285   1.038   3.844
 8472SOL     OW26314   0.904   6.917   4.273
 8472SOL    HW126315   0.884   6.879   4.363
 8472SOL    HW226316   0.979   6.865   4.232
 8473SOL     OW26317   6.695   5.240   6.797
 8473SOL    HW126318   6.781   5.198   6.827
 8473SOL    HW226319   6.673   5.207   6.705
 8474SOL     OW26320   3.252   3.684   1.437
 8474SOL    HW126321   3.279   3.589   1.419
 8474SOL    HW226322   3.199   3.719   1.360
 8475SOL     OW26323   6.162   1.660   2.425
 8475SOL    HW126324   6.244   1.660   2.482
 8475SOL    HW226325   6.176   1.719   2.346
 8476SOL     OW26326   4.537   1.107   2.184
 8476SOL    HW126327   4.594   1.185   2.159
 8476SOL    HW226328   4.441   1.130   2.170
 8477SOL     OW26329   2.848   0.340   1.144
 8477SOL    HW126330   2.750   0.321   1.138
 8477SOL    HW226331   2.898   0.271   1.091
 8478SOL     OW26332   1.142   0.860   5.725
 8478SOL    HW126333   1.194   0.834   5.644
 8478SOL    HW226334   1.143   0.785   5.791
 8479SOL     OW26335   6.137   1.105   0.788
 8479SOL    HW126336   6.068   1.035   0.807
 8479SOL    HW226337   6.165   1.100   0.692
 8480SOL     OW26338   3.264   0.724   1.547
 8480SOL    HW126339   3.301   0.720   1.454
 8480SOL    HW226340   3.288   0.640   1.596
 8481SOL     OW26341   3.663   1.560   4.356
 8481SOL    HW126342   3.585   1.556   4.419
 8481SOL    HW226343   3.724   1.635   4.383
 8482SOL     OW26344   1.054   6.981   1.802
 8482SOL    HW126345   1.073   6.973   1.900
 8482SOL    HW226346   1.059   0.053   1.776
 8483SOL     OW26347   3.488   5.881   1.188
 8483SOL    HW126348   3.445   5.861   1.276
 8483SOL    HW226349   3.420   5.922   1.127
 8484SOL     OW26350   0.521   4.913   4.495
 8484SOL    HW126351   0.473   4.859   4.565
 8484SOL    HW226352   0.474   5.000   4.482
 8485SOL     OW26353   2.196   4.035   7.008
 8485SOL    HW126354   2.140   3.975   6.950
 8485SOL    HW226355   2.184   4.130   6.978
 8486SOL     OW26356   5.540   0.858   1.739
 8486SOL    HW126357   5.600   0.836   1.662
 8486SOL    HW226358   5.509   0.953   1.732
 8487SOL     OW26359   5.150   0.282   1.403
 8487SOL    HW126360   5.102   0.195   1.399
 8487SOL    HW226361   5.134   0.333   1.319
 8488SOL     OW26362   4.832   3.857   3.991
 8488SOL    HW126363   4.782   3.771   4.000
 8488SOL    HW226364   4.916   3.853   4.045
 8489SOL     OW26365   5.113   4.721   1.535
 8489SOL    HW126366   5.035   4.665   1.507
 8489SOL    HW226367   5.096   4.816   1.510
 8490SOL     OW26368   4.403   5.103   3.269
 8490SOL    HW126369   4.452   5.038   3.326
 8490SOL    HW226370   4.463   5.181   3.248
 8491SOL     OW26371   2.205   0.714   1.971
 8491SOL    HW126372   2.164   0.635   2.016
 8491SOL    HW226373   2.275   0.753   2.030
 8492SOL     OW26374   6.300   2.589   5.234
 8492SOL    HW126375   6.338   2.534   5.159
 8492SOL    HW226376   6.220   2.542   5.272
 8493SOL     OW26377   4.374   1.684   6.703
 8493SOL    HW126378   4.397   1.667   6.799
 8493SOL    HW226379   4.275   1.689   6.693
 8494SOL     OW26380   3.045   5.686   6.880
 8494SOL    HW126381   3.035   5.763   6.943
 8494SOL    HW226382   3.068   5.604   6.932
 8495SOL     OW26383   7.003   2.392   0.906
 8495SOL    HW126384   6.971   2.297   0.905
 8495SOL    HW226385   6.944   2.446   0.966
 8496SOL     OW26386   7.002   2.454   3.601
 8496SOL    HW126387   6.971   2.360   3.605
 8496SOL    HW226388   0.052   2.462   3.534
 8497SOL     OW26389   6.180   4.901   3.398
 8497SOL    HW126390   6.142   4.972   3.338
 8497SOL    HW226391   6.244   4.844   3.346
 8498SOL     OW26392   0.147   0.756   1.335
 8498SOL    HW126393   0.108   0.822   1.399
 8498SOL    HW226394   0.135   0.790   1.241
 8499SOL     OW26395   3.312   4.422   6.359
 8499SOL    HW126396   3.228   4.413   6.414
 8499SOL    HW226397   3.390   4.389   6.412
 8500SOL     OW26398   2.702   6.658   6.086
 8500SOL    HW126399   2.779   6.602   6.115
 8500SOL    HW226400   2.658   6.618   6.006
 8501SOL     OW26401   1.894   3.288   6.880
 8501SOL    HW126402   1.919   3.295   6.784
 8501SOL    HW226403   1.794   3.288   6.889
 8502SOL     OW26404   6.543   6.649   1.875
 8502SOL    HW126405   6.490   6.714   1.930
 8502SOL    HW226406   6.605   6.598   1.935
 8503SOL     OW26407   2.643   4.799   3.183
 8503SOL    HW126408   2.603   4.716   3.221
 8503SOL    HW226409   2.722   4.826   3.238
 8504SOL     OW26410   1.196   5.336   3.660
 8504SOL    HW126411   1.123   5.308   3.598
 8504SOL    HW226412   1.236   5.254   3.703
 8505SOL     OW26413   4.894   3.678   3.695
 8505SOL    HW126414   4.938   3.702   3.608
 8505SOL    HW226415   4.795   3.686   3.685
 8506SOL     OW26416   1.461   6.796   0.267
 8506SOL    HW126417   1.365   6.816   0.287
 8506SOL    HW226418   1.518   6.833   0.341
 8507SOL     OW26419   1.621   1.422   6.208
 8507SOL    HW126420   1.613   1.394   6.112
 8507SOL    HW226421   1.596   1.345   6.267
 8508SOL     OW26422   6.912   2.448   5.552
 8508SOL    HW126423   6.877   2.538   5.528
 8508SOL    HW226424   7.003   2.458   5.594
 8509SOL     OW26425   5.967   2.030   4.034
 8509SOL    HW126426   5.991   2.066   4.124
 8509SOL    HW226427   5.890   1.966   4.044
 8510SOL     OW26428   5.862   5.960   2.762
 8510SOL    HW126429   5.826   6.044   2.719
 8510SOL    HW226430   5.821   5.880   2.717
 8511SOL     OW26431   6.900   4.661   1.377
 8511SOL    HW126432   6.907   4.564   1.352
 8511SOL    HW226433   6.841   4.671   1.457
 8512SOL     OW26434   4.895   2.315   0.055
 8512SOL    HW126435   4.971   2.306   0.120
 8512SOL    HW226436   4.849   2.227   0.044
 8513SOL     OW26437   6.111   4.520   0.973
 8513SOL    HW126438   6.065   4.569   0.900
 8513SOL    HW226439   6.044   4.464   1.023
 8514SOL     OW26440   2.827   1.249   4.709
 8514SOL    HW126441   2.800   1.232   4.804
 8514SOL    HW226442   2.778   1.329   4.675
 8515SOL     OW26443   0.861   0.898   0.323
 8515SOL    HW126444   0.848   0.997   0.324
 8515SOL    HW226445   0.773   0.853   0.303
 8516SOL     OW26446   5.865   2.952   2.416
 8516SOL    HW126447   5.900   2.882   2.354
 8516SOL    HW226448   5.839   3.033   2.363
 8517SOL     OW26449   1.543   3.011   5.100
 8517SOL    HW126450   1.474   2.992   5.030
 8517SOL    HW226451   1.571   3.107   5.094
 8518SOL     OW26452   5.224   4.705   6.667
 8518SOL    HW126453   5.233   4.716   6.568
 8518SOL    HW226454   5.244   4.792   6.712
 8519SOL     OW26455   1.414   4.120   0.835
 8519SOL    HW126456   1.504   4.157   0.808
 8519SOL    HW226457   1.366   4.089   0.753
 8520SOL     OW26458   3.930   4.054   4.483
 8520SOL    HW126459   3.856   4.105   4.439
 8520SOL    HW226460   3.961   3.981   4.422
 8521SOL     OW26461   1.444   6.314   5.347
 8521SOL    HW126462   1.357   6.269   5.369
 8521SOL    HW226463   1.437   6.411   5.369
 8522SOL     OW26464   1.457   0.034   0.450
 8522SOL    HW126465   1.477   0.084   0.535
 8522SOL    HW226466   1.380   6.997   0.466
 8523SOL     OW26467   2.577   0.046   6.180
 8523SOL    HW126468   2.480   0.031   6.161
 8523SOL    HW226469   2.597   0.144   6.177
 8524SOL     OW26470   1.348   5.022   4.651
 8524SOL    HW126471   1.329   5.111   4.693
 8524SOL    HW226472   1.438   5.024   4.607
 8525SOL     OW26473   6.978   5.052   1.266
 8525SOL    HW126474   7.007   5.029   1.173
 8525SOL    HW226475   0.034   5.073   1.322
 8526SOL     OW26476   2.180   6.886   0.780
 8526SOL    HW126477   2.256   6.832   0.745
 8526SOL    HW226478   2.214   6.950   0.849
 8527SOL     OW26479   3.720   0.204   6.490
 8527SOL    HW126480   3.623   0.181   6.479
 8527SOL    HW226481   3.741   0.287   6.439
 8528SOL     OW26482   4.887   2.499   0.856
 8528SOL    HW126483   4.894   2.510   0.955
 8528SOL    HW226484   4.833   2.574   0.818
 8529SOL     OW26485   1.233   6.110   6.995
 8529SOL    HW126486   1.316   6.145   0.014
 8529SOL    HW226487   1.162   6.096   0.039
 8530SOL     OW26488   2.884   3.350   4.090
 8530SOL    HW126489   2.881   3.404   4.174
 8530SOL    HW226490   2.819   3.389   4.024
 8531SOL     OW26491   6.861   6.014   3.674
 8531SOL    HW126492   6.825   6.032   3.765
 8531SOL    HW226493   6.945   5.960   3.681
 8532SOL     OW26494   3.633   6.143   4.223
 8532SOL    HW126495   3.604   6.076   4.291
 8532SOL    HW226496   3.565   6.149   4.150
 8533SOL     OW26497   1.047   6.260   6.817
 8533SOL    HW126498   1.100   6.204   6.880
 8533SOL    HW226499   0.953   6.267   6.850
 8534SOL     OW26500   4.299   1.988   3.930
 8534SOL    HW126501   4.350   1.906   3.903
 8534SOL    HW226502   4.266   2.035   3.849
 8535SOL     OW26503   5.787   0.773   3.700
 8535SOL    HW126504   5.881   0.784   3.733
 8535SOL    HW226505   5.737   0.712   3.762
 8536SOL     OW26506   0.382   0.614   4.790
 8536SOL    HW126507   0.309   0.563   4.744
 8536SOL    HW226508   0.463   0.557   4.798
 8537SOL     OW26509   6.644   1.323   3.260
 8537SOL    HW126510   6.673   1.296   3.352
 8537SOL    HW226511   6.544   1.325   3.256
 8538SOL     OW26512   1.666   1.692   0.493
 8538SOL    HW126513   1.631   1.686   0.586
 8538SOL    HW226514   1.763   1.669   0.493
 8539SOL     OW26515   6.213   3.001   2.932
 8539SOL    HW126516   6.182   3.080   2.984
 8539SOL    HW226517   6.136   2.959   2.885
 8540SOL     OW26518   4.344   0.051   6.827
 8540SOL    HW126519   4.337   0.111   6.907
 8540SOL    HW226520   4.393   0.099   6.754
 8541SOL     OW26521   2.463   2.247   3.542
 8541SOL    HW126522   2.370   2.220   3.516
 8541SOL    HW226523   2.476   2.233   3.640
 8542SOL     OW26524   4.065   3.978   6.317
 8542SOL    HW126525   4.050   4.061   6.263
 8542SOL    HW226526   4.112   3.911   6.261
 8543SOL     OW26527   2.085   2.654   0.171
 8543SOL    HW126528   2.149   2.647   0.248
 8543SOL    HW226529   2.114   2.594   0.097
 8544SOL     OW26530   5.499   2.610   3.693
 8544SOL    HW126531   5.564   2.686   3.687
 8544SOL    HW226532   5.420   2.638   3.747
 8545SOL     OW26533   4.943   6.333   5.616
 8545SOL    HW126534   4.927   6.328   5.517
 8545SOL    HW226535   4.883   6.270   5.663
 8546SOL     OW26536   5.152   1.782   3.936
 8546SOL    HW126537   5.210   1.855   3.971
 8546SOL    HW226538   5.059   1.794   3.970
 8547SOL     OW26539   0.963   4.614   4.123
 8547SOL    HW126540   0.922   4.547   4.184
 8547SOL    HW226541   1.055   4.583   4.096
 8548SOL     OW26542   5.301   0.990   4.784
 8548SOL    HW126543   5.372   0.985   4.713
 8548SOL    HW226544   5.323   0.927   4.858
 8549SOL     OW26545   6.589   3.247   4.160
 8549SOL    HW126546   6.558   3.182   4.229
 8549SOL    HW226547   6.512   3.276   4.104
 8550SOL     OW26548   1.504   5.073   6.539
 8550SOL    HW126549   1.568   5.147   6.518
 8550SOL    HW226550   1.516   4.999   6.472
 8551SOL     OW26551   3.667   3.973   6.670
 8551SOL    HW126552   3.676   3.973   6.769
 8551SOL    HW226553   3.752   4.005   6.629
 8552SOL     OW26554   2.784   5.912   3.524
 8552SOL    HW126555   2.786   6.011   3.510
 8552SOL    HW226556   2.718   5.890   3.595
 8553SOL     OW26557   4.864   6.588   0.634
 8553SOL    HW126558   4.822   6.541   0.712
 8553SOL    HW226559   4.963   6.594   0.648
 8554SOL     OW26560   0.048   4.305   6.916
 8554SOL    HW126561   0.023   4.276   6.823
 8554SOL    HW226562   0.049   4.226   6.977
 8555SOL     OW26563   0.862   0.793   4.070
 8555SOL    HW126564   0.943   0.737   4.089
 8555SOL    HW226565   0.780   0.739   4.088
 8556SOL     OW26566   6.520   0.695   3.675
 8556SOL    HW126567   6.555   0.653   3.759
 8556SOL    HW226568   6.420   0.694   3.677
 8557SOL     OW26569   0.223   6.960   1.514
 8557SOL    HW126570   0.295   0.004   1.516
 8557SOL    HW226571   0.234   6.903   1.432
 8558SOL     OW26572   1.813   5.380   2.449
 8558SOL    HW126573   1.833   5.337   2.537
 8558SOL    HW226574   1.887   5.358   2.385
 8559SOL     OW26575   0.995   0.140   1.543
 8559SOL    HW126576   1.055   0.158   1.621
 8559SOL    HW226577   0.954   0.226   1.513
 8560SOL     OW26578   6.238   1.646   0.276
 8560SOL    HW126579   6.271   1.690   0.359
 8560SOL    HW226580   6.154   1.691   0.246
 8561SOL     OW26581   4.896   6.124   3.266
 8561SOL    HW126582   4.970   6.077   3.218
 8561SOL    HW226583   4.861   6.065   3.338
 8562SOL     OW26584   3.477   6.971   4.383
 8562SOL    HW126585   3.524   0.003   4.451
 8562SOL    HW226586   3.521   6.984   4.294
 8563SOL     OW26587   2.659   2.721   6.951
 8563SOL    HW126588   2.664   2.623   6.970
 8563SOL    HW226589   2.692   2.739   6.858
 8564SOL     OW26590   1.080   6.693   3.630
 8564SOL    HW126591   1.061   6.602   3.666
 8564SOL    HW226592   1.152   6.687   3.561
 8565SOL     OW26593   3.991   0.017   0.652
 8565SOL    HW126594   3.929   0.037   0.728
 8565SOL    HW226595   4.005   6.943   0.646
 8566SOL     OW26596   1.288   2.176   2.910
 8566SOL    HW126597   1.372   2.212   2.870
 8566SOL    HW226598   1.220   2.163   2.838
 8567SOL     OW26599   5.546   1.261   0.717
 8567SOL    HW126600   5.531   1.237   0.813
 8567SOL    HW226601   5.512   1.354   0.700
 8568SOL     OW26602   5.540   1.980   0.248
 8568SOL    HW126603   5.546   1.884   0.274
 8568SOL    HW226604   5.523   2.035   0.330
 8569SOL     OW26605   4.680   1.179   4.459
 8569SOL    HW126606   4.663   1.173   4.361
 8569SOL    HW226607   4.593   1.169   4.508
 8570SOL     OW26608   0.411   4.041   6.827
 8570SOL    HW126609   0.460   4.009   6.746
 8570SOL    HW226610   0.458   4.120   6.866
 8571SOL     OW26611   6.460   4.128   4.342
 8571SOL    HW126612   6.372   4.108   4.384
 8571SOL    HW226613   6.524   4.161   4.412
 8572SOL     OW26614   1.869   5.160   5.330
 8572SOL    HW126615   1.861   5.172   5.231
 8572SOL    HW226616   1.950   5.105   5.350
 8573SOL     OW26617   4.329   5.813   5.671
 8573SOL    HW126618   4.381   5.749   5.615
 8573SOL    HW226619   4.234   5.783   5.676
 8574SOL     OW26620   0.089   3.721   5.638
 8574SOL    HW126621   0.162   3.728   5.706
 8574SOL    HW226622   0.062   3.625   5.629
 8575SOL     OW26623   3.208   2.885   0.973
 8575SOL    HW126624   3.285   2.873   1.036
 8575SOL    HW226625   3.147   2.805   0.980
 8576SOL     OW26626   0.795   0.044   1.292
 8576SOL    HW126627   0.877   7.017   1.317
 8576SOL    HW226628   0.757   0.088   1.373
 8577SOL     OW26629   6.390   5.724   3.380
 8577SOL    HW126630   6.342   5.774   3.453
 8577SOL    HW226631   6.432   5.642   3.419
 8578SOL     OW26632   4.563   0.185   3.671
 8578SOL    HW126633   4.533   0.103   3.719
 8578SOL    HW226634   4.500   0.205   3.596
 8579SOL     OW26635   1.089   4.914   3.280
 8579SOL    HW126636   1.011   4.876   3.330
 8579SOL    HW226637   1.170   4.913   3.339
 8580SOL     OW26638   1.607   6.365   1.663
 8580SOL    HW126639   1.698   6.325   1.661
 8580SOL    HW226640   1.598   6.430   1.587
 8581SOL     OW26641   3.279   1.726   0.869
 8581SOL    HW126642   3.293   1.720   0.968
 8581SOL    HW226643   3.362   1.698   0.821
 8582SOL     OW26644   4.417   4.571   2.023
 8582SOL    HW126645   4.452   4.486   1.983
 8582SOL    HW226646   4.321   4.582   1.997
 8583SOL     OW26647   6.219   6.943   5.859
 8583SOL    HW126648   6.268   7.019   5.903
 8583SOL    HW226649   6.164   6.895   5.928
 8584SOL     OW26650   6.803   5.267   0.601
 8584SOL    HW126651   6.877   5.306   0.546
 8584SOL    HW226652   6.715   5.289   0.559
 8585SOL     OW26653   0.010   1.009   0.247
 8585SOL    HW126654   0.022   0.938   0.178
 8585SOL    HW226655   0.090   1.069   0.248
 8586SOL     OW26656   3.902   5.695   2.735
 8586SOL    HW126657   3.987   5.745   2.717
 8586SOL    HW226658   3.824   5.751   2.706
 8587SOL     OW26659   0.325   1.861   2.500
 8587SOL    HW126660   0.349   1.828   2.592
 8587SOL    HW226661   0.378   1.943   2.479
 8588SOL     OW26662   4.000   2.334   0.300
 8588SOL    HW126663   3.961   2.245   0.276
 8588SOL    HW226664   4.042   2.375   0.219
 8589SOL     OW26665   3.532   1.287   3.993
 8589SOL    HW126666   3.524   1.210   4.057
 8589SOL    HW226667   3.441   1.313   3.961
 8590SOL     OW26668   6.178   5.188   5.316
 8590SOL    HW126669   6.158   5.272   5.367
 8590SOL    HW226670   6.117   5.115   5.347
 8591SOL     OW26671   0.779   3.732   6.386
 8591SOL    HW126672   0.850   3.664   6.371
 8591SOL    HW226673   0.820   3.823   6.392
 8592SOL     OW26674   6.708   4.084   0.814
 8592SOL    HW126675   6.697   4.005   0.876
 8592SOL    HW226676   6.667   4.165   0.857
 8593SOL     OW26677   1.672   0.223   2.070
 8593SOL    HW126678   1.714   0.249   1.983
 8593SOL    HW226679   1.593   0.281   2.087
 8594SOL     OW26680   2.898   3.557   4.293
 8594SOL    HW126681   2.995   3.553   4.273
 8594SOL    HW226682   2.884   3.541   4.391
 8595SOL     OW26683   1.971   2.265   2.351
 8595SOL    HW126684   1.948   2.327   2.426
 8595SOL    HW226685   1.991   2.174   2.387
 8596SOL     OW26686   6.013   5.344   1.535
 8596SOL    HW126687   6.031   5.422   1.594
 8596SOL    HW226688   6.099   5.309   1.498
 8597SOL     OW26689   2.934   1.579   0.702
 8597SOL    HW126690   2.865   1.519   0.661
 8597SOL    HW226691   2.990   1.526   0.766
 8598SOL     OW26692   6.188   4.051   1.281
 8598SOL    HW126693   6.257   3.980   1.297
 8598SOL    HW226694   6.097   4.016   1.302
 8599SOL     OW26695   1.496   2.978   3.401
 8599SOL    HW126696   1.595   2.978   3.412
 8599SOL    HW226697   1.455   2.913   3.465
 8600SOL     OW26698   6.483   5.093   6.640
 8600SOL    HW126699   6.465   5.184   6.602
 8600SOL    HW226700   6.480   5.098   6.740
 8601SOL     OW26701   0.582   6.851   4.052
 8601SOL    HW126702   0.658   6.911   4.028
 8601SOL    HW226703   0.518   6.901   4.111
 8602SOL     OW26704   2.529   5.855   2.237
 8602SOL    HW126705   2.593   5.884   2.308
 8602SOL    HW226706   2.581   5.822   2.158
 8603SOL     OW26707   3.994   3.212   0.285
 8603SOL    HW126708   3.944   3.277   0.342
 8603SOL    HW226709   4.070   3.259   0.239
 8604SOL     OW26710   5.434   2.996   3.855
 8604SOL    HW126711   5.398   2.904   3.870
 8604SOL    HW226712   5.438   3.014   3.756
 8605SOL     OW26713   2.520   5.935   3.185
 8605SOL    HW126714   2.464   5.948   3.104
 8605SOL    HW226715   2.531   6.021   3.234
 8606SOL     OW26716   4.115   4.696   5.702
 8606SOL    HW126717   4.053   4.661   5.631
 8606SOL    HW226718   4.188   4.748   5.658
 8607SOL     OW26719   4.465   5.454   2.164
 8607SOL    HW126720   4.510   5.459   2.253
 8607SOL    HW226721   4.482   5.537   2.112
 8608SOL     OW26722   4.488   5.299   2.614
 8608SOL    HW126723   4.470   5.343   2.702
 8608SOL    HW226724   4.401   5.278   2.569
 8609SOL     OW26725   3.541   0.733   5.287
 8609SOL    HW126726   3.637   0.762   5.291
 8609SOL    HW226727   3.537   0.638   5.255
 8610SOL     OW26728   1.278   6.388   3.578
 8610SOL    HW126729   1.186   6.413   3.550
 8610SOL    HW226730   1.343   6.455   3.544
 8611SOL     OW26731   2.068   1.852   4.805
 8611SOL    HW126732   2.127   1.894   4.736
 8611SOL    HW226733   2.098   1.758   4.822
 8612SOL     OW26734   3.941   2.898   6.301
 8612SOL    HW126735   3.946   2.997   6.317
 8612SOL    HW226736   4.019   2.870   6.245
 8613SOL     OW26737   2.096   2.069   1.165
 8613SOL    HW126738   2.093   1.970   1.156
 8613SOL    HW226739   2.056   2.096   1.252
 8614SOL     OW26740   0.940   2.683   3.285
 8614SOL    HW126741   1.020   2.735   3.315
 8614SOL    HW226742   0.916   2.709   3.192
 8615SOL     OW26743   4.443   1.918   5.519
 8615SOL    HW126744   4.399   1.834   5.489
 8615SOL    HW226745   4.522   1.896   5.576
 8616SOL     OW26746   0.699   4.760   0.386
 8616SOL    HW126747   0.721   4.846   0.432
 8616SOL    HW226748   0.687   4.688   0.453
 8617SOL     OW26749   6.377   2.790   1.018
 8617SOL    HW126750   6.289   2.787   0.970
 8617SOL    HW226751   6.373   2.860   1.089
 8618SOL     OW26752   4.556   0.181   3.223
 8618SOL    HW126753   4.627   0.111   3.215
 8618SOL    HW226754   4.488   0.168   3.150
 8619SOL     OW26755   4.699   5.377   6.991
 8619SOL    HW126756   4.798   5.366   6.986
 8619SOL    HW226757   4.666   5.417   6.905
 8620SOL     OW26758   6.308   6.210   2.200
 8620SOL    HW126759   6.285   6.186   2.294
 8620SOL    HW226760   6.406   6.198   2.186
 8621SOL     OW26761   5.846   1.203   3.981
 8621SOL    HW126762   5.777   1.229   3.913
 8621SOL    HW226763   5.922   1.268   3.977
 8622SOL     OW26764   4.526   5.049   0.525
 8622SOL    HW126765   4.616   5.042   0.569
 8622SOL    HW226766   4.533   5.019   0.430
 8623SOL     OW26767   0.822   3.714   2.953
 8623SOL    HW126768   0.728   3.745   2.963
 8623SOL    HW226769   0.829   3.619   2.983
 8624SOL     OW26770   0.684   4.003   3.131
 8624SOL    HW126771   0.687   3.919   3.076
 8624SOL    HW226772   0.666   4.081   3.071
 8625SOL     OW26773   3.945   0.987   4.665
 8625SOL    HW126774   4.007   0.911   4.647
 8625SOL    HW226775   3.997   1.072   4.669
 8626SOL     OW26776   3.175   3.510   4.260
 8626SOL    HW126777   3.199   3.483   4.167
 8626SOL    HW226778   3.212   3.442   4.324
 8627SOL     OW26779   1.081   1.060   0.836
 8627SOL    HW126780   1.059   1.140   0.893
 8627SOL    HW226781   1.149   1.086   0.768
 8628SOL     OW26782   5.314   0.939   6.701
 8628SOL    HW126783   5.405   0.909   6.729
 8628SOL    HW226784   5.255   0.860   6.687
 8629SOL     OW26785   1.442   4.504   3.868
 8629SOL    HW126786   1.435   4.534   3.773
 8629SOL    HW226787   1.513   4.557   3.915
 8630SOL     OW26788   5.872   4.132   3.923
 8630SOL    HW126789   5.818   4.102   3.844
 8630SOL    HW226790   5.941   4.198   3.893
 8631SOL     OW26791   3.789   6.095   4.987
 8631SOL    HW126792   3.876   6.051   4.967
 8631SOL    HW226793   3.766   6.080   5.084
 8632SOL     OW26794   3.882   0.183   3.194
 8632SOL    HW126795   3.903   0.276   3.163
 8632SOL    HW226796   3.840   0.187   3.284
 8633SOL     OW26797   5.425   1.314   4.098
 8633SOL    HW126798   5.469   1.394   4.139
 8633SOL    HW226799   5.367   1.269   4.166
 8634SOL     OW26800   6.842   4.842   1.960
 8634SOL    HW126801   6.777   4.910   1.926
 8634SOL    HW226802   6.861   4.859   2.057
 8635SOL     OW26803   5.935   3.551   6.000
 8635SOL    HW126804   5.988   3.598   5.930
 8635SOL    HW226805   5.838   3.554   5.976
 8636SOL     OW26806   6.671   6.057   0.357
 8636SOL    HW126807   6.767   6.054   0.383
 8636SOL    HW226808   6.624   6.128   0.408
 8637SOL     OW26809   1.806   0.672   0.694
 8637SOL    HW126810   1.880   0.610   0.667
 8637SOL    HW226811   1.776   0.725   0.615
 8638SOL     OW26812   2.912   5.023   0.431
 8638SOL    HW126813   2.975   5.100   0.445
 8638SOL    HW226814   2.837   5.028   0.497
 8639SOL     OW26815   5.890   3.497   2.147
 8639SOL    HW126816   5.824   3.491   2.072
 8639SOL    HW226817   5.970   3.548   2.117
 8640SOL     OW26818   5.026   5.080   0.797
 8640SOL    HW126819   4.995   4.985   0.806
 8640SOL    HW226820   4.967   5.128   0.731
 8641SOL     OW26821   6.872   3.887   3.203
 8641SOL    HW126822   6.845   3.978   3.170
 8641SOL    HW226823   6.899   3.893   3.299
 8642SOL     OW26824   4.541   0.848   1.623
 8642SOL    HW126825   4.606   0.920   1.601
 8642SOL    HW226826   4.515   0.854   1.719
 8643SOL     OW26827   4.183   0.584   6.545
 8643SOL    HW126828   4.107   0.536   6.501
 8643SOL    HW226829   4.149   0.635   6.624
 8644SOL     OW26830   5.627   2.254   4.426
 8644SOL    HW126831   5.548   2.219   4.475
 8644SOL    HW226832   5.651   2.191   4.352
 8645SOL     OW26833   6.574   3.702   1.424
 8645SOL    HW126834   6.669   3.683   1.401
 8645SOL    HW226835   6.570   3.761   1.505
 8646SOL     OW26836   5.261   0.741   7.002
 8646SOL    HW126837   5.227   0.742   6.908
 8646SOL    HW226838   5.183   0.751   0.040
 8647SOL     OW26839   3.925   4.538   6.788
 8647SOL    HW126840   3.903   4.495   6.876
 8647SOL    HW226841   3.871   4.622   6.778
 8648SOL     OW26842   5.805   0.934   4.372
 8648SOL    HW126843   5.813   0.840   4.339
 8648SOL    HW226844   5.727   0.942   4.433
 8649SOL     OW26845   6.097   3.984   5.559
 8649SOL    HW126846   6.072   4.023   5.647
 8649SOL    HW226847   6.186   4.019   5.530
 8650SOL     OW26848   2.353   5.207   3.770
 8650SOL    HW126849   2.273   5.181   3.716
 8650SOL    HW226850   2.391   5.292   3.734
 8651SOL     OW26851   3.694   1.758   0.032
 8651SOL    HW126852   3.635   1.731   0.108
 8651SOL    HW226853   3.640   1.807   6.988
 8652SOL     OW26854   2.039   3.568   3.591
 8652SOL    HW126855   2.059   3.549   3.494
 8652SOL    HW226856   1.965   3.508   3.622
 8653SOL     OW26857   0.081   3.039   6.967
 8653SOL    HW126858   0.114   2.946   6.985
 8653SOL    HW226859   0.143   3.104   7.011
 8654SOL     OW26860   0.419   6.893   2.925
 8654SOL    HW126861   0.356   6.821   2.897
 8654SOL    HW226862   0.390   6.931   3.013
 8655SOL     OW26863   6.052   6.186   4.700
 8655SOL    HW126864   6.092   6.263   4.650
 8655SOL    HW226865   6.070   6.198   4.798
 8656SOL     OW26866   6.701   0.892   1.433
 8656SOL    HW126867   6.639   0.815   1.445
 8656SOL    HW226868   6.703   0.947   1.517
 8657SOL     OW26869   4.658   4.766   6.489
 8657SOL    HW126870   4.583   4.706   6.464
 8657SOL    HW226871   4.684   4.821   6.409
 8658SOL     OW26872   5.882   5.377   0.070
 8658SOL    HW126873   5.831   5.292   0.085
 8658SOL    HW226874   5.839   5.428   7.021
 8659SOL     OW26875   5.011   0.321   3.271
 8659SOL    HW126876   4.995   0.335   3.369
 8659SOL    HW226877   5.000   0.407   3.222
 8660SOL     OW26878   5.514   3.586   0.656
 8660SOL    HW126879   5.601   3.551   0.621
 8660SOL    HW226880   5.441   3.520   0.637
 8661SOL     OW26881   6.498   4.143   1.738
 8661SOL    HW126882   6.422   4.209   1.734
 8661SOL    HW226883   6.575   4.184   1.786
 8662SOL     OW26884   6.475   6.238   1.200
 8662SOL    HW126885   6.446   6.187   1.281
 8662SOL    HW226886   6.400   6.238   1.133
 8663SOL     OW26887   2.351   5.646   0.922
 8663SOL    HW126888   2.347   5.577   0.850
 8663SOL    HW226889   2.378   5.734   0.883
 8664SOL     OW26890   4.129   6.081   0.013
 8664SOL    HW126891   4.145   6.081   6.939
 8664SOL    HW226892   4.195   6.020   0.056
 8665SOL     OW26893   4.349   5.452   5.167
 8665SOL    HW126894   4.311   5.534   5.211
 8665SOL    HW226895   4.439   5.473   5.129
 8666SOL     OW26896   4.936   2.769   5.614
 8666SOL    HW126897   5.018   2.755   5.560
 8666SOL    HW226898   4.960   2.802   5.705
 8667SOL     OW26899   4.905   1.490   3.583
 8667SOL    HW126900   4.821   1.543   3.595
 8667SOL    HW226901   4.982   1.540   3.622
 8668SOL     OW26902   4.843   2.046   4.175
 8668SOL    HW126903   4.839   2.027   4.273
 8668SOL    HW226904   4.933   2.082   4.152
 8669SOL     OW26905   4.068   0.682   6.181
 8669SOL    HW126906   4.063   0.614   6.254
 8669SOL    HW226907   4.103   0.768   6.219
 8670SOL     OW26908   3.491   5.471   4.211
 8670SOL    HW126909   3.532   5.478   4.302
 8670SOL    HW226910   3.483   5.562   4.171
 8671SOL     OW26911   6.239   6.877   3.759
 8671SOL    HW126912   6.335   6.867   3.736
 8671SOL    HW226913   6.192   6.789   3.746
 8672SOL     OW26914   3.369   4.983   4.209
 8672SOL    HW126915   3.452   4.955   4.161
 8672SOL    HW226916   3.372   5.081   4.228
 8673SOL     OW26917   6.716   1.602   0.588
 8673SOL    HW126918   6.714   1.687   0.641
 8673SOL    HW226919   6.652   1.608   0.512
 8674SOL     OW26920   6.949   0.689   2.771
 8674SOL    HW126921   6.900   0.761   2.821
 8674SOL    HW226922   6.883   0.630   2.725
 8675SOL     OW26923   2.548   1.155   3.464
 8675SOL    HW126924   2.508   1.108   3.385
 8675SOL    HW226925   2.521   1.107   3.547
 8676SOL     OW26926   3.908   0.123   2.474
 8676SOL    HW126927   3.916   0.223   2.473
 8676SOL    HW226928   3.937   0.088   2.563
 8677SOL     OW26929   2.927   4.112   6.305
 8677SOL    HW126930   2.861   4.079   6.238
 8677SOL    HW226931   2.917   4.211   6.317
 8678SOL     OW26932   0.836   0.335   6.463
 8678SOL    HW126933   0.919   0.351   6.410
 8678SOL    HW226934   0.842   0.246   6.508
 8679SOL     OW26935   6.404   1.874   5.370
 8679SOL    HW126936   6.402   1.853   5.273
 8679SOL    HW226937   6.462   1.954   5.386
 8680SOL     OW26938   1.369   3.680   0.338
 8680SOL    HW126939   1.377   3.662   0.436
 8680SOL    HW226940   1.460   3.694   0.299
 8681SOL     OW26941   4.420   4.346   0.381
 8681SOL    HW126942   4.506   4.296   0.370
 8681SOL    HW226943   4.402   4.360   0.479
 8682SOL     OW26944   2.542   6.471   2.724
 8682SOL    HW126945   2.503   6.563   2.727
 8682SOL    HW226946   2.472   6.403   2.746
 8683SOL     OW26947   0.847   2.926   1.373
 8683SOL    HW126948   0.828   2.876   1.457
 8683SOL    HW226949   0.877   2.862   1.302
 8684SOL     OW26950   6.000   2.762   5.273
 8684SOL    HW126951   6.018   2.680   5.328
 8684SOL    HW226952   6.085   2.793   5.231
 8685SOL     OW26953   0.914   1.802   6.774
 8685SOL    HW126954   0.893   1.845   6.686
 8685SOL    HW226955   0.841   1.737   6.796
 8686SOL     OW26956   6.863   2.053   2.606
 8686SOL    HW126957   6.863   2.120   2.532
 8686SOL    HW226958   6.954   2.046   2.645
 8687SOL     OW26959   3.718   6.566   2.110
 8687SOL    HW126960   3.720   6.551   2.011
 8687SOL    HW226961   3.666   6.494   2.154
 8688SOL     OW26962   3.103   0.047   1.445
 8688SOL    HW126963   3.176   7.010   1.475
 8688SOL    HW226964   3.128   0.089   1.358
 8689SOL     OW26965   4.485   5.705   7.008
 8689SOL    HW126966   4.430   5.642   6.954
 8689SOL    HW226967   4.425   5.761   0.041
 8690SOL     OW26968   0.585   1.757   3.614
 8690SOL    HW126969   0.594   1.784   3.519
 8690SOL    HW226970   0.634   1.671   3.629
 8691SOL     OW26971   4.385   2.557   6.362
 8691SOL    HW126972   4.378   2.530   6.458
 8691SOL    HW226973   4.469   2.519   6.323
 8692SOL     OW26974   2.707   2.076   3.338
 8692SOL    HW126975   2.705   2.036   3.430
 8692SOL    HW226976   2.801   2.098   3.312
 8693SOL     OW26977   5.624   2.151   0.950
 8693SOL    HW126978   5.713   2.157   0.904
 8693SOL    HW226979   5.634   2.101   1.035
 8694SOL     OW26980   4.404   0.358   6.784
 8694SOL    HW126981   4.391   0.344   6.882
 8694SOL    HW226982   4.314   0.363   6.739
 8695SOL     OW26983   5.099   3.334   5.268
 8695SOL    HW126984   5.109   3.244   5.224
 8695SOL    HW226985   5.005   3.346   5.299
 8696SOL     OW26986   2.828   5.829   1.007
 8696SOL    HW126987   2.849   5.900   0.940
 8696SOL    HW226988   2.889   5.751   0.993
 8697SOL     OW26989   6.757   3.369   1.028
 8697SOL    HW126990   6.814   3.344   1.106
 8697SOL    HW226991   6.708   3.455   1.048
 8698SOL     OW26992   5.476   6.068   4.441
 8698SOL    HW126993   5.549   6.136   4.433
 8698SOL    HW226994   5.496   6.006   4.517
 8699SOL     OW26995   0.794   1.652   5.777
 8699SOL    HW126996   0.807   1.698   5.689
 8699SOL    HW226997   0.712   1.688   5.821
 8700SOL     OW26998   2.309   0.628   5.090
 8700SOL    HW126999   2.259   0.639   5.176
 8700SOL    HW227000   2.265   0.682   5.018
 8701SOL     OW27001   1.064   0.846   5.432
 8701SOL    HW127002   1.057   0.826   5.335
 8701SOL    HW227003   1.101   0.938   5.445
 8702SOL     OW27004   5.660   5.066   0.253
 8702SOL    HW127005   5.604   5.121   0.191
 8702SOL    HW227006   5.729   5.016   0.200
 8703SOL     OW27007   3.189   5.741   1.115
 8703SOL    HW127008   3.218   5.754   1.020
 8703SOL    HW227009   3.222   5.653   1.149
 8704SOL     OW27010   6.811   4.856   2.248
 8704SOL    HW127011   6.721   4.889   2.220
 8704SOL    HW227012   6.863   4.932   2.287
 8705SOL     OW27013   4.794   0.162   6.131
 8705SOL    HW127014   4.878   0.176   6.080
 8705SOL    HW227015   4.801   0.079   6.187
 8706SOL     OW27016   5.017   2.164   6.845
 8706SOL    HW127017   5.103   2.213   6.861
 8706SOL    HW227018   5.035   2.079   6.797
 8707SOL     OW27019   4.607   3.002   6.992
 8707SOL    HW127020   4.707   3.001   6.984
 8707SOL    HW227021   4.571   3.082   6.943
 8708SOL     OW27022   3.448   0.984   1.318
 8708SOL    HW127023   3.473   0.911   1.382
 8708SOL    HW227024   3.361   0.960   1.274
 8709SOL     OW27025   0.014   4.596   0.464
 8709SOL    HW127026   0.010   4.636   0.555
 8709SOL    HW227027   6.989   4.654   0.400
 8710SOL     OW27028   1.710   3.423   3.149
 8710SOL    HW127029   1.797   3.468   3.129
 8710SOL    HW227030   1.655   3.416   3.066
 8711SOL     OW27031   5.964   0.804   2.607
 8711SOL    HW127032   5.901   0.827   2.533
 8711SOL    HW227033   5.980   0.884   2.664
 8712SOL     OW27034   3.200   1.601   4.837
 8712SOL    HW127035   3.167   1.513   4.804
 8712SOL    HW227036   3.294   1.616   4.804
 8713SOL     OW27037   6.803   4.278   3.642
 8713SOL    HW127038   6.708   4.295   3.620
 8713SOL    HW227039   6.816   4.180   3.660
 8714SOL     OW27040   1.452   0.903   5.834
 8714SOL    HW127041   1.477   0.999   5.847
 8714SOL    HW227042   1.385   0.876   5.903
 8715SOL     OW27043   6.419   1.045   1.657
 8715SOL    HW127044   6.511   1.008   1.638
 8715SOL    HW227045   6.352   0.993   1.604
 8716SOL     OW27046   0.787   1.526   1.154
 8716SOL    HW127047   0.789   1.446   1.094
 8716SOL    HW227048   0.842   1.508   1.236
 8717SOL     OW27049   4.142   3.766   1.980
 8717SOL    HW127050   4.200   3.846   1.993
 8717SOL    HW227051   4.114   3.729   2.069
 8718SOL     OW27052   0.173   2.556   4.546
 8718SOL    HW127053   0.130   2.466   4.538
 8718SOL    HW227054   0.122   2.623   4.494
 8719SOL     OW27055   1.326   0.552   5.821
 8719SOL    HW127056   1.359   0.479   5.881
 8719SOL    HW227057   1.345   0.641   5.863
 8720SOL     OW27058   5.740   4.847   5.012
 8720SOL    HW127059   5.775   4.905   4.938
 8720SOL    HW227060   5.735   4.900   5.096
 8721SOL     OW27061   6.727   2.033   4.538
 8721SOL    HW127062   6.750   2.086   4.457
 8721SOL    HW227063   6.808   2.026   4.597
 8722SOL     OW27064   3.607   2.307   0.638
 8722SOL    HW127065   3.680   2.274   0.698
 8722SOL    HW227066   3.525   2.251   0.652
 8723SOL     OW27067   6.528   5.888   0.687
 8723SOL    HW127068   6.509   5.822   0.760
 8723SOL    HW227069   6.626   5.908   0.686
 8724SOL     OW27070   5.498   0.524   5.997
 8724SOL    HW127071   5.557   0.594   6.036
 8724SOL    HW227072   5.480   0.454   6.066
 8725SOL     OW27073   2.119   0.219   0.348
 8725SOL    HW127074   2.068   0.256   0.270
 8725SOL    HW227075   2.061   0.154   0.398
 8726SOL     OW27076   5.935   0.071   1.500
 8726SOL    HW127077   6.021   0.021   1.485
 8726SOL    HW227078   5.870   0.049   1.427
 8727SOL     OW27079   6.358   6.071   1.674
 8727SOL    HW127080   6.265   6.096   1.646
 8727SOL    HW227081   6.416   6.152   1.674
 8728SOL     OW27082   3.051   6.615   5.147
 8728SOL    HW127083   2.990   6.547   5.107
 8728SOL    HW227084   3.120   6.570   5.204
 8729SOL     OW27085   3.977   5.282   3.472
 8729SOL    HW127086   3.913   5.323   3.407
 8729SOL    HW227087   4.025   5.206   3.428
 8730SOL     OW27088   0.397   5.925   2.205
 8730SOL    HW127089   0.338   5.846   2.190
 8730SOL    HW227090   0.351   5.989   2.267
 8731SOL     OW27091   1.158   1.744   3.587
 8731SOL    HW127092   1.206   1.827   3.615
 8731SOL    HW227093   1.179   1.670   3.650
 8732SOL     OW27094   5.611   3.784   1.771
 8732SOL    HW127095   5.521   3.761   1.736
 8732SOL    HW227096   5.642   3.870   1.731
 8733SOL     OW27097   0.902   6.335   1.809
 8733SOL    HW127098   0.897   6.385   1.895
 8733SOL    HW227099   0.980   6.272   1.813
 8734SOL     OW27100   0.430   5.872   1.260
 8734SOL    HW127101   0.497   5.838   1.326
 8734SOL    HW227102   0.341   5.831   1.278
 8735SOL     OW27103   0.495   1.872   0.078
 8735SOL    HW127104   0.460   1.804   0.143
 8735SOL    HW227105   0.423   1.938   0.056
 8736SOL     OW27106   0.825   5.113   6.581
 8736SOL    HW127107   0.878   5.029   6.580
 8736SOL    HW227108   0.842   5.165   6.497
 8737SOL     OW27109   3.436   6.181   5.987
 8737SOL    HW127110   3.466   6.090   6.018
 8737SOL    HW227111   3.389   6.228   6.062
 8738SOL     OW27112   1.398   3.862   3.944
 8738SOL    HW127113   1.407   3.771   3.986
 8738SOL    HW227114   1.488   3.903   3.932
 8739SOL     OW27115   6.725   3.613   5.651
 8739SOL    HW127116   6.631   3.579   5.655
 8739SOL    HW227117   6.726   3.709   5.681
 8740SOL     OW27118   2.759   0.095   6.557
 8740SOL    HW127119   2.664   0.095   6.524
 8740SOL    HW227120   2.767   0.159   6.633
 8741SOL     OW27121   1.318   2.580   2.479
 8741SOL    HW127122   1.394   2.588   2.543
 8741SOL    HW227123   1.349   2.602   2.386
 8742SOL     OW27124   4.655   6.946   1.476
 8742SOL    HW127125   4.557   6.926   1.484
 8742SOL    HW227126   4.699   6.934   1.566
 8743SOL     OW27127   1.953   5.817   2.149
 8743SOL    HW127128   2.007   5.883   2.202
 8743SOL    HW227129   1.901   5.759   2.212
 8744SOL     OW27130   4.176   2.775   6.632
 8744SOL    HW127131   4.274   2.789   6.617
 8744SOL    HW227132   4.162   2.727   6.718
 8745SOL     OW27133   6.121   2.076   5.412
 8745SOL    HW127134   6.169   2.051   5.496
 8745SOL    HW227135   6.063   2.000   5.383
 8746SOL     OW27136   5.297   5.045   5.226
 8746SOL    HW127137   5.266   4.985   5.299
 8746SOL    HW227138   5.326   5.133   5.264
 8747SOL     OW27139   1.181   2.523   4.070
 8747SOL    HW127140   1.101   2.535   4.128
 8747SOL    HW227141   1.260   2.499   4.127
 8748SOL     OW27142   1.308   0.388   6.666
 8748SOL    HW127143   1.329   0.427   6.756
 8748SOL    HW227144   1.239   0.444   6.620
 8749SOL     OW27145   3.653   0.639   3.809
 8749SOL    HW127146   3.747   0.668   3.826
 8749SOL    HW227147   3.591   0.717   3.820
 8750SOL     OW27148   2.129   2.326   5.044
 8750SOL    HW127149   2.033   2.302   5.028
 8750SOL    HW227150   2.169   2.361   4.960
 8751SOL     OW27151   0.834   0.132   1.985
 8751SOL    HW127152   0.884   0.219   1.991
 8751SOL    HW227153   0.748   0.139   2.036
 8752SOL     OW27154   1.938   3.436   6.641
 8752SOL    HW127155   1.962   3.482   6.726
 8752SOL    HW227156   2.021   3.409   6.593
 8753SOL     OW27157   5.604   1.348   4.815
 8753SOL    HW127158   5.596   1.348   4.716
 8753SOL    HW227159   5.698   1.326   4.841
 8754SOL     OW27160   0.877   1.440   6.161
 8754SOL    HW127161   0.873   1.343   6.185
 8754SOL    HW227162   0.928   1.451   6.075
 8755SOL     OW27163   2.767   0.833   0.610
 8755SOL    HW127164   2.711   0.911   0.640
 8755SOL    HW227165   2.716   0.748   0.626
 8756SOL     OW27166   2.198   3.085   4.102
 8756SOL    HW127167   2.256   3.151   4.148
 8756SOL    HW227168   2.117   3.131   4.066
 8757SOL     OW27169   4.172   6.705   4.673
 8757SOL    HW127170   4.099   6.666   4.729
 8757SOL    HW227171   4.228   6.767   4.729
 8758SOL     OW27172   5.985   6.220   2.183
 8758SOL    HW127173   6.079   6.193   2.203
 8758SOL    HW227174   5.935   6.142   2.146
 8759SOL     OW27175   4.637   0.742   5.863
 8759SOL    HW127176   4.647   0.833   5.821
 8759SOL    HW227177   4.703   0.733   5.938
 8760SOL     OW27178   1.895   1.917   4.334
 8760SOL    HW127179   1.844   1.848   4.385
 8760SOL    HW227180   1.848   2.005   4.341
 8761SOL     OW27181   5.121   0.376   6.921
 8761SOL    HW127182   5.112   0.440   6.844
 8761SOL    HW227183   5.206   0.324   6.911
 8762SOL     OW27184   1.244   3.616   1.416
 8762SOL    HW127185   1.164   3.643   1.361
 8762SOL    HW227186   1.222   3.533   1.467
 8763SOL     OW27187   0.377   6.249   6.012
 8763SOL    HW127188   0.317   6.174   6.042
 8763SOL    HW227189   0.459   6.211   5.969
 8764SOL     OW27190   4.917   1.604   4.353
 8764SOL    HW127191   4.921   1.510   4.387
 8764SOL    HW227192   4.909   1.666   4.431
 8765SOL     OW27193   5.582   6.751   4.814
 8765SOL    HW127194   5.649   6.820   4.840
 8765SOL    HW227195   5.541   6.711   4.896
 8766SOL     OW27196   2.260   5.148   2.927
 8766SOL    HW127197   2.244   5.125   2.831
 8766SOL    HW227198   2.255   5.066   2.983
 8767SOL     OW27199   4.736   1.107   3.025
 8767SOL    HW127200   4.640   1.125   3.005
 8767SOL    HW227201   4.787   1.104   2.939
 8768SOL     OW27202   2.210   3.580   0.318
 8768SOL    HW127203   2.196   3.661   0.260
 8768SOL    HW227204   2.285   3.525   0.282
 8769SOL     OW27205   0.859   0.093   5.660
 8769SOL    HW127206   0.914   0.169   5.695
 8769SOL    HW227207   0.863   0.092   5.561
 8770SOL     OW27208   5.378   3.779   1.610
 8770SOL    HW127209   5.304   3.713   1.598
 8770SOL    HW227210   5.340   3.866   1.642
 8771SOL     OW27211   1.904   1.562   6.864
 8771SOL    HW127212   1.942   1.560   6.772
 8771SOL    HW227213   1.905   1.655   6.899
 8772SOL     OW27214   5.637   1.319   6.536
 8772SOL    HW127215   5.663   1.357   6.448
 8772SOL    HW227216   5.691   1.363   6.608
 8773SOL     OW27217   3.075   1.939   3.201
 8773SOL    HW127218   3.161   1.971   3.161
 8773SOL    HW227219   3.017   1.900   3.130
 8774SOL     OW27220   1.188   1.701   0.756
 8774SOL    HW127221   1.177   1.614   0.803
 8774SOL    HW227222   1.101   1.730   0.716
 8775SOL     OW27223   6.011   6.804   3.460
 8775SOL    HW127224   6.050   6.729   3.512
 8775SOL    HW227225   6.084   6.866   3.431
 8776SOL     OW27226   3.063   3.079   4.968
 8776SOL    HW127227   3.044   2.981   4.978
 8776SOL    HW227228   3.135   3.105   5.032
 8777SOL     OW27229   6.028   5.703   2.141
 8777SOL    HW127230   6.066   5.777   2.085
 8777SOL    HW227231   6.102   5.646   2.175
 8778SOL     OW27232   6.945   1.933   3.498
 8778SOL    HW127233   6.950   1.873   3.578
 8778SOL    HW227234   6.938   2.028   3.528
 8779SOL     OW27235   1.571   4.919   1.359
 8779SOL    HW127236   1.506   4.967   1.300
 8779SOL    HW227237   1.580   4.824   1.327
 8780SOL     OW27238   0.576   5.366   4.306
 8780SOL    HW127239   0.620   5.455   4.319
 8780SOL    HW227240   0.599   5.330   4.216
 8781SOL     OW27241   0.592   2.067   3.202
 8781SOL    HW127242   0.587   2.152   3.254
 8781SOL    HW227243   0.506   2.053   3.153
 8782SOL     OW27244   4.336   1.214   2.548
 8782SOL    HW127245   4.283   1.280   2.495
 8782SOL    HW227246   4.304   1.121   2.528
 8783SOL     OW27247   5.819   3.942   4.309
 8783SOL    HW127248   5.807   4.018   4.372
 8783SOL    HW227249   5.732   3.920   4.264
 8784SOL     OW27250   5.721   5.198   5.642
 8784SOL    HW127251   5.709   5.185   5.543
 8784SOL    HW227252   5.656   5.140   5.691
 8785SOL     OW27253   5.456   4.342   6.834
 8785SOL    HW127254   5.474   4.247   6.809
 8785SOL    HW227255   5.542   4.392   6.840
 8786SOL     OW27256   1.669   6.635   0.095
 8786SOL    HW127257   1.738   6.705   0.111
 8786SOL    HW227258   1.582   6.664   0.135
 8787SOL     OW27259   1.779   3.588   1.491
 8787SOL    HW127260   1.814   3.555   1.403
 8787SOL    HW227261   1.792   3.687   1.496
 8788SOL     OW27262   6.981   1.978   5.289
 8788SOL    HW127263   6.911   2.049   5.299
 8788SOL    HW227264   0.031   2.012   5.231
 8789SOL     OW27265   6.488   0.394   6.772
 8789SOL    HW127266   6.458   0.299   6.758
 8789SOL    HW227267   6.422   0.456   6.731
 8790SOL     OW27268   6.301   1.757   6.720
 8790SOL    HW127269   6.361   1.743   6.642
 8790SOL    HW227270   6.260   1.669   6.747
 8791SOL     OW27271   4.614   6.761   5.973
 8791SOL    HW127272   4.651   6.678   6.015
 8791SOL    HW227273   4.687   6.828   5.963
 8792SOL     OW27274   4.398   6.717   3.053
 8792SOL    HW127275   4.470   6.648   3.051
 8792SOL    HW227276   4.341   6.703   3.135
 8793SOL     OW27277   1.744   5.943   3.509
 8793SOL    HW127278   1.741   5.898   3.598
 8793SOL    HW227279   1.685   5.895   3.445
 8794SOL     OW27280   1.916   0.068   2.727
 8794SOL    HW127281   1.907   0.140   2.659
 8794SOL    HW227282   1.964   7.015   2.687
 8795SOL     OW27283   1.657   6.700   5.774
 8795SOL    HW127284   1.665   6.613   5.822
 8795SOL    HW227285   1.723   6.765   5.812
 8796SOL     OW27286   4.874   2.221   5.442
 8796SOL    HW127287   4.863   2.214   5.343
 8796SOL    HW227288   4.854   2.132   5.484
 8797SOL     OW27289   0.636   6.782   5.986
 8797SOL    HW127290   0.726   6.759   5.949
 8797SOL    HW227291   0.596   6.857   5.933
 8798SOL     OW27292   5.445   3.609   5.167
 8798SOL    HW127293   5.354   3.592   5.205
 8798SOL    HW227294   5.478   3.527   5.121
 8799SOL     OW27295   3.020   4.902   3.030
 8799SOL    HW127296   3.042   4.976   2.966
 8799SOL    HW227297   3.047   4.815   2.991
 8800SOL     OW27298   4.643   4.674   6.130
 8800SOL    HW127299   4.670   4.643   6.039
 8800SOL    HW227300   4.695   4.756   6.154
 8801SOL     OW27301   2.642   1.274   4.365
 8801SOL    HW127302   2.629   1.330   4.447
 8801SOL    HW227303   2.653   1.334   4.285
 8802SOL     OW27304   2.004   6.221   2.352
 8802SOL    HW127305   2.023   6.315   2.322
 8802SOL    HW227306   1.955   6.224   2.439
 8803SOL     OW27307   2.788   5.613   0.112
 8803SOL    HW127308   2.824   5.519   0.112
 8803SOL    HW227309   2.818   5.660   0.195
 8804SOL     OW27310   4.111   0.391   1.175
 8804SOL    HW127311   4.121   0.436   1.264
 8804SOL    HW227312   4.186   0.420   1.115
 8805SOL     OW27313   0.597   0.085   3.185
 8805SOL    HW127314   0.586   0.120   3.278
 8805SOL    HW227315   0.512   0.041   3.155
 8806SOL     OW27316   1.619   5.205   0.271
 8806SOL    HW127317   1.648   5.186   0.365
 8806SOL    HW227318   1.520   5.219   0.269
 8807SOL     OW27319   0.598   6.122   5.870
 8807SOL    HW127320   0.617   6.024   5.882
 8807SOL    HW227321   0.637   6.153   5.783
 8808SOL     OW27322   5.137   1.049   0.093
 8808SOL    HW127323   5.230   1.037   0.127
 8808SOL    HW227324   5.139   1.071   7.020
 8809SOL     OW27325   6.031   3.987   1.617
 8809SOL    HW127326   5.967   3.976   1.541
 8809SOL    HW227327   6.099   3.914   1.614
 8810SOL     OW27328   4.448   1.703   3.551
 8810SOL    HW127329   4.353   1.733   3.552
 8810SOL    HW227330   4.475   1.678   3.458
 8811SOL     OW27331   2.526   1.647   3.356
 8811SOL    HW127332   2.511   1.735   3.311
 8811SOL    HW227333   2.445   1.590   3.348
 8812SOL     OW27334   1.291   1.077   0.611
 8812SOL    HW127335   1.235   1.085   0.529
 8812SOL    HW227336   1.333   1.165   0.632
 8813SOL     OW27337   1.471   6.759   2.134
 8813SOL    HW127338   1.496   6.745   2.039
 8813SOL    HW227339   1.441   6.672   2.174
 8814SOL     OW27340   6.391   0.898   0.002
 8814SOL    HW127341   6.470   0.943   0.042
 8814SOL    HW227342   6.407   0.882   6.929
 8815SOL     OW27343   0.203   6.144   2.529
 8815SOL    HW127344   0.194   6.116   2.433
 8815SOL    HW227345   0.113   6.167   2.566
 8816SOL     OW27346   1.076   5.901   1.741
 8816SOL    HW127347   1.111   5.817   1.783
 8816SOL    HW227348   0.998   5.934   1.793
 8817SOL     OW27349   1.352   5.627   5.107
 8817SOL    HW127350   1.258   5.597   5.097
 8817SOL    HW227351   1.389   5.593   5.194
 8818SOL     OW27352   0.257   4.611   3.867
 8818SOL    HW127353   0.226   4.559   3.788
 8818SOL    HW227354   0.189   4.606   3.940
 8819SOL     OW27355   5.236   6.191   4.195
 8819SOL    HW127356   5.230   6.200   4.295
 8819SOL    HW227357   5.169   6.252   4.153
 8820SOL     OW27358   1.795   2.422   4.402
 8820SOL    HW127359   1.801   2.341   4.459
 8820SOL    HW227360   1.815   2.503   4.457
 8821SOL     OW27361   2.566   0.335   6.165
 8821SOL    HW127362   2.568   0.349   6.066
 8821SOL    HW227363   2.593   0.420   6.211
 8822SOL     OW27364   0.639   1.401   3.656
 8822SOL    HW127365   0.572   1.406   3.582
 8822SOL    HW227366   0.647   1.306   3.687
 8823SOL     OW27367   1.678   6.847   0.896
 8823SOL    HW127368   1.763   6.794   0.899
 8823SOL    HW227369   1.669   6.890   0.806
 8824SOL     OW27370   3.664   4.147   0.718
 8824SOL    HW127371   3.665   4.047   0.717
 8824SOL    HW227372   3.670   4.179   0.812
 8825SOL     OW27373   0.930   1.304   1.933
 8825SOL    HW127374   0.994   1.355   1.875
 8825SOL    HW227375   0.860   1.367   1.967
 8826SOL     OW27376   5.395   1.212   6.403
 8826SOL    HW127377   5.466   1.231   6.471
 8826SOL    HW227378   5.358   1.299   6.369
 8827SOL     OW27379   1.760   1.437   3.359
 8827SOL    HW127380   1.742   1.407   3.452
 8827SOL    HW227381   1.796   1.531   3.360
 8828SOL     OW27382   2.843   6.248   2.399
 8828SOL    HW127383   2.750   6.265   2.432
 8828SOL    HW227384   2.906   6.241   2.477
 8829SOL     OW27385   0.185   1.825   6.909
 8829SOL    HW127386   0.153   1.756   6.973
 8829SOL    HW227387   0.115   1.895   6.898
 8830SOL     OW27388   0.981   1.435   0.269
 8830SOL    HW127389   1.023   1.471   0.353
 8830SOL    HW227390   0.909   1.498   0.239
 8831SOL     OW27391   6.433   1.080   3.126
 8831SOL    HW127392   6.514   1.058   3.072
 8831SOL    HW227393   6.450   1.062   3.222
 8832SOL     OW27394   6.503   0.542   2.648
 8832SOL    HW127395   6.535   0.556   2.555
 8832SOL    HW227396   6.507   0.629   2.698
 8833SOL     OW27397   2.317   5.354   4.371
 8833SOL    HW127398   2.371   5.328   4.292
 8833SOL    HW227399   2.372   5.343   4.454
 8834SOL     OW27400   5.973   3.179   4.840
 8834SOL    HW127401   6.066   3.144   4.836
 8834SOL    HW227402   5.916   3.113   4.890
 8835SOL     OW27403   6.840   6.542   5.660
 8835SOL    HW127404   6.863   6.451   5.625
 8835SOL    HW227405   6.918   6.580   5.710
 8836SOL     OW27406   4.332   1.368   6.776
 8836SOL    HW127407   4.340   1.352   6.875
 8836SOL    HW227408   4.402   1.433   6.748
 8837SOL     OW27409   0.399   0.992   1.635
 8837SOL    HW127410   0.300   0.982   1.624
 8837SOL    HW227411   0.446   0.927   1.575
 8838SOL     OW27412   2.700   5.182   3.131
 8838SOL    HW127413   2.659   5.112   3.073
 8838SOL    HW227414   2.644   5.265   3.128
 8839SOL     OW27415   6.077   5.966   3.784
 8839SOL    HW127416   6.125   5.908   3.718
 8839SOL    HW227417   6.110   5.947   3.876
 8840SOL     OW27418   5.801   2.313   2.106
 8840SOL    HW127419   5.858   2.232   2.105
 8840SOL    HW227420   5.857   2.394   2.121
 8841SOL     OW27421   0.842   1.749   5.502
 8841SOL    HW127422   0.810   1.802   5.423
 8841SOL    HW227423   0.942   1.754   5.506
 8842SOL     OW27424   2.406   2.791   1.891
 8842SOL    HW127425   2.369   2.858   1.827
 8842SOL    HW227426   2.484   2.745   1.849
 8843SOL     OW27427   1.304   2.569   4.880
 8843SOL    HW127428   1.295   2.470   4.869
 8843SOL    HW227429   1.213   2.610   4.885
 8844SOL     OW27430   6.404   0.413   6.158
 8844SOL    HW127431   6.312   0.372   6.164
 8844SOL    HW227432   6.437   0.406   6.064
 8845SOL     OW27433   4.909   4.132   0.225
 8845SOL    HW127434   4.913   4.056   0.160
 8845SOL    HW227435   4.992   4.134   0.279
 8846SOL     OW27436   2.152   4.474   3.796
 8846SOL    HW127437   2.129   4.429   3.710
 8846SOL    HW227438   2.227   4.425   3.841
 8847SOL     OW27439   3.374   6.999   2.289
 8847SOL    HW127440   3.357   6.924   2.225
 8847SOL    HW227441   3.360   0.062   2.242
 8848SOL     OW27442   1.529   0.524   2.137
 8848SOL    HW127443   1.493   0.444   2.184
 8848SOL    HW227444   1.568   0.588   2.205
 8849SOL     OW27445   2.573   6.678   1.641
 8849SOL    HW127446   2.484   6.639   1.663
 8849SOL    HW227447   2.642   6.606   1.643
 8850SOL     OW27448   3.386   2.236   6.577
 8850SOL    HW127449   3.415   2.272   6.665
 8850SOL    HW227450   3.461   2.244   6.511
 8851SOL     OW27451   1.766   4.420   2.521
 8851SOL    HW127452   1.751   4.504   2.469
 8851SOL    HW227453   1.768   4.342   2.459
 8852SOL     OW27454   1.206   1.605   6.102
 8852SOL    HW127455   1.140   1.635   6.171
 8852SOL    HW227456   1.187   1.652   6.016
 8853SOL     OW27457   3.734   1.212   0.328
 8853SOL    HW127458   3.748   1.306   0.298
 8853SOL    HW227459   3.756   1.204   0.425
 8854SOL     OW27460   1.595   3.299   5.038
 8854SOL    HW127461   1.621   3.380   5.090
 8854SOL    HW227462   1.654   3.290   4.958
 8855SOL     OW27463   5.710   5.055   0.687
 8855SOL    HW127464   5.728   5.071   0.590
 8855SOL    HW227465   5.631   5.110   0.716
 8856SOL     OW27466   0.850   5.640   6.378
 8856SOL    HW127467   0.797   5.725   6.378
 8856SOL    HW227468   0.937   5.656   6.426
 8857SOL     OW27469   6.612   1.264   5.371
 8857SOL    HW127470   6.592   1.182   5.317
 8857SOL    HW227471   6.534   1.327   5.365
 8858SOL     OW27472   6.282   4.702   4.544
 8858SOL    HW127473   6.269   4.763   4.466
 8858SOL    HW227474   6.211   4.632   4.545
 8859SOL     OW27475   0.647   0.510   3.703
 8859SOL    HW127476   0.576   0.453   3.745
 8859SOL    HW227477   0.631   0.606   3.727
 8860SOL     OW27478   6.744   2.331   1.784
 8860SOL    HW127479   6.653   2.313   1.822
 8860SOL    HW227480   6.750   2.428   1.760
 8861SOL     OW27481   4.361   2.411   1.479
 8861SOL    HW127482   4.445   2.464   1.475
 8861SOL    HW227483   4.286   2.464   1.440
 8862SOL     OW27484   4.658   5.130   5.184
 8862SOL    HW127485   4.560   5.117   5.176
 8862SOL    HW227486   4.700   5.045   5.217
 8863SOL     OW27487   2.288   4.078   3.800
 8863SOL    HW127488   2.324   4.017   3.871
 8863SOL    HW227489   2.302   4.038   3.710
 8864SOL     OW27490   5.698   1.361   5.651
 8864SOL    HW127491   5.694   1.372   5.751
 8864SOL    HW227492   5.783   1.315   5.626
 8865SOL     OW27493   2.047   1.603   6.640
 8865SOL    HW127494   2.031   1.670   6.567
 8865SOL    HW227495   2.020   1.513   6.608
 8866SOL     OW27496   5.858   5.737   2.335
 8866SOL    HW127497   5.918   5.736   2.256
 8866SOL    HW227498   5.786   5.805   2.322
 8867SOL     OW27499   6.384   4.138   2.661
 8867SOL    HW127500   6.313   4.068   2.670
 8867SOL    HW227501   6.464   4.098   2.616
 8868SOL     OW27502   0.367   3.666   3.709
 8868SOL    HW127503   0.447   3.681   3.651
 8868SOL    HW227504   0.376   3.722   3.792
 8869SOL     OW27505   3.130   6.306   3.629
 8869SOL    HW127506   3.174   6.221   3.598
 8869SOL    HW227507   3.084   6.290   3.716
 8870SOL     OW27508   1.459   0.221   2.401
 8870SOL    HW127509   1.558   0.223   2.419
 8870SOL    HW227510   1.430   0.128   2.381
 8871SOL     OW27511   0.526   0.816   3.011
 8871SOL    HW127512   0.543   0.900   2.958
 8871SOL    HW227513   0.525   0.738   2.949
 8872SOL     OW27514   0.555   4.686   4.677
 8872SOL    HW127515   0.586   4.762   4.733
 8872SOL    HW227516   0.521   4.612   4.736
 8873SOL     OW27517   1.505   0.596   2.691
 8873SOL    HW127518   1.486   0.590   2.789
 8873SOL    HW227519   1.451   0.528   2.643
 8874SOL     OW27520   3.227   5.706   0.309
 8874SOL    HW127521   3.293   5.702   0.384
 8874SOL    HW227522   3.276   5.718   0.223
 8875SOL     OW27523   0.192   3.269   3.664
 8875SOL    HW127524   0.127   3.332   3.707
 8875SOL    HW227525   0.238   3.316   3.588
 8876SOL     OW27526   3.822   0.543   6.601
 8876SOL    HW127527   3.854   0.521   6.693
 8876SOL    HW227528   3.851   0.471   6.538
 8877SOL     OW27529   1.577   4.146   1.226
 8877SOL    HW127530   1.674   4.168   1.216
 8877SOL    HW227531   1.563   4.048   1.214
 8878SOL     OW27532   4.518   3.901   1.063
 8878SOL    HW127533   4.511   3.972   0.993
 8878SOL    HW227534   4.534   3.943   1.152
 8879SOL     OW27535   5.826   4.768   2.522
 8879SOL    HW127536   5.827   4.795   2.426
 8879SOL    HW227537   5.846   4.847   2.580
 8880SOL     OW27538   4.529   6.680   4.171
 8880SOL    HW127539   4.544   6.652   4.076
 8880SOL    HW227540   4.588   6.625   4.231
 8881SOL     OW27541   4.062   5.045   4.535
 8881SOL    HW127542   4.109   5.109   4.475
 8881SOL    HW227543   4.003   4.984   4.480
 8882SOL     OW27544   4.398   0.655   0.780
 8882SOL    HW127545   4.346   0.588   0.726
 8882SOL    HW227546   4.432   0.611   0.863
 8883SOL     OW27547   0.095   6.173   4.637
 8883SOL    HW127548   0.105   6.078   4.669
 8883SOL    HW227549   0.117   6.235   4.712
 8884SOL     OW27550   5.155   3.482   4.894
 8884SOL    HW127551   5.074   3.512   4.843
 8884SOL    HW227552   5.156   3.526   4.984
 8885SOL     OW27553   5.999   5.467   0.633
 8885SOL    HW127554   5.976   5.412   0.712
 8885SOL    HW227555   6.094   5.497   0.640
 8886SOL     OW27556   3.274   5.770   6.694
 8886SOL    HW127557   3.188   5.745   6.737
 8886SOL    HW227558   3.331   5.689   6.683
 8887SOL     OW27559   5.160   1.499   1.438
 8887SOL    HW127560   5.181   1.591   1.405
 8887SOL    HW227561   5.062   1.483   1.434
 8888SOL     OW27562   2.522   1.627   3.847
 8888SOL    HW127563   2.460   1.549   3.854
 8888SOL    HW227564   2.543   1.644   3.750
 8889SOL     OW27565   0.464   6.487   6.160
 8889SOL    HW127566   0.409   6.405   6.146
 8889SOL    HW227567   0.528   6.498   6.084
 8890SOL     OW27568   0.399   6.873   0.127
 8890SOL    HW127569   0.346   6.940   0.076
 8890SOL    HW227570   0.337   6.807   0.171
 8891SOL     OW27571   6.087   4.418   0.328
 8891SOL    HW127572   6.185   4.414   0.306
 8891SOL    HW227573   6.060   4.513   0.343
 8892SOL     OW27574   2.965   5.562   3.541
 8892SOL    HW127575   3.062   5.536   3.543
 8892SOL    HW227576   2.948   5.617   3.459
 8893SOL     OW27577   1.189   5.003   4.933
 8893SOL    HW127578   1.268   5.057   4.903
 8893SOL    HW227579   1.133   4.979   4.853
 8894SOL     OW27580   4.444   1.671   6.978
 8894SOL    HW127581   4.352   1.708   6.994
 8894SOL    HW227582   4.483   1.640   0.040
 8895SOL     OW27583   0.253   3.687   1.409
 8895SOL    HW127584   0.200   3.757   1.361
 8895SOL    HW227585   0.324   3.650   1.348
 8896SOL     OW27586   0.505   2.307   4.587
 8896SOL    HW127587   0.433   2.319   4.518
 8896SOL    HW227588   0.572   2.381   4.576
 8897SOL     OW27589   1.953   3.895   4.074
 8897SOL    HW127590   1.903   3.816   4.109
 8897SOL    HW227591   2.051   3.878   4.084
 8898SOL     OW27592   5.068   4.073   2.684
 8898SOL    HW127593   4.981   4.027   2.700
 8898SOL    HW227594   5.142   4.005   2.683
 8899SOL     OW27595   6.697   3.270   6.357
 8899SOL    HW127596   6.645   3.337   6.409
 8899SOL    HW227597   6.698   3.296   6.260
 8900SOL     OW27598   5.016   2.690   4.223
 8900SOL    HW127599   5.043   2.768   4.280
 8900SOL    HW227600   4.917   2.681   4.225
 8901SOL     OW27601   1.174   2.820   4.485
 8901SOL    HW127602   1.085   2.775   4.487
 8901SOL    HW227603   1.209   2.820   4.391
 8902SOL     OW27604   0.667   4.290   0.297
 8902SOL    HW127605   0.611   4.291   0.380
 8902SOL    HW227606   0.634   4.218   0.236
 8903SOL     OW27607   1.423   0.252   5.160
 8903SOL    HW127608   1.373   0.299   5.233
 8903SOL    HW227609   1.520   0.244   5.185
 8904SOL     OW27610   0.489   1.170   3.309
 8904SOL    HW127611   0.516   1.266   3.295
 8904SOL    HW227612   0.570   1.115   3.329
 8905SOL     OW27613   1.671   3.969   1.817
 8905SOL    HW127614   1.586   4.008   1.782
 8905SOL    HW227615   1.651   3.891   1.876
 8906SOL     OW27616   0.007   0.049   0.387
 8906SOL    HW127617   6.939   0.021   0.410
 8906SOL    HW227618   0.009   0.147   0.367
 8907SOL     OW27619   3.523   3.115   4.795
 8907SOL    HW127620   3.478   3.183   4.738
 8907SOL    HW227621   3.468   3.100   4.878
 8908SOL     OW27622   1.313   5.954   1.060
 8908SOL    HW127623   1.285   5.894   0.985
 8908SOL    HW227624   1.300   6.049   1.032
 8909SOL     OW27625   2.866   0.756   0.111
 8909SOL    HW127626   2.821   0.702   0.182
 8909SOL    HW227627   2.925   0.825   0.154
 8910SOL     OW27628   2.069   1.842   4.153
 8910SOL    HW127629   2.003   1.868   4.224
 8910SOL    HW227630   2.084   1.919   4.092
 8911SOL     OW27631   4.695   1.358   4.035
 8911SOL    HW127632   4.635   1.341   3.957
 8911SOL    HW227633   4.789   1.367   4.002
 8912SOL     OW27634   3.280   3.697   4.839
 8912SOL    HW127635   3.318   3.622   4.894
 8912SOL    HW227636   3.338   3.713   4.759
 8913SOL     OW27637   5.297   5.786   6.944
 8913SOL    HW127638   5.304   5.828   0.010
 8913SOL    HW227639   5.329   5.851   6.875
 8914SOL     OW27640   4.927   6.493   6.324
 8914SOL    HW127641   5.024   6.477   6.306
 8914SOL    HW227642   4.916   6.572   6.384
 8915SOL     OW27643   0.744   1.086   3.355
 8915SOL    HW127644   0.806   1.007   3.358
 8915SOL    HW227645   0.779   1.157   3.416
 8916SOL     OW27646   5.157   1.110   6.835
 8916SOL    HW127647   5.216   1.191   6.832
 8916SOL    HW227648   5.196   1.038   6.778
 8917SOL     OW27649   5.577   1.696   0.308
 8917SOL    HW127650   5.649   1.644   0.352
 8917SOL    HW227651   5.593   1.698   0.209
 8918SOL     OW27652   1.210   4.338   2.057
 8918SOL    HW127653   1.178   4.278   1.984
 8918SOL    HW227654   1.239   4.283   2.135
 8919SOL     OW27655   5.924   3.714   0.405
 8919SOL    HW127656   5.897   3.758   0.320
 8919SOL    HW227657   5.938   3.783   0.476
 8920SOL     OW27658   6.666   1.487   0.225
 8920SOL    HW127659   6.649   1.405   0.170
 8920SOL    HW227660   6.627   1.567   0.179
 8921SOL     OW27661   1.314   3.240   1.389
 8921SOL    HW127662   1.410   3.220   1.408
 8921SOL    HW227663   1.302   3.260   1.292
 8922SOL     OW27664   3.756   0.172   3.465
 8922SOL    HW127665   3.673   0.147   3.415
 8922SOL    HW227666   3.753   0.269   3.489
 8923SOL     OW27667   1.598   2.311   5.140
 8923SOL    HW127668   1.604   2.388   5.077
 8923SOL    HW227669   1.506   2.304   5.177
 8924SOL     OW27670   5.184   5.262   4.722
 8924SOL    HW127671   5.165   5.204   4.802
 8924SOL    HW227672   5.152   5.215   4.639
 8925SOL     OW27673   1.290   0.750   3.400
 8925SOL    HW127674   1.220   0.765   3.331
 8925SOL    HW227675   1.274   0.662   3.444
 8926SOL     OW27676   6.753   3.157   5.235
 8926SOL    HW127677   6.757   3.209   5.321
 8926SOL    HW227678   6.706   3.211   5.165
 8927SOL     OW27679   6.789   1.359   6.371
 8927SOL    HW127680   6.865   1.423   6.381
 8927SOL    HW227681   6.796   1.312   6.283
 8928SOL     OW27682   1.993   6.636   5.142
 8928SOL    HW127683   1.894   6.638   5.158
 8928SOL    HW227684   2.013   6.677   5.054
 8929SOL     OW27685   7.018   2.088   4.611
 8929SOL    HW127686   0.017   2.133   4.697
 8929SOL    HW227687   0.057   2.013   4.595
 8930SOL     OW27688   1.620   4.838   3.821
 8930SOL    HW127689   1.658   4.749   3.849
 8930SOL    HW227690   1.569   4.878   3.897
 8931SOL     OW27691   3.853   2.753   0.980
 8931SOL    HW127692   3.786   2.703   0.925
 8931SOL    HW227693   3.807   2.828   1.028
 8932SOL     OW27694   0.179   2.855   2.909
 8932SOL    HW127695   0.167   2.757   2.924
 8932SOL    HW227696   0.130   2.906   2.979
 8933SOL     OW27697   4.018   1.911   5.743
 8933SOL    HW127698   4.006   1.816   5.769
 8933SOL    HW227699   3.936   1.963   5.765
 8934SOL     OW27700   2.534   5.859   4.207
 8934SOL    HW127701   2.629   5.888   4.211
 8934SOL    HW227702   2.520   5.783   4.271
 8935SOL     OW27703   0.161   5.071   1.471
 8935SOL    HW127704   0.100   5.014   1.526
 8935SOL    HW227705   0.251   5.027   1.465
 8936SOL     OW27706   2.060   3.257   0.817
 8936SOL    HW127707   2.108   3.239   0.903
 8936SOL    HW227708   2.034   3.171   0.775
 8937SOL     OW27709   0.630   6.599   5.460
 8937SOL    HW127710   0.571   6.560   5.531
 8937SOL    HW227711   0.593   6.577   5.370
 8938SOL     OW27712   5.958   5.320   0.867
 8938SOL    HW127713   5.933   5.225   0.887
 8938SOL    HW227714   6.013   5.357   0.942
 8939SOL     OW27715   5.296   2.427   4.508
 8939SOL    HW127716   5.234   2.362   4.551
 8939SOL    HW227717   5.386   2.420   4.551
 8940SOL     OW27718   6.768   0.968   3.635
 8940SOL    HW127719   6.816   1.056   3.636
 8940SOL    HW227720   6.669   0.984   3.634
 8941SOL     OW27721   5.318   2.521   6.249
 8941SOL    HW127722   5.344   2.548   6.342
 8941SOL    HW227723   5.291   2.424   6.249
 8942SOL     OW27724   0.482   2.427   5.306
 8942SOL    HW127725   0.391   2.468   5.313
 8942SOL    HW227726   0.477   2.330   5.331
 8943SOL     OW27727   4.785   3.395   1.226
 8943SOL    HW127728   4.762   3.472   1.166
 8943SOL    HW227729   4.703   3.364   1.273
 8944SOL     OW27730   4.093   5.762   0.904
 8944SOL    HW127731   4.077   5.687   0.840
 8944SOL    HW227732   4.025   5.758   0.978
 8945SOL     OW27733   2.632   0.742   4.558
 8945SOL    HW127734   2.669   0.659   4.601
 8945SOL    HW227735   2.578   0.792   4.626
 8946SOL     OW27736   3.698   1.849   4.653
 8946SOL    HW127737   3.636   1.894   4.588
 8946SOL    HW227738   3.736   1.917   4.715
 8947SOL     OW27739   3.714   3.756   5.550
 8947SOL    HW127740   3.716   3.751   5.450
 8947SOL    HW227741   3.621   3.739   5.582
 8948SOL     OW27742   5.403   4.945   3.211
 8948SOL    HW127743   5.383   4.849   3.228
 8948SOL    HW227744   5.334   5.003   3.255
 8949SOL     OW27745   1.083   6.882   6.962
 8949SOL    HW127746   1.114   6.862   0.031
 8949SOL    HW227747   0.983   6.879   6.959
 8950SOL     OW27748   5.000   3.108   5.118
 8950SOL    HW127749   4.946   3.104   5.034
 8950SOL    HW227750   4.938   3.108   5.197
 8951SOL     OW27751   1.472   2.902   5.353
 8951SOL    HW127752   1.490   2.806   5.330
 8951SOL    HW227753   1.462   2.955   5.268
 8952SOL     OW27754   0.910   1.433   2.882
 8952SOL    HW127755   0.955   1.414   2.795
 8952SOL    HW227756   0.967   1.399   2.957
 8953SOL     OW27757   2.050   3.345   0.289
 8953SOL    HW127758   2.070   3.326   0.193
 8953SOL    HW227759   2.112   3.416   0.323
 8954SOL     OW27760   1.773   6.031   6.422
 8954SOL    HW127761   1.720   6.113   6.399
 8954SOL    HW227762   1.802   6.037   6.518
 8955SOL     OW27763   0.029   4.108   3.420
 8955SOL    HW127764   0.045   4.174   3.493
 8955SOL    HW227765   6.972   4.134   3.369
 8956SOL     OW27766   0.163   0.565   6.237
 8956SOL    HW127767   0.253   0.525   6.249
 8956SOL    HW227768   0.099   0.525   6.303
 8957SOL     OW27769   2.623   4.876   2.426
 8957SOL    HW127770   2.721   4.862   2.442
 8957SOL    HW227771   2.604   4.876   2.328
 8958SOL     OW27772   1.979   6.507   4.348
 8958SOL    HW127773   2.015   6.557   4.427
 8958SOL    HW227774   1.883   6.484   4.364
 8959SOL     OW27775   1.067   4.894   0.479
 8959SOL    HW127776   0.995   4.963   0.489
 8959SOL    HW227777   1.150   4.938   0.442
 8960SOL     OW27778   3.701   5.671   1.842
 8960SOL    HW127779   3.670   5.686   1.748
 8960SOL    HW227780   3.759   5.748   1.870
 8961SOL     OW27781   1.679   2.443   3.907
 8961SOL    HW127782   1.599   2.447   3.848
 8961SOL    HW227783   1.700   2.535   3.941
 8962SOL     OW27784   5.958   0.577   3.355
 8962SOL    HW127785   5.891   0.560   3.427
 8962SOL    HW227786   5.992   0.671   3.362
 8963SOL     OW27787   5.889   0.656   4.493
 8963SOL    HW127788   5.917   0.578   4.549
 8963SOL    HW227789   5.802   0.691   4.527
 8964SOL     OW27790   5.320   4.776   1.953
 8964SOL    HW127791   5.283   4.708   1.890
 8964SOL    HW227792   5.420   4.774   1.948
 8965SOL     OW27793   1.586   5.318   1.609
 8965SOL    HW127794   1.680   5.285   1.601
 8965SOL    HW227795   1.580   5.411   1.570
 8966SOL     OW27796   1.809   2.594   6.263
 8966SOL    HW127797   1.781   2.599   6.168
 8966SOL    HW227798   1.847   2.683   6.291
 8967SOL     OW27799   4.109   0.914   0.604
 8967SOL    HW127800   4.059   0.833   0.572
 8967SOL    HW227801   4.111   0.914   0.704
 8968SOL     OW27802   5.235   6.147   1.556
 8968SOL    HW127803   5.151   6.202   1.555
 8968SOL    HW227804   5.213   6.053   1.583
 8969SOL     OW27805   6.103   1.010   3.983
 8969SOL    HW127806   6.017   1.059   3.991
 8969SOL    HW227807   6.155   1.016   4.068
 8970SOL     OW27808   3.405   2.518   1.524
 8970SOL    HW127809   3.469   2.535   1.599
 8970SOL    HW227810   3.378   2.421   1.526
 8971SOL     OW27811   3.689   5.523   2.069
 8971SOL    HW127812   3.711   5.572   1.984
 8971SOL    HW227813   3.630   5.445   2.048
 8972SOL     OW27814   5.443   6.182   5.758
 8972SOL    HW127815   5.465   6.119   5.683
 8972SOL    HW227816   5.505   6.260   5.754
 8973SOL     OW27817   1.491   4.928   0.377
 8973SOL    HW127818   1.476   4.933   0.279
 8973SOL    HW227819   1.470   5.017   0.418
 8974SOL     OW27820   0.724   4.075   6.186
 8974SOL    HW127821   0.768   4.023   6.259
 8974SOL    HW227822   0.756   4.042   6.097
 8975SOL     OW27823   2.954   0.150   0.984
 8975SOL    HW127824   2.997   0.204   0.912
 8975SOL    HW227825   2.965   0.053   0.963
 8976SOL     OW27826   1.696   5.155   4.540
 8976SOL    HW127827   1.748   5.232   4.577
 8976SOL    HW227828   1.644   5.186   4.460
 8977SOL     OW27829   6.322   1.566   5.670
 8977SOL    HW127830   6.293   1.489   5.612
 8977SOL    HW227831   6.417   1.589   5.648
 8978SOL     OW27832   5.816   6.437   0.248
 8978SOL    HW127833   5.830   6.346   0.209
 8978SOL    HW227834   5.888   6.499   0.217
 8979SOL     OW27835   1.830   3.907   4.681
 8979SOL    HW127836   1.815   3.823   4.732
 8979SOL    HW227837   1.922   3.942   4.701
 8980SOL     OW27838   3.353   3.331   4.693
 8980SOL    HW127839   3.416   3.405   4.714
 8980SOL    HW227840   3.263   3.351   4.733
 8981SOL     OW27841   3.597   1.510   5.028
 8981SOL    HW127842   3.581   1.559   5.114
 8981SOL    HW227843   3.565   1.566   4.952
 8982SOL     OW27844   2.699   4.219   0.502
 8982SOL    HW127845   2.794   4.188   0.490
 8982SOL    HW227846   2.660   4.241   0.413
 8983SOL     OW27847   3.893   5.311   0.177
 8983SOL    HW127848   3.829   5.268   0.241
 8983SOL    HW227849   3.983   5.319   0.220
 8984SOL     OW27850   2.202   5.871   3.191
 8984SOL    HW127851   2.245   5.784   3.215
 8984SOL    HW227852   2.221   5.892   3.095
 8985SOL     OW27853   3.589   2.973   0.194
 8985SOL    HW127854   3.684   3.004   0.197
 8985SOL    HW227855   3.536   3.024   0.262
 8986SOL     OW27856   3.751   4.873   2.992
 8986SOL    HW127857   3.787   4.828   3.074
 8986SOL    HW227858   3.659   4.907   3.010
 8987SOL     OW27859   5.166   5.791   2.787
 8987SOL    HW127860   5.264   5.804   2.773
 8987SOL    HW227861   5.144   5.694   2.786
 8988SOL     OW27862   0.410   5.643   4.155
 8988SOL    HW127863   0.459   5.597   4.081
 8988SOL    HW227864   0.439   5.606   4.243
 8989SOL     OW27865   4.458   2.807   6.579
 8989SOL    HW127866   4.505   2.719   6.576
 8989SOL    HW227867   4.489   2.864   6.503
 8990SOL     OW27868   0.470   5.074   4.028
 8990SOL    HW127869   0.510   5.034   3.945
 8990SOL    HW227870   0.536   5.067   4.103
 8991SOL     OW27871   1.642   2.272   4.753
 8991SOL    HW127872   1.669   2.308   4.842
 8991SOL    HW227873   1.563   2.322   4.719
 8992SOL     OW27874   5.901   2.281   0.051
 8992SOL    HW127875   5.969   2.213   0.025
 8992SOL    HW227876   5.904   2.357   7.010
 8993SOL     OW27877   3.703   3.423   6.173
 8993SOL    HW127878   3.704   3.489   6.098
 8993SOL    HW227879   3.793   3.421   6.216
 8994SOL     OW27880   2.187   4.608   4.834
 8994SOL    HW127881   2.087   4.607   4.845
 8994SOL    HW227882   2.209   4.590   4.738
 8995SOL     OW27883   6.976   1.612   1.579
 8995SOL    HW127884   7.005   1.584   1.488
 8995SOL    HW227885   7.012   1.703   1.600
 8996SOL     OW27886   5.219   3.831   6.905
 8996SOL    HW127887   5.166   3.758   6.863
 8996SOL    HW227888   5.305   3.844   6.854
 8997SOL     OW27889   5.459   1.013   5.206
 8997SOL    HW127890   5.498   0.923   5.220
 8997SOL    HW227891   5.529   1.083   5.222
 8998SOL     OW27892   6.163   4.106   3.719
 8998SOL    HW127893   6.187   4.019   3.761
 8998SOL    HW227894   6.111   4.162   3.784
 8999SOL     OW27895   4.527   0.069   5.864
 8999SOL    HW127896   4.567   0.149   5.907
 8999SOL    HW227897   4.491   0.093   5.774
 9000SOL     OW27898   1.605   4.373   1.682
 9000SOL    HW127899   1.622   4.301   1.615
 9000SOL    HW227900   1.551   4.446   1.640
 9001SOL     OW27901   0.218   4.711   2.281
 9001SOL    HW127902   0.179   4.644   2.218
 9001SOL    HW227903   0.147   4.743   2.344
 9002SOL     OW27904   1.291   4.214   5.540
 9002SOL    HW127905   1.332   4.202   5.450
 9002SOL    HW227906   1.293   4.128   5.590
 9003SOL     OW27907   5.288   2.532   1.126
 9003SOL    HW127908   5.285   2.491   1.035
 9003SOL    HW227909   5.330   2.622   1.121
 9004SOL     OW27910   4.377   5.178   0.685
 9004SOL    HW127911   4.412   5.271   0.673
 9004SOL    HW227912   4.427   5.116   0.624
 9005SOL     OW27913   5.467   1.185   5.796
 9005SOL    HW127914   5.504   1.278   5.805
 9005SOL    HW227915   5.542   1.122   5.773
 9006SOL     OW27916   3.100   0.324   0.782
 9006SOL    HW127917   3.183   0.275   0.755
 9006SOL    HW227918   3.039   0.333   0.703
 9007SOL     OW27919   2.683   1.151   2.593
 9007SOL    HW127920   2.607   1.087   2.582
 9007SOL    HW227921   2.653   1.230   2.646
 9008SOL     OW27922   0.270   5.382   3.001
 9008SOL    HW127923   0.204   5.431   2.943
 9008SOL    HW227924   0.361   5.420   2.988
 9009SOL     OW27925   3.907   5.078   1.037
 9009SOL    HW127926   3.912   5.176   1.017
 9009SOL    HW227927   3.869   5.030   0.957
 9010SOL     OW27928   2.241   6.490   3.998
 9010SOL    HW127929   2.169   6.551   4.030
 9010SOL    HW227930   2.215   6.395   4.016
 9011SOL     OW27931   4.601   0.891   2.318
 9011SOL    HW127932   4.589   0.985   2.288
 9011SOL    HW227933   4.670   0.846   2.260
 9012SOL     OW27934   2.617   5.723   0.592
 9012SOL    HW127935   2.531   5.772   0.605
 9012SOL    HW227936   2.638   5.669   0.674
 9013SOL     OW27937   1.661   6.872   4.631
 9013SOL    HW127938   1.755   6.906   4.628
 9013SOL    HW227939   1.646   6.823   4.716
 9014SOL     OW27940   6.407   2.655   1.871
 9014SOL    HW127941   6.502   2.659   1.901
 9014SOL    HW227942   6.381   2.560   1.856
 9015SOL     OW27943   4.764   2.722   0.774
 9015SOL    HW127944   4.840   2.785   0.758
 9015SOL    HW227945   4.688   2.746   0.714
 9016SOL     OW27946   5.595   5.286   6.631
 9016SOL    HW127947   5.526   5.356   6.615
 9016SOL    HW227948   5.580   5.244   6.720
 9017SOL     OW27949   3.568   1.277   4.856
 9017SOL    HW127950   3.571   1.363   4.907
 9017SOL    HW227951   3.484   1.228   4.880
 9018SOL     OW27952   3.739   3.191   6.732
 9018SOL    HW127953   3.771   3.283   6.751
 9018SOL    HW227954   3.710   3.148   6.818
 9019SOL     OW27955   1.528   3.716   3.149
 9019SOL    HW127956   1.519   3.634   3.205
 9019SOL    HW227957   1.567   3.693   3.060
 9020SOL     OW27958   6.744   5.482   1.489
 9020SOL    HW127959   6.823   5.452   1.543
 9020SOL    HW227960   6.682   5.404   1.476
 9021SOL     OW27961   6.881   0.247   3.569
 9021SOL    HW127962   6.841   0.244   3.478
 9021SOL    HW227963   6.813   0.218   3.637
 9022SOL     OW27964   3.748   2.626   6.981
 9022SOL    HW127965   3.759   2.691   6.906
 9022SOL    HW227966   3.747   2.533   6.945
 9023SOL     OW27967   3.905   3.224   1.106
 9023SOL    HW127968   3.939   3.214   1.012
 9023SOL    HW227969   3.950   3.156   1.164
 9024SOL     OW27970   0.925   4.942   5.889
 9024SOL    HW127971   0.875   5.021   5.854
 9024SOL    HW227972   0.973   4.897   5.814
 9025SOL     OW27973   0.370   5.816   0.615
 9025SOL    HW127974   0.283   5.832   0.663
 9025SOL    HW227975   0.352   5.783   0.523
 9026SOL     OW27976   3.607   1.663   0.310
 9026SOL    HW127977   3.524   1.637   0.360
 9026SOL    HW227978   3.643   1.748   0.348
 9027SOL     OW27979   0.947   3.689   3.693
 9027SOL    HW127980   1.006   3.617   3.730
 9027SOL    HW227981   0.901   3.656   3.611
 9028SOL     OW27982   3.640   3.415   5.030
 9028SOL    HW127983   3.546   3.442   5.011
 9028SOL    HW227984   3.701   3.490   5.005
 9029SOL     OW27985   4.095   0.618   4.743
 9029SOL    HW127986   4.104   0.692   4.676
 9029SOL    HW227987   4.076   0.533   4.695
 9030SOL     OW27988   2.347   2.638   3.957
 9030SOL    HW127989   2.350   2.664   4.053
 9030SOL    HW227990   2.296   2.552   3.948
 9031SOL     OW27991   4.526   0.031   4.494
 9031SOL    HW127992   4.486   0.078   4.573
 9031SOL    HW227993   4.573   0.098   4.437
 9032SOL     OW27994   5.148   3.716   1.218
 9032SOL    HW127995   5.138   3.617   1.208
 9032SOL    HW227996   5.104   3.745   1.303
 9033SOL     OW27997   0.548   5.053   2.189
 9033SOL    HW127998   0.545   5.152   2.172
 9033SOL    HW227999   0.459   5.022   2.222
 9034SOL     OW28000   3.524   6.084   4.893
 9034SOL    HW128001   3.506   6.166   4.840
 9034SOL    HW228002   3.607   6.096   4.947
 9035SOL     OW28003   2.084   5.837   0.100
 9035SOL    HW128004   2.001   5.886   0.127
 9035SOL    HW228005   2.164   5.882   0.140
 9036SOL     OW28006   1.292   3.431   4.897
 9036SOL    HW128007   1.258   3.504   4.839
 9036SOL    HW228008   1.247   3.436   4.986
 9037SOL     OW28009   0.827   2.507   3.936
 9037SOL    HW128010   0.742   2.487   3.985
 9037SOL    HW228011   0.881   2.424   3.927
 9038SOL     OW28012   4.480   3.011   6.374
 9038SOL    HW128013   4.459   3.049   6.464
 9038SOL    HW228014   4.529   3.078   6.320
 9039SOL     OW28015   3.426   4.690   6.912
 9039SOL    HW128016   3.451   4.624   6.841
 9039SOL    HW228017   3.336   4.729   6.891
 9040SOL     OW28018   2.211   2.404   1.960
 9040SOL    HW128019   2.200   2.349   2.043
 9040SOL    HW228020   2.277   2.360   1.899
 9041SOL     OW28021   0.599   2.380   0.851
 9041SOL    HW128022   0.601   2.425   0.941
 9041SOL    HW228023   0.521   2.318   0.847
 9042SOL     OW28024   3.469   5.902   5.410
 9042SOL    HW128025   3.482   5.985   5.465
 9042SOL    HW228026   3.436   5.928   5.319
 9043SOL     OW28027   2.687   1.148   6.683
 9043SOL    HW128028   2.731   1.215   6.622
 9043SOL    HW228029   2.619   1.195   6.740
 9044SOL     OW28030   0.585   0.432   7.022
 9044SOL    HW128031   0.530   0.380   0.064
 9044SOL    HW228032   0.664   0.377   6.995
 9045SOL     OW28033   4.138   0.403   3.145
 9045SOL    HW128034   4.214   0.420   3.208
 9045SOL    HW228035   4.053   0.436   3.184
 9046SOL     OW28036   3.636   3.258   2.565
 9046SOL    HW128037   3.631   3.179   2.505
 9046SOL    HW228038   3.546   3.301   2.572
 9047SOL     OW28039   1.768   4.352   5.520
 9047SOL    HW128040   1.744   4.428   5.460
 9047SOL    HW228041   1.833   4.384   5.589
 9048SOL     OW28042   5.859   2.448   6.311
 9048SOL    HW128043   5.879   2.513   6.384
 9048SOL    HW228044   5.847   2.498   6.225
 9049SOL     OW28045   3.185   6.603   6.260
 9049SOL    HW128046   3.181   6.595   6.360
 9049SOL    HW228047   3.281   6.611   6.232
 9050SOL     OW28048   0.683   4.357   1.525
 9050SOL    HW128049   0.778   4.386   1.535
 9050SOL    HW228050   0.679   4.274   1.470
 9051SOL     OW28051   2.649   1.406   1.248
 9051SOL    HW128052   2.710   1.433   1.174
 9051SOL    HW228053   2.693   1.337   1.305
 9052SOL     OW28054   2.038   2.870   4.565
 9052SOL    HW128055   2.080   2.800   4.508
 9052SOL    HW228056   1.966   2.828   4.621
 9053SOL     OW28057   2.124   1.543   1.273
 9053SOL    HW128058   2.112   1.642   1.260
 9053SOL    HW228059   2.219   1.518   1.254
 9054SOL     OW28060   3.066   5.455   3.959
 9054SOL    HW128061   3.162   5.459   3.931
 9054SOL    HW228062   3.027   5.367   3.931
 9055SOL     OW28063   6.986   4.447   4.793
 9055SOL    HW128064   6.904   4.424   4.844
 9055SOL    HW228065   6.962   4.466   4.697
 9056SOL     OW28066   6.161   1.992   2.431
 9056SOL    HW128067   6.172   1.922   2.360
 9056SOL    HW228068   6.241   1.992   2.490
 9057SOL     OW28069   4.655   1.504   4.517
 9057SOL    HW128070   4.743   1.459   4.507
 9057SOL    HW228071   4.643   1.532   4.613
 9058SOL     OW28072   1.433   0.209   6.230
 9058SOL    HW128073   1.527   0.230   6.260
 9058SOL    HW228074   1.371   0.221   6.307
 9059SOL     OW28075   1.688   2.410   2.389
 9059SOL    HW128076   1.693   2.336   2.322
 9059SOL    HW228077   1.621   2.478   2.359
 9060SOL     OW28078   5.077   2.987   4.668
 9060SOL    HW128079   5.147   3.006   4.737
 9060SOL    HW228080   5.071   2.888   4.653
 9061SOL     OW28081   4.938   5.260   2.442
 9061SOL    HW128082   4.903   5.308   2.361
 9061SOL    HW228083   4.872   5.268   2.517
 9062SOL     OW28084   1.635   5.574   1.518
 9062SOL    HW128085   1.710   5.623   1.561
 9062SOL    HW228086   1.581   5.638   1.462
 9063SOL     OW28087   2.819   1.443   3.589
 9063SOL    HW128088   2.914   1.449   3.617
 9063SOL    HW228089   2.768   1.385   3.653
 9064SOL     OW28090   6.390   3.637   0.039
 9064SOL    HW128091   6.392   3.704   0.113
 9064SOL    HW228092   6.484   3.611   0.015
 9065SOL     OW28093   3.179   0.861   0.519
 9065SOL    HW128094   3.168   0.958   0.542
 9065SOL    HW228095   3.095   0.812   0.541
 9066SOL     OW28096   5.310   6.555   0.111
 9066SOL    HW128097   5.389   6.497   0.094
 9066SOL    HW228098   5.335   6.651   0.095
 9067SOL     OW28099   1.488   6.796   3.231
 9067SOL    HW128100   1.423   6.726   3.202
 9067SOL    HW228101   1.548   6.758   3.302
 9068SOL     OW28102   1.702   6.118   6.043
 9068SOL    HW128103   1.775   6.068   6.090
 9068SOL    HW228104   1.613   6.086   6.075
 9069SOL     OW28105   1.973   2.515   5.895
 9069SOL    HW128106   1.873   2.505   5.898
 9069SOL    HW228107   2.016   2.425   5.895
 9070SOL     OW28108   1.369   4.450   4.474
 9070SOL    HW128109   1.292   4.412   4.423
 9070SOL    HW228110   1.446   4.465   4.412
 9071SOL     OW28111   6.331   6.438   0.020
 9071SOL    HW128112   6.377   6.524   0.042
 9071SOL    HW228113   6.377   6.393   6.968
 9072SOL     OW28114   6.568   4.310   7.022
 9072SOL    HW128115   6.619   4.233   6.983
 9072SOL    HW228116   6.608   4.335   0.086
 9073SOL     OW28117   1.950   0.729   2.244
 9073SOL    HW128118   2.047   0.752   2.246
 9073SOL    HW228119   1.922   0.709   2.150
 9074SOL     OW28120   1.143   6.896   3.318
 9074SOL    HW128121   1.189   6.938   3.239
 9074SOL    HW228122   1.058   6.944   3.336
 9075SOL     OW28123   6.699   0.679   2.369
 9075SOL    HW128124   6.665   0.649   2.279
 9075SOL    HW228125   6.652   0.763   2.396
 9076SOL     OW28126   6.681   0.880   5.644
 9076SOL    HW128127   6.600   0.852   5.593
 9076SOL    HW228128   6.724   0.800   5.685
 9077SOL     OW28129   5.800   6.079   2.437
 9077SOL    HW128130   5.780   6.159   2.381
 9077SOL    HW228131   5.756   5.998   2.397
 9078SOL     OW28132   4.134   3.439   4.504
 9078SOL    HW128133   4.073   3.359   4.505
 9078SOL    HW228134   4.218   3.418   4.555
 9079SOL     OW28135   3.320   6.888   5.280
 9079SOL    HW128136   3.414   6.873   5.248
 9079SOL    HW228137   3.278   6.800   5.304
 9080SOL     OW28138   5.582   2.452   0.457
 9080SOL    HW128139   5.665   2.436   0.404
 9080SOL    HW228140   5.504   2.461   0.395
 9081SOL     OW28141   5.722   6.308   2.314
 9081SOL    HW128142   5.623   6.322   2.318
 9081SOL    HW228143   5.750   6.295   2.219
 9082SOL     OW28144   3.264   1.342   3.919
 9082SOL    HW128145   3.181   1.389   3.888
 9082SOL    HW228146   3.244   1.245   3.932
 9083SOL     OW28147   5.115   4.446   4.958
 9083SOL    HW128148   5.172   4.497   5.022
 9083SOL    HW228149   5.071   4.370   5.005
 9084SOL     OW28150   3.302   3.949   2.974
 9084SOL    HW128151   3.342   3.864   2.941
 9084SOL    HW228152   3.306   4.018   2.902
 9085SOL     OW28153   2.136   2.323   1.494
 9085SOL    HW128154   2.175   2.286   1.579
 9085SOL    HW228155   2.068   2.260   1.458
 9086SOL     OW28156   0.452   3.939   1.362
 9086SOL    HW128157   0.371   3.911   1.310
 9086SOL    HW228158   0.507   3.859   1.384
 9087SOL     OW28159   4.898   3.797   2.430
 9087SOL    HW128160   4.917   3.767   2.337
 9087SOL    HW228161   4.900   3.896   2.435
 9088SOL     OW28162   5.912   0.880   6.714
 9088SOL    HW128163   5.841   0.811   6.722
 9088SOL    HW228164   5.941   0.888   6.618
 9089SOL     OW28165   4.420   0.171   5.615
 9089SOL    HW128166   4.346   0.117   5.574
 9089SOL    HW228167   4.381   0.246   5.668
 9090SOL     OW28168   5.538   1.087   4.459
 9090SOL    HW128169   5.496   1.177   4.453
 9090SOL    HW228170   5.537   1.044   4.368
 9091SOL     OW28171   3.306   3.611   6.976
 9091SOL    HW128172   3.377   3.580   6.913
 9091SOL    HW228173   3.242   3.670   6.927
 9092SOL     OW28174   6.516   2.430   0.086
 9092SOL    HW128175   6.546   2.505   0.146
 9092SOL    HW228176   6.572   2.430   0.003
 9093SOL     OW28177   1.567   6.845   5.226
 9093SOL    HW128178   1.643   6.908   5.214
 9093SOL    HW228179   1.514   6.872   5.306
 9094SOL     OW28180   0.355   3.466   1.968
 9094SOL    HW128181   0.347   3.390   2.033
 9094SOL    HW228182   0.395   3.432   1.883
 9095SOL     OW28183   5.294   6.092   5.313
 9095SOL    HW128184   5.233   6.119   5.239
 9095SOL    HW228185   5.306   5.992   5.312
 9096SOL     OW28186   6.377   5.610   2.479
 9096SOL    HW128187   6.391   5.530   2.537
 9096SOL    HW228188   6.466   5.642   2.444
 9097SOL     OW28189   0.914   2.991   6.099
 9097SOL    HW128190   0.922   3.033   6.190
 9097SOL    HW228191   1.004   2.960   6.068
 9098SOL     OW28192   1.674   3.522   4.338
 9098SOL    HW128193   1.605   3.485   4.399
 9098SOL    HW228194   1.631   3.584   4.272
 9099SOL     OW28195   2.055   3.500   6.964
 9099SOL    HW128196   1.987   3.431   6.940
 9099SOL    HW228197   2.126   3.460   7.021
 9100SOL     OW28198   0.875   4.467   2.970
 9100SOL    HW128199   0.947   4.467   2.901
 9100SOL    HW228200   0.884   4.550   3.027
 9101SOL     OW28201   1.667   2.131   2.206
 9101SOL    HW128202   1.755   2.137   2.159
 9101SOL    HW228203   1.637   2.036   2.208
 9102SOL     OW28204   4.440   6.038   2.961
 9102SOL    HW128205   4.431   5.953   2.909
 9102SOL    HW228206   4.477   6.110   2.901
 9103SOL     OW28207   5.821   1.661   0.433
 9103SOL    HW128208   5.816   1.726   0.510
 9103SOL    HW228209   5.872   1.580   0.462
 9104SOL     OW28210   6.444   1.162   0.206
 9104SOL    HW128211   6.518   1.181   0.141
 9104SOL    HW228212   6.362   1.134   0.155
 9105SOL     OW28213   2.205   0.424   6.618
 9105SOL    HW128214   2.119   0.378   6.596
 9105SOL    HW228215   2.235   0.478   6.539
 9106SOL     OW28216   1.653   5.224   7.022
 9106SOL    HW128217   1.750   5.204   7.011
 9106SOL    HW228218   1.628   5.216   0.094
 9107SOL     OW28219   2.364   1.394   0.071
 9107SOL    HW128220   2.288   1.364   0.014
 9107SOL    HW228221   2.450   1.367   0.029
 9108SOL     OW28222   5.677   4.998   6.042
 9108SOL    HW128223   5.625   5.077   6.009
 9108SOL    HW228224   5.774   5.022   6.048
 9109SOL     OW28225   5.163   2.830   2.826
 9109SOL    HW128226   5.110   2.747   2.811
 9109SOL    HW228227   5.227   2.844   2.750
 9110SOL     OW28228   1.365   5.854   4.601
 9110SOL    HW128229   1.340   5.763   4.636
 9110SOL    HW228230   1.395   5.911   4.678
 9111SOL     OW28231   4.380   3.086   5.362
 9111SOL    HW128232   4.307   3.027   5.398
 9111SOL    HW228233   4.340   3.156   5.304
 9112SOL     OW28234   1.072   5.353   2.467
 9112SOL    HW128235   1.020   5.307   2.539
 9112SOL    HW228236   1.166   5.321   2.467
 9113SOL     OW28237   5.008   1.987   3.616
 9113SOL    HW128238   4.940   1.914   3.610
 9113SOL    HW228239   4.971   2.070   3.574
 9114SOL     OW28240   1.139   5.814   5.204
 9114SOL    HW128241   1.210   5.877   5.172
 9114SOL    HW228242   1.060   5.867   5.235
 9115SOL     OW28243   5.796   4.469   4.128
 9115SOL    HW128244   5.740   4.548   4.153
 9115SOL    HW228245   5.748   4.414   4.059
 9116SOL     OW28246   0.747   6.641   3.303
 9116SOL    HW128247   0.807   6.707   3.349
 9116SOL    HW228248   0.706   6.581   3.372
 9117SOL     OW28249   3.920   0.612   6.885
 9117SOL    HW128250   3.837   0.657   6.853
 9117SOL    HW228251   3.934   0.634   6.982
 9118SOL     OW28252   6.328   4.254   1.127
 9118SOL    HW128253   6.280   4.184   1.180
 9118SOL    HW228254   6.350   4.331   1.187
 9119SOL     OW28255   3.523   0.558   0.730
 9119SOL    HW128256   3.539   0.497   0.652
 9119SOL    HW228257   3.498   0.649   0.697
 9120SOL     OW28258   6.145   3.100   5.232
 9120SOL    HW128259   6.110   3.191   5.215
 9120SOL    HW228260   6.150   3.084   5.331
 9121SOL     OW28261   3.302   0.834   4.973
 9121SOL    HW128262   3.231   0.773   5.009
 9121SOL    HW228263   3.303   0.828   4.873
 9122SOL     OW28264   2.537   4.544   2.234
 9122SOL    HW128265   2.541   4.478   2.159
 9122SOL    HW228266   2.536   4.495   2.322
 9123SOL     OW28267   1.043   0.344   4.048
 9123SOL    HW128268   1.072   0.311   3.958
 9123SOL    HW228269   1.104   0.308   4.119
 9124SOL     OW28270   2.933   5.635   1.595
 9124SOL    HW128271   2.972   5.543   1.587
 9124SOL    HW228272   2.972   5.693   1.523
 9125SOL     OW28273   4.780   6.331   1.161
 9125SOL    HW128274   4.842   6.264   1.122
 9125SOL    HW228275   4.694   6.331   1.110
 9126SOL     OW28276   3.849   4.513   0.055
 9126SOL    HW128277   3.877   4.430   0.104
 9126SOL    HW228278   3.832   4.586   0.122
 9127SOL     OW28279   0.185   4.272   5.249
 9127SOL    HW128280   0.252   4.343   5.271
 9127SOL    HW228281   0.233   4.193   5.210
 9128SOL     OW28282   5.920   3.496   5.370
 9128SOL    HW128283   5.948   3.422   5.309
 9128SOL    HW228284   5.825   3.484   5.396
 9129SOL     OW28285   1.556   2.797   0.658
 9129SOL    HW128286   1.551   2.843   0.747
 9129SOL    HW228287   1.641   2.745   0.651
 9130SOL     OW28288   2.551   4.072   5.402
 9130SOL    HW128289   2.508   4.039   5.318
 9130SOL    HW228290   2.565   4.170   5.396
 9131SOL     OW28291   5.377   2.777   1.246
 9131SOL    HW128292   5.299   2.839   1.259
 9131SOL    HW228293   5.453   2.828   1.206
 9132SOL     OW28294   0.220   4.603   3.571
 9132SOL    HW128295   0.147   4.671   3.580
 9132SOL    HW228296   0.307   4.649   3.555
 9133SOL     OW28297   4.685   1.504   0.670
 9133SOL    HW128298   4.774   1.459   0.682
 9133SOL    HW228299   4.696   1.603   0.675
 9134SOL     OW28300   3.958   5.318   0.509
 9134SOL    HW128301   4.018   5.393   0.538
 9134SOL    HW228302   3.863   5.349   0.511
 9135SOL     OW28303   0.221   6.657   2.841
 9135SOL    HW128304   0.180   6.610   2.920
 9135SOL    HW228305   0.158   6.653   2.764
 9136SOL     OW28306   6.135   4.424   6.971
 9136SOL    HW128307   6.053   4.376   6.941
 9136SOL    HW228308   6.124   4.522   6.954
 9137SOL     OW28309   5.411   6.520   6.261
 9137SOL    HW128310   5.475   6.473   6.202
 9137SOL    HW228311   5.427   6.494   6.356
 9138SOL     OW28312   3.052   3.312   0.796
 9138SOL    HW128313   3.105   3.231   0.773
 9138SOL    HW228314   3.070   3.384   0.729
 9139SOL     OW28315   6.898   6.980   0.849
 9139SOL    HW128316   6.971   6.959   0.915
 9139SOL    HW228317   6.817   6.926   0.872
 9140SOL     OW28318   0.991   4.061   3.114
 9140SOL    HW128319   0.891   4.059   3.124
 9140SOL    HW228320   1.032   4.005   3.187
 9141SOL     OW28321   6.684   5.857   5.678
 9141SOL    HW128322   6.679   5.806   5.592
 9141SOL    HW228323   6.592   5.868   5.715
 9142SOL     OW28324   1.326   4.324   4.212
 9142SOL    HW128325   1.361   4.263   4.140
 9142SOL    HW228326   1.403   4.373   4.253
 9143SOL     OW28327   0.344   4.126   2.802
 9143SOL    HW128328   0.271   4.068   2.836
 9143SOL    HW228329   0.305   4.201   2.748
 9144SOL     OW28330   2.433   4.811   5.757
 9144SOL    HW128331   2.523   4.848   5.783
 9144SOL    HW228332   2.365   4.884   5.759
 9145SOL     OW28333   1.025   6.280   5.697
 9145SOL    HW128334   0.949   6.337   5.666
 9145SOL    HW228335   1.111   6.329   5.686
 9146SOL     OW28336   6.374   2.781   3.009
 9146SOL    HW128337   6.309   2.857   3.018
 9146SOL    HW228338   6.387   2.738   3.099
 9147SOL     OW28339   4.114   6.812   4.316
 9147SOL    HW128340   4.081   6.736   4.372
 9147SOL    HW228341   4.214   6.816   4.320
 9148SOL     OW28342   6.054   6.128   1.584
 9148SOL    HW128343   6.006   6.057   1.634
 9148SOL    HW228344   6.005   6.215   1.594
 9149SOL     OW28345   0.605   3.623   2.355
 9149SOL    HW128346   0.534   3.684   2.392
 9149SOL    HW228347   0.683   3.621   2.417
 9150SOL     OW28348   2.741   2.429   0.980
 9150SOL    HW128349   2.734   2.396   1.074
 9150SOL    HW228350   2.752   2.352   0.918
 9151SOL     OW28351   1.586   3.079   3.742
 9151SOL    HW128352   1.532   3.154   3.705
 9151SOL    HW228353   1.551   2.992   3.707
 9152SOL     OW28354   1.838   4.522   3.017
 9152SOL    HW128355   1.927   4.491   2.986
 9152SOL    HW228356   1.774   4.445   3.015
 9153SOL     OW28357   0.038   3.920   6.537
 9153SOL    HW128358   0.061   3.857   6.463
 9153SOL    HW228359   0.114   3.983   6.552
 9154SOL     OW28360   5.571   4.819   2.466
 9154SOL    HW128361   5.610   4.910   2.448
 9154SOL    HW228362   5.643   4.758   2.499
 9155SOL     OW28363   1.565   6.488   2.434
 9155SOL    HW128364   1.547   6.481   2.336
 9155SOL    HW228365   1.541   6.580   2.465
 9156SOL     OW28366   6.692   4.098   6.404
 9156SOL    HW128367   6.759   4.139   6.343
 9156SOL    HW228368   6.717   4.118   6.499
 9157SOL     OW28369   2.088   5.034   6.259
 9157SOL    HW128370   2.019   5.084   6.208
 9157SOL    HW228371   2.084   4.937   6.235
 9158SOL     OW28372   6.610   3.597   4.526
 9158SOL    HW128373   6.660   3.683   4.517
 9158SOL    HW228374   6.656   3.538   4.593
 9159SOL     OW28375   3.135   1.663   4.066
 9159SOL    HW128376   3.160   1.759   4.051
 9159SOL    HW228377   3.149   1.612   3.981
 9160SOL     OW28378   0.118   4.389   1.105
 9160SOL    HW128379   0.201   4.333   1.110
 9160SOL    HW228380   0.108   4.442   1.189
 9161SOL     OW28381   6.734   4.594   1.921
 9161SOL    HW128382   6.682   4.542   1.989
 9161SOL    HW228383   6.738   4.690   1.948
 9162SOL     OW28384   4.070   2.067   1.752
 9162SOL    HW128385   3.987   2.121   1.766
 9162SOL    HW228386   4.109   2.089   1.662
 9163SOL     OW28387   1.433   2.478   3.770
 9163SOL    HW128388   1.432   2.491   3.670
 9163SOL    HW228389   1.363   2.411   3.795
 9164SOL     OW28390   2.907   0.002   0.298
 9164SOL    HW128391   2.993   7.012   0.249
 9164SOL    HW228392   2.868   6.938   0.325
 9165SOL     OW28393   5.439   1.746   6.106
 9165SOL    HW128394   5.343   1.772   6.109
 9165SOL    HW228395   5.472   1.727   6.198
 9166SOL     OW28396   5.202   5.618   1.626
 9166SOL    HW128397   5.238   5.571   1.546
 9166SOL    HW228398   5.229   5.570   1.709
 9167SOL     OW28399   1.829   1.229   4.538
 9167SOL    HW128400   1.835   1.300   4.467
 9167SOL    HW228401   1.854   1.140   4.498
 9168SOL     OW28402   6.559   5.922   4.613
 9168SOL    HW128403   6.658   5.930   4.597
 9168SOL    HW228404   6.535   5.826   4.628
 9169SOL     OW28405   6.801   5.852   0.694
 9169SOL    HW128406   6.864   5.930   0.692
 9169SOL    HW228407   6.843   5.776   0.742
 9170SOL     OW28408   1.302   1.319   6.145
 9170SOL    HW128409   1.232   1.270   6.093
 9170SOL    HW228410   1.294   1.417   6.127
 9171SOL     OW28411   3.129   4.776   6.950
 9171SOL    HW128412   3.170   4.794   0.015
 9171SOL    HW228413   3.030   4.773   6.958
 9172SOL     OW28414   4.397   1.248   3.720
 9172SOL    HW128415   4.494   1.272   3.724
 9172SOL    HW228416   4.364   1.226   3.812
 9173SOL     OW28417   5.735   3.273   4.715
 9173SOL    HW128418   5.826   3.245   4.744
 9173SOL    HW228419   5.666   3.222   4.767
 9174SOL     OW28420   0.405   4.379   0.774
 9174SOL    HW128421   0.418   4.422   0.864
 9174SOL    HW228422   0.373   4.448   0.709
 9175SOL     OW28423   2.098   0.352   6.926
 9175SOL    HW128424   2.053   0.439   6.943
 9175SOL    HW228425   2.085   0.325   6.830
 9176SOL     OW28426   1.297   1.601   2.372
 9176SOL    HW128427   1.375   1.540   2.362
 9176SOL    HW228428   1.308   1.656   2.455
 9177SOL     OW28429   0.494   4.411   3.648
 9177SOL    HW128430   0.480   4.324   3.600
 9177SOL    HW228431   0.467   4.487   3.589
 9178SOL     OW28432   1.872   5.961   0.197
 9178SOL    HW128433   1.799   5.894   0.181
 9178SOL    HW228434   1.883   5.976   0.295
 9179SOL     OW28435   3.324   5.251   4.227
 9179SOL    HW128436   3.393   5.323   4.221
 9179SOL    HW228437   3.260   5.260   4.150
 9180SOL     OW28438   6.566   1.077   5.115
 9180SOL    HW128439   6.660   1.108   5.101
 9180SOL    HW228440   6.504   1.130   5.057
 9181SOL     OW28441   2.653   1.662   3.596
 9181SOL    HW128442   2.602   1.654   3.510
 9181SOL    HW228443   2.730   1.599   3.595
 9182SOL     OW28444   1.061   1.566   2.684
 9182SOL    HW128445   1.158   1.545   2.687
 9182SOL    HW228446   1.031   1.601   2.772
 9183SOL     OW28447   1.097   1.920   6.240
 9183SOL    HW128448   1.195   1.933   6.228
 9183SOL    HW228449   1.079   1.835   6.289
 9184SOL     OW28450   3.806   3.330   0.757
 9184SOL    HW128451   3.888   3.305   0.808
 9184SOL    HW228452   3.757   3.247   0.730
 9185SOL     OW28453   0.971   1.073   6.920
 9185SOL    HW128454   1.001   1.120   7.002
 9185SOL    HW228455   0.965   0.975   6.938
 9186SOL     OW28456   5.279   1.020   6.235
 9186SOL    HW128457   5.261   1.031   6.138
 9186SOL    HW228458   5.305   1.109   6.274
 9187SOL     OW28459   5.829   2.216   0.768
 9187SOL    HW128460   5.778   2.283   0.715
 9187SOL    HW228461   5.910   2.259   0.808
 9188SOL     OW28462   1.368   0.642   1.940
 9188SOL    HW128463   1.446   0.611   1.994
 9188SOL    HW228464   1.397   0.655   1.845
 9189SOL     OW28465   3.951   1.332   4.896
 9189SOL    HW128466   3.908   1.264   4.956
 9189SOL    HW228467   3.880   1.376   4.841
 9190SOL     OW28468   6.781   2.180   5.223
 9190SOL    HW128469   6.734   2.199   5.137
 9190SOL    HW228470   6.842   2.256   5.245
 9191SOL     OW28471   5.850   6.581   0.511
 9191SOL    HW128472   5.840   6.506   0.446
 9191SOL    HW228473   5.813   6.665   0.472
 9192SOL     OW28474   5.364   4.618   4.357
 9192SOL    HW128475   5.447   4.617   4.300
 9192SOL    HW228476   5.379   4.564   4.439
 9193SOL     OW28477   3.425   2.934   3.523
 9193SOL    HW128478   3.494   2.905   3.457
 9193SOL    HW228479   3.470   2.957   3.610
 9194SOL     OW28480   3.502   5.961   3.015
 9194SOL    HW128481   3.570   6.030   2.988
 9194SOL    HW228482   3.412   6.005   3.024
 9195SOL     OW28483   0.222   2.958   2.409
 9195SOL    HW128484   0.189   2.948   2.503
 9195SOL    HW228485   0.319   2.936   2.406
 9196SOL     OW28486   4.409   0.253   3.442
 9196SOL    HW128487   4.451   0.208   3.364
 9196SOL    HW228488   4.351   0.328   3.410
 9197SOL     OW28489   3.576   2.881   5.355
 9197SOL    HW128490   3.513   2.956   5.373
 9197SOL    HW228491   3.664   2.899   5.398
 9198SOL     OW28492   5.130   2.635   5.242
 9198SOL    HW128493   5.208   2.585   5.203
 9198SOL    HW228494   5.070   2.666   5.169
 9199SOL     OW28495   1.421   3.885   6.644
 9199SOL    HW128496   1.444   3.794   6.610
 9199SOL    HW228497   1.473   3.904   6.727
 9200SOL     OW28498   6.287   6.030   0.752
 9200SOL    HW128499   6.376   5.984   0.750
 9200SOL    HW228500   6.285   6.095   0.828
 9201SOL     OW28501   1.928   4.238   3.185
 9201SOL    HW128502   1.845   4.245   3.131
 9201SOL    HW228503   1.919   4.163   3.251
 9202SOL     OW28504   3.338   5.483   3.835
 9202SOL    HW128505   3.335   5.383   3.836
 9202SOL    HW228506   3.324   5.516   3.742
 9203SOL     OW28507   5.146   0.792   6.199
 9203SOL    HW128508   5.049   0.810   6.184
 9203SOL    HW228509   5.197   0.877   6.197
 9204SOL     OW28510   4.585   4.300   1.661
 9204SOL    HW128511   4.588   4.396   1.631
 9204SOL    HW228512   4.528   4.293   1.743
 9205SOL     OW28513   4.815   2.933   2.348
 9205SOL    HW128514   4.771   2.898   2.266
 9205SOL    HW228515   4.833   2.857   2.411
 9206SOL     OW28516   0.663   6.808   2.871
 9206SOL    HW128517   0.576   6.853   2.892
 9206SOL    HW228518   0.660   6.713   2.903
 9207SOL     OW28519   3.885   6.363   7.003
 9207SOL    HW128520   3.981   6.333   7.010
 9207SOL    HW228521   3.880   6.462   7.014
 9208SOL     OW28522   4.663   4.824   2.281
 9208SOL    HW128523   4.605   4.893   2.325
 9208SOL    HW228524   4.727   4.869   2.219
 9209SOL     OW28525   3.882   0.737   2.892
 9209SOL    HW128526   3.839   0.660   2.938
 9209SOL    HW228527   3.948   0.781   2.953
 9210SOL     OW28528   1.270   6.845   0.506
 9210SOL    HW128529   1.319   6.763   0.537
 9210SOL    HW228530   1.176   6.820   0.481
 9211SOL     OW28531   4.946   1.788   6.340
 9211SOL    HW128532   4.939   1.886   6.359
 9211SOL    HW228533   4.964   1.738   6.425
 9212SOL     OW28534   6.036   3.269   4.513
 9212SOL    HW128535   6.050   3.208   4.591
 9212SOL    HW228536   6.095   3.349   4.521
 9213SOL     OW28537   6.736   0.068   2.706
 9213SOL    HW128538   6.669   0.058   2.779
 9213SOL    HW228539   6.769   0.162   2.703
 9214SOL     OW28540   1.951   2.539   5.178
 9214SOL    HW128541   2.027   2.599   5.151
 9214SOL    HW228542   1.946   2.462   5.115
 9215SOL     OW28543   0.806   3.319   2.824
 9215SOL    HW128544   0.715   3.302   2.787
 9215SOL    HW228545   0.869   3.341   2.750
 9216SOL     OW28546   2.683   5.563   4.235
 9216SOL    HW128547   2.688   5.476   4.283
 9216SOL    HW228548   2.774   5.603   4.228
 9217SOL     OW28549   4.605   0.971   6.322
 9217SOL    HW128550   4.572   1.038   6.388
 9217SOL    HW228551   4.576   0.997   6.230
 9218SOL     OW28552   6.067   5.344   6.504
 9218SOL    HW128553   5.982   5.341   6.555
 9218SOL    HW228554   6.144   5.352   6.568
 9219SOL     OW28555   3.668   2.732   5.590
 9219SOL    HW128556   3.632   2.682   5.511
 9219SOL    HW228557   3.763   2.760   5.571
 9220SOL     OW28558   0.849   6.464   3.691
 9220SOL    HW128559   0.924   6.423   3.744
 9220SOL    HW228560   0.807   6.537   3.745
 9221SOL     OW28561   2.402   1.599   0.594
 9221SOL    HW128562   2.397   1.587   0.495
 9221SOL    HW228563   2.485   1.650   0.617
 9222SOL     OW28564   1.856   3.074   4.232
 9222SOL    HW128565   1.850   2.977   4.207
 9222SOL    HW228566   1.902   3.083   4.320
 9223SOL     OW28567   0.467   3.259   4.927
 9223SOL    HW128568   0.490   3.324   4.855
 9223SOL    HW228569   0.413   3.184   4.888
 9224SOL     OW28570   2.274   4.260   3.466
 9224SOL    HW128571   2.235   4.314   3.391
 9224SOL    HW228572   2.337   4.316   3.518
 9225SOL     OW28573   5.221   5.669   6.580
 9225SOL    HW128574   5.139   5.648   6.633
 9225SOL    HW228575   5.235   5.768   6.577
 9226SOL     OW28576   0.942   0.948   1.042
 9226SOL    HW128577   0.980   0.891   1.114
 9226SOL    HW228578   1.017   0.993   0.993
 9227SOL     OW28579   2.151   4.467   0.662
 9227SOL    HW128580   2.175   4.415   0.580
 9227SOL    HW228581   2.075   4.423   0.708
 9228SOL     OW28582   3.327   3.330   5.343
 9228SOL    HW128583   3.353   3.420   5.309
 9228SOL    HW228584   3.260   3.341   5.416
 9229SOL     OW28585   0.328   4.912   0.461
 9229SOL    HW128586   0.311   4.827   0.412
 9229SOL    HW228587   0.309   4.898   0.558
 9230SOL     OW28588   4.603   1.437   5.132
 9230SOL    HW128589   4.700   1.460   5.133
 9230SOL    HW228590   4.570   1.429   5.226
 9231SOL     OW28591   6.686   5.327   3.383
 9231SOL    HW128592   6.635   5.263   3.441
 9231SOL    HW228593   6.680   5.419   3.422
 9232SOL     OW28594   1.461   5.104   2.553
 9232SOL    HW128595   1.426   5.025   2.603
 9232SOL    HW228596   1.480   5.178   2.617
 9233SOL     OW28597   0.723   6.621   6.527
 9233SOL    HW128598   0.704   6.684   6.603
 9233SOL    HW228599   0.716   6.670   6.441
 9234SOL     OW28600   2.108   4.079   0.549
 9234SOL    HW128601   2.202   4.061   0.522
 9234SOL    HW228602   2.077   4.165   0.508
 9235SOL     OW28603   2.030   2.049   3.181
 9235SOL    HW128604   2.010   1.951   3.182
 9235SOL    HW228605   1.957   2.097   3.133
 9236SOL     OW28606   2.457   3.399   6.771
 9236SOL    HW128607   2.549   3.412   6.807
 9236SOL    HW228608   2.460   3.329   6.699
 9237SOL     OW28609   5.228   5.132   3.344
 9237SOL    HW128610   5.257   5.226   3.361
 9237SOL    HW228611   5.193   5.124   3.250
 9238SOL     OW28612   1.302   2.779   4.702
 9238SOL    HW128613   1.271   2.706   4.764
 9238SOL    HW228614   1.244   2.782   4.621
 9239SOL     OW28615   1.080   5.040   6.919
 9239SOL    HW128616   1.093   5.047   7.018
 9239SOL    HW228617   1.019   4.963   6.899
 9240SOL     OW28618   4.471   2.196   2.999
 9240SOL    HW128619   4.446   2.232   3.089
 9240SOL    HW228620   4.395   2.207   2.936
 9241SOL     OW28621   5.978   6.328   1.236
 9241SOL    HW128622   5.917   6.252   1.257
 9241SOL    HW228623   6.027   6.355   1.319
 9242SOL     OW28624   1.371   2.591   0.654
 9242SOL    HW128625   1.361   2.552   0.746
 9242SOL    HW228626   1.424   2.676   0.660
 9243SOL     OW28627   1.380   0.894   0.016
 9243SOL    HW128628   1.301   0.900   6.979
 9243SOL    HW228629   1.365   0.821   0.083
 9244SOL     OW28630   3.579   6.562   5.557
 9244SOL    HW128631   3.645   6.490   5.576
 9244SOL    HW228632   3.487   6.530   5.579
 9245SOL     OW28633   1.290   4.782   3.689
 9245SOL    HW128634   1.362   4.713   3.681
 9245SOL    HW228635   1.205   4.747   3.648
 9246SOL     OW28636   5.873   0.386   6.588
 9246SOL    HW128637   5.804   0.436   6.536
 9246SOL    HW228638   5.872   0.289   6.561
 9247SOL     OW28639   3.709   6.510   3.105
 9247SOL    HW128640   3.695   6.412   3.117
 9247SOL    HW228641   3.673   6.539   3.016
 9248SOL     OW28642   2.472   0.956   0.072
 9248SOL    HW128643   2.499   0.887   0.005
 9248SOL    HW228644   2.393   1.007   0.037
 9249SOL     OW28645   3.293   6.023   0.968
 9249SOL    HW128646   3.294   6.118   0.937
 9249SOL    HW228647   3.232   6.015   1.047
 9250SOL     OW28648   0.409   3.075   3.627
 9250SOL    HW128649   0.397   2.997   3.688
 9250SOL    HW228650   0.348   3.149   3.656
 9251SOL     OW28651   2.992   3.178   1.011
 9251SOL    HW128652   3.066   3.119   1.043
 9251SOL    HW228653   3.023   3.230   0.931
 9252SOL     OW28654   5.487   2.032   5.425
 9252SOL    HW128655   5.529   2.086   5.353
 9252SOL    HW228656   5.539   2.043   5.510
 9253SOL     OW28657   0.982   5.429   5.269
 9253SOL    HW128658   1.044   5.389   5.337
 9253SOL    HW228659   0.922   5.358   5.233
 9254SOL     OW28660   0.227   4.636   2.614
 9254SOL    HW128661   0.191   4.710   2.557
 9254SOL    HW228662   0.152   4.580   2.648
 9255SOL     OW28663   6.874   4.283   0.424
 9255SOL    HW128664   6.816   4.205   0.449
 9255SOL    HW228665   6.927   4.312   0.504
 9256SOL     OW28666   2.912   6.097   1.379
 9256SOL    HW128667   2.912   6.069   1.283
 9256SOL    HW228668   2.983   6.164   1.394
 9257SOL     OW28669   6.736   5.985   3.928
 9257SOL    HW128670   6.819   5.993   3.983
 9257SOL    HW228671   6.677   5.914   3.968
 9258SOL     OW28672   3.201   5.146   1.459
 9258SOL    HW128673   3.253   5.062   1.476
 9258SOL    HW228674   3.141   5.164   1.536
 9259SOL     OW28675   1.979   2.073   0.281
 9259SOL    HW128676   1.981   2.075   0.181
 9259SOL    HW228677   2.031   1.995   0.314
 9260SOL     OW28678   5.747   4.046   4.927
 9260SOL    HW128679   5.673   3.994   4.884
 9260SOL    HW228680   5.832   4.030   4.876
 9261SOL     OW28681   3.627   2.525   1.669
 9261SOL    HW128682   3.684   2.497   1.591
 9261SOL    HW228683   3.657   2.477   1.751
 9262SOL     OW28684   6.454   5.820   4.883
 9262SOL    HW128685   6.507   5.904   4.891
 9262SOL    HW228686   6.361   5.842   4.855
 9263SOL     OW28687   2.009   4.105   3.813
 9263SOL    HW128688   2.109   4.108   3.812
 9263SOL    HW228689   1.979   4.024   3.863
 9264SOL     OW28690   4.555   4.303   0.045
 9264SOL    HW128691   4.543   4.393   0.086
 9264SOL    HW228692   4.653   4.285   0.032
 9265SOL     OW28693   6.231   1.944   0.706
 9265SOL    HW128694   6.246   1.983   0.796
 9265SOL    HW228695   6.134   1.948   0.683
 9266SOL     OW28696   1.179   4.663   1.253
 9266SOL    HW128697   1.275   4.671   1.226
 9266SOL    HW228698   1.140   4.754   1.265
 9267SOL     OW28699   6.636   1.062   4.362
 9267SOL    HW128700   6.679   1.053   4.272
 9267SOL    HW228701   6.621   1.158   4.383
 9268SOL     OW28702   0.720   0.096   1.728
 9268SOL    HW128703   0.779   0.078   1.807
 9268SOL    HW228704   0.698   0.193   1.724
 9269SOL     OW28705   3.800   1.471   0.225
 9269SOL    HW128706   3.741   1.436   0.153
 9269SOL    HW228707   3.753   1.546   0.274
 9270SOL     OW28708   1.943   0.400   6.514
 9270SOL    HW128709   1.855   0.371   6.550
 9270SOL    HW228710   1.965   0.348   6.431
 9271SOL     OW28711   1.279   6.219   4.937
 9271SOL    HW128712   1.188   6.247   4.904
 9271SOL    HW228713   1.337   6.299   4.947
 9272SOL     OW28714   6.574   6.068   6.170
 9272SOL    HW128715   6.653   6.098   6.223
 9272SOL    HW228716   6.583   5.971   6.148
 9273SOL     OW28717   4.923   4.741   3.677
 9273SOL    HW128718   4.856   4.813   3.665
 9273SOL    HW228719   4.894   4.658   3.629
 9274SOL     OW28720   0.233   3.012   0.887
 9274SOL    HW128721   0.276   2.961   0.813
 9274SOL    HW228722   0.291   3.089   0.913
 9275SOL     OW28723   6.952   0.784   0.088
 9275SOL    HW128724   6.874   0.750   0.036
 9275SOL    HW228725   7.010   0.839   0.028
 9276SOL     OW28726   2.968   5.635   0.364
 9276SOL    HW128727   3.061   5.640   0.326
 9276SOL    HW228728   2.953   5.713   0.425
 9277SOL     OW28729   4.920   5.733   1.481
 9277SOL    HW128730   5.004   5.708   1.432
 9277SOL    HW228731   4.909   5.832   1.478
 9278SOL     OW28732   1.163   0.421   5.644
 9278SOL    HW128733   1.078   0.471   5.624
 9278SOL    HW228734   1.214   0.471   5.714
 9279SOL     OW28735   4.068   5.853   1.669
 9279SOL    HW128736   4.130   5.930   1.687
 9279SOL    HW228737   4.050   5.847   1.571
 9280SOL     OW28738   1.492   6.743   2.576
 9280SOL    HW128739   1.506   6.828   2.625
 9280SOL    HW228740   1.403   6.704   2.602
 9281SOL     OW28741   2.280   5.412   7.001
 9281SOL    HW128742   2.222   5.479   6.954
 9281SOL    HW228743   2.363   5.457   0.008
 9282SOL     OW28744   3.036   0.045   5.158
 9282SOL    HW128745   3.078   0.088   5.238
 9282SOL    HW228746   3.041   0.108   5.080
 9283SOL     OW28747   4.230   6.342   0.945
 9283SOL    HW128748   4.208   6.294   1.030
 9283SOL    HW228749   4.287   6.421   0.965
 9284SOL     OW28750   3.512   4.092   5.136
 9284SOL    HW128751   3.562   4.031   5.197
 9284SOL    HW228752   3.553   4.089   5.044
 9285SOL     OW28753   0.785   5.358   2.577
 9285SOL    HW128754   0.734   5.336   2.494
 9285SOL    HW228755   0.819   5.274   2.618
 9286SOL     OW28756   4.577   6.390   1.616
 9286SOL    HW128757   4.637   6.468   1.632
 9286SOL    HW228758   4.484   6.422   1.597
 9287SOL     OW28759   3.708   4.245   5.898
 9287SOL    HW128760   3.614   4.260   5.868
 9287SOL    HW228761   3.747   4.169   5.846
 9288SOL     OW28762   3.457   2.073   2.607
 9288SOL    HW128763   3.386   2.004   2.595
 9288SOL    HW228764   3.419   2.163   2.584
 9289SOL     OW28765   5.139   6.580   0.667
 9289SOL    HW128766   5.167   6.582   0.571
 9289SOL    HW228767   5.202   6.522   0.719
 9290SOL     OW28768   4.669   0.779   3.637
 9290SOL    HW128769   4.599   0.847   3.660
 9290SOL    HW228770   4.626   0.700   3.594
 9291SOL     OW28771   0.944   4.519   5.977
 9291SOL    HW128772   0.961   4.421   5.972
 9291SOL    HW228773   0.845   4.536   5.988
 9292SOL     OW28774   1.077   1.295   6.640
 9292SOL    HW128775   1.003   1.267   6.702
 9292SOL    HW228776   1.097   1.221   6.576
 9293SOL     OW28777   4.762   2.563   4.599
 9293SOL    HW128778   4.689   2.497   4.616
 9293SOL    HW228779   4.754   2.639   4.665
 9294SOL     OW28780   4.721   0.772   6.519
 9294SOL    HW128781   4.790   0.843   6.531
 9294SOL    HW228782   4.670   0.788   6.434
 9295SOL     OW28783   0.545   1.103   5.472
 9295SOL    HW128784   0.608   1.161   5.420
 9295SOL    HW228785   0.596   1.031   5.519
 9296SOL     OW28786   1.865   4.619   6.873
 9296SOL    HW128787   1.773   4.644   6.902
 9296SOL    HW228788   1.869   4.521   6.855
 9297SOL     OW28789   6.240   5.791   2.644
 9297SOL    HW128790   6.285   5.730   2.579
 9297SOL    HW228791   6.176   5.850   2.596
 9298SOL     OW28792   1.523   5.262   6.788
 9298SOL    HW128793   1.577   5.257   6.872
 9298SOL    HW228794   1.585   5.274   6.710
 9299SOL     OW28795   2.326   2.759   4.566
 9299SOL    HW128796   2.354   2.776   4.472
 9299SOL    HW228797   2.325   2.845   4.617
 9300SOL     OW28798   1.628   5.436   4.972
 9300SOL    HW128799   1.644   5.466   4.878
 9300SOL    HW228800   1.612   5.516   5.030
 9301SOL     OW28801   0.152   4.764   4.732
 9301SOL    HW128802   0.167   4.676   4.687
 9301SOL    HW228803   0.228   4.826   4.710
 9302SOL     OW28804   2.173   3.433   5.455
 9302SOL    HW128805   2.214   3.462   5.541
 9302SOL    HW228806   2.240   3.443   5.381
 9303SOL     OW28807   2.552   4.522   0.668
 9303SOL    HW128808   2.576   4.524   0.765
 9303SOL    HW228809   2.635   4.527   0.613
 9304SOL     OW28810   4.373   4.989   0.156
 9304SOL    HW128811   4.456   5.004   0.208
 9304SOL    HW228812   4.395   4.941   0.071
 9305SOL     OW28813   2.084   2.034   1.781
 9305SOL    HW128814   2.001   2.067   1.736
 9305SOL    HW228815   2.099   1.938   1.757
 9306SOL     OW28816   6.678   5.578   4.817
 9306SOL    HW128817   6.628   5.615   4.896
 9306SOL    HW228818   6.774   5.565   4.843
 9307SOL     OW28819   2.464   3.595   1.401
 9307SOL    HW128820   2.435   3.502   1.375
 9307SOL    HW228821   2.468   3.602   1.501
 9308SOL     OW28822   2.097   3.674   2.108
 9308SOL    HW128823   2.003   3.641   2.107
 9308SOL    HW228824   2.154   3.614   2.052
 9309SOL     OW28825   4.975   5.395   6.390
 9309SOL    HW128826   4.902   5.367   6.328
 9309SOL    HW228827   5.013   5.482   6.360
 9310SOL     OW28828   6.093   6.544   6.918
 9310SOL    HW128829   6.153   6.487   6.975
 9310SOL    HW228830   6.112   6.526   6.822
 9311SOL     OW28831   4.774   3.818   1.600
 9311SOL    HW128832   4.775   3.872   1.684
 9311SOL    HW228833   4.681   3.817   1.562
 9312SOL     OW28834   0.583   3.072   3.170
 9312SOL    HW128835   0.630   2.990   3.203
 9312SOL    HW228836   0.641   3.152   3.182
 9313SOL     OW28837   0.558   0.731   2.137
 9313SOL    HW128838   0.522   0.724   2.231
 9313SOL    HW228839   0.493   0.691   2.074
 9314SOL     OW28840   5.161   3.882   0.455
 9314SOL    HW128841   5.125   3.793   0.427
 9314SOL    HW228842   5.249   3.870   0.500
 9315SOL     OW28843   5.237   0.186   6.138
 9315SOL    HW128844   5.216   0.256   6.205
 9315SOL    HW228845   5.161   0.179   6.072
 9316SOL     OW28846   4.734   0.432   5.715
 9316SOL    HW128847   4.824   0.466   5.741
 9316SOL    HW228848   4.677   0.424   5.797
 9317SOL     OW28849   3.910   6.374   3.319
 9317SOL    HW128850   3.835   6.400   3.258
 9317SOL    HW228851   3.877   6.303   3.382
 9318SOL     OW28852   4.319   6.333   1.827
 9318SOL    HW128853   4.239   6.385   1.796
 9318SOL    HW228854   4.303   6.298   1.919
 9319SOL     OW28855   2.847   2.888   0.060
 9319SOL    HW128856   2.785   2.843   7.020
 9319SOL    HW228857   2.867   2.825   0.136
 9320SOL     OW28858   6.473   6.348   6.796
 9320SOL    HW128859   6.522   6.340   6.709
 9320SOL    HW228860   6.526   6.302   6.868
 9321SOL     OW28861   0.199   3.558   4.848
 9321SOL    HW128862   0.111   3.511   4.857
 9321SOL    HW228863   0.243   3.561   4.938
 9322SOL     OW28864   6.083   3.197   6.761
 9322SOL    HW128865   6.099   3.295   6.752
 9322SOL    HW228866   6.165   3.147   6.733
 9323SOL     OW28867   0.670   2.159   5.754
 9323SOL    HW128868   0.720   2.164   5.841
 9323SOL    HW228869   0.702   2.233   5.694
 9324SOL     OW28870   1.118   4.724   1.853
 9324SOL    HW128871   1.094   4.814   1.888
 9324SOL    HW228872   1.094   4.654   1.920
 9325SOL     OW28873   1.050   4.614   3.607
 9325SOL    HW128874   1.081   4.550   3.537
 9325SOL    HW228875   1.062   4.574   3.697
 9326SOL     OW28876   4.731   4.462   1.886
 9326SOL    HW128877   4.746   4.433   1.792
 9326SOL    HW228878   4.663   4.403   1.929
 9327SOL     OW28879   3.850   0.795   3.504
 9327SOL    HW128880   3.899   0.882   3.499
 9327SOL    HW228881   3.910   0.725   3.542
 9328SOL     OW28882   2.248   0.134   4.137
 9328SOL    HW128883   2.230   0.036   4.148
 9328SOL    HW228884   2.305   0.166   4.213
 9329SOL     OW28885   0.323   5.251   6.906
 9329SOL    HW128886   0.404   5.274   6.960
 9329SOL    HW228887   0.332   5.157   6.872
 9330SOL     OW28888   6.698   5.996   6.581
 9330SOL    HW128889   6.600   5.987   6.597
 9330SOL    HW228890   6.714   6.066   6.511
 9331SOL     OW28891   1.528   3.679   4.166
 9331SOL    HW128892   1.463   3.698   4.239
 9331SOL    HW228893   1.483   3.626   4.094
 9332SOL     OW28894   4.728   5.744   1.217
 9332SOL    HW128895   4.766   5.660   1.177
 9332SOL    HW228896   4.633   5.754   1.189
 9333SOL     OW28897   4.373   4.158   0.722
 9333SOL    HW128898   4.365   4.254   0.693
 9333SOL    HW228899   4.442   4.150   0.793
 9334SOL     OW28900   5.736   6.211   5.944
 9334SOL    HW128901   5.737   6.253   5.853
 9334SOL    HW228902   5.694   6.121   5.938
 9335SOL     OW28903   0.813   3.685   1.572
 9335SOL    HW128904   0.885   3.754   1.585
 9335SOL    HW228905   0.769   3.700   1.483
 9336SOL     OW28906   5.913   6.807   5.710
 9336SOL    HW128907   5.972   6.733   5.744
 9336SOL    HW228908   5.946   6.836   5.620
 9337SOL     OW28909   2.296   0.377   6.260
 9337SOL    HW128910   2.390   0.360   6.231
 9337SOL    HW228911   2.266   0.305   6.322
 9338SOL     OW28912   5.533   6.765   0.258
 9338SOL    HW128913   5.506   6.678   0.299
 9338SOL    HW228914   5.476   6.783   0.177
 9339SOL     OW28915   6.125   3.689   5.662
 9339SOL    HW128916   6.129   3.769   5.603
 9339SOL    HW228917   6.214   3.644   5.664
 9340SOL     OW28918   3.873   5.535   1.371
 9340SOL    HW128919   3.938   5.476   1.419
 9340SOL    HW228920   3.781   5.521   1.408
 9341SOL     OW28921   5.196   4.094   6.963
 9341SOL    HW128922   5.243   4.095   0.027
 9341SOL    HW228923   5.178   4.000   6.936
 9342SOL     OW28924   3.357   0.279   4.283
 9342SOL    HW128925   3.350   0.212   4.209
 9342SOL    HW228926   3.288   0.259   4.352
 9343SOL     OW28927   4.576   4.037   1.307
 9343SOL    HW128928   4.492   4.086   1.287
 9343SOL    HW228929   4.594   4.040   1.405
 9344SOL     OW28930   5.948   6.332   5.326
 9344SOL    HW128931   6.019   6.332   5.396
 9344SOL    HW228932   5.869   6.384   5.358
 9345SOL     OW28933   1.082   5.844   0.513
 9345SOL    HW128934   1.070   5.943   0.525
 9345SOL    HW228935   1.175   5.819   0.541
 9346SOL     OW28936   5.600   5.749   0.827
 9346SOL    HW128937   5.558   5.817   0.888
 9346SOL    HW228938   5.603   5.786   0.734
 9347SOL     OW28939   3.402   5.306   1.082
 9347SOL    HW128940   3.348   5.292   0.999
 9347SOL    HW228941   3.353   5.370   1.143
 9348SOL     OW28942   2.771   5.831   2.070
 9348SOL    HW128943   2.834   5.909   2.059
 9348SOL    HW228944   2.797   5.759   2.006
 9349SOL     OW28945   6.896   5.717   2.032
 9349SOL    HW128946   6.831   5.648   2.061
 9349SOL    HW228947   6.864   5.761   1.948
 9350SOL     OW28948   6.631   0.693   5.870
 9350SOL    HW128949   6.628   0.750   5.953
 9350SOL    HW228950   6.549   0.636   5.866
 9351SOL     OW28951   3.406   2.372   6.206
 9351SOL    HW128952   3.377   2.454   6.253
 9351SOL    HW228953   3.422   2.392   6.109
 9352SOL     OW28954   3.454   2.436   5.938
 9352SOL    HW128955   3.553   2.420   5.932
 9352SOL    HW228956   3.411   2.414   5.850
 9353SOL     OW28957   0.946   3.175   1.326
 9353SOL    HW128958   0.932   3.076   1.324
 9353SOL    HW228959   0.867   3.219   1.369
 9354SOL     OW28960   4.810   2.294   1.572
 9354SOL    HW128961   4.777   2.202   1.549
 9354SOL    HW228962   4.895   2.312   1.522
 9355SOL     OW28963   6.821   0.210   3.300
 9355SOL    HW128964   6.804   0.115   3.275
 9355SOL    HW228965   6.837   0.263   3.217
 9356SOL     OW28966   4.456   4.608   2.511
 9356SOL    HW128967   4.367   4.631   2.471
 9356SOL    HW228968   4.523   4.593   2.438
 9357SOL     OW28969   3.696   3.044   0.699
 9357SOL    HW128970   3.673   2.996   0.783
 9357SOL    HW228971   3.783   3.009   0.663
 9358SOL     OW28972   6.043   4.643   1.929
 9358SOL    HW128973   5.978   4.697   1.983
 9358SOL    HW228974   5.996   4.563   1.890
 9359SOL     OW28975   6.456   3.930   5.628
 9359SOL    HW128976   6.543   3.978   5.624
 9359SOL    HW228977   6.388   3.987   5.675
 9360SOL     OW28978   1.910   0.826   6.761
 9360SOL    HW128979   1.900   0.749   6.824
 9360SOL    HW228980   1.850   0.901   6.790
 9361SOL     OW28981   2.975   6.891   2.421
 9361SOL    HW128982   3.044   6.909   2.491
 9361SOL    HW228983   2.973   6.794   2.400
 9362SOL     OW28984   2.152   1.291   2.479
 9362SOL    HW128985   2.057   1.322   2.476
 9362SOL    HW228986   2.162   1.208   2.425
 9363SOL     OW28987   3.448   5.724   2.648
 9363SOL    HW128988   3.510   5.772   2.711
 9363SOL    HW228989   3.442   5.775   2.562
 9364SOL     OW28990   4.284   4.701   7.018
 9364SOL    HW128991   4.267   4.606   0.019
 9364SOL    HW228992   4.330   4.703   6.929
 9365SOL     OW28993   2.951   1.601   4.694
 9365SOL    HW128994   2.890   1.673   4.727
 9365SOL    HW228995   3.035   1.600   4.749
 9366SOL     OW28996   2.856   1.816   0.802
 9366SOL    HW128997   2.909   1.894   0.836
 9366SOL    HW228998   2.913   1.760   0.742
 9367SOL     OW28999   6.787   5.822   3.173
 9367SOL    HW129000   6.806   5.872   3.089
 9367SOL    HW229001   6.822   5.729   3.165
 9368SOL     OW29002   3.099   2.015   1.554
 9368SOL    HW129003   3.060   2.045   1.641
 9368SOL    HW229004   3.186   1.969   1.571
 9369SOL     OW29005   0.027   2.323   4.473
 9369SOL    HW129006   6.953   2.334   4.463
 9369SOL    HW229007   0.046   2.246   4.535
 9370SOL     OW29008   5.880   1.067   2.700
 9370SOL    HW129009   5.843   1.109   2.618
 9370SOL    HW229010   5.811   1.067   2.772
 9371SOL     OW29011   0.623   6.173   0.545
 9371SOL    HW129012   0.704   6.205   0.593
 9371SOL    HW229013   0.549   6.157   0.610
 9372SOL     OW29014   5.883   6.523   4.745
 9372SOL    HW129015   5.975   6.540   4.710
 9372SOL    HW229016   5.872   6.567   4.834
 9373SOL     OW29017   3.711   1.727   3.435
 9373SOL    HW129018   3.661   1.802   3.476
 9373SOL    HW229019   3.646   1.661   3.397
 9374SOL     OW29020   5.516   3.675   0.368
 9374SOL    HW129021   5.570   3.604   0.322
 9374SOL    HW229022   5.528   3.666   0.467
 9375SOL     OW29023   0.454   1.107   3.575
 9375SOL    HW129024   0.375   1.048   3.589
 9375SOL    HW229025   0.469   1.121   3.477
 9376SOL     OW29026   2.271   4.025   1.366
 9376SOL    HW129027   2.278   3.990   1.460
 9376SOL    HW229028   2.275   3.949   1.302
 9377SOL     OW29029   6.199   5.199   4.298
 9377SOL    HW129030   6.138   5.258   4.246
 9377SOL    HW229031   6.170   5.197   4.394
 9378SOL     OW29032   2.526   0.211   0.508
 9378SOL    HW129033   2.569   0.294   0.473
 9378SOL    HW229034   2.430   0.229   0.530
 9379SOL     OW29035   5.214   4.849   4.434
 9379SOL    HW129036   5.263   4.850   4.522
 9379SOL    HW229037   5.270   4.803   4.366
 9380SOL     OW29038   6.007   0.100   5.808
 9380SOL    HW129039   5.929   0.045   5.836
 9380SOL    HW229040   6.091   0.048   5.824
 9381SOL     OW29041   2.509   1.750   5.648
 9381SOL    HW129042   2.576   1.803   5.596
 9381SOL    HW229043   2.417   1.769   5.613
 9382SOL     OW29044   4.874   2.280   2.759
 9382SOL    HW129045   4.839   2.373   2.768
 9382SOL    HW229046   4.910   2.267   2.667
 9383SOL     OW29047   4.122   6.212   4.784
 9383SOL    HW129048   4.114   6.239   4.881
 9383SOL    HW229049   4.031   6.213   4.742
 9384SOL     OW29050   4.793   5.857   1.974
 9384SOL    HW129051   4.756   5.946   1.948
 9384SOL    HW229052   4.881   5.843   1.928
 9385SOL     OW29053   3.710   0.988   3.195
 9385SOL    HW129054   3.698   0.889   3.200
 9385SOL    HW229055   3.802   1.008   3.160
 9386SOL     OW29056   2.924   0.066   5.698
 9386SOL    HW129057   3.015   0.077   5.657
 9386SOL    HW229058   2.933   0.015   5.784
 9387SOL     OW29059   3.467   6.977   0.227
 9387SOL    HW129060   3.475   6.884   0.263
 9387SOL    HW229061   3.396   6.980   0.156
 9388SOL     OW29062   0.063   0.652   3.128
 9388SOL    HW129063   0.014   0.674   3.213
 9388SOL    HW229064   0.148   0.605   3.150
 9389SOL     OW29065   2.514   0.964   5.615
 9389SOL    HW129066   2.583   0.982   5.686
 9389SOL    HW229067   2.451   1.042   5.610
 9390SOL     OW29068   2.683   5.535   2.216
 9390SOL    HW129069   2.585   5.533   2.238
 9390SOL    HW229070   2.734   5.572   2.293
 9391SOL     OW29071   0.232   1.316   5.732
 9391SOL    HW129072   0.265   1.264   5.810
 9391SOL    HW229073   0.283   1.288   5.650
 9392SOL     OW29074   1.445   5.988   4.342
 9392SOL    HW129075   1.385   5.947   4.273
 9392SOL    HW229076   1.449   5.929   4.422
 9393SOL     OW29077   3.814   2.218   5.258
 9393SOL    HW129078   3.742   2.167   5.211
 9393SOL    HW229079   3.903   2.182   5.232
 9394SOL     OW29080   6.137   2.944   2.453
 9394SOL    HW129081   6.038   2.947   2.442
 9394SOL    HW229082   6.173   2.857   2.421
 9395SOL     OW29083   2.456   3.546   0.554
 9395SOL    HW129084   2.378   3.498   0.595
 9395SOL    HW229085   2.528   3.480   0.531
 9396SOL     OW29086   6.164   0.275   5.979
 9396SOL    HW129087   6.097   0.274   6.053
 9396SOL    HW229088   6.119   0.249   5.893
 9397SOL     OW29089   2.515   6.857   1.160
 9397SOL    HW129090   2.541   6.954   1.169
 9397SOL    HW229091   2.547   6.807   1.240
 9398SOL     OW29092   2.710   1.566   6.552
 9398SOL    HW129093   2.786   1.629   6.570
 9398SOL    HW229094   2.636   1.584   6.616
 9399SOL     OW29095   6.887   0.641   5.466
 9399SOL    HW129096   6.795   0.646   5.427
 9399SOL    HW229097   6.880   0.633   5.566
 9400SOL     OW29098   5.731   3.122   2.243
 9400SOL    HW129099   5.802   3.129   2.172
 9400SOL    HW229100   5.684   3.210   2.251
 9401SOL     OW29101   2.780   6.765   3.145
 9401SOL    HW129102   2.878   6.761   3.124
 9401SOL    HW229103   2.763   6.726   3.235
 9402SOL     OW29104   2.008   5.211   6.485
 9402SOL    HW129105   1.977   5.148   6.556
 9402SOL    HW229106   2.031   5.160   6.402
 9403SOL     OW29107   5.295   1.975   4.092
 9403SOL    HW129108   5.298   2.049   4.025
 9403SOL    HW229109   5.371   1.985   4.156
 9404SOL     OW29110   0.973   4.903   6.582
 9404SOL    HW129111   1.068   4.931   6.572
 9404SOL    HW229112   0.948   4.840   6.509
 9405SOL     OW29113   6.336   6.639   0.888
 9405SOL    HW129114   6.345   6.703   0.964
 9405SOL    HW229115   6.240   6.632   0.862
 9406SOL     OW29116   0.065   1.365   4.821
 9406SOL    HW129117   0.112   1.280   4.798
 9406SOL    HW229118   0.127   1.425   4.871
 9407SOL     OW29119   3.125   5.961   2.872
 9407SOL    HW129120   3.109   6.021   2.950
 9407SOL    HW229121   3.167   6.013   2.798
 9408SOL     OW29122   3.966   1.786   6.189
 9408SOL    HW129123   4.032   1.862   6.191
 9408SOL    HW229124   3.877   1.820   6.159
 9409SOL     OW29125   5.930   3.465   3.763
 9409SOL    HW129126   5.969   3.383   3.806
 9409SOL    HW229127   6.000   3.535   3.756
 9410SOL     OW29128   4.261   6.298   2.876
 9410SOL    HW129129   4.360   6.304   2.867
 9410SOL    HW229130   4.224   6.388   2.899
 9411SOL     OW29131   4.048   5.556   0.605
 9411SOL    HW129132   4.143   5.567   0.634
 9411SOL    HW229133   4.029   5.620   0.530
 9412SOL     OW29134   0.257   2.197   1.148
 9412SOL    HW129135   0.299   2.153   1.227
 9412SOL    HW229136   0.167   2.157   1.131
 9413SOL     OW29137   3.888   6.136   5.479
 9413SOL    HW129138   3.951   6.194   5.428
 9413SOL    HW229139   3.912   6.138   5.576
 9414SOL     OW29140   2.832   1.709   2.347
 9414SOL    HW129141   2.775   1.728   2.427
 9414SOL    HW229142   2.924   1.683   2.376
 9415SOL     OW29143   2.325   6.575   2.424
 9415SOL    HW129144   2.385   6.564   2.345
 9415SOL    HW229145   2.281   6.665   2.420
 9416SOL     OW29146   1.286   2.165   1.984
 9416SOL    HW129147   1.269   2.108   2.064
 9416SOL    HW229148   1.255   2.116   1.902
 9417SOL     OW29149   2.264   5.495   5.549
 9417SOL    HW129150   2.210   5.469   5.469
 9417SOL    HW229151   2.204   5.538   5.617
 9418SOL     OW29152   2.465   5.033   1.253
 9418SOL    HW129153   2.546   4.984   1.220
 9418SOL    HW229154   2.438   4.997   1.343
 9419SOL     OW29155   2.955   6.589   4.806
 9419SOL    HW129156   3.043   6.564   4.764
 9419SOL    HW229157   2.936   6.527   4.882
 9420SOL     OW29158   6.993   1.085   4.377
 9420SOL    HW129159   6.930   1.145   4.426
 9420SOL    HW229160   0.046   1.138   4.343
 9421SOL     OW29161   0.648   4.438   5.249
 9421SOL    HW129162   0.663   4.361   5.186
 9421SOL    HW229163   0.737   4.476   5.276
 9422SOL     OW29164   5.066   0.579   2.002
 9422SOL    HW129165   5.159   0.543   1.994
 9422SOL    HW229166   5.039   0.582   2.098
 9423SOL     OW29167   3.876   0.738   3.927
 9423SOL    HW129168   3.928   0.675   3.984
 9423SOL    HW229169   3.939   0.794   3.873
 9424SOL     OW29170   3.700   6.580   4.647
 9424SOL    HW129171   3.690   6.676   4.673
 9424SOL    HW229172   3.646   6.561   4.565
 9425SOL     OW29173   0.910   3.420   5.099
 9425SOL    HW129174   0.908   3.430   4.999
 9425SOL    HW229175   0.930   3.325   5.122
 9426SOL     OW29176   3.140   0.422   6.641
 9426SOL    HW129177   3.059   0.394   6.588
 9426SOL    HW229178   3.154   0.359   6.717
 9427SOL     OW29179   2.707   5.331   4.905
 9427SOL    HW129180   2.682   5.323   5.001
 9427SOL    HW229181   2.662   5.412   4.866
 9428SOL     OW29182   5.937   0.327   3.035
 9428SOL    HW129183   5.995   0.393   3.083
 9428SOL    HW229184   5.989   0.286   2.960
 9429SOL     OW29185   0.844   4.124   2.053
 9429SOL    HW129186   0.806   4.050   1.997
 9429SOL    HW229187   0.892   4.085   2.132
 9430SOL     OW29188   6.636   6.822   1.662
 9430SOL    HW129189   6.551   6.867   1.638
 9430SOL    HW229190   6.629   6.783   1.753
 9431SOL     OW29191   0.011   3.992   0.828
 9431SOL    HW129192   0.082   4.053   0.792
 9431SOL    HW229193   6.951   4.044   0.840
 9432SOL     OW29194   6.264   0.177   2.908
 9432SOL    HW129195   6.285   0.111   2.836
 9432SOL    HW229196   6.237   0.128   2.991
 9433SOL     OW29197   3.363   4.731   5.299
 9433SOL    HW129198   3.265   4.729   5.280
 9433SOL    HW229199   3.396   4.826   5.293
 9434SOL     OW29200   5.701   4.891   2.865
 9434SOL    HW129201   5.683   4.797   2.835
 9434SOL    HW229202   5.682   4.899   2.963
 9435SOL     OW29203   1.402   0.957   4.288
 9435SOL    HW129204   1.469   0.943   4.361
 9435SOL    HW229205   1.320   0.903   4.307
 9436SOL     OW29206   2.625   3.299   0.368
 9436SOL    HW129207   2.718   3.304   0.334
 9436SOL    HW229208   2.588   3.207   0.354
 9437SOL     OW29209   1.515   5.082   3.446
 9437SOL    HW129210   1.476   5.130   3.367
 9437SOL    HW229211   1.606   5.049   3.423
 9438SOL     OW29212   0.801   6.489   2.041
 9438SOL    HW129213   0.801   6.587   2.021
 9438SOL    HW229214   0.711   6.463   2.078
 9439SOL     OW29215   0.029   2.551   2.288
 9439SOL    HW129216   0.098   2.621   2.268
 9439SOL    HW229217   7.008   2.573   2.374
 9440SOL     OW29218   4.747   6.515   6.108
 9440SOL    HW129219   4.781   6.475   6.193
 9440SOL    HW229220   4.821   6.522   6.042
 9441SOL     OW29221   1.861   4.954   5.090
 9441SOL    HW129222   1.838   5.048   5.064
 9441SOL    HW229223   1.942   4.924   5.041
 9442SOL     OW29224   6.789   2.689   0.453
 9442SOL    HW129225   6.798   2.725   0.546
 9442SOL    HW229226   6.878   2.692   0.407
 9443SOL     OW29227   1.872   3.971   0.951
 9443SOL    HW129228   1.937   4.018   0.892
 9443SOL    HW229229   1.892   3.873   0.952
 9444SOL     OW29230   0.232   3.238   0.062
 9444SOL    HW129231   0.304   3.307   0.061
 9444SOL    HW229232   0.203   3.220   0.156
 9445SOL     OW29233   5.770   3.991   1.759
 9445SOL    HW129234   5.809   3.993   1.851
 9445SOL    HW229235   5.843   4.002   1.691
 9446SOL     OW29236   6.735   5.991   2.135
 9446SOL    HW129237   6.765   5.928   2.063
 9446SOL    HW229238   6.798   6.069   2.140
 9447SOL     OW29239   5.727   4.098   2.264
 9447SOL    HW129240   5.638   4.053   2.259
 9447SOL    HW229241   5.765   4.087   2.356
 9448SOL     OW29242   5.646   6.303   0.525
 9448SOL    HW129243   5.727   6.282   0.470
 9448SOL    HW229244   5.635   6.233   0.596
 9449SOL     OW29245   5.630   5.387   5.837
 9449SOL    HW129246   5.686   5.335   5.772
 9449SOL    HW229247   5.598   5.326   5.909
 9450SOL     OW29248   3.294   4.980   4.817
 9450SOL    HW129249   3.349   4.911   4.770
 9450SOL    HW229250   3.204   4.986   4.774
 9451SOL     OW29251   4.497   5.226   6.446
 9451SOL    HW129252   4.543   5.187   6.366
 9451SOL    HW229253   4.491   5.325   6.436
 9452SOL     OW29254   2.409   4.668   1.611
 9452SOL    HW129255   2.487   4.663   1.673
 9452SOL    HW229256   2.326   4.640   1.658
 9453SOL     OW29257   2.511   5.287   2.922
 9453SOL    HW129258   2.564   5.225   2.864
 9453SOL    HW229259   2.422   5.246   2.943
 9454SOL     OW29260   1.604   3.709   5.834
 9454SOL    HW129261   1.541   3.633   5.853
 9454SOL    HW229262   1.683   3.673   5.784
 9455SOL     OW29263   3.413   1.397   2.154
 9455SOL    HW129264   3.438   1.481   2.202
 9455SOL    HW229265   3.495   1.344   2.134
 9456SOL     OW29266   0.866   3.590   0.980
 9456SOL    HW129267   0.907   3.501   0.965
 9456SOL    HW229268   0.911   3.658   0.922
 9457SOL     OW29269   1.431   3.053   0.157
 9457SOL    HW129270   1.475   3.003   0.231
 9457SOL    HW229271   1.500   3.106   0.107
 9458SOL     OW29272   0.147   5.347   5.343
 9458SOL    HW129273   0.102   5.279   5.284
 9458SOL    HW229274   0.241   5.319   5.359
 9459SOL     OW29275   6.713   5.523   1.820
 9459SOL    HW129276   6.625   5.493   1.782
 9459SOL    HW229277   6.781   5.527   1.747
 9460SOL     OW29278   1.084   1.929   5.177
 9460SOL    HW129279   1.051   1.881   5.096
 9460SOL    HW229280   1.056   2.025   5.172
 9461SOL     OW29281   0.890   0.828   3.503
 9461SOL    HW129282   0.825   0.753   3.493
 9461SOL    HW229283   0.925   0.830   3.597
 9462SOL     OW29284   0.648   2.917   2.150
 9462SOL    HW129285   0.665   2.853   2.075
 9462SOL    HW229286   0.735   2.948   2.188
 9463SOL     OW29287   6.143   1.359   0.185
 9463SOL    HW129288   6.234   1.388   0.157
 9463SOL    HW229289   6.138   1.357   0.285
 9464SOL     OW29290   6.082   0.026   6.285
 9464SOL    HW129291   6.156   0.078   6.327
 9464SOL    HW229292   6.119   6.992   6.213
 9465SOL     OW29293   6.248   0.304   4.055
 9465SOL    HW129294   6.262   0.216   4.011
 9465SOL    HW229295   6.155   0.309   4.093
 9466SOL     OW29296   2.100   3.004   6.275
 9466SOL    HW129297   2.088   2.921   6.220
 9466SOL    HW229298   2.092   3.084   6.216
 9467SOL     OW29299   1.779   2.970   2.272
 9467SOL    HW129300   1.702   2.938   2.327
 9467SOL    HW229301   1.837   2.892   2.248
 9468SOL     OW29302   6.948   3.506   5.784
 9468SOL    HW129303   6.886   3.559   5.726
 9468SOL    HW229304   6.961   3.415   5.744
 9469SOL     OW29305   6.060   5.310   2.454
 9469SOL    HW129306   6.131   5.358   2.504
 9469SOL    HW229307   5.976   5.364   2.454
 9470SOL     OW29308   4.500   3.773   0.519
 9470SOL    HW129309   4.564   3.839   0.558
 9470SOL    HW229310   4.545   3.685   0.506
 9471SOL     OW29311   6.900   2.332   6.059
 9471SOL    HW129312   6.835   2.367   5.991
 9471SOL    HW229313   6.892   2.385   6.143
 9472SOL     OW29314   5.888   4.255   4.553
 9472SOL    HW129315   5.790   4.255   4.573
 9472SOL    HW229316   5.902   4.235   4.456
 9473SOL     OW29317   2.326   5.762   5.832
 9473SOL    HW129318   2.359   5.673   5.863
 9473SOL    HW229319   2.400   5.811   5.786
 9474SOL     OW29320   4.592   5.178   2.197
 9474SOL    HW129321   4.580   5.104   2.131
 9474SOL    HW229322   4.552   5.262   2.161
 9475SOL     OW29323   2.882   3.984   1.202
 9475SOL    HW129324   2.970   4.031   1.196
 9475SOL    HW229325   2.877   3.935   1.289
 9476SOL     OW29326   4.267   3.339   5.261
 9476SOL    HW129327   4.235   3.319   5.354
 9476SOL    HW229328   4.347   3.399   5.265
 9477SOL     OW29329   1.071   2.607   1.230
 9477SOL    HW129330   1.107   2.529   1.178
 9477SOL    HW229331   1.143   2.641   1.291
 9478SOL     OW29332   5.955   4.695   5.271
 9478SOL    HW129333   5.999   4.782   5.247
 9478SOL    HW229334   5.856   4.707   5.275
 9479SOL     OW29335   5.947   6.184   6.415
 9479SOL    HW129336   6.019   6.114   6.418
 9479SOL    HW229337   5.885   6.165   6.339
 9480SOL     OW29338   5.622   4.648   0.211
 9480SOL    HW129339   5.556   4.594   0.159
 9480SOL    HW229340   5.581   4.676   0.298
 9481SOL     OW29341   6.797   3.980   1.890
 9481SOL    HW129342   6.796   3.957   1.987
 9481SOL    HW229343   6.840   4.069   1.876
 9482SOL     OW29344   4.879   1.094   1.979
 9482SOL    HW129345   4.840   1.075   1.889
 9482SOL    HW229346   4.813   1.146   2.033
 9483SOL     OW29347   1.964   1.863   0.528
 9483SOL    HW129348   1.993   1.943   0.580
 9483SOL    HW229349   2.025   1.849   0.451
 9484SOL     OW29350   6.464   1.642   4.000
 9484SOL    HW129351   6.538   1.575   4.004
 9484SOL    HW229352   6.434   1.653   3.905
 9485SOL     OW29353   0.831   0.784   2.988
 9485SOL    HW129354   0.814   0.687   3.000
 9485SOL    HW229355   0.823   0.831   3.076
 9486SOL     OW29356   2.692   5.776   1.264
 9486SOL    HW129357   2.745   5.791   1.180
 9486SOL    HW229358   2.691   5.860   1.318
 9487SOL     OW29359   3.245   3.709   3.756
 9487SOL    HW129360   3.156   3.751   3.736
 9487SOL    HW229361   3.318   3.772   3.733
 9488SOL     OW29362   1.607   6.518   1.428
 9488SOL    HW129363   1.513   6.496   1.400
 9488SOL    HW229364   1.668   6.444   1.400
 9489SOL     OW29365   3.945   4.515   1.358
 9489SOL    HW129366   4.023   4.473   1.311
 9489SOL    HW229367   3.960   4.511   1.457
 9490SOL     OW29368   5.473   0.964   1.160
 9490SOL    HW129369   5.431   1.008   1.240
 9490SOL    HW229370   5.468   1.027   1.083
 9491SOL     OW29371   6.403   5.327   4.548
 9491SOL    HW129372   6.314   5.359   4.516
 9491SOL    HW229373   6.410   5.341   4.647
 9492SOL     OW29374   3.233   3.956   1.947
 9492SOL    HW129375   3.289   3.980   1.867
 9492SOL    HW229376   3.136   3.962   1.923
 9493SOL     OW29377   4.583   5.763   3.262
 9493SOL    HW129378   4.484   5.770   3.278
 9493SOL    HW229379   4.607   5.812   3.178
 9494SOL     OW29380   5.176   3.578   6.534
 9494SOL    HW129381   5.272   3.581   6.508
 9494SOL    HW229382   5.132   3.499   6.491
 9495SOL     OW29383   6.428   2.031   4.854
 9495SOL    HW129384   6.453   2.046   4.758
 9495SOL    HW229385   6.330   2.010   4.860
 9496SOL     OW29386   5.853   3.894   0.226
 9496SOL    HW129387   5.759   3.912   0.195
 9496SOL    HW229388   5.895   3.979   0.258
 9497SOL     OW29389   5.433   5.569   0.031
 9497SOL    HW129390   5.456   5.549   6.961
 9497SOL    HW229391   5.412   5.667   0.041
 9498SOL     OW29392   3.540   0.180   5.392
 9498SOL    HW129393   3.497   0.252   5.446
 9498SOL    HW229394   3.572   0.107   5.452
 9499SOL     OW29395   2.716   3.695   5.453
 9499SOL    HW129396   2.797   3.753   5.455
 9499SOL    HW229397   2.671   3.696   5.542
 9500SOL     OW29398   4.251   5.706   1.865
 9500SOL    HW129399   4.241   5.724   1.767
 9500SOL    HW229400   4.332   5.754   1.899
 9501SOL     OW29401   3.405   1.510   4.489
 9501SOL    HW129402   3.374   1.478   4.399
 9501SOL    HW229403   3.461   1.441   4.532
 9502SOL     OW29404   6.450   2.358   5.132
 9502SOL    HW129405   6.492   2.285   5.078
 9502SOL    HW229406   6.366   2.325   5.175
 9503SOL     OW29407   0.563   0.175   2.026
 9503SOL    HW129408   0.499   0.217   2.090
 9503SOL    HW229409   0.577   0.079   2.050
 9504SOL     OW29410   0.281   2.661   0.749
 9504SOL    HW129411   0.298   2.563   0.753
 9504SOL    HW229412   0.365   2.708   0.723
 9505SOL     OW29413   6.516   3.351   3.173
 9505SOL    HW129414   6.558   3.357   3.264
 9505SOL    HW229415   6.550   3.270   3.126
 9506SOL     OW29416   6.951   3.435   0.068
 9506SOL    HW129417   6.931   3.337   0.066
 9506SOL    HW229418   6.961   3.465   0.163
 9507SOL     OW29419   1.029   1.438   3.586
 9507SOL    HW129420   1.097   1.430   3.658
 9507SOL    HW229421   0.972   1.356   3.584
 9508SOL     OW29422   5.550   1.820   0.834
 9508SOL    HW129423   5.491   1.823   0.914
 9508SOL    HW229424   5.544   1.908   0.786
 9509SOL     OW29425   2.049   6.657   5.501
 9509SOL    HW129426   2.027   6.734   5.560
 9509SOL    HW229427   1.969   6.598   5.490
 9510SOL     OW29428   6.727   4.744   2.574
 9510SOL    HW129429   6.696   4.839   2.566
 9510SOL    HW229430   6.672   4.686   2.513
 9511SOL     OW29431   0.408   2.420   0.102
 9511SOL    HW129432   0.374   2.418   0.196
 9511SOL    HW229433   0.414   2.515   0.071
 9512SOL     OW29434   1.314   2.155   4.104
 9512SOL    HW129435   1.323   2.057   4.124
 9512SOL    HW229436   1.331   2.171   4.007
 9513SOL     OW29437   2.203   3.850   3.973
 9513SOL    HW129438   2.183   3.837   3.876
 9513SOL    HW229439   2.189   3.764   4.022
 9514SOL     OW29440   1.724   3.372   0.247
 9514SOL    HW129441   1.765   3.305   0.186
 9514SOL    HW229442   1.784   3.388   0.325
 9515SOL     OW29443   1.570   6.248   6.398
 9515SOL    HW129444   1.555   6.345   6.417
 9515SOL    HW229445   1.482   6.204   6.381
 9516SOL     OW29446   5.524   4.244   3.692
 9516SOL    HW129447   5.517   4.249   3.593
 9516SOL    HW229448   5.441   4.203   3.730
 9517SOL     OW29449   0.641   5.710   1.433
 9517SOL    HW129450   0.689   5.740   1.515
 9517SOL    HW229451   0.702   5.652   1.379
 9518SOL     OW29452   0.933   2.656   6.107
 9518SOL    HW129453   0.937   2.670   6.206
 9518SOL    HW229454   0.869   2.722   6.068
 9519SOL     OW29455   3.406   3.730   2.855
 9519SOL    HW129456   3.325   3.722   2.797
 9519SOL    HW229457   3.424   3.642   2.900
 9520SOL     OW29458   0.046   0.475   5.347
 9520SOL    HW129459   6.986   0.524   5.370
 9520SOL    HW229460   0.111   0.483   5.423
 9521SOL     OW29461   3.524   6.765   1.300
 9521SOL    HW129462   3.583   6.783   1.222
 9521SOL    HW229463   3.434   6.734   1.268
 9522SOL     OW29464   3.893   5.622   1.070
 9522SOL    HW129465   3.841   5.704   1.046
 9522SOL    HW229466   3.916   5.624   1.167
 9523SOL     OW29467   2.439   5.372   4.612
 9523SOL    HW129468   2.476   5.465   4.620
 9523SOL    HW229469   2.514   5.307   4.609
 9524SOL     OW29470   1.522   3.840   1.009
 9524SOL    HW129471   1.505   3.827   1.107
 9524SOL    HW229472   1.445   3.888   0.967
 9525SOL     OW29473   1.942   2.268   5.569
 9525SOL    HW129474   2.041   2.262   5.572
 9525SOL    HW229475   1.909   2.238   5.479
 9526SOL     OW29476   5.306   4.959   6.750
 9526SOL    HW129477   5.268   5.052   6.756
 9526SOL    HW229478   5.387   4.961   6.691
 9527SOL     OW29479   3.502   6.752   3.604
 9527SOL    HW129480   3.466   6.666   3.641
 9527SOL    HW229481   3.579   6.732   3.543
 9528SOL     OW29482   6.240   1.449   1.015
 9528SOL    HW129483   6.159   1.389   1.011
 9528SOL    HW229484   6.246   1.502   0.931
 9529SOL     OW29485   6.432   2.044   1.880
 9529SOL    HW129486   6.395   2.126   1.838
 9529SOL    HW229487   6.489   1.995   1.814
 9530SOL     OW29488   0.606   5.289   3.685
 9530SOL    HW129489   0.698   5.328   3.690
 9530SOL    HW229490   0.606   5.197   3.726
 9531SOL     OW29491   4.020   4.803   3.468
 9531SOL    HW129492   4.097   4.739   3.460
 9531SOL    HW229493   3.967   4.780   3.549
 9532SOL     OW29494   5.892   5.525   2.017
 9532SOL    HW129495   5.949   5.469   1.956
 9532SOL    HW229496   5.951   5.584   2.072
 9533SOL     OW29497   1.588   5.407   3.995
 9533SOL    HW129498   1.518   5.475   3.973
 9533SOL    HW229499   1.653   5.447   4.060
 9534SOL     OW29500   5.928   4.925   4.499
 9534SOL    HW129501   5.958   4.898   4.407
 9534SOL    HW229502   5.860   4.859   4.532
 9535SOL     OW29503   1.560   1.704   5.779
 9535SOL    HW129504   1.588   1.617   5.820
 9535SOL    HW229505   1.568   1.776   5.847
 9536SOL     OW29506   3.634   3.844   5.224
 9536SOL    HW129507   3.616   3.810   5.132
 9536SOL    HW229508   3.608   3.774   5.291
 9537SOL     OW29509   1.335   0.858   3.828
 9537SOL    HW129510   1.434   0.869   3.822
 9537SOL    HW229511   1.291   0.917   3.760
 9538SOL     OW29512   3.786   0.460   4.603
 9538SOL    HW129513   3.768   0.417   4.514
 9538SOL    HW229514   3.763   0.557   4.598
 9539SOL     OW29515   3.772   3.023   3.112
 9539SOL    HW129516   3.824   3.018   3.026
 9539SOL    HW229517   3.689   3.077   3.098
 9540SOL     OW29518   4.815   5.205   4.124
 9540SOL    HW129519   4.762   5.122   4.102
 9540SOL    HW229520   4.804   5.226   4.221
 9541SOL     OW29521   1.419   6.489   4.886
 9541SOL    HW129522   1.404   6.560   4.955
 9541SOL    HW229523   1.355   6.503   4.810
 9542SOL     OW29524   5.947   4.792   4.272
 9542SOL    HW129525   5.860   4.786   4.224
 9542SOL    HW229526   6.007   4.718   4.241
 9543SOL     OW29527   2.463   0.770   6.062
 9543SOL    HW129528   2.521   0.690   6.049
 9543SOL    HW229529   2.368   0.746   6.040
 9544SOL     OW29530   5.062   4.132   3.477
 9544SOL    HW129531   5.123   4.211   3.472
 9544SOL    HW229532   5.087   4.067   3.404
 9545SOL     OW29533   1.578   4.727   2.084
 9545SOL    HW129534   1.502   4.787   2.108
 9545SOL    HW229535   1.555   4.633   2.110
 9546SOL     OW29536   2.991   1.388   5.939
 9546SOL    HW129537   2.938   1.454   5.993
 9546SOL    HW229538   3.028   1.433   5.858
 9547SOL     OW29539   3.441   6.150   4.038
 9547SOL    HW129540   3.414   6.245   4.022
 9547SOL    HW229541   3.367   6.089   4.008
 9548SOL     OW29542   1.226   5.112   6.089
 9548SOL    HW129543   1.137   5.105   6.133
 9548SOL    HW229544   1.266   5.202   6.106
 9549SOL     OW29545   3.906   1.989   2.540
 9549SOL    HW129546   3.948   2.030   2.459
 9549SOL    HW229547   3.832   2.048   2.573
 9550SOL     OW29548   5.515   2.604   1.609
 9550SOL    HW129549   5.567   2.627   1.691
 9550SOL    HW229550   5.560   2.645   1.529
 9551SOL     OW29551   6.343   1.957   6.282
 9551SOL    HW129552   6.279   1.990   6.213
 9551SOL    HW229553   6.356   1.858   6.271
 9552SOL     OW29554   2.518   0.665   6.614
 9552SOL    HW129555   2.500   0.752   6.660
 9552SOL    HW229556   2.455   0.654   6.538
 9553SOL     OW29557   5.255   2.587   0.551
 9553SOL    HW129558   5.278   2.560   0.458
 9553SOL    HW229559   5.169   2.543   0.578
 9554SOL     OW29560   2.501   6.480   4.108
 9554SOL    HW129561   2.401   6.484   4.103
 9554SOL    HW229562   2.531   6.386   4.092
 9555SOL     OW29563   6.349   1.329   3.022
 9555SOL    HW129564   6.412   1.372   2.958
 9555SOL    HW229565   6.384   1.239   3.049
 9556SOL     OW29566   1.756   4.559   0.900
 9556SOL    HW129567   1.780   4.651   0.868
 9556SOL    HW229568   1.814   4.492   0.855
 9557SOL     OW29569   5.301   6.917   2.035
 9557SOL    HW129570   5.207   6.898   2.008
 9557SOL    HW229571   5.332   6.999   1.988
 9558SOL     OW29572   5.682   6.341   5.719
 9558SOL    HW129573   5.765   6.397   5.719
 9558SOL    HW229574   5.706   6.247   5.696
 9559SOL     OW29575   1.366   3.925   6.951
 9559SOL    HW129576   1.374   3.859   0.001
 9559SOL    HW229577   1.289   3.899   6.892
 9560SOL     OW29578   3.546   0.350   1.985
 9560SOL    HW129579   3.484   0.403   2.042
 9560SOL    HW229580   3.637   0.391   1.988
 9561SOL     OW29581   0.570   0.444   0.973
 9561SOL    HW129582   0.490   0.388   0.951
 9561SOL    HW229583   0.555   0.538   0.943
 9562SOL     OW29584   2.624   5.493   3.838
 9562SOL    HW129585   2.574   5.473   3.922
 9562SOL    HW229586   2.705   5.548   3.859
 9563SOL     OW29587   0.649   6.728   0.327
 9563SOL    HW129588   0.677   6.695   0.237
 9563SOL    HW229589   0.613   6.821   0.319
 9564SOL     OW29590   1.268   0.440   1.153
 9564SOL    HW129591   1.257   0.388   1.238
 9564SOL    HW229592   1.299   0.379   1.080
 9565SOL     OW29593   3.295   1.099   4.059
 9565SOL    HW129594   3.244   1.021   4.097
 9565SOL    HW229595   3.382   1.108   4.107
 9566SOL     OW29596   2.344   6.663   0.661
 9566SOL    HW129597   2.429   6.699   0.623
 9566SOL    HW229598   2.287   6.628   0.587
 9567SOL     OW29599   0.006   4.967   0.606
 9567SOL    HW129600   7.001   4.874   0.628
 9567SOL    HW229601   6.971   5.004   0.535
 9568SOL     OW29602   3.869   2.133   7.016
 9568SOL    HW129603   3.875   2.049   6.962
 9568SOL    HW229604   3.869   2.109   0.089
 9569SOL     OW29605   5.910   0.634   1.916
 9569SOL    HW129606   5.907   0.577   1.998
 9569SOL    HW229607   6.001   0.629   1.876
 9570SOL     OW29608   0.620   3.035   0.917
 9570SOL    HW129609   0.549   3.106   0.922
 9570SOL    HW229610   0.710   3.078   0.910
 9571SOL     OW29611   2.512   2.726   6.398
 9571SOL    HW129612   2.547   2.660   6.331
 9571SOL    HW229613   2.561   2.813   6.388
 9572SOL     OW29614   2.230   3.947   3.517
 9572SOL    HW129615   2.214   3.893   3.434
 9572SOL    HW229616   2.251   4.041   3.492
 9573SOL     OW29617   6.644   0.611   5.354
 9573SOL    HW129618   6.638   0.515   5.381
 9573SOL    HW229619   6.676   0.616   5.260
 9574SOL     OW29620   4.026   3.013   1.245
 9574SOL    HW129621   4.005   3.001   1.342
 9574SOL    HW229622   4.121   2.987   1.228
 9575SOL     OW29623   6.163   6.856   2.226
 9575SOL    HW129624   6.243   6.845   2.285
 9575SOL    HW229625   6.095   6.786   2.248
 9576SOL     OW29626   1.430   1.532   0.351
 9576SOL    HW129627   1.447   1.572   0.261
 9576SOL    HW229628   1.500   1.563   0.416
 9577SOL     OW29629   0.050   6.370   0.370
 9577SOL    HW129630   7.003   6.390   0.436
 9577SOL    HW229631   0.011   6.325   0.290
 9578SOL     OW29632   1.467   2.920   2.918
 9578SOL    HW129633   1.457   2.822   2.900
 9578SOL    HW229634   1.390   2.951   2.974
 9579SOL     OW29635   6.229   0.091   2.115
 9579SOL    HW129636   6.183   0.007   2.143
 9579SOL    HW229637   6.252   0.144   2.197
 9580SOL     OW29638   4.910   4.375   0.881
 9580SOL    HW129639   4.879   4.467   0.904
 9580SOL    HW229640   5.010   4.370   0.890
 9581SOL     OW29641   6.970   0.686   6.765
 9581SOL    HW129642   6.881   0.691   6.810
 9581SOL    HW229643   6.976   0.759   6.696
 9582SOL     OW29644   3.890   5.953   4.585
 9582SOL    HW129645   3.822   5.880   4.593
 9582SOL    HW229646   3.923   5.958   4.491
 9583SOL     OW29647   3.285   4.466   1.613
 9583SOL    HW129648   3.343   4.533   1.660
 9583SOL    HW229649   3.228   4.514   1.546
 9584SOL     OW29650   1.656   4.760   4.989
 9584SOL    HW129651   1.712   4.832   5.031
 9584SOL    HW229652   1.597   4.800   4.919
 9585SOL     OW29653   5.223   5.884   1.624
 9585SOL    HW129654   5.192   5.789   1.620
 9585SOL    HW229655   5.233   5.911   1.720
 9586SOL     OW29656   4.436   5.051   1.641
 9586SOL    HW129657   4.470   5.141   1.668
 9586SOL    HW229658   4.394   5.057   1.550
 9587SOL     OW29659   2.349   6.577   2.014
 9587SOL    HW129660   2.254   6.609   2.022
 9587SOL    HW229661   2.358   6.519   1.933
 9588SOL     OW29662   6.261   6.192   0.981
 9588SOL    HW129663   6.270   6.105   1.030
 9588SOL    HW229664   6.203   6.254   1.034
 9589SOL     OW29665   1.663   3.407   6.594
 9589SOL    HW129666   1.665   3.431   6.691
 9589SOL    HW229667   1.755   3.382   6.563
 9590SOL     OW29668   5.687   1.832   1.827
 9590SOL    HW129669   5.618   1.773   1.869
 9590SOL    HW229670   5.751   1.775   1.774
 9591SOL     OW29671   3.297   6.475   5.879
 9591SOL    HW129672   3.391   6.446   5.895
 9591SOL    HW229673   3.273   6.460   5.783
 9592SOL     OW29674   2.756   4.301   6.628
 9592SOL    HW129675   2.794   4.344   6.710
 9592SOL    HW229676   2.827   4.298   6.557
 9593SOL     OW29677   1.885   0.952   5.918
 9593SOL    HW129678   1.802   0.896   5.916
 9593SOL    HW229679   1.947   0.918   5.988
 9594SOL     OW29680   2.390   6.079   4.182
 9594SOL    HW129681   2.440   5.993   4.196
 9594SOL    HW229682   2.420   6.147   4.249
 9595SOL     OW29683   0.329   3.441   3.510
 9595SOL    HW129684   0.350   3.516   3.573
 9595SOL    HW229685   0.393   3.442   3.433
 9596SOL     OW29686   0.773   5.225   0.939
 9596SOL    HW129687   0.797   5.267   1.026
 9596SOL    HW229688   0.768   5.295   0.868
 9597SOL     OW29689   1.423   4.440   1.419
 9597SOL    HW129690   1.325   4.433   1.438
 9597SOL    HW229691   1.457   4.352   1.383
 9598SOL     OW29692   1.966   3.750   2.521
 9598SOL    HW129693   2.024   3.674   2.493
 9598SOL    HW229694   1.894   3.716   2.582
 9599SOL     OW29695   3.286   6.830   4.121
 9599SOL    HW129696   3.283   6.895   4.197
 9599SOL    HW229697   3.381   6.808   4.099
 9600SOL     OW29698   3.156   0.075   1.151
 9600SOL    HW129699   3.143   7.002   1.130
 9600SOL    HW229700   3.083   0.127   1.108
 9601SOL     OW29701   6.341   4.823   1.137
 9601SOL    HW129702   6.395   4.815   1.220
 9601SOL    HW229703   6.364   4.749   1.074
 9602SOL     OW29704   4.391   4.794   5.719
 9602SOL    HW129705   4.400   4.797   5.619
 9602SOL    HW229706   4.481   4.790   5.761
 9603SOL     OW29707   5.596   6.320   6.170
 9603SOL    HW129708   5.625   6.273   6.087
 9603SOL    HW229709   5.559   6.254   6.235
 9604SOL     OW29710   4.930   0.422   1.281
 9604SOL    HW129711   4.945   0.435   1.379
 9604SOL    HW229712   4.994   0.480   1.230
 9605SOL     OW29713   0.160   5.006   2.978
 9605SOL    HW129714   0.088   5.055   3.027
 9605SOL    HW229715   0.227   5.071   2.943
 9606SOL     OW29716   1.600   1.273   6.962
 9606SOL    HW129717   1.543   1.236   0.011
 9606SOL    HW229718   1.542   1.323   6.897
 9607SOL     OW29719   3.270   1.600   6.971
 9607SOL    HW129720   3.309   1.526   0.002
 9607SOL    HW229721   3.200   1.562   6.910
 9608SOL     OW29722   6.994   4.537   2.713
 9608SOL    HW129723   6.986   4.636   2.729
 9608SOL    HW229724   6.903   4.496   2.710
 9609SOL     OW29725   3.761   2.577   6.577
 9609SOL    HW129726   3.843   2.589   6.520
 9609SOL    HW229727   3.758   2.649   6.646
 9610SOL     OW29728   1.848   4.811   2.627
 9610SOL    HW129729   1.873   4.813   2.724
 9610SOL    HW229730   1.929   4.826   2.571
 9611SOL     OW29731   1.909   6.616   0.936
 9611SOL    HW129732   1.949   6.686   0.876
 9611SOL    HW229733   1.840   6.564   0.886
 9612SOL     OW29734   0.468   3.049   1.984
 9612SOL    HW129735   0.369   3.048   2.000
 9612SOL    HW229736   0.516   3.023   2.068
 9613SOL     OW29737   5.610   6.420   3.493
 9613SOL    HW129738   5.664   6.439   3.411
 9613SOL    HW229739   5.513   6.423   3.469
 9614SOL     OW29740   3.708   2.062   2.697
 9614SOL    HW129741   3.624   2.078   2.646
 9614SOL    HW229742   3.703   1.973   2.742
 9615SOL     OW29743   2.771   2.250   1.292
 9615SOL    HW129744   2.713   2.169   1.296
 9615SOL    HW229745   2.728   2.324   1.344
 9616SOL     OW29746   3.188   3.414   1.307
 9616SOL    HW129747   3.095   3.414   1.271
 9616SOL    HW229748   3.199   3.338   1.372
 9617SOL     OW29749   1.951   3.229   3.977
 9617SOL    HW129750   2.033   3.286   3.968
 9617SOL    HW229751   1.874   3.274   3.932
 9618SOL     OW29752   2.971   0.561   1.204
 9618SOL    HW129753   2.918   0.479   1.182
 9618SOL    HW229754   2.909   0.634   1.231
 9619SOL     OW29755   1.958   0.335   5.647
 9619SOL    HW129756   1.945   0.432   5.668
 9619SOL    HW229757   2.041   0.302   5.692
 9620SOL     OW29758   4.634   0.650   4.602
 9620SOL    HW129759   4.538   0.630   4.616
 9620SOL    HW229760   4.690   0.573   4.633
 9621SOL     OW29761   1.718   2.862   1.819
 9621SOL    HW129762   1.701   2.894   1.726
 9621SOL    HW229763   1.688   2.931   1.885
 9622SOL     OW29764   5.909   1.459   0.609
 9622SOL    HW129765   5.838   1.393   0.585
 9622SOL    HW229766   5.900   1.486   0.704
 9623SOL     OW29767   2.233   2.745   6.724
 9623SOL    HW129768   2.198   2.674   6.663
 9623SOL    HW229769   2.304   2.797   6.676
 9624SOL     OW29770   6.251   3.624   2.973
 9624SOL    HW129771   6.254   3.555   2.900
 9624SOL    HW229772   6.304   3.704   2.945
 9625SOL     OW29773   5.359   5.811   0.179
 9625SOL    HW129774   5.323   5.724   0.211
 9625SOL    HW229775   5.444   5.833   0.228
 9626SOL     OW29776   3.853   4.974   0.570
 9626SOL    HW129777   3.842   4.876   0.554
 9626SOL    HW229778   3.845   4.993   0.668
 9627SOL     OW29779   0.988   5.938   6.603
 9627SOL    HW129780   0.895   5.975   6.594
 9627SOL    HW229781   1.011   5.930   6.700
 9628SOL     OW29782   4.989   5.289   1.021
 9628SOL    HW129783   5.029   5.380   1.007
 9628SOL    HW229784   5.002   5.234   0.938
 9629SOL     OW29785   1.700   0.716   1.594
 9629SOL    HW129786   1.696   0.712   1.494
 9629SOL    HW229787   1.761   0.791   1.621
 9630SOL     OW29788   6.241   6.962   4.995
 9630SOL    HW129789   6.194   0.026   4.996
 9630SOL    HW229790   6.192   6.900   4.933
 9631SOL     OW29791   6.180   0.183   6.553
 9631SOL    HW129792   6.160   0.278   6.529
 9631SOL    HW229793   6.097   0.128   6.542
 9632SOL     OW29794   1.705   6.342   2.638
 9632SOL    HW129795   1.664   6.395   2.564
 9632SOL    HW229796   1.635   6.316   2.704
 9633SOL     OW29797   5.719   5.478   6.892
 9633SOL    HW129798   5.731   5.575   6.873
 9633SOL    HW229799   5.633   5.446   6.852
 9634SOL     OW29800   1.720   6.476   4.517
 9634SOL    HW129801   1.629   6.517   4.503
 9634SOL    HW229802   1.714   6.378   4.503
 9635SOL     OW29803   2.302   5.261   4.994
 9635SOL    HW129804   2.245   5.338   5.023
 9635SOL    HW229805   2.327   5.272   4.898
 9636SOL     OW29806   4.354   1.838   5.242
 9636SOL    HW129807   4.403   1.835   5.155
 9636SOL    HW229808   4.374   1.924   5.289
 9637SOL     OW29809   2.228   2.302   6.201
 9637SOL    HW129810   2.274   2.220   6.235
 9637SOL    HW229811   2.151   2.324   6.261
 9638SOL     OW29812   6.665   3.727   5.412
 9638SOL    HW129813   6.708   3.661   5.474
 9638SOL    HW229814   6.733   3.795   5.384
 9639SOL     OW29815   4.159   1.670   2.253
 9639SOL    HW129816   4.188   1.710   2.340
 9639SOL    HW229817   4.109   1.739   2.200
 9640SOL     OW29818   2.502   2.528   3.221
 9640SOL    HW129819   2.489   2.574   3.133
 9640SOL    HW229820   2.554   2.444   3.208
 9641SOL     OW29821   4.896   6.890   0.416
 9641SOL    HW129822   4.872   6.969   0.360
 9641SOL    HW229823   4.819   6.864   0.473
 9642SOL     OW29824   3.213   0.463   4.804
 9642SOL    HW129825   3.223   0.419   4.715
 9642SOL    HW229826   3.303   0.490   4.839
 9643SOL     OW29827   5.322   3.820   3.081
 9643SOL    HW129828   5.372   3.847   2.999
 9643SOL    HW229829   5.309   3.899   3.140
 9644SOL     OW29830   1.094   3.119   6.562
 9644SOL    HW129831   1.070   3.102   6.658
 9644SOL    HW229832   1.166   3.188   6.557
 9645SOL     OW29833   3.003   5.295   5.342
 9645SOL    HW129834   3.045   5.313   5.253
 9645SOL    HW229835   2.909   5.262   5.328
 9646SOL     OW29836   4.210   5.083   2.366
 9646SOL    HW129837   4.264   5.017   2.418
 9646SOL    HW229838   4.209   5.056   2.269
 9647SOL     OW29839   6.315   3.299   1.288
 9647SOL    HW129840   6.253   3.317   1.211
 9647SOL    HW229841   6.345   3.204   1.285
 9648SOL     OW29842   4.109   2.206   0.965
 9648SOL    HW129843   4.016   2.221   0.998
 9648SOL    HW229844   4.169   2.186   1.043
 9649SOL     OW29845   2.627   6.457   0.253
 9649SOL    HW129846   2.661   6.538   0.206
 9649SOL    HW229847   2.633   6.378   0.192
 9650SOL     OW29848   0.016   5.517   2.382
 9650SOL    HW129849   6.979   5.503   2.460
 9650SOL    HW229850   0.071   5.599   2.397
 9651SOL     OW29851   0.762   1.709   6.132
 9651SOL    HW129852   0.833   1.717   6.061
 9651SOL    HW229853   0.764   1.617   6.170
 9652SOL     OW29854   1.136   4.673   2.374
 9652SOL    HW129855   1.215   4.732   2.357
 9652SOL    HW229856   1.074   4.717   2.439
 9653SOL     OW29857   4.725   5.030   4.466
 9653SOL    HW129858   4.780   4.948   4.453
 9653SOL    HW229859   4.717   5.049   4.564
 9654SOL     OW29860   2.396   2.574   2.062
 9654SOL    HW129861   2.400   2.654   2.002
 9654SOL    HW229862   2.332   2.507   2.024
 9655SOL     OW29863   6.895   1.967   6.302
 9655SOL    HW129864   6.816   1.906   6.294
 9655SOL    HW229865   6.959   1.930   6.370
 9656SOL     OW29866   3.261   0.008   2.522
 9656SOL    HW129867   3.296   7.023   2.429
 9656SOL    HW229868   3.311   0.080   2.570
 9657SOL     OW29869   6.377   1.065   4.776
 9657SOL    HW129870   6.354   0.993   4.842
 9657SOL    HW229871   6.292   1.097   4.733
 9658SOL     OW29872   6.232   3.093   1.999
 9658SOL    HW129873   6.211   3.088   2.096
 9658SOL    HW229874   6.240   3.188   1.971
 9659SOL     OW29875   0.481   4.977   0.140
 9659SOL    HW129876   0.529   5.059   0.171
 9659SOL    HW229877   0.434   4.935   0.218
 9660SOL     OW29878   1.161   5.538   0.564
 9660SOL    HW129879   1.066   5.564   0.545
 9660SOL    HW229880   1.161   5.464   0.632
 9661SOL     OW29881   4.315   0.043   0.551
 9661SOL    HW129882   4.376   0.093   0.489
 9661SOL    HW229883   4.325   0.080   0.644
 9662SOL     OW29884   6.030   1.709   4.443
 9662SOL    HW129885   6.103   1.773   4.420
 9662SOL    HW229886   5.942   1.748   4.417
 9663SOL     OW29887   1.519   5.410   3.075
 9663SOL    HW129888   1.435   5.456   3.105
 9663SOL    HW229889   1.581   5.402   3.153
 9664SOL     OW29890   4.607   6.266   2.362
 9664SOL    HW129891   4.700   6.282   2.398
 9664SOL    HW229892   4.599   6.171   2.333
 9665SOL     OW29893   5.497   3.957   4.800
 9665SOL    HW129894   5.434   4.035   4.802
 9665SOL    HW229895   5.447   3.873   4.820
 9666SOL     OW29896   5.439   4.299   2.389
 9666SOL    HW129897   5.447   4.320   2.291
 9666SOL    HW229898   5.365   4.354   2.429
 9667SOL     OW29899   3.810   3.688   4.085
 9667SOL    HW129900   3.715   3.709   4.059
 9667SOL    HW229901   3.814   3.597   4.126
 9668SOL     OW29902   0.034   1.100   5.767
 9668SOL    HW129903   0.109   1.066   5.824
 9668SOL    HW229904   0.071   1.150   5.690
 9669SOL     OW29905   0.481   0.272   0.180
 9669SOL    HW129906   0.469   0.261   0.279
 9669SOL    HW229907   0.392   0.276   0.136
 9670SOL     OW29908   4.897   4.631   6.536
 9670SOL    HW129909   4.808   4.675   6.532
 9670SOL    HW229910   4.899   4.555   6.470
 9671SOL     OW29911   0.350   5.193   5.506
 9671SOL    HW129912   0.387   5.217   5.596
 9671SOL    HW229913   0.253   5.169   5.516
 9672SOL     OW29914   0.590   6.147   4.960
 9672SOL    HW129915   0.544   6.214   4.902
 9672SOL    HW229916   0.666   6.106   4.908
 9673SOL     OW29917   3.718   3.699   6.665
 9673SOL    HW129918   3.714   3.799   6.664
 9673SOL    HW229919   3.812   3.669   6.681
 9674SOL     OW29920   3.056   6.210   1.622
 9674SOL    HW129921   2.986   6.140   1.634
 9674SOL    HW229922   3.135   6.170   1.575
 9675SOL     OW29923   6.643   1.447   2.236
 9675SOL    HW129924   6.717   1.379   2.229
 9675SOL    HW229925   6.576   1.415   2.303
 9676SOL     OW29926   0.973   3.716   5.546
 9676SOL    HW129927   0.877   3.708   5.572
 9676SOL    HW229928   1.031   3.704   5.626
 9677SOL     OW29929   2.037   4.214   6.086
 9677SOL    HW129930   2.082   4.254   6.005
 9677SOL    HW229931   2.036   4.115   6.078
 9678SOL     OW29932   4.057   3.864   3.578
 9678SOL    HW129933   4.154   3.856   3.555
 9678SOL    HW229934   4.032   3.792   3.643
 9679SOL     OW29935   1.610   2.606   1.924
 9679SOL    HW129936   1.511   2.591   1.923
 9679SOL    HW229937   1.630   2.695   1.881
 9680SOL     OW29938   5.888   5.978   3.337
 9680SOL    HW129939   5.933   6.037   3.270
 9680SOL    HW229940   5.956   5.942   3.400
 9681SOL     OW29941   1.725   0.636   1.862
 9681SOL    HW129942   1.716   0.648   1.764
 9681SOL    HW229943   1.675   0.709   1.909
 9682SOL     OW29944   5.489   4.732   3.718
 9682SOL    HW129945   5.512   4.757   3.624
 9682SOL    HW229946   5.428   4.652   3.717
 9683SOL     OW29947   3.995   5.653   0.328
 9683SOL    HW129948   3.974   5.729   0.267
 9683SOL    HW229949   4.053   5.587   0.280
 9684SOL     OW29950   0.496   4.016   5.434
 9684SOL    HW129951   0.416   3.976   5.478
 9684SOL    HW229952   0.576   4.006   5.494
 9685SOL     OW29953   1.799   3.119   1.178
 9685SOL    HW129954   1.826   3.202   1.130
 9685SOL    HW229955   1.829   3.124   1.273
 9686SOL     OW29956   6.750   0.583   1.534
 9686SOL    HW129957   6.740   0.514   1.605
 9686SOL    HW229958   6.659   0.615   1.506
 9687SOL     OW29959   2.484   0.698   3.290
 9687SOL    HW129960   2.575   0.656   3.291
 9687SOL    HW229961   2.448   0.701   3.383
 9688SOL     OW29962   6.842   1.565   3.074
 9688SOL    HW129963   6.900   1.647   3.080
 9688SOL    HW229964   6.880   1.494   3.132
 9689SOL     OW29965   2.809   6.294   6.499
 9689SOL    HW129966   2.710   6.283   6.497
 9689SOL    HW229967   2.850   6.239   6.427
 9690SOL     OW29968   6.152   5.072   0.704
 9690SOL    HW129969   6.233   5.123   0.732
 9690SOL    HW229970   6.105   5.120   0.631
 9691SOL     OW29971   2.135   5.392   2.003
 9691SOL    HW129972   2.118   5.373   2.100
 9691SOL    HW229973   2.175   5.310   1.960
 9692SOL     OW29974   2.820   5.443   1.983
 9692SOL    HW129975   2.858   5.518   1.930
 9692SOL    HW229976   2.781   5.479   2.068
 9693SOL     OW29977   0.196   6.439   1.720
 9693SOL    HW129978   0.152   6.349   1.728
 9693SOL    HW229979   0.269   6.434   1.652
 9694SOL     OW29980   1.615   2.473   0.608
 9694SOL    HW129981   1.624   2.412   0.687
 9694SOL    HW229982   1.519   2.501   0.599
 9695SOL     OW29983   6.612   3.869   0.955
 9695SOL    HW129984   6.651   3.879   1.046
 9695SOL    HW229985   6.516   3.897   0.957
 9696SOL     OW29986   3.765   2.764   1.615
 9696SOL    HW129987   3.736   2.668   1.617
 9696SOL    HW229988   3.685   2.823   1.620
 9697SOL     OW29989   0.174   4.980   7.009
 9697SOL    HW129990   0.184   5.079   6.993
 9697SOL    HW229991   0.202   4.958   0.078
 9698SOL     OW29992   5.590   1.287   5.332
 9698SOL    HW129993   5.555   1.377   5.306
 9698SOL    HW229994   5.614   1.288   5.429
 9699SOL     OW29995   1.095   3.707   6.564
 9699SOL    HW129996   1.014   3.728   6.618
 9699SOL    HW229997   1.132   3.792   6.526
 9700SOL     OW29998   3.391   4.825   5.572
 9700SOL    HW129999   3.399   4.917   5.611
 9700SOL    HW230000   3.397   4.830   5.472
 9701SOL     OW30001   4.215   4.939   4.738
 9701SOL    HW130002   4.307   4.974   4.755
 9701SOL    HW230003   4.168   4.999   4.673
 9702SOL     OW30004   5.277   1.036   0.804
 9702SOL    HW130005   5.236   1.005   0.889
 9702SOL    HW230006   5.351   1.100   0.823
 9703SOL     OW30007   3.344   6.276   4.478
 9703SOL    HW130008   3.274   6.318   4.421
 9703SOL    HW230009   3.334   6.176   4.474
 9704SOL     OW30010   3.556   6.898   3.061
 9704SOL    HW130011   3.504   6.830   3.113
 9704SOL    HW230012   3.494   6.949   3.001
 9705SOL     OW30013   3.258   4.547   0.650
 9705SOL    HW130014   3.195   4.470   0.660
 9705SOL    HW230015   3.312   4.535   0.567
 9706SOL     OW30016   6.179   3.132   2.260
 9706SOL    HW130017   6.159   3.204   2.328
 9706SOL    HW230018   6.190   3.044   2.307
 9707SOL     OW30019   1.554   4.023   2.220
 9707SOL    HW130020   1.463   4.032   2.258
 9707SOL    HW230021   1.557   4.065   2.129
 9708SOL     OW30022   2.187   1.778   3.780
 9708SOL    HW130023   2.261   1.820   3.726
 9708SOL    HW230024   2.212   1.780   3.877
 9709SOL     OW30025   1.545   6.156   3.491
 9709SOL    HW130026   1.613   6.083   3.493
 9709SOL    HW230027   1.585   6.238   3.451
 9710SOL     OW30028   0.340   1.373   3.045
 9710SOL    HW130029   0.411   1.419   3.097
 9710SOL    HW230030   0.255   1.426   3.049
 9711SOL     OW30031   1.616   3.711   6.132
 9711SOL    HW130032   1.587   3.723   6.037
 9711SOL    HW230033   1.705   3.755   6.146
 9712SOL     OW30034   5.384   2.138   4.531
 9712SOL    HW130035   5.294   2.179   4.517
 9712SOL    HW230036   5.397   2.120   4.629
 9713SOL     OW30037   0.400   4.864   3.230
 9713SOL    HW130038   0.390   4.915   3.145
 9713SOL    HW230039   0.384   4.767   3.214
 9714SOL     OW30040   2.102   2.633   1.904
 9714SOL    HW130041   2.132   2.541   1.931
 9714SOL    HW230042   2.170   2.700   1.935
 9715SOL     OW30043   5.172   5.110   4.948
 9715SOL    HW130044   5.236   5.153   5.011
 9715SOL    HW230045   5.159   5.014   4.974
 9716SOL     OW30046   4.027   1.835   6.471
 9716SOL    HW130047   4.004   1.814   6.375
 9716SOL    HW230048   4.067   1.926   6.476
 9717SOL     OW30049   5.912   5.539   3.733
 9717SOL    HW130050   5.931   5.511   3.827
 9717SOL    HW230051   5.999   5.557   3.686
 9718SOL     OW30052   3.791   3.331   1.367
 9718SOL    HW130053   3.840   3.290   1.444
 9718SOL    HW230054   3.816   3.283   1.282
 9719SOL     OW30055   0.428   2.969   0.083
 9719SOL    HW130056   0.445   2.988   7.011
 9719SOL    HW230057   0.474   3.038   0.139
 9720SOL     OW30058   0.467   6.641   2.312
 9720SOL    HW130059   0.379   6.669   2.272
 9720SOL    HW230060   0.454   6.614   2.407
 9721SOL     OW30061   6.982   3.921   2.474
 9721SOL    HW130062   6.936   3.845   2.429
 9721SOL    HW230063   6.924   3.956   2.547
 9722SOL     OW30064   0.427   0.421   3.857
 9722SOL    HW130065   0.370   0.434   3.938
 9722SOL    HW230066   0.368   0.407   3.777
 9723SOL     OW30067   0.368   0.435   3.539
 9723SOL    HW130068   0.385   0.523   3.495
 9723SOL    HW230069   0.269   0.419   3.542
 9724SOL     OW30070   3.074   2.432   1.474
 9724SOL    HW130071   2.993   2.397   1.522
 9724SOL    HW230072   3.047   2.507   1.414
 9725SOL     OW30073   5.159   3.296   6.153
 9725SOL    HW130074   5.143   3.296   6.055
 9725SOL    HW230075   5.076   3.267   6.201
 9726SOL     OW30076   4.973   6.650   4.962
 9726SOL    HW130077   4.955   6.590   5.040
 9726SOL    HW230078   5.066   6.686   4.968
 9727SOL     OW30079   0.638   3.044   6.059
 9727SOL    HW130080   0.730   3.025   6.091
 9727SOL    HW230081   0.572   2.994   6.116
 9728SOL     OW30082   2.143   6.150   6.237
 9728SOL    HW130083   2.141   6.248   6.261
 9728SOL    HW230084   2.219   6.133   6.175
 9729SOL     OW30085   1.158   4.382   3.442
 9729SOL    HW130086   1.244   4.347   3.478
 9729SOL    HW230087   1.085   4.315   3.457
 9730SOL     OW30088   6.747   3.390   2.819
 9730SOL    HW130089   6.673   3.337   2.778
 9730SOL    HW230090   6.709   3.456   2.884
 9731SOL     OW30091   3.566   5.129   0.590
 9731SOL    HW130092   3.616   5.216   0.588
 9731SOL    HW230093   3.578   5.086   0.680
 9732SOL     OW30094   6.876   6.225   2.765
 9732SOL    HW130095   6.884   6.148   2.702
 9732SOL    HW230096   6.798   6.211   2.825
 9733SOL     OW30097   5.087   4.643   4.572
 9733SOL    HW130098   5.072   4.740   4.553
 9733SOL    HW230099   5.041   4.588   4.502
 9734SOL     OW30100   5.481   2.217   3.950
 9734SOL    HW130101   5.393   2.228   3.903
 9734SOL    HW230102   5.526   2.134   3.917
 9735SOL     OW30103   2.364   5.549   1.961
 9735SOL    HW130104   2.345   5.584   1.869
 9735SOL    HW230105   2.284   5.499   1.994
 9736SOL     OW30106   4.807   1.628   6.776
 9736SOL    HW130107   4.858   1.589   6.852
 9736SOL    HW230108   4.864   1.628   6.694
 9737SOL     OW30109   4.261   2.182   5.152
 9737SOL    HW130110   4.253   2.276   5.118
 9737SOL    HW230111   4.303   2.125   5.081
 9738SOL     OW30112   1.803   1.203   3.143
 9738SOL    HW130113   1.711   1.169   3.123
 9738SOL    HW230114   1.797   1.282   3.204
 9739SOL     OW30115   6.552   4.985   2.075
 9739SOL    HW130116   6.475   4.942   2.028
 9739SOL    HW230117   6.608   5.036   2.009
 9740SOL     OW30118   5.976   4.222   2.724
 9740SOL    HW130119   5.938   4.292   2.664
 9740SOL    HW230120   5.991   4.137   2.673
 9741SOL     OW30121   4.790   1.637   1.773
 9741SOL    HW130122   4.756   1.669   1.861
 9741SOL    HW230123   4.766   1.703   1.702
 9742SOL     OW30124   5.446   0.771   3.333
 9742SOL    HW130125   5.413   0.706   3.401
 9742SOL    HW230126   5.477   0.722   3.251
 9743SOL     OW30127   1.918   3.034   5.709
 9743SOL    HW130128   1.824   3.063   5.729
 9743SOL    HW230129   1.937   3.047   5.612
 9744SOL     OW30130   1.983   1.150   1.997
 9744SOL    HW130131   1.896   1.178   2.038
 9744SOL    HW230132   2.057   1.202   2.039
 9745SOL     OW30133   0.868   2.103   5.146
 9745SOL    HW130134   0.802   2.178   5.139
 9745SOL    HW230135   0.823   2.022   5.184
 9746SOL     OW30136   5.556   0.668   4.987
 9746SOL    HW130137   5.653   0.688   4.969
 9746SOL    HW230138   5.542   0.569   4.990
 9747SOL     OW30139   1.396   0.533   0.325
 9747SOL    HW130140   1.378   0.439   0.295
 9747SOL    HW230141   1.490   0.538   0.362
 9748SOL     OW30142   0.976   6.171   4.424
 9748SOL    HW130143   1.053   6.165   4.487
 9748SOL    HW230144   1.008   6.152   4.331
 9749SOL     OW30145   0.938   3.443   4.826
 9749SOL    HW130146   0.945   3.366   4.763
 9749SOL    HW230147   0.984   3.522   4.786
 9750SOL     OW30148   4.862   5.111   3.425
 9750SOL    HW130149   4.799   5.060   3.366
 9750SOL    HW230150   4.911   5.047   3.484
 9751SOL     OW30151   1.890   2.258   0.831
 9751SOL    HW130152   1.829   2.230   0.757
 9751SOL    HW230153   1.864   2.349   0.864
 9752SOL     OW30154   4.186   0.607   5.504
 9752SOL    HW130155   4.153   0.600   5.410
 9752SOL    HW230156   4.272   0.557   5.513
 9753SOL     OW30157   6.589   5.729   5.463
 9753SOL    HW130158   6.535   5.665   5.518
 9753SOL    HW230159   6.528   5.779   5.401
 9754SOL     OW30160   1.602   1.887   0.301
 9754SOL    HW130161   1.595   1.826   0.380
 9754SOL    HW230162   1.660   1.965   0.325
 9755SOL     OW30163   4.027   3.952   4.737
 9755SOL    HW130164   4.093   3.997   4.798
 9755SOL    HW230165   3.999   4.016   4.666
 9756SOL     OW30166   6.000   2.898   6.451
 9756SOL    HW130167   5.933   2.966   6.422
 9756SOL    HW230168   6.091   2.928   6.424
 9757SOL     OW30169   5.610   2.662   4.040
 9757SOL    HW130170   5.646   2.603   4.113
 9757SOL    HW230171   5.670   2.656   3.961
 9758SOL     OW30172   2.954   0.731   6.853
 9758SOL    HW130173   2.887   0.772   6.792
 9758SOL    HW230174   2.921   0.735   6.947
 9759SOL     OW30175   2.966   6.515   1.161
 9759SOL    HW130176   2.976   6.453   1.239
 9759SOL    HW230177   3.056   6.544   1.129
 9760SOL     OW30178   5.719   4.454   6.024
 9760SOL    HW130179   5.654   4.530   6.020
 9760SOL    HW230180   5.676   4.375   6.068
 9761SOL     OW30181   5.207   5.266   1.464
 9761SOL    HW130182   5.175   5.209   1.388
 9761SOL    HW230183   5.161   5.236   1.548
 9762SOL     OW30184   2.753   2.348   5.202
 9762SOL    HW130185   2.682   2.325   5.268
 9762SOL    HW230186   2.712   2.354   5.111
 9763SOL     OW30187   3.008   1.548   1.890
 9763SOL    HW130188   3.106   1.558   1.907
 9763SOL    HW230189   2.967   1.638   1.877
 9764SOL     OW30190   1.051   1.884   3.153
 9764SOL    HW130191   1.023   1.931   3.236
 9764SOL    HW230192   1.127   1.822   3.174
 9765SOL     OW30193   0.319   2.244   5.913
 9765SOL    HW130194   0.381   2.169   5.936
 9765SOL    HW230195   0.372   2.318   5.870
 9766SOL     OW30196   2.749   0.171   3.299
 9766SOL    HW130197   2.771   0.140   3.206
 9766SOL    HW230198   2.695   0.101   3.346
 9767SOL     OW30199   5.330   0.470   5.584
 9767SOL    HW130200   5.304   0.566   5.587
 9767SOL    HW230201   5.260   0.418   5.533
 9768SOL     OW30202   4.595   2.142   2.396
 9768SOL    HW130203   4.666   2.160   2.464
 9768SOL    HW230204   4.637   2.109   2.311
 9769SOL     OW30205   1.540   2.193   1.037
 9769SOL    HW130206   1.590   2.143   1.107
 9769SOL    HW230207   1.479   2.130   0.989
 9770SOL     OW30208   5.640   4.944   5.695
 9770SOL    HW130209   5.565   4.912   5.752
 9770SOL    HW230210   5.727   4.920   5.737
 9771SOL     OW30211   4.062   5.634   5.947
 9771SOL    HW130212   3.968   5.638   5.980
 9771SOL    HW230213   4.071   5.689   5.864
 9772SOL     OW30214   0.022   0.273   2.294
 9772SOL    HW130215   0.068   0.190   2.327
 9772SOL    HW230216   6.994   0.314   2.369
 9773SOL     OW30217   6.191   5.594   3.701
 9773SOL    HW130218   6.251   5.674   3.690
 9773SOL    HW230219   6.246   5.511   3.698
 9774SOL     OW30220   6.472   4.841   3.716
 9774SOL    HW130221   6.434   4.921   3.670
 9774SOL    HW230222   6.505   4.866   3.807
 9775SOL     OW30223   1.770   2.612   4.610
 9775SOL    HW130224   1.707   2.661   4.550
 9775SOL    HW230225   1.723   2.587   4.695
 9776SOL     OW30226   6.862   5.787   4.329
 9776SOL    HW130227   6.785   5.779   4.266
 9776SOL    HW230228   6.921   5.708   4.320
 9777SOL     OW30229   5.209   4.157   6.199
 9777SOL    HW130230   5.130   4.125   6.253
 9777SOL    HW230231   5.210   4.110   6.111
 9778SOL     OW30232   5.346   6.497   2.748
 9778SOL    HW130233   5.385   6.522   2.659
 9778SOL    HW230234   5.267   6.438   2.734
 9779SOL     OW30235   3.113   1.400   5.669
 9779SOL    HW130236   3.139   1.497   5.667
 9779SOL    HW230237   3.087   1.370   5.578
 9780SOL     OW30238   2.600   3.901   0.439
 9780SOL    HW130239   2.615   3.805   0.458
 9780SOL    HW230240   2.641   3.957   0.511
 9781SOL     OW30241   2.574   4.976   5.126
 9781SOL    HW130242   2.548   5.072   5.141
 9781SOL    HW230243   2.619   4.968   5.037
 9782SOL     OW30244   6.426   0.379   1.552
 9782SOL    HW130245   6.383   0.385   1.462
 9782SOL    HW230246   6.357   0.393   1.623
 9783SOL     OW30247   5.661   1.595   1.965
 9783SOL    HW130248   5.634   1.601   2.061
 9783SOL    HW230249   5.717   1.514   1.951
 9784SOL     OW30250   4.494   1.214   3.010
 9784SOL    HW130251   4.422   1.171   3.064
 9784SOL    HW230252   4.454   1.254   2.928
 9785SOL     OW30253   0.288   2.696   2.235
 9785SOL    HW130254   0.287   2.780   2.288
 9785SOL    HW230255   0.361   2.700   2.167
 9786SOL     OW30256   2.605   5.808   5.415
 9786SOL    HW130257   2.603   5.904   5.385
 9786SOL    HW230258   2.666   5.756   5.356
 9787SOL     OW30259   4.911   4.205   1.965
 9787SOL    HW130260   4.979   4.151   2.015
 9787SOL    HW230261   4.857   4.259   2.029
 9788SOL     OW30262   6.340   0.740   5.195
 9788SOL    HW130263   6.420   0.763   5.141
 9788SOL    HW230264   6.307   0.822   5.242
 9789SOL     OW30265   2.446   5.464   5.300
 9789SOL    HW130266   2.504   5.504   5.370
 9789SOL    HW230267   2.362   5.430   5.342
 9790SOL     OW30268   5.463   1.992   4.313
 9790SOL    HW130269   5.438   2.030   4.402
 9790SOL    HW230270   5.555   2.023   4.288
 9791SOL     OW30271   0.794   1.768   1.957
 9791SOL    HW130272   0.808   1.864   1.977
 9791SOL    HW230273   0.742   1.725   2.031
 9792SOL     OW30274   4.328   4.671   0.992
 9792SOL    HW130275   4.329   4.725   1.076
 9792SOL    HW230276   4.256   4.705   0.932
 9793SOL     OW30277   5.628   5.800   2.067
 9793SOL    HW130278   5.627   5.701   2.057
 9793SOL    HW230279   5.551   5.840   2.017
 9794SOL     OW30280   4.705   2.795   6.381
 9794SOL    HW130281   4.626   2.856   6.381
 9794SOL    HW230282   4.714   2.752   6.291
 9795SOL     OW30283   1.737   3.456   3.947
 9795SOL    HW130284   1.790   3.531   3.987
 9795SOL    HW230285   1.721   3.385   4.015
 9796SOL     OW30286   2.718   5.035   7.000
 9796SOL    HW130287   2.760   5.073   0.059
 9796SOL    HW230288   2.619   5.037   7.009
 9797SOL     OW30289   4.599   3.203   6.203
 9797SOL    HW130290   4.564   3.289   6.239
 9797SOL    HW230291   4.626   3.215   6.108
 9798SOL     OW30292   2.554   1.246   0.869
 9798SOL    HW130293   2.540   1.200   0.957
 9798SOL    HW230294   2.501   1.330   0.866
 9799SOL     OW30295   3.031   3.258   2.818
 9799SOL    HW130296   3.077   3.180   2.775
 9799SOL    HW230297   3.006   3.235   2.911
 9800SOL     OW30298   4.276   5.067   6.402
 9800SOL    HW130299   4.254   5.012   6.482
 9800SOL    HW230300   4.361   5.118   6.418
 9801SOL     OW30301   3.827   5.833   6.499
 9801SOL    HW130302   3.893   5.778   6.551
 9801SOL    HW230303   3.862   5.926   6.489
 9802SOL     OW30304   6.872   3.439   0.772
 9802SOL    HW130305   6.924   3.524   0.780
 9802SOL    HW230306   6.816   3.427   0.854
 9803SOL     OW30307   5.910   0.592   6.989
 9803SOL    HW130308   6.008   0.601   6.971
 9803SOL    HW230309   5.888   0.633   0.053
 9804SOL     OW30310   6.228   5.806   4.265
 9804SOL    HW130311   6.308   5.751   4.288
 9804SOL    HW230312   6.149   5.773   4.316
 9805SOL     OW30313   1.844   5.481   0.155
 9805SOL    HW130314   1.866   5.509   0.062
 9805SOL    HW230315   1.889   5.394   0.176
 9806SOL     OW30316   0.250   2.249   2.753
 9806SOL    HW130317   0.265   2.340   2.792
 9806SOL    HW230318   0.275   2.250   2.656
 9807SOL     OW30319   3.843   2.135   0.576
 9807SOL    HW130320   3.827   2.165   0.482
 9807SOL    HW230321   3.873   2.040   0.576
 9808SOL     OW30322   0.477   1.529   4.631
 9808SOL    HW130323   0.380   1.538   4.610
 9808SOL    HW230324   0.493   1.440   4.675
 9809SOL     OW30325   0.575   1.100   4.720
 9809SOL    HW130326   0.492   1.077   4.668
 9809SOL    HW230327   0.655   1.064   4.672
 9810SOL     OW30328   3.581   0.733   3.177
 9810SOL    HW130329   3.630   0.674   3.113
 9810SOL    HW230330   3.483   0.715   3.169
 9811SOL     OW30331   0.358   6.872   2.574
 9811SOL    HW130332   0.371   6.779   2.607
 9811SOL    HW230333   0.444   6.907   2.536
 9812SOL     OW30334   5.075   2.384   6.249
 9812SOL    HW130335   5.033   2.336   6.326
 9812SOL    HW230336   5.071   2.483   6.265
 9813SOL     OW30337   6.573   4.606   0.465
 9813SOL    HW130338   6.621   4.547   0.401
 9813SOL    HW230339   6.588   4.702   0.439
 9814SOL     OW30340   7.000   6.930   5.754
 9814SOL    HW130341   0.046   6.861   5.764
 9814SOL    HW230342   7.016   7.004   5.820
 9815SOL     OW30343   5.651   3.296   2.011
 9815SOL    HW130344   5.616   3.215   1.965
 9815SOL    HW230345   5.672   3.367   1.943
 9816SOL     OW30346   6.836   6.752   0.137
 9816SOL    HW130347   6.837   6.722   0.232
 9816SOL    HW230348   6.859   6.675   0.077
 9817SOL     OW30349   2.820   6.245   6.908
 9817SOL    HW130350   2.782   6.310   6.841
 9817SOL    HW230351   2.876   6.178   6.860
 9818SOL     OW30352   1.047   6.489   4.270
 9818SOL    HW130353   1.100   6.411   4.303
 9818SOL    HW230354   1.094   6.532   4.192
 9819SOL     OW30355   6.666   3.541   5.143
 9819SOL    HW130356   6.621   3.583   5.064
 9819SOL    HW230357   6.637   3.587   5.227
 9820SOL     OW30358   3.746   2.125   6.066
 9820SOL    HW130359   3.803   2.203   6.090
 9820SOL    HW230360   3.732   2.067   6.146
 9821SOL     OW30361   4.748   2.553   1.784
 9821SOL    HW130362   4.685   2.625   1.814
 9821SOL    HW230363   4.715   2.464   1.816
 9822SOL     OW30364   3.280   6.301   5.327
 9822SOL    HW130365   3.275   6.313   5.228
 9822SOL    HW230366   3.240   6.212   5.351
 9823SOL     OW30367   1.924   0.464   3.399
 9823SOL    HW130368   1.913   0.503   3.490
 9823SOL    HW230369   1.983   0.383   3.403
 9824SOL     OW30370   0.753   5.862   5.313
 9824SOL    HW130371   0.701   5.903   5.388
 9824SOL    HW230372   0.769   5.765   5.333
 9825SOL     OW30373   5.029   6.132   6.126
 9825SOL    HW130374   5.083   6.215   6.112
 9825SOL    HW230375   4.978   6.139   6.212
 9826SOL     OW30376   2.066   6.538   5.861
 9826SOL    HW130377   2.038   6.602   5.789
 9826SOL    HW230378   2.084   6.448   5.821
 9827SOL     OW30379   1.629   5.656   1.884
 9827SOL    HW130380   1.674   5.669   1.795
 9827SOL    HW230381   1.658   5.729   1.947
 9828SOL     OW30382   3.972   2.047   4.738
 9828SOL    HW130383   4.065   2.080   4.757
 9828SOL    HW230384   3.953   2.053   4.640
 9829SOL     OW30385   4.578   5.561   5.040
 9829SOL    HW130386   4.551   5.657   5.042
 9829SOL    HW230387   4.624   5.541   4.954
 9830SOL     OW30388   5.914   2.159   2.351
 9830SOL    HW130389   5.822   2.120   2.359
 9830SOL    HW230390   5.975   2.116   2.417
 9831SOL     OW30391   0.339   4.049   2.449
 9831SOL    HW130392   0.328   4.053   2.349
 9831SOL    HW230393   0.264   4.098   2.493
 9832SOL     OW30394   4.308   4.684   4.711
 9832SOL    HW130395   4.322   4.645   4.802
 9832SOL    HW230396   4.266   4.774   4.719
 9833SOL     OW30397   3.148   4.038   3.817
 9833SOL    HW130398   3.094   3.985   3.752
 9833SOL    HW230399   3.096   4.050   3.902
 9834SOL     OW30400   2.079   5.959   5.529
 9834SOL    HW130401   2.019   6.007   5.464
 9834SOL    HW230402   2.024   5.918   5.601
 9835SOL     OW30403   3.337   4.129   4.024
 9835SOL    HW130404   3.411   4.193   4.007
 9835SOL    HW230405   3.290   4.107   3.938
 9836SOL     OW30406   6.987   3.375   5.513
 9836SOL    HW130407   6.987   3.412   5.420
 9836SOL    HW230408   0.056   3.359   5.543
 9837SOL     OW30409   5.316   2.022   3.228
 9837SOL    HW130410   5.323   1.930   3.267
 9837SOL    HW230411   5.220   2.052   3.229
 9838SOL     OW30412   1.361   0.191   1.705
 9838SOL    HW130413   1.391   0.096   1.704
 9838SOL    HW230414   1.328   0.217   1.614
 9839SOL     OW30415   4.709   0.506   2.886
 9839SOL    HW130416   4.726   0.408   2.872
 9839SOL    HW230417   4.618   0.529   2.852
 9840SOL     OW30418   6.189   1.071   0.006
 9840SOL    HW130419   6.262   1.002   0.007
 9840SOL    HW230420   6.120   1.047   0.075
 9841SOL     OW30421   0.424   6.242   3.599
 9841SOL    HW130422   0.368   6.216   3.678
 9841SOL    HW230423   0.520   6.223   3.619
 9842SOL     OW30424   2.526   2.018   6.662
 9842SOL    HW130425   2.591   2.028   6.587
 9842SOL    HW230426   2.546   2.087   6.732
 9843SOL     OW30427   0.898   0.429   1.081
 9843SOL    HW130428   0.879   0.504   1.144
 9843SOL    HW230429   0.826   0.359   1.090
 9844SOL     OW30430   5.309   6.687   3.961
 9844SOL    HW130431   5.375   6.762   3.960
 9844SOL    HW230432   5.277   6.671   4.055
 9845SOL     OW30433   1.841   3.834   1.666
 9845SOL    HW130434   1.859   3.864   1.573
 9845SOL    HW230435   1.773   3.894   1.708
 9846SOL     OW30436   5.526   2.376   0.855
 9846SOL    HW130437   5.558   2.290   0.896
 9846SOL    HW230438   5.428   2.369   0.835
 9847SOL     OW30439   3.956   3.636   0.230
 9847SOL    HW130440   3.956   3.552   0.285
 9847SOL    HW230441   3.874   3.689   0.251
 9848SOL     OW30442   3.218   3.621   5.330
 9848SOL    HW130443   3.219   3.719   5.309
 9848SOL    HW230444   3.124   3.589   5.338
 9849SOL     OW30445   0.578   1.771   4.581
 9849SOL    HW130446   0.594   1.801   4.486
 9849SOL    HW230447   0.550   1.675   4.581
 9850SOL     OW30448   1.032   0.247   4.618
 9850SOL    HW130449   1.108   0.202   4.665
 9850SOL    HW230450   1.016   0.203   4.530
 9851SOL     OW30451   3.598   4.920   4.055
 9851SOL    HW130452   3.693   4.899   4.079
 9851SOL    HW230453   3.597   4.977   3.973
 9852SOL     OW30454   2.067   0.799   0.083
 9852SOL    HW130455   2.049   0.797   0.181
 9852SOL    HW230456   2.126   0.877   0.062
 9853SOL     OW30457   6.626   4.708   3.504
 9853SOL    HW130458   6.583   4.753   3.583
 9853SOL    HW230459   6.581   4.621   3.486
 9854SOL     OW30460   0.657   4.618   5.923
 9854SOL    HW130461   0.589   4.690   5.934
 9854SOL    HW230462   0.691   4.619   5.829
 9855SOL     OW30463   1.436   4.926   1.613
 9855SOL    HW130464   1.476   4.847   1.660
 9855SOL    HW230465   1.477   4.935   1.522
 9856SOL     OW30466   5.700   4.107   3.397
 9856SOL    HW130467   5.728   4.023   3.352
 9856SOL    HW230468   5.600   4.107   3.408
 9857SOL     OW30469   3.602   0.673   4.608
 9857SOL    HW130470   3.616   0.756   4.661
 9857SOL    HW230471   3.595   0.696   4.511
 9858SOL     OW30472   6.171   6.807   2.665
 9858SOL    HW130473   6.166   6.785   2.763
 9858SOL    HW230474   6.232   6.743   2.619
 9859SOL     OW30475   6.769   5.844   3.435
 9859SOL    HW130476   6.780   5.872   3.339
 9859SOL    HW230477   6.791   5.921   3.495
 9860SOL     OW30478   1.246   2.821   4.228
 9860SOL    HW130479   1.345   2.804   4.220
 9860SOL    HW230480   1.213   2.865   4.144
 9861SOL     OW30481   3.570   1.481   3.798
 9861SOL    HW130482   3.552   1.578   3.813
 9861SOL    HW230483   3.576   1.434   3.886
 9862SOL     OW30484   0.952   5.126   0.599
 9862SOL    HW130485   0.877   5.063   0.617
 9862SOL    HW230486   1.009   5.134   0.681
 9863SOL     OW30487   3.567   5.870   0.688
 9863SOL    HW130488   3.632   5.879   0.612
 9863SOL    HW230489   3.601   5.922   0.766
 9864SOL     OW30490   2.958   5.720   5.605
 9864SOL    HW130491   2.900   5.638   5.606
 9864SOL    HW230492   2.999   5.731   5.514
 9865SOL     OW30493   0.312   6.084   5.593
 9865SOL    HW130494   0.242   6.044   5.534
 9865SOL    HW230495   0.270   6.112   5.680
 9866SOL     OW30496   6.169   4.601   4.887
 9866SOL    HW130497   6.243   4.651   4.932
 9866SOL    HW230498   6.099   4.578   4.954
 9867SOL     OW30499   4.239   2.065   1.473
 9867SOL    HW130500   4.327   2.102   1.504
 9867SOL    HW230501   4.226   1.974   1.512
 9868SOL     OW30502   2.086   3.807   3.724
 9868SOL    HW130503   2.139   3.865   3.662
 9868SOL    HW230504   2.059   3.724   3.676
 9869SOL     OW30505   6.561   2.831   0.822
 9869SOL    HW130506   6.516   2.788   0.900
 9869SOL    HW230507   6.601   2.918   0.850
 9870SOL     OW30508   2.990   1.126   2.728
 9870SOL    HW130509   3.069   1.089   2.678
 9870SOL    HW230510   2.906   1.090   2.688
 9871SOL     OW30511   6.752   4.709   4.569
 9871SOL    HW130512   6.763   4.661   4.482
 9871SOL    HW230513   6.655   4.726   4.586
 9872SOL     OW30514   1.178   5.153   5.816
 9872SOL    HW130515   1.110   5.087   5.784
 9872SOL    HW230516   1.200   5.133   5.912
 9873SOL     OW30517   1.039   1.734   5.915
 9873SOL    HW130518   1.039   1.827   5.880
 9873SOL    HW230519   0.966   1.682   5.870
 9874SOL     OW30520   0.542   2.734   4.725
 9874SOL    HW130521   0.530   2.801   4.798
 9874SOL    HW230522   0.466   2.669   4.725
 9875SOL     OW30523   6.346   5.265   0.750
 9875SOL    HW130524   6.364   5.312   0.664
 9875SOL    HW230525   6.303   5.328   0.814
 9876SOL     OW30526   1.574   6.545   3.985
 9876SOL    HW130527   1.507   6.619   3.980
 9876SOL    HW230528   1.585   6.504   3.894
 9877SOL     OW30529   0.525   5.126   4.850
 9877SOL    HW130530   0.573   5.038   4.844
 9877SOL    HW230531   0.581   5.198   4.809
 9878SOL     OW30532   2.094   2.430   0.002
 9878SOL    HW130533   2.154   2.477   6.961
 9878SOL    HW230534   2.150   2.387   0.073
 9879SOL     OW30535   6.680   5.329   6.324
 9879SOL    HW130536   6.700   5.231   6.321
 9879SOL    HW230537   6.754   5.380   6.281
 9880SOL     OW30538   3.061   1.298   6.857
 9880SOL    HW130539   3.111   1.237   6.919
 9880SOL    HW230540   3.039   1.249   6.773
 9881SOL     OW30541   5.871   0.462   4.274
 9881SOL    HW130542   5.843   0.512   4.193
 9881SOL    HW230543   5.884   0.526   4.350
 9882SOL     OW30544   3.430   3.022   5.042
 9882SOL    HW130545   3.509   3.008   5.101
 9882SOL    HW230546   3.362   3.079   5.089
 9883SOL     OW30547   2.473   0.016   1.654
 9883SOL    HW130548   2.383   7.013   1.687
 9883SOL    HW230549   2.541   7.023   1.725
 9884SOL     OW30550   2.302   3.578   5.666
 9884SOL    HW130551   2.359   3.569   5.584
 9884SOL    HW230552   2.296   3.675   5.691
 9885SOL     OW30553   5.826   2.913   4.782
 9885SOL    HW130554   5.729   2.930   4.799
 9885SOL    HW230555   5.861   2.847   4.848
 9886SOL     OW30556   4.194   5.841   1.245
 9886SOL    HW130557   4.267   5.807   1.305
 9886SOL    HW230558   4.235   5.890   1.168
 9887SOL     OW30559   3.243   6.946   6.529
 9887SOL    HW130560   3.164   7.005   6.514
 9887SOL    HW230561   3.270   6.950   6.625
 9888SOL     OW30562   6.332   6.491   3.229
 9888SOL    HW130563   6.279   6.416   3.191
 9888SOL    HW230564   6.323   6.491   3.329
 9889SOL     OW30565   0.039   5.553   3.390
 9889SOL    HW130566   0.121   5.523   3.440
 9889SOL    HW230567   0.059   5.637   3.340
 9890SOL     OW30568   0.380   3.992   2.172
 9890SOL    HW130569   0.400   3.894   2.182
 9890SOL    HW230570   0.405   4.021   2.080
 9891SOL     OW30571   5.628   5.335   0.609
 9891SOL    HW130572   5.535   5.310   0.638
 9891SOL    HW230573   5.679   5.371   0.687
 9892SOL     OW30574   2.055   4.682   3.939
 9892SOL    HW130575   1.998   4.638   4.009
 9892SOL    HW230576   2.098   4.612   3.882
 9893SOL     OW30577   5.420   5.248   3.635
 9893SOL    HW130578   5.417   5.229   3.733
 9893SOL    HW230579   5.406   5.346   3.619
 9894SOL     OW30580   3.945   3.205   6.113
 9894SOL    HW130581   4.043   3.217   6.126
 9894SOL    HW230582   3.920   3.228   6.019
 9895SOL     OW30583   5.252   2.274   6.897
 9895SOL    HW130584   5.256   2.373   6.911
 9895SOL    HW230585   5.345   2.236   6.897
 9896SOL     OW30586   3.799   4.057   0.972
 9896SOL    HW130587   3.789   3.974   0.917
 9896SOL    HW230588   3.872   4.042   1.040
 9897SOL     OW30589   6.639   1.819   3.845
 9897SOL    HW130590   6.551   1.862   3.827
 9897SOL    HW230591   6.640   1.782   3.938
 9898SOL     OW30592   1.343   5.084   5.247
 9898SOL    HW130593   1.378   5.147   5.178
 9898SOL    HW230594   1.249   5.111   5.271
 9899SOL     OW30595   5.889   5.182   1.751
 9899SOL    HW130596   5.917   5.199   1.656
 9899SOL    HW230597   5.944   5.239   1.812
 9900SOL     OW30598   1.239   3.533   3.616
 9900SOL    HW130599   1.300   3.536   3.537
 9900SOL    HW230600   1.284   3.484   3.691
 9901SOL     OW30601   3.343   2.117   5.165
 9901SOL    HW130602   3.281   2.194   5.148
 9901SOL    HW230603   3.325   2.081   5.257
 9902SOL     OW30604   4.350   3.863   7.001
 9902SOL    HW130605   4.406   3.833   0.054
 9902SOL    HW230606   4.405   3.917   6.938
 9903SOL     OW30607   4.038   1.485   1.587
 9903SOL    HW130608   3.987   1.540   1.521
 9903SOL    HW230609   3.976   1.418   1.630
 9904SOL     OW30610   6.880   0.415   2.083
 9904SOL    HW130611   6.909   0.355   2.158
 9904SOL    HW230612   6.900   0.372   1.996
 9905SOL     OW30613   1.097   6.412   5.268
 9905SOL    HW130614   1.030   6.436   5.338
 9905SOL    HW230615   1.149   6.332   5.297
 9906SOL     OW30616   3.066   2.844   5.951
 9906SOL    HW130617   3.137   2.788   5.993
 9906SOL    HW230618   3.044   2.921   6.012
 9907SOL     OW30619   2.239   6.602   2.949
 9907SOL    HW130620   2.277   6.514   2.979
 9907SOL    HW230621   2.312   6.658   2.911
 9908SOL     OW30622   1.254   3.557   5.606
 9908SOL    HW130623   1.269   3.629   5.675
 9908SOL    HW230624   1.342   3.516   5.581
 9909SOL     OW30625   3.951   6.732   2.708
 9909SOL    HW130626   3.864   6.711   2.664
 9909SOL    HW230627   3.940   6.725   2.808
 9910SOL     OW30628   6.991   4.071   1.291
 9910SOL    HW130629   6.916   4.130   1.263
 9910SOL    HW230630   0.047   4.127   1.312
 9911SOL     OW30631   2.908   4.867   3.266
 9911SOL    HW130632   2.953   4.903   3.348
 9911SOL    HW230633   2.971   4.873   3.189
 9912SOL     OW30634   5.000   0.050   1.386
 9912SOL    HW130635   4.918   0.034   1.332
 9912SOL    HW230636   5.075   7.016   1.353
 9913SOL     OW30637   4.674   1.768   2.439
 9913SOL    HW130638   4.599   1.714   2.476
 9913SOL    HW230639   4.735   1.796   2.514
 9914SOL     OW30640   1.379   6.731   5.053
 9914SOL    HW130641   1.285   6.757   5.078
 9914SOL    HW230642   1.443   6.770   5.119
 9915SOL     OW30643   5.370   3.790   4.415
 9915SOL    HW130644   5.414   3.751   4.497
 9915SOL    HW230645   5.299   3.854   4.443
 9916SOL     OW30646   2.338   2.990   1.707
 9916SOL    HW130647   2.268   2.946   1.651
 9916SOL    HW230648   2.320   3.088   1.712
 9917SOL     OW30649   2.154   3.514   5.965
 9917SOL    HW130650   2.144   3.443   5.895
 9917SOL    HW230651   2.067   3.563   5.975
 9918SOL     OW30652   1.367   1.489   5.262
 9918SOL    HW130653   1.336   1.413   5.319
 9918SOL    HW230654   1.295   1.513   5.197
 9919SOL     OW30655   0.497   5.123   3.048
 9919SOL    HW130656   0.453   5.094   2.963
 9919SOL    HW230657   0.463   5.213   3.074
 9920SOL     OW30658   4.458   6.697   1.309
 9920SOL    HW130659   4.429   6.702   1.405
 9920SOL    HW230660   4.440   6.605   1.274
 9921SOL     OW30661   5.188   0.136   2.720
 9921SOL    HW130662   5.287   0.122   2.728
 9921SOL    HW230663   5.164   0.227   2.755
 9922SOL     OW30664   4.387   2.844   1.310
 9922SOL    HW130665   4.379   2.936   1.348
 9922SOL    HW230666   4.445   2.789   1.370
 9923SOL     OW30667   6.415   2.078   6.529
 9923SOL    HW130668   6.503   2.124   6.540
 9923SOL    HW230669   6.415   2.028   6.442
 9924SOL     OW30670   6.208   0.771   3.067
 9924SOL    HW130671   6.266   0.784   3.147
 9924SOL    HW230672   6.184   0.861   3.029
 9925SOL     OW30673   2.467   2.618   4.770
 9925SOL    HW130674   2.457   2.680   4.847
 9925SOL    HW230675   2.445   2.666   4.685
 9926SOL     OW30676   1.402   1.317   0.603
 9926SOL    HW130677   1.373   1.357   0.516
 9926SOL    HW230678   1.441   1.389   0.661
 9927SOL     OW30679   0.755   2.632   2.735
 9927SOL    HW130680   0.761   2.555   2.671
 9927SOL    HW230681   0.833   2.694   2.721
 9928SOL     OW30682   0.060   3.443   2.871
 9928SOL    HW130683   0.034   3.459   2.776
 9928SOL    HW230684   0.139   3.381   2.874
 9929SOL     OW30685   2.279   4.334   6.806
 9929SOL    HW130686   2.197   4.348   6.861
 9929SOL    HW230687   2.256   4.338   6.709
 9930SOL     OW30688   0.145   6.355   6.811
 9930SOL    HW130689   0.068   6.330   6.753
 9930SOL    HW230690   0.214   6.283   6.808
 9931SOL     OW30691   2.175   5.752   6.079
 9931SOL    HW130692   2.079   5.758   6.052
 9931SOL    HW230693   2.233   5.770   5.999
 9932SOL     OW30694   1.717   2.134   0.637
 9932SOL    HW130695   1.725   2.133   0.538
 9932SOL    HW230696   1.622   2.147   0.663
 9933SOL     OW30697   1.263   1.987   3.610
 9933SOL    HW130698   1.350   2.019   3.571
 9933SOL    HW230699   1.189   2.045   3.578
 9934SOL     OW30700   3.471   1.204   5.891
 9934SOL    HW130701   3.486   1.202   5.793
 9934SOL    HW230702   3.447   1.113   5.924
 9935SOL     OW30703   2.499   1.983   0.931
 9935SOL    HW130704   2.451   2.038   0.999
 9935SOL    HW230705   2.432   1.945   0.866
 9936SOL     OW30706   6.140   6.319   5.523
 9936SOL    HW130707   6.109   6.295   5.615
 9936SOL    HW230708   6.199   6.246   5.488
 9937SOL     OW30709   0.445   0.070   3.832
 9937SOL    HW130710   0.398   0.072   3.920
 9937SOL    HW230711   0.391   0.121   3.765
 9938SOL     OW30712   6.905   1.720   3.658
 9938SOL    HW130713   6.960   1.650   3.704
 9938SOL    HW230714   6.837   1.755   3.722
 9939SOL     OW30715   3.200   4.497   1.287
 9939SOL    HW130716   3.228   4.492   1.191
 9939SOL    HW230717   3.118   4.441   1.300
 9940SOL     OW30718   0.316   0.884   3.170
 9940SOL    HW130719   0.382   0.830   3.117
 9940SOL    HW230720   0.282   0.960   3.114
 9941SOL     OW30721   4.913   4.757   6.787
 9941SOL    HW130722   4.976   4.757   6.864
 9941SOL    HW230723   4.942   4.689   6.720
 9942SOL     OW30724   4.872   5.047   2.811
 9942SOL    HW130725   4.891   5.048   2.909
 9942SOL    HW230726   4.802   4.978   2.792
 9943SOL     OW30727   2.282   4.213   6.224
 9943SOL    HW130728   2.334   4.160   6.156
 9943SOL    HW230729   2.185   4.212   6.200
 9944SOL     OW30730   0.473   4.866   6.330
 9944SOL    HW130731   0.424   4.932   6.387
 9944SOL    HW230732   0.512   4.794   6.387
 9945SOL     OW30733   6.226   3.043   6.449
 9945SOL    HW130734   6.247   3.036   6.547
 9945SOL    HW230735   6.308   3.071   6.399
 9946SOL     OW30736   5.462   1.661   1.422
 9946SOL    HW130737   5.426   1.753   1.407
 9946SOL    HW230738   5.427   1.626   1.509
 9947SOL     OW30739   1.244   1.733   3.876
 9947SOL    HW130740   1.151   1.739   3.911
 9947SOL    HW230741   1.297   1.670   3.933
 9948SOL     OW30742   6.155   0.169   4.448
 9948SOL    HW130743   6.106   0.147   4.364
 9948SOL    HW230744   6.103   0.137   4.527
 9949SOL     OW30745   6.062   4.916   3.928
 9949SOL    HW130746   6.082   4.830   3.881
 9949SOL    HW230747   6.127   4.928   4.004
 9950SOL     OW30748   5.710   4.029   5.517
 9950SOL    HW130749   5.781   4.011   5.448
 9950SOL    HW230750   5.731   4.114   5.565
 9951SOL     OW30751   0.350   2.174   3.478
 9951SOL    HW130752   0.359   2.121   3.561
 9951SOL    HW230753   0.353   2.113   3.398
 9952SOL     OW30754   0.537   4.924   1.897
 9952SOL    HW130755   0.531   4.903   1.994
 9952SOL    HW230756   0.631   4.908   1.865
 9953SOL     OW30757   6.041   2.487   3.700
 9953SOL    HW130758   6.097   2.568   3.717
 9953SOL    HW230759   5.985   2.502   3.618
 9954SOL     OW30760   3.711   1.638   5.964
 9954SOL    HW130761   3.635   1.687   6.006
 9954SOL    HW230762   3.705   1.541   5.988
 9955SOL     OW30763   5.762   4.095   0.993
 9955SOL    HW130764   5.760   4.192   0.969
 9955SOL    HW230765   5.856   4.068   1.013
 9956SOL     OW30766   1.986   3.107   3.222
 9956SOL    HW130767   1.962   3.012   3.242
 9956SOL    HW230768   1.962   3.164   3.300
 9957SOL     OW30769   4.949   0.147   0.718
 9957SOL    HW130770   4.932   0.135   0.816
 9957SOL    HW230771   5.003   0.070   0.684
 9958SOL     OW30772   5.044   5.905   0.208
 9958SOL    HW130773   5.106   5.941   0.278
 9958SOL    HW230774   5.036   5.972   0.134
 9959SOL     OW30775   4.928   4.300   0.629
 9959SOL    HW130776   4.965   4.207   0.630
 9959SOL    HW230777   4.909   4.329   0.722
 9960SOL     OW30778   0.528   0.714   0.022
 9960SOL    HW130779   0.532   0.615   0.007
 9960SOL    HW230780   0.566   0.761   6.967
 9961SOL     OW30781   2.720   4.911   1.489
 9961SOL    HW130782   2.680   4.832   1.443
 9961SOL    HW230783   2.805   4.883   1.535
 9962SOL     OW30784   3.410   0.058   1.582
 9962SOL    HW130785   3.349   7.004   1.583
 9962SOL    HW230786   3.422   0.090   1.488
 9963SOL     OW30787   0.635   1.111   6.379
 9963SOL    HW130788   0.581   1.096   6.297
 9963SOL    HW230789   0.728   1.140   6.354
 9964SOL     OW30790   4.414   4.019   5.941
 9964SOL    HW130791   4.473   4.098   5.923
 9964SOL    HW230792   4.383   3.979   5.855
 9965SOL     OW30793   2.718   5.513   4.540
 9965SOL    HW130794   2.807   5.538   4.579
 9965SOL    HW230795   2.730   5.437   4.476
 9966SOL     OW30796   3.898   4.839   2.505
 9966SOL    HW130797   3.824   4.863   2.568
 9966SOL    HW230798   3.866   4.849   2.410
 9967SOL     OW30799   0.271   0.410   2.717
 9967SOL    HW130800   0.259   0.486   2.781
 9967SOL    HW230801   0.202   0.340   2.736
 9968SOL     OW30802   3.212   6.739   0.248
 9968SOL    HW130803   3.211   6.662   0.185
 9968SOL    HW230804   3.231   6.707   0.340
 9969SOL     OW30805   1.679   5.359   3.737
 9969SOL    HW130806   1.686   5.376   3.835
 9969SOL    HW230807   1.658   5.262   3.721
 9970SOL     OW30808   6.492   3.448   1.454
 9970SOL    HW130809   6.454   3.386   1.385
 9970SOL    HW230810   6.486   3.542   1.421
 9971SOL     OW30811   0.602   4.621   2.992
 9971SOL    HW130812   0.507   4.618   2.963
 9971SOL    HW230813   0.659   4.573   2.926
 9972SOL     OW30814   2.929   3.220   6.695
 9972SOL    HW130815   2.897   3.170   6.775
 9972SOL    HW230816   2.853   3.269   6.653
 9973SOL     OW30817   3.001   1.932   3.494
 9973SOL    HW130818   2.912   1.909   3.532
 9973SOL    HW230819   3.002   1.913   3.396
 9974SOL     OW30820   1.412   3.198   2.797
 9974SOL    HW130821   1.371   3.160   2.714
 9974SOL    HW230822   1.450   3.124   2.852
 9975SOL     OW30823   1.919   5.194   6.929
 9975SOL    HW130824   1.959   5.285   6.931
 9975SOL    HW230825   1.979   5.130   6.976
 9976SOL     OW30826   3.132   4.001   6.655
 9976SOL    HW130827   3.231   3.997   6.670
 9976SOL    HW230828   3.102   4.096   6.659
 9977SOL     OW30829   5.162   6.307   5.772
 9977SOL    HW130830   5.088   6.311   5.705
 9977SOL    HW230831   5.244   6.349   5.734
 9978SOL     OW30832   0.716   3.385   6.576
 9978SOL    HW130833   0.645   3.345   6.518
 9978SOL    HW230834   0.793   3.414   6.520
 9979SOL     OW30835   4.046   3.379   5.100
 9979SOL    HW130836   4.133   3.360   5.146
 9979SOL    HW230837   4.058   3.456   5.038
 9980SOL     OW30838   2.126   1.445   0.912
 9980SOL    HW130839   2.064   1.521   0.894
 9980SOL    HW230840   2.078   1.374   0.964
 9981SOL     OW30841   6.990   2.631   1.562
 9981SOL    HW130842   7.001   2.724   1.599
 9981SOL    HW230843   0.014   2.625   1.475
 9982SOL     OW30844   2.237   2.091   5.136
 9982SOL    HW130845   2.178   2.152   5.084
 9982SOL    HW230846   2.327   2.085   5.092
 9983SOL     OW30847   1.000   2.840   2.419
 9983SOL    HW130848   1.002   2.765   2.486
 9983SOL    HW230849   0.927   2.823   2.353
 9984SOL     OW30850   6.871   6.030   1.075
 9984SOL    HW130851   6.969   6.011   1.075
 9984SOL    HW230852   6.840   6.046   0.981
 9985SOL     OW30853   3.794   5.065   0.338
 9985SOL    HW130854   3.788   5.020   0.427
 9985SOL    HW230855   3.715   5.042   0.282
 9986SOL     OW30856   5.123   4.843   6.969
 9986SOL    HW130857   5.177   4.835   0.028
 9986SOL    HW230858   5.176   4.891   6.899
 9987SOL     OW30859   5.139   2.935   1.298
 9987SOL    HW130860   5.120   3.002   1.226
 9987SOL    HW230861   5.056   2.884   1.318
 9988SOL     OW30862   5.251   6.645   4.210
 9988SOL    HW130863   5.311   6.612   4.282
 9988SOL    HW230864   5.163   6.598   4.216
 9989SOL     OW30865   6.572   5.394   2.500
 9989SOL    HW130866   6.506   5.354   2.436
 9989SOL    HW230867   6.606   5.481   2.463
 9990SOL     OW30868   0.618   6.593   3.788
 9990SOL    HW130869   0.607   6.690   3.763
 9990SOL    HW230870   0.609   6.537   3.706
 9991SOL     OW30871   1.607   4.687   3.373
 9991SOL    HW130872   1.618   4.594   3.339
 9991SOL    HW230873   1.696   4.733   3.374
 9992SOL     OW30874   3.516   4.903   0.887
 9992SOL    HW130875   3.558   4.993   0.873
 9992SOL    HW230876   3.566   4.853   0.958
 9993SOL     OW30877   3.811   6.740   4.151
 9993SOL    HW130878   3.866   6.777   4.225
 9993SOL    HW230879   3.854   6.763   4.063
 9994SOL     OW30880   6.501   4.631   4.366
 9994SOL    HW130881   6.442   4.603   4.442
 9994SOL    HW230882   6.524   4.551   4.311
 9995SOL     OW30883   3.007   0.640   4.847
 9995SOL    HW130884   3.088   0.584   4.826
 9995SOL    HW230885   3.010   0.669   4.942
 9996SOL     OW30886   2.345   3.600   1.006
 9996SOL    HW130887   2.440   3.568   1.008
 9996SOL    HW230888   2.311   3.600   0.912
 9997SOL     OW30889   6.084   2.890   3.742
 9997SOL    HW130890   6.138   2.812   3.709
 9997SOL    HW230891   6.078   2.886   3.842
 9998SOL     OW30892   5.193   4.542   2.719
 9998SOL    HW130893   5.248   4.590   2.787
 9998SOL    HW230894   5.116   4.599   2.692
 9999SOL     OW30895   1.002   6.352   3.888
 9999SOL    HW130896   1.086   6.388   3.928
 9999SOL    HW230897   0.982   6.263   3.928
10000SOL     OW30898   5.638   2.010   1.593
10000SOL    HW130899   5.545   2.039   1.615
10000SOL    HW230900   5.689   1.996   1.678
10001SOL     OW30901   4.238   6.278   2.090
10001SOL    HW130902   4.196   6.361   2.053
10001SOL    HW230903   4.230   6.277   2.189
10002SOL     OW30904   2.884   0.783   1.920
10002SOL    HW130905   2.897   0.842   1.840
10002SOL    HW230906   2.956   0.713   1.922
10003SOL     OW30907   1.608   0.923   3.812
10003SOL    HW130908   1.688   0.941   3.869
10003SOL    HW230909   1.569   1.009   3.780
10004SOL     OW30910   6.242   4.257   5.197
10004SOL    HW130911   6.175   4.217   5.135
10004SOL    HW230912   6.204   4.340   5.238
10005SOL     OW30913   1.972   5.517   3.410
10005SOL    HW130914   2.056   5.491   3.362
10005SOL    HW230915   1.962   5.460   3.491
10006SOL     OW30916   5.501   0.535   5.368
10006SOL    HW130917   5.530   0.457   5.311
10006SOL    HW230918   5.462   0.501   5.453
10007SOL     OW30919   1.466   4.913   4.353
10007SOL    HW130920   1.448   4.825   4.310
10007SOL    HW230921   1.548   4.954   4.313
10008SOL     OW30922   4.126   1.586   6.062
10008SOL    HW130923   4.216   1.625   6.047
10008SOL    HW230924   4.076   1.641   6.129
10009SOL     OW30925   1.173   3.221   2.068
10009SOL    HW130926   1.269   3.204   2.091
10009SOL    HW230927   1.152   3.317   2.086
10010SOL     OW30928   2.286   4.488   0.086
10010SOL    HW130929   2.230   4.536   0.019
10010SOL    HW230930   2.368   4.451   0.041
10011SOL     OW30931   1.418   3.593   0.586
10011SOL    HW130932   1.427   3.678   0.638
10011SOL    HW230933   1.377   3.523   0.644
10012SOL     OW30934   4.841   1.467   2.619
10012SOL    HW130935   4.896   1.542   2.582
10012SOL    HW230936   4.863   1.383   2.570
10013SOL     OW30937   0.642   6.075   4.592
10013SOL    HW130938   0.634   6.001   4.659
10013SOL    HW230939   0.602   6.159   4.630
10014SOL     OW30940   0.676   0.074   2.922
10014SOL    HW130941   0.651   7.018   2.867
10014SOL    HW230942   0.638   0.064   3.014
10015SOL     OW30943   4.197   4.425   5.743
10015SOL    HW130944   4.137   4.354   5.706
10015SOL    HW230945   4.146   4.509   5.757
10016SOL     OW30946   2.348   7.000   2.815
10016SOL    HW130947   2.345   7.009   2.914
10016SOL    HW230948   2.260   0.002   2.775
10017SOL     OW30949   2.914   1.639   3.087
10017SOL    HW130950   2.952   1.593   3.167
10017SOL    HW230951   2.848   1.578   3.042
10018SOL     OW30952   6.267   2.636   6.103
10018SOL    HW130953   6.295   2.643   6.199
10018SOL    HW230954   6.173   2.669   6.094
10019SOL     OW30955   0.626   1.673   2.465
10019SOL    HW130956   0.609   1.770   2.479
10019SOL    HW230957   0.723   1.654   2.482
10020SOL     OW30958   6.684   0.601   2.089
10020SOL    HW130959   6.750   0.532   2.058
10020SOL    HW230960   6.732   0.687   2.107
10021SOL     OW30961   1.540   4.155   1.973
10021SOL    HW130962   1.630   4.142   1.930
10021SOL    HW230963   1.519   4.253   1.977
10022SOL     OW30964   2.719   6.159   0.523
10022SOL    HW130965   2.767   6.134   0.439
10022SOL    HW230966   2.643   6.220   0.502
10023SOL     OW30967   1.849   6.888   5.923
10023SOL    HW130968   1.878   6.856   6.013
10023SOL    HW230969   1.867   6.986   5.915
10024SOL     OW30970   1.603   4.663   2.992
10024SOL    HW130971   1.686   4.624   3.031
10024SOL    HW230972   1.528   4.598   2.999
10025SOL     OW30973   1.157   4.468   1.508
10025SOL    HW130974   1.164   4.550   1.452
10025SOL    HW230975   1.066   4.465   1.550
10026SOL     OW30976   5.180   1.476   4.003
10026SOL    HW130977   5.270   1.434   4.003
10026SOL    HW230978   5.187   1.570   3.969
10027SOL     OW30979   1.990   1.763   5.686
10027SOL    HW130980   1.922   1.696   5.658
10027SOL    HW230981   1.958   1.855   5.661
10028SOL     OW30982   4.601   0.618   1.477
10028SOL    HW130983   4.563   0.691   1.535
10028SOL    HW230984   4.582   0.530   1.518
10029SOL     OW30985   6.999   3.423   4.883
10029SOL    HW130986   7.021   3.396   4.977
10029SOL    HW230987   6.923   3.488   4.883
10030SOL     OW30988   2.886   0.033   4.683
10030SOL    HW130989   2.813   0.010   4.747
10030SOL    HW230990   2.949   6.980   4.677
10031SOL     OW30991   3.194   4.956   4.010
10031SOL    HW130992   3.109   4.905   4.011
10031SOL    HW230993   3.238   4.950   4.100
10032SOL     OW30994   3.063   6.170   4.937
10032SOL    HW130995   3.124   6.140   4.864
10032SOL    HW230996   2.976   6.121   4.930
10033SOL     OW30997   4.121   1.894   2.694
10033SOL    HW130998   4.084   1.817   2.746
10033SOL    HW230999   4.047   1.942   2.648
10034SOL     OW31000   2.713   0.456   3.686
10034SOL    HW131001   2.732   0.554   3.689
10034SOL    HW231002   2.766   0.414   3.612
10035SOL     OW31003   6.207   2.934   1.645
10035SOL    HW131004   6.281   2.940   1.713
10035SOL    HW231005   6.246   2.912   1.556
10036SOL     OW31006   6.247   0.454   0.022
10036SOL    HW131007   6.190   0.418   6.973
10036SOL    HW231008   6.205   0.537   0.059
10037SOL     OW31009   6.115   6.879   6.824
10037SOL    HW131010   6.135   6.972   6.854
10037SOL    HW231011   6.056   6.834   6.891
10038SOL     OW31012   4.256   0.240   7.021
10038SOL    HW131013   4.247   0.190   0.083
10038SOL    HW231014   4.194   0.318   7.021
10039SOL     OW31015   5.761   5.159   3.625
10039SOL    HW131016   5.746   5.257   3.612
10039SOL    HW231017   5.703   5.108   3.561
10040SOL     OW31018   3.509   0.540   0.306
10040SOL    HW131019   3.453   0.547   0.224
10040SOL    HW231020   3.568   0.620   0.314
10041SOL     OW31021   6.877   4.944   5.409
10041SOL    HW131022   6.805   4.965   5.342
10041SOL    HW231023   6.903   4.848   5.400
10042SOL     OW31024   0.616   0.586   5.158
10042SOL    HW131025   0.523   0.624   5.158
10042SOL    HW231026   0.641   0.562   5.252
10043SOL     OW31027   1.638   1.108   2.920
10043SOL    HW131028   1.681   1.018   2.931
10043SOL    HW231029   1.648   1.137   2.825
10044SOL     OW31030   2.093   1.256   5.600
10044SOL    HW131031   2.040   1.172   5.594
10044SOL    HW231032   2.046   1.321   5.660
10045SOL     OW31033   4.593   6.533   4.774
10045SOL    HW131034   4.657   6.610   4.781
10045SOL    HW231035   4.635   6.460   4.720
10046SOL     OW31036   0.196   2.292   1.887
10046SOL    HW131037   0.156   2.378   1.918
10046SOL    HW231038   0.226   2.239   1.966
10047SOL     OW31039   6.485   1.540   4.997
10047SOL    HW131040   6.565   1.485   5.022
10047SOL    HW231041   6.509   1.602   4.923
10048SOL     OW31042   3.537   1.460   1.834
10048SOL    HW131043   3.571   1.538   1.886
10048SOL    HW231044   3.443   1.478   1.803
10049SOL     OW31045   2.307   0.695   6.454
10049SOL    HW131046   2.307   0.674   6.356
10049SOL    HW231047   2.213   0.701   6.487
10050SOL     OW31048   5.007   2.617   4.864
10050SOL    HW131049   5.018   2.642   4.767
10050SOL    HW231050   4.986   2.520   4.871
10051SOL     OW31051   5.996   2.977   4.555
10051SOL    HW131052   5.939   2.979   4.637
10051SOL    HW231053   5.947   3.018   4.479
10052SOL     OW31054   1.365   3.450   1.747
10052SOL    HW131055   1.391   3.443   1.844
10052SOL    HW231056   1.442   3.487   1.695
10053SOL     OW31057   3.064   5.035   3.442
10053SOL    HW131058   3.152   5.051   3.487
10053SOL    HW231059   3.038   5.116   3.389
10054SOL     OW31060   4.065   5.744   5.690
10054SOL    HW131061   3.969   5.759   5.713
10054SOL    HW231062   4.072   5.672   5.621
10055SOL     OW31063   6.650   2.576   5.108
10055SOL    HW131064   6.660   2.632   5.190
10055SOL    HW231065   6.570   2.517   5.118
10056SOL     OW31066   6.763   4.887   1.377
10056SOL    HW131067   6.819   4.959   1.337
10056SOL    HW231068   6.806   4.798   1.361
10057SOL     OW31069   4.264   1.762   4.456
10057SOL    HW131070   4.242   1.748   4.359
10057SOL    HW231071   4.266   1.860   4.476
10058SOL     OW31072   0.258   5.247   4.080
10058SOL    HW131073   0.331   5.180   4.078
10058SOL    HW231074   0.239   5.278   3.987
10059SOL     OW31075   5.290   0.424   1.043
10059SOL    HW131076   5.384   0.424   1.008
10059SOL    HW231077   5.227   0.448   0.970
10060SOL     OW31078   3.014   2.116   1.817
10060SOL    HW131079   3.028   2.214   1.833
10060SOL    HW231080   2.944   2.082   1.880
10061SOL     OW31081   6.127   1.286   4.209
10061SOL    HW131082   6.049   1.234   4.244
10061SOL    HW231083   6.143   1.365   4.268
10062SOL     OW31084   5.807   5.761   3.612
10062SOL    HW131085   5.831   5.700   3.687
10062SOL    HW231086   5.804   5.855   3.646
10063SOL     OW31087   1.344   3.585   3.981
10063SOL    HW131088   1.409   3.529   3.928
10063SOL    HW231089   1.280   3.525   4.029
10064SOL     OW31090   4.907   5.714   4.503
10064SOL    HW131091   4.880   5.728   4.408
10064SOL    HW231092   4.974   5.784   4.528
10065SOL     OW31093   1.249   6.632   2.629
10065SOL    HW131094   1.180   6.582   2.576
10065SOL    HW231095   1.210   6.660   2.716
10066SOL     OW31096   0.449   6.998   4.256
10066SOL    HW131097   0.472   0.047   4.321
10066SOL    HW231098   0.353   7.007   4.229
10067SOL     OW31099   4.854   4.554   4.392
10067SOL    HW131100   4.940   4.583   4.351
10067SOL    HW231101   4.779   4.566   4.326
10068SOL     OW31102   5.340   2.999   4.518
10068SOL    HW131103   5.420   2.972   4.464
10068SOL    HW231104   5.331   2.939   4.597
10069SOL     OW31105   2.960   1.018   3.767
10069SOL    HW131106   2.980   1.071   3.684
10069SOL    HW231107   2.921   1.078   3.837
10070SOL     OW31108   0.421   6.044   5.134
10070SOL    HW131109   0.410   6.111   5.207
10070SOL    HW231110   0.506   6.061   5.085
10071SOL     OW31111   4.867   5.522   4.113
10071SOL    HW131112   4.883   5.430   4.078
10071SOL    HW231113   4.784   5.523   4.169
10072SOL     OW31114   0.492   6.190   3.217
10072SOL    HW131115   0.440   6.150   3.292
10072SOL    HW231116   0.435   6.258   3.170
10073SOL     OW31117   6.551   4.801   5.458
10073SOL    HW131118   6.611   4.827   5.382
10073SOL    HW231119   6.515   4.884   5.501
10074SOL     OW31120   1.335   0.053   5.816
10074SOL    HW131121   1.299   0.058   5.909
10074SOL    HW231122   1.408   0.120   5.804
10075SOL     OW31123   1.350   2.213   3.359
10075SOL    HW131124   1.331   2.208   3.261
10075SOL    HW231125   1.426   2.152   3.381
10076SOL     OW31126   4.713   0.185   4.307
10076SOL    HW131127   4.643   0.209   4.240
10076SOL    HW231128   4.774   0.115   4.269
10077SOL     OW31129   4.005   2.381   6.619
10077SOL    HW131130   4.028   2.294   6.576
10077SOL    HW231131   3.951   2.436   6.555
10078SOL     OW31132   6.195   6.581   5.075
10078SOL    HW131133   6.179   6.583   5.174
10078SOL    HW231134   6.294   6.582   5.058
10079SOL     OW31135   1.078   3.070   1.620
10079SOL    HW131136   1.007   3.116   1.673
10079SOL    HW231137   1.053   3.070   1.524
10080SOL     OW31138   2.244   2.634   0.399
10080SOL    HW131139   2.342   2.649   0.390
10080SOL    HW231140   2.224   2.589   0.486
10081SOL     OW31141   0.617   0.343   6.324
10081SOL    HW131142   0.693   0.350   6.389
10081SOL    HW231143   0.539   0.396   6.357
10082SOL     OW31144   6.199   2.015   1.714
10082SOL    HW131145   6.232   1.921   1.713
10082SOL    HW231146   6.232   2.062   1.796
10083SOL     OW31147   4.310   0.187   3.917
10083SOL    HW131148   4.271   0.273   3.883
10083SOL    HW231149   4.238   0.130   3.955
10084SOL     OW31150   2.774   1.061   5.913
10084SOL    HW131151   2.679   1.029   5.910
10084SOL    HW231152   2.786   1.120   5.993
10085SOL     OW31153   0.814   4.892   2.817
10085SOL    HW131154   0.779   4.901   2.910
10085SOL    HW231155   0.742   4.855   2.758
10086SOL     OW31156   6.229   4.625   2.122
10086SOL    HW131157   6.164   4.623   2.046
10086SOL    HW231158   6.316   4.585   2.091
10087SOL     OW31159   1.181   0.815   4.331
10087SOL    HW131160   1.137   0.766   4.255
10087SOL    HW231161   1.143   0.782   4.417
10088SOL     OW31162   0.618   6.666   4.743
10088SOL    HW131163   0.696   6.656   4.806
10088SOL    HW231164   0.535   6.632   4.788
10089SOL     OW31165   2.579   1.339   2.773
10089SOL    HW131166   2.580   1.403   2.850
10089SOL    HW231167   2.540   1.384   2.693
10090SOL     OW31168   0.897   4.417   0.726
10090SOL    HW131169   0.983   4.442   0.683
10090SOL    HW231170   0.821   4.437   0.664
10091SOL     OW31171   0.758   3.343   4.543
10091SOL    HW131172   0.845   3.309   4.580
10091SOL    HW231173   0.715   3.273   4.487
10092SOL     OW31174   1.742   3.531   5.116
10092SOL    HW131175   1.817   3.465   5.111
10092SOL    HW231176   1.744   3.577   5.204
10093SOL     OW31177   0.584   5.483   5.266
10093SOL    HW131178   0.507   5.547   5.275
10093SOL    HW231179   0.556   5.392   5.297
10094SOL     OW31180   2.524   0.560   2.256
10094SOL    HW131181   2.521   0.660   2.256
10094SOL    HW231182   2.434   0.524   2.229
10095SOL     OW31183   6.838   1.601   5.874
10095SOL    HW131184   6.882   1.551   5.949
10095SOL    HW231185   6.853   1.552   5.788
10096SOL     OW31186   0.366   5.119   2.815
10096SOL    HW131187   0.367   5.046   2.747
10096SOL    HW231188   0.341   5.205   2.770
10097SOL     OW31189   1.145   1.544   0.986
10097SOL    HW131190   1.074   1.613   0.969
10097SOL    HW231191   1.104   1.462   1.025
10098SOL     OW31192   1.894   6.084   5.842
10098SOL    HW131193   1.822   6.103   5.909
10098SOL    HW231194   1.954   6.012   5.877
10099SOL     OW31195   6.931   3.525   5.277
10099SOL    HW131196   6.833   3.510   5.269
10099SOL    HW231197   6.954   3.618   5.245
10100SOL     OW31198   4.698   0.989   4.769
10100SOL    HW131199   4.666   1.080   4.796
10100SOL    HW231200   4.664   0.967   4.678
10101SOL     OW31201   0.346   4.561   1.986
10101SOL    HW131202   0.257   4.558   2.032
10101SOL    HW231203   0.340   4.513   1.898
10102SOL     OW31204   3.218   1.251   2.333
10102SOL    HW131205   3.283   1.303   2.279
10102SOL    HW231206   3.151   1.312   2.375
10103SOL     OW31207   2.834   1.233   4.989
10103SOL    HW131208   2.921   1.198   4.952
10103SOL    HW231209   2.782   1.157   5.027
10104SOL     OW31210   0.902   4.534   5.307
10104SOL    HW131211   0.912   4.549   5.406
10104SOL    HW231212   0.964   4.460   5.279
10105SOL     OW31213   1.549   1.266   6.403
10105SOL    HW131214   1.583   1.339   6.462
10105SOL    HW231215   1.478   1.215   6.451
10106SOL     OW31216   5.396   5.502   0.462
10106SOL    HW131217   5.477   5.525   0.407
10106SOL    HW231218   5.418   5.511   0.559
10107SOL     OW31219   6.222   1.052   5.969
10107SOL    HW131220   6.241   1.148   5.990
10107SOL    HW231221   6.287   1.020   5.900
10108SOL     OW31222   6.342   6.230   0.209
10108SOL    HW131223   6.291   6.298   0.156
10108SOL    HW231224   6.440   6.251   0.205
10109SOL     OW31225   4.779   5.908   3.425
10109SOL    HW131226   4.715   5.855   3.369
10109SOL    HW231227   4.871   5.872   3.415
10110SOL     OW31228   3.678   6.724   5.771
10110SOL    HW131229   3.771   6.752   5.745
10110SOL    HW231230   3.629   6.695   5.689
10111SOL     OW31231   6.615   3.352   3.424
10111SOL    HW131232   6.592   3.373   3.519
10111SOL    HW231233   6.650   3.259   3.418
10112SOL     OW31234   5.460   4.161   5.218
10112SOL    HW131235   5.546   4.200   5.184
10112SOL    HW231236   5.464   4.061   5.213
10113SOL     OW31237   3.914   0.997   6.935
10113SOL    HW131238   3.996   0.975   6.882
10113SOL    HW231239   3.852   0.918   6.933
10114SOL     OW31240   5.253   1.362   6.870
10114SOL    HW131241   5.184   1.434   6.867
10114SOL    HW231242   5.337   1.397   6.912
10115SOL     OW31243   1.950   2.518   3.815
10115SOL    HW131244   1.854   2.509   3.839
10115SOL    HW231245   1.987   2.603   3.853
10116SOL     OW31246   0.775   6.881   0.597
10116SOL    HW131247   0.680   6.910   0.590
10116SOL    HW231248   0.787   6.824   0.679
10117SOL     OW31249   6.152   0.346   5.132
10117SOL    HW131250   6.108   0.420   5.183
10117SOL    HW231251   6.238   0.321   5.178
10118SOL     OW31252   0.354   4.962   2.525
10118SOL    HW131253   0.411   4.890   2.485
10118SOL    HW231254   0.356   5.042   2.466
10119SOL     OW31255   2.324   0.633   4.651
10119SOL    HW131256   2.305   0.571   4.575
10119SOL    HW231257   2.266   0.610   4.729
10120SOL     OW31258   0.735   3.174   3.810
10120SOL    HW131259   0.664   3.242   3.831
10120SOL    HW231260   0.726   3.145   3.715
10121SOL     OW31261   6.734   4.927   5.196
10121SOL    HW131262   6.667   4.924   5.122
10121SOL    HW231263   6.826   4.926   5.157
10122SOL     OW31264   5.301   3.001   6.895
10122SOL    HW131265   5.233   2.939   6.935
10122SOL    HW231266   5.278   3.019   6.800
10123SOL     OW31267   0.760   5.695   0.801
10123SOL    HW131268   0.803   5.686   0.891
10123SOL    HW231269   0.803   5.632   0.737
10124SOL     OW31270   2.981   4.409   0.124
10124SOL    HW131271   2.902   4.367   0.168
10124SOL    HW231272   2.956   4.436   0.031
10125SOL     OW31273   2.091   0.622   2.973
10125SOL    HW131274   2.177   0.571   2.970
10125SOL    HW231275   2.075   0.655   3.066
10126SOL     OW31276   6.347   5.673   6.939
10126SOL    HW131277   6.444   5.668   6.915
10126SOL    HW231278   6.324   5.768   6.962
10127SOL     OW31279   3.198   5.434   5.573
10127SOL    HW131280   3.170   5.527   5.550
10127SOL    HW231281   3.150   5.369   5.514
10128SOL     OW31282   0.348   1.233   0.985
10128SOL    HW131283   0.277   1.280   1.037
10128SOL    HW231284   0.349   1.267   0.891
10129SOL     OW31285   5.306   2.729   3.829
10129SOL    HW131286   5.229   2.701   3.772
10129SOL    HW231287   5.278   2.728   3.925
10130SOL     OW31288   1.077   5.398   3.087
10130SOL    HW131289   1.086   5.300   3.070
10130SOL    HW231290   1.070   5.447   2.999
10131SOL     OW31291   0.905   1.907   2.376
10131SOL    HW131292   0.902   1.829   2.314
10131SOL    HW231293   0.912   1.991   2.323
10132SOL     OW31294   3.386   6.737   3.191
10132SOL    HW131295   3.316   6.719   3.122
10132SOL    HW231296   3.346   6.727   3.282
10133SOL     OW31297   4.224   6.165   3.456
10133SOL    HW131298   4.213   6.156   3.555
10133SOL    HW231299   4.318   6.188   3.435
10134SOL     OW31300   6.523   0.990   3.377
10134SOL    HW131301   6.512   1.001   3.475
10134SOL    HW231302   6.617   1.012   3.351
10135SOL     OW31303   4.846   3.869   2.691
10135SOL    HW131304   4.834   3.862   2.592
10135SOL    HW231305   4.777   3.814   2.737
10136SOL     OW31306   6.043   0.081   3.411
10136SOL    HW131307   5.995   0.131   3.483
10136SOL    HW231308   6.141   0.102   3.416
10137SOL     OW31309   6.712   5.591   4.539
10137SOL    HW131310   6.801   5.629   4.511
10137SOL    HW231311   6.711   5.582   4.639
10138SOL     OW31312   5.676   2.540   0.698
10138SOL    HW131313   5.645   2.473   0.765
10138SOL    HW231314   5.632   2.522   0.610
10139SOL     OW31315   3.961   3.005   2.866
10139SOL    HW131316   3.967   3.041   2.773
10139SOL    HW231317   4.050   3.015   2.912
10140SOL     OW31318   6.202   5.930   6.465
10140SOL    HW131319   6.289   5.940   6.512
10140SOL    HW231320   6.219   5.915   6.367
10141SOL     OW31321   2.706   2.010   4.493
10141SOL    HW131322   2.710   2.021   4.592
10141SOL    HW231323   2.798   2.013   4.455
10142SOL     OW31324   4.722   6.565   5.320
10142SOL    HW131325   4.693   6.633   5.254
10142SOL    HW231326   4.705   6.598   5.413
10143SOL     OW31327   4.325   6.939   1.214
10143SOL    HW131328   4.312   6.986   1.301
10143SOL    HW231329   4.355   6.846   1.231
10144SOL     OW31330   3.586   5.675   5.475
10144SOL    HW131331   3.535   5.634   5.550
10144SOL    HW231332   3.555   5.770   5.463
10145SOL     OW31333   2.632   6.029   5.946
10145SOL    HW131334   2.630   5.960   6.018
10145SOL    HW231335   2.653   5.985   5.859
10146SOL     OW31336   3.580   5.206   4.755
10146SOL    HW131337   3.654   5.266   4.784
10146SOL    HW231338   3.613   5.143   4.685
10147SOL     OW31339   4.743   4.365   4.628
10147SOL    HW131340   4.803   4.398   4.555
10147SOL    HW231341   4.688   4.441   4.662
10148SOL     OW31342   6.077   5.912   0.343
10148SOL    HW131343   6.117   5.853   0.272
10148SOL    HW231344   6.107   5.880   0.433
10149SOL     OW31345   4.895   1.690   0.522
10149SOL    HW131346   4.970   1.651   0.575
10149SOL    HW231347   4.921   1.693   0.425
10150SOL     OW31348   4.511   4.201   0.947
10150SOL    HW131349   4.485   4.297   0.955
10150SOL    HW231350   4.605   4.189   0.979
10151SOL     OW31351   1.555   0.039   6.627
10151SOL    HW131352   1.581   0.009   6.535
10151SOL    HW231353   1.561   6.987   6.690
10152SOL     OW31354   1.280   5.378   4.387
10152SOL    HW131355   1.278   5.278   4.395
10152SOL    HW231356   1.204   5.408   4.329
10153SOL     OW31357   4.413   5.882   3.708
10153SOL    HW131358   4.403   5.898   3.806
10153SOL    HW231359   4.474   5.951   3.668
10154SOL     OW31360   6.507   6.148   5.873
10154SOL    HW131361   6.567   6.154   5.953
10154SOL    HW231362   6.481   6.053   5.858
10155SOL     OW31363   4.237   1.408   6.249
10155SOL    HW131364   4.323   1.360   6.231
10155SOL    HW231365   4.224   1.480   6.181
10156SOL     OW31366   5.967   6.712   2.351
10156SOL    HW131367   6.019   6.627   2.365
10156SOL    HW231368   5.962   6.763   2.437
10157SOL     OW31369   5.840   1.744   5.691
10157SOL    HW131370   5.909   1.816   5.697
10157SOL    HW231371   5.749   1.785   5.699
10158SOL     OW31372   4.944   3.948   0.036
10158SOL    HW131373   4.949   3.854   0.070
10158SOL    HW231374   4.920   3.947   6.963
10159SOL     OW31375   2.482   3.219   5.889
10159SOL    HW131376   2.420   3.190   5.815
10159SOL    HW231377   2.521   3.308   5.866
10160SOL     OW31378   1.080   4.488   2.759
10160SOL    HW131379   1.123   4.556   2.700
10160SOL    HW231380   1.015   4.434   2.705
10161SOL     OW31381   3.453   4.928   0.461
10161SOL    HW131382   3.494   4.994   0.523
10161SOL    HW231383   3.367   4.965   0.424
10162SOL     OW31384   2.519   3.621   0.053
10162SOL    HW131385   2.475   3.579   0.132
10162SOL    HW231386   2.565   3.551   7.024
10163SOL     OW31387   5.839   4.116   6.487
10163SOL    HW131388   5.825   4.197   6.430
10163SOL    HW231389   5.810   4.034   6.437
10164SOL     OW31390   6.435   2.808   4.964
10164SOL    HW131391   6.390   2.868   5.030
10164SOL    HW231392   6.531   2.798   4.989
10165SOL     OW31393   1.454   1.897   4.339
10165SOL    HW131394   1.501   1.964   4.280
10165SOL    HW231395   1.446   1.934   4.431
10166SOL     OW31396   3.741   0.942   1.986
10166SOL    HW131397   3.839   0.928   1.998
10166SOL    HW231398   3.692   0.856   2.001
10167SOL     OW31399   5.117   1.129   6.504
10167SOL    HW131400   5.207   1.141   6.462
10167SOL    HW231401   5.067   1.216   6.501
10168SOL     OW31402   6.350   3.901   4.707
10168SOL    HW131403   6.352   3.845   4.624
10168SOL    HW231404   6.442   3.906   4.746
10169SOL     OW31405   6.855   4.194   3.201
10169SOL    HW131406   6.922   4.220   3.131
10169SOL    HW231407   6.791   4.269   3.215
10170SOL     OW31408   0.559   4.342   5.873
10170SOL    HW131409   0.613   4.425   5.888
10170SOL    HW231410   0.565   4.284   5.953
10171SOL     OW31411   6.314   3.643   6.630
10171SOL    HW131412   6.363   3.704   6.692
10171SOL    HW231413   6.366   3.634   6.545
10172SOL     OW31414   6.118   0.452   2.820
10172SOL    HW131415   6.170   0.512   2.758
10172SOL    HW231416   6.180   0.412   2.887
10173SOL     OW31417   1.851   2.384   1.210
10173SOL    HW131418   1.892   2.454   1.152
10173SOL    HW231419   1.855   2.412   1.306
10174SOL     OW31420   5.859   4.418   2.570
10174SOL    HW131421   5.761   4.401   2.585
10174SOL    HW231422   5.876   4.517   2.573
10175SOL     OW31423   6.416   2.804   4.284
10175SOL    HW131424   6.323   2.776   4.309
10175SOL    HW231425   6.434   2.778   4.189
10176SOL     OW31426   1.161   3.229   5.893
10176SOL    HW131427   1.170   3.139   5.936
10176SOL    HW231428   1.074   3.270   5.919
10177SOL     OW31429   2.752   0.180   0.159
10177SOL    HW131430   2.800   0.263   0.132
10177SOL    HW231431   2.816   0.116   0.201
10178SOL     OW31432   6.434   3.210   4.774
10178SOL    HW131433   6.491   3.285   4.807
10178SOL    HW231434   6.352   3.202   4.830
10179SOL     OW31435   0.818   1.996   5.985
10179SOL    HW131436   0.795   1.934   6.060
10179SOL    HW231437   0.880   2.068   6.018
10180SOL     OW31438   3.330   5.241   6.135
10180SOL    HW131439   3.386   5.158   6.139
10180SOL    HW231440   3.291   5.251   6.044
10181SOL     OW31441   5.409   3.612   2.228
10181SOL    HW131442   5.367   3.587   2.140
10181SOL    HW231443   5.490   3.557   2.244
10182SOL     OW31444   5.705   1.576   1.521
10182SOL    HW131445   5.781   1.640   1.534
10182SOL    HW231446   5.619   1.625   1.535
10183SOL     OW31447   1.437   1.844   6.503
10183SOL    HW131448   1.421   1.942   6.487
10183SOL    HW231449   1.355   1.804   6.545
10184SOL     OW31450   4.868   1.625   6.118
10184SOL    HW131451   4.874   1.681   6.201
10184SOL    HW231452   4.947   1.563   6.114
10185SOL     OW31453   4.718   6.437   0.810
10185SOL    HW131454   4.628   6.440   0.767
10185SOL    HW231455   4.708   6.434   0.909
10186SOL     OW31456   6.024   3.391   3.531
10186SOL    HW131457   5.980   3.433   3.610
10186SOL    HW231458   6.029   3.292   3.544
10187SOL     OW31459   1.057   1.666   1.994
10187SOL    HW131460   1.099   1.630   1.910
10187SOL    HW231461   0.958   1.669   1.983
10188SOL     OW31462   3.875   6.122   0.096
10188SOL    HW131463   3.851   6.218   0.077
10188SOL    HW231464   3.968   6.104   0.064
10189SOL     OW31465   2.675   0.202   5.712
10189SOL    HW131466   2.773   0.185   5.703
10189SOL    HW231467   2.646   0.267   5.642
10190SOL     OW31468   5.303   2.165   1.117
10190SOL    HW131469   5.360   2.225   1.173
10190SOL    HW231470   5.215   2.210   1.099
10191SOL     OW31471   4.817   4.297   7.022
10191SOL    HW131472   4.807   4.218   6.962
10191SOL    HW231473   4.861   4.269   0.082
10192SOL     OW31474   4.157   0.939   4.864
10192SOL    HW131475   4.145   1.034   4.834
10192SOL    HW231476   4.188   0.883   4.787
10193SOL     OW31477   4.397   3.914   1.697
10193SOL    HW131478   4.368   3.822   1.720
10193SOL    HW231479   4.317   3.974   1.692
10194SOL     OW31480   5.801   4.500   4.850
10194SOL    HW131481   5.871   4.519   4.919
10194SOL    HW231482   5.724   4.563   4.862
10195SOL     OW31483   5.952   4.570   1.299
10195SOL    HW131484   5.960   4.483   1.251
10195SOL    HW231485   5.967   4.556   1.397
10196SOL     OW31486   5.963   1.582   4.766
10196SOL    HW131487   5.919   1.507   4.716
10196SOL    HW231488   5.998   1.649   4.701
10197SOL     OW31489   0.236   1.693   4.835
10197SOL    HW131490   0.314   1.756   4.839
10197SOL    HW231491   0.186   1.706   4.749
10198SOL     OW31492   3.940   0.404   2.439
10198SOL    HW131493   3.860   0.463   2.436
10198SOL    HW231494   4.003   0.428   2.366
10199SOL     OW31495   1.723   2.793   5.868
10199SOL    HW131496   1.788   2.865   5.890
10199SOL    HW231497   1.708   2.791   5.769
10200SOL     OW31498   4.851   2.501   1.138
10200SOL    HW131499   4.820   2.586   1.181
10200SOL    HW231500   4.785   2.429   1.158
10201SOL     OW31501   1.022   4.684   0.623
10201SOL    HW131502   0.975   4.729   0.699
10201SOL    HW231503   1.049   4.753   0.556
10202SOL     OW31504   4.150   2.214   5.969
10202SOL    HW131505   4.154   2.270   5.886
10202SOL    HW231506   4.192   2.125   5.951
10203SOL     OW31507   5.048   2.702   4.580
10203SOL    HW131508   4.997   2.616   4.572
10203SOL    HW231509   5.092   2.722   4.492
10204SOL     OW31510   5.066   6.416   0.055
10204SOL    HW131511   5.015   6.502   0.053
10204SOL    HW231512   5.163   6.436   0.070
10205SOL     OW31513   0.625   1.619   0.351
10205SOL    HW131514   0.702   1.669   0.311
10205SOL    HW231515   0.658   1.562   0.426
10206SOL     OW31516   0.972   1.433   5.878
10206SOL    HW131517   0.877   1.448   5.851
10206SOL    HW231518   1.030   1.439   5.797
10207SOL     OW31519   1.398   1.504   6.352
10207SOL    HW131520   1.494   1.533   6.350
10207SOL    HW231521   1.383   1.432   6.284
10208SOL     OW31522   5.474   5.169   4.375
10208SOL    HW131523   5.403   5.223   4.419
10208SOL    HW231524   5.556   5.224   4.362
10209SOL     OW31525   6.796   0.128   5.915
10209SOL    HW131526   6.881   0.135   5.967
10209SOL    HW231527   6.779   0.215   5.869
10210SOL     OW31528   4.391   6.408   1.263
10210SOL    HW131529   4.300   6.441   1.234
10210SOL    HW231530   4.380   6.342   1.336
10211SOL     OW31531   3.395   6.713   4.651
10211SOL    HW131532   3.472   6.771   4.678
10211SOL    HW231533   3.394   6.702   4.552
10212SOL     OW31534   0.559   6.918   5.446
10212SOL    HW131535   0.569   6.862   5.528
10212SOL    HW231536   0.581   6.864   5.365
10213SOL     OW31537   5.049   2.786   0.774
10213SOL    HW131538   5.032   2.774   0.872
10213SOL    HW231539   5.041   2.697   0.729
10214SOL     OW31540   1.419   2.014   1.472
10214SOL    HW131541   1.427   1.992   1.375
10214SOL    HW231542   1.416   2.114   1.483
10215SOL     OW31543   4.109   3.627   2.872
10215SOL    HW131544   4.024   3.625   2.819
10215SOL    HW231545   4.087   3.621   2.970
10216SOL     OW31546   6.202   0.391   1.706
10216SOL    HW131547   6.260   0.361   1.781
10216SOL    HW231548   6.123   0.330   1.699
10217SOL     OW31549   2.978   0.752   3.698
10217SOL    HW131550   2.891   0.724   3.659
10217SOL    HW231551   2.968   0.841   3.743
10218SOL     OW31552   1.260   2.667   2.208
10218SOL    HW131553   1.197   2.681   2.132
10218SOL    HW231554   1.337   2.609   2.178
10219SOL     OW31555   0.226   1.263   1.923
10219SOL    HW131556   0.320   1.296   1.935
10219SOL    HW231557   0.179   1.320   1.856
10220SOL     OW31558   3.547   3.049   1.238
10220SOL    HW131559   3.536   3.025   1.335
10220SOL    HW231560   3.554   3.148   1.228
10221SOL     OW31561   0.538   6.114   2.951
10221SOL    HW131562   0.522   6.124   3.049
10221SOL    HW231563   0.451   6.107   2.904
10222SOL     OW31564   2.905   3.603   4.600
10222SOL    HW131565   2.870   3.512   4.624
10222SOL    HW231566   2.955   3.640   4.678
10223SOL     OW31567   0.890   5.696   1.037
10223SOL    HW131568   0.858   5.634   1.109
10223SOL    HW231569   0.933   5.776   1.078
10224SOL     OW31570   6.215   3.840   3.522
10224SOL    HW131571   6.228   3.762   3.461
10224SOL    HW231572   6.303   3.866   3.562
10225SOL     OW31573   1.542   3.941   5.715
10225SOL    HW131574   1.569   3.861   5.768
10225SOL    HW231575   1.481   3.913   5.641
10226SOL     OW31576   3.469   2.239   6.844
10226SOL    HW131577   3.525   2.268   6.921
10226SOL    HW231578   3.372   2.257   6.864
10227SOL     OW31579   5.554   3.950   0.916
10227SOL    HW131580   5.632   4.007   0.944
10227SOL    HW231581   5.471   3.984   0.959
10228SOL     OW31582   5.681   0.938   0.607
10228SOL    HW131583   5.757   0.945   0.543
10228SOL    HW231584   5.595   0.953   0.559
10229SOL     OW31585   0.345   3.465   5.076
10229SOL    HW131586   0.280   3.429   5.143
10229SOL    HW231587   0.395   3.389   5.033
10230SOL     OW31588   6.608   5.677   2.389
10230SOL    HW131589   6.637   5.771   2.407
10230SOL    HW231590   6.673   5.635   2.325
10231SOL     OW31591   1.901   6.528   3.096
10231SOL    HW131592   1.951   6.546   3.011
10231SOL    HW231593   1.958   6.557   3.174
10232SOL     OW31594   3.912   7.018   2.703
10232SOL    HW131595   3.875   7.022   2.796
10232SOL    HW231596   3.940   6.924   2.683
10233SOL     OW31597   4.055   4.209   6.166
10233SOL    HW131598   4.120   4.273   6.209
10233SOL    HW231599   3.966   4.253   6.156
10234SOL     OW31600   6.515   0.658   1.444
10234SOL    HW131601   6.473   0.652   1.535
10234SOL    HW231602   6.463   0.602   1.380
10235SOL     OW31603   0.718   1.126   3.089
10235SOL    HW131604   0.722   1.099   3.185
10235SOL    HW231605   0.653   1.068   3.040
10236SOL     OW31606   2.321   6.878   0.310
10236SOL    HW131607   2.351   6.932   0.388
10236SOL    HW231608   2.308   6.783   0.338
10237SOL     OW31609   0.396   3.446   6.991
10237SOL    HW131610   0.425   3.429   6.897
10237SOL    HW231611   0.333   3.523   6.993
10238SOL     OW31612   3.822   4.899   0.838
10238SOL    HW131613   3.757   4.860   0.773
10238SOL    HW231614   3.854   4.828   0.900
10239SOL     OW31615   1.660   2.934   4.793
10239SOL    HW131616   1.719   3.003   4.750
10239SOL    HW231617   1.571   2.974   4.813
10240SOL     OW31618   2.348   0.196   1.332
10240SOL    HW131619   2.298   0.265   1.384
10240SOL    HW231620   2.288   0.118   1.313
10241SOL     OW31621   4.454   2.167   1.612
10241SOL    HW131622   4.425   2.251   1.567
10241SOL    HW231623   4.396   2.151   1.692
10242SOL     OW31624   0.245   2.163   0.490
10242SOL    HW131625   0.342   2.153   0.511
10242SOL    HW231626   0.200   2.074   0.495
10243SOL     OW31627   2.404   4.752   0.558
10243SOL    HW131628   2.344   4.716   0.487
10243SOL    HW231629   2.471   4.682   0.583
10244SOL     OW31630   2.276   4.380   1.604
10244SOL    HW131631   2.371   4.406   1.591
10244SOL    HW231632   2.248   4.316   1.532
10245SOL     OW31633   3.861   4.205   0.491
10245SOL    HW131634   3.807   4.287   0.512
10245SOL    HW231635   3.811   4.124   0.520
10246SOL     OW31636   3.332   2.991   4.490
10246SOL    HW131637   3.398   2.958   4.558
10246SOL    HW231638   3.248   3.019   4.536
10247SOL     OW31639   0.902   3.904   4.405
10247SOL    HW131640   0.972   3.955   4.456
10247SOL    HW231641   0.903   3.933   4.309
10248SOL     OW31642   1.452   0.312   3.780
10248SOL    HW131643   1.497   0.271   3.700
10248SOL    HW231644   1.471   0.410   3.781
10249SOL     OW31645   2.131   4.663   6.891
10249SOL    HW131646   2.039   4.660   6.852
10249SOL    HW231647   2.198   4.642   6.819
10250SOL     OW31648   5.553   2.977   6.991
10250SOL    HW131649   5.572   2.962   6.894
10250SOL    HW231650   5.462   3.015   7.002
10251SOL     OW31651   1.581   0.271   4.171
10251SOL    HW131652   1.527   0.188   4.161
10251SOL    HW231653   1.523   0.351   4.159
10252SOL     OW31654   4.677   4.018   5.763
10252SOL    HW131655   4.683   4.074   5.846
10252SOL    HW231656   4.624   4.066   5.694
10253SOL     OW31657   4.051   6.673   6.845
10253SOL    HW131658   3.964   6.686   6.892
10253SOL    HW231659   4.123   6.655   6.911
10254SOL     OW31660   5.654   1.759   5.162
10254SOL    HW131661   5.716   1.719   5.094
10254SOL    HW231662   5.692   1.846   5.195
10255SOL     OW31663   3.029   5.695   1.340
10255SOL    HW131664   3.053   5.722   1.247
10255SOL    HW231665   3.002   5.599   1.341
10256SOL     OW31666   5.151   0.764   1.814
10256SOL    HW131667   5.114   0.713   1.892
10256SOL    HW231668   5.158   0.861   1.837
10257SOL     OW31669   2.621   5.015   2.908
10257SOL    HW131670   2.673   4.931   2.927
10257SOL    HW231671   2.580   5.009   2.817
10258SOL     OW31672   2.552   2.099   2.713
10258SOL    HW131673   2.564   2.104   2.812
10258SOL    HW231674   2.481   2.032   2.691
10259SOL     OW31675   0.681   4.176   4.014
10259SOL    HW131676   0.656   4.194   4.109
10259SOL    HW231677   0.781   4.177   4.005
10260SOL     OW31678   1.345   1.200   3.446
10260SOL    HW131679   1.338   1.297   3.471
10260SOL    HW231680   1.412   1.189   3.372
10261SOL     OW31681   0.187   3.846   0.574
10261SOL    HW131682   0.257   3.827   0.642
10261SOL    HW231683   0.127   3.767   0.564
10262SOL     OW31684   3.729   1.318   7.004
10262SOL    HW131685   3.827   1.297   7.006
10262SOL    HW231686   3.700   1.334   6.909
10263SOL     OW31687   6.130   0.999   1.071
10263SOL    HW131688   6.093   1.091   1.077
10263SOL    HW231689   6.116   0.963   0.978
10264SOL     OW31690   6.215   5.015   6.683
10264SOL    HW131691   6.315   5.016   6.681
10264SOL    HW231692   6.182   5.108   6.702
10265SOL     OW31693   2.310   2.671   7.007
10265SOL    HW131694   2.330   2.738   0.054
10265SOL    HW231695   2.317   2.715   6.918
10266SOL     OW31696   3.220   2.983   2.967
10266SOL    HW131697   3.152   3.039   3.014
10266SOL    HW231698   3.244   2.904   3.024
10267SOL     OW31699   5.819   0.575   0.524
10267SOL    HW131700   5.855   0.616   0.607
10267SOL    HW231701   5.721   0.592   0.518
10268SOL     OW31702   5.159   6.970   1.056
10268SOL    HW131703   5.190   6.944   1.148
10268SOL    HW231704   5.200   6.908   0.989
10269SOL     OW31705   1.953   2.350   6.317
10269SOL    HW131706   1.887   2.418   6.284
10269SOL    HW231707   1.931   2.325   6.411
10270SOL     OW31708   3.376   6.007   2.355
10270SOL    HW131709   3.476   6.017   2.355
10270SOL    HW231710   3.351   5.926   2.303
10271SOL     OW31711   2.736   2.164   0.813
10271SOL    HW131712   2.737   2.167   0.713
10271SOL    HW231713   2.658   2.110   0.845
10272SOL     OW31714   6.514   0.804   4.330
10272SOL    HW131715   6.414   0.799   4.338
10272SOL    HW231716   6.547   0.889   4.370
10273SOL     OW31717   2.684   5.103   4.152
10273SOL    HW131718   2.592   5.069   4.169
10273SOL    HW231719   2.706   5.092   4.055
10274SOL     OW31720   0.282   4.827   5.500
10274SOL    HW131721   0.332   4.911   5.479
10274SOL    HW231722   0.235   4.795   5.418
10275SOL     OW31723   0.332   0.591   3.128
10275SOL    HW131724   0.382   0.506   3.110
10275SOL    HW231725   0.289   0.623   3.044
10276SOL     OW31726   4.770   5.685   5.426
10276SOL    HW131727   4.682   5.705   5.382
10276SOL    HW231728   4.754   5.651   5.518
10277SOL     OW31729   1.141   6.794   4.181
10277SOL    HW131730   1.200   6.724   4.221
10277SOL    HW231731   1.188   6.836   4.104
10278SOL     OW31732   0.394   0.344   5.304
10278SOL    HW131733   0.443   0.269   5.348
10278SOL    HW231734   0.444   0.373   5.222
10279SOL     OW31735   2.487   5.623   4.459
10279SOL    HW131736   2.571   5.580   4.491
10279SOL    HW231737   2.436   5.558   4.403
10280SOL     OW31738   5.245   4.021   0.850
10280SOL    HW131739   5.292   3.949   0.798
10280SOL    HW231740   5.203   3.981   0.931
10281SOL     OW31741   6.315   2.061   3.156
10281SOL    HW131742   6.270   2.024   3.238
10281SOL    HW231743   6.270   2.026   3.074
10282SOL     OW31744   4.868   3.398   2.425
10282SOL    HW131745   4.912   3.387   2.336
10282SOL    HW231746   4.791   3.462   2.416
10283SOL     OW31747   0.153   3.861   1.222
10283SOL    HW131748   0.101   3.941   1.251
10283SOL    HW231749   0.202   3.882   1.138
10284SOL     OW31750   0.592   2.453   4.098
10284SOL    HW131751   0.520   2.500   4.047
10284SOL    HW231752   0.604   2.361   4.061
10285SOL     OW31753   4.275   6.201   3.729
10285SOL    HW131754   4.343   6.137   3.691
10285SOL    HW231755   4.323   6.278   3.770
10286SOL     OW31756   3.468   1.786   4.134
10286SOL    HW131757   3.509   1.825   4.217
10286SOL    HW231758   3.384   1.835   4.113
10287SOL     OW31759   1.980   6.259   1.913
10287SOL    HW131760   1.945   6.272   2.006
10287SOL    HW231761   2.080   6.250   1.916
10288SOL     OW31762   3.424   6.941   4.910
10288SOL    HW131763   3.367   6.863   4.936
10288SOL    HW231764   3.420   7.010   4.981
10289SOL     OW31765   3.224   6.431   0.391
10289SOL    HW131766   3.136   6.477   0.377
10289SOL    HW231767   3.285   6.492   0.442
10290SOL     OW31768   3.221   3.072   2.722
10290SOL    HW131769   3.201   3.013   2.799
10290SOL    HW231770   3.269   3.020   2.651
10291SOL     OW31771   3.312   0.616   2.392
10291SOL    HW131772   3.332   0.708   2.359
10291SOL    HW231773   3.229   0.618   2.448
10292SOL     OW31774   6.675   0.785   6.400
10292SOL    HW131775   6.662   0.834   6.314
10292SOL    HW231776   6.634   0.694   6.393
10293SOL     OW31777   0.657   3.744   3.834
10293SOL    HW131778   0.738   3.803   3.831
10293SOL    HW231779   0.598   3.772   3.910
10294SOL     OW31780   3.244   1.903   2.662
10294SOL    HW131781   3.191   1.988   2.661
10294SOL    HW231782   3.259   1.875   2.757
10295SOL     OW31783   1.112   2.453   6.545
10295SOL    HW131784   1.101   2.519   6.620
10295SOL    HW231785   1.026   2.404   6.531
10296SOL     OW31786   5.535   0.781   5.791
10296SOL    HW131787   5.541   0.696   5.739
10296SOL    HW231788   5.490   0.763   5.878
10297SOL     OW31789   3.017   1.769   6.355
10297SOL    HW131790   3.062   1.687   6.390
10297SOL    HW231791   2.919   1.763   6.372
10298SOL     OW31792   1.197   3.708   2.238
10298SOL    HW131793   1.123   3.765   2.274
10298SOL    HW231794   1.211   3.729   2.142
10299SOL     OW31795   4.785   6.516   2.525
10299SOL    HW131796   4.757   6.591   2.465
10299SOL    HW231797   4.872   6.539   2.569
10300SOL     OW31798   1.031   3.906   2.001
10300SOL    HW131799   1.120   3.949   2.011
10300SOL    HW231800   0.972   3.964   1.944
10301SOL     OW31801   4.314   1.371   5.620
10301SOL    HW131802   4.266   1.288   5.592
10301SOL    HW231803   4.260   1.419   5.689
10302SOL     OW31804   2.760   6.263   4.366
10302SOL    HW131805   2.786   6.295   4.275
10302SOL    HW231806   2.688   6.321   4.403
10303SOL     OW31807   0.933   6.101   3.966
10303SOL    HW131808   0.912   6.102   3.868
10303SOL    HW231809   0.857   6.061   4.016
10304SOL     OW31810   6.474   6.903   6.946
10304SOL    HW131811   6.540   6.941   7.011
10304SOL    HW231812   6.392   6.875   6.996
10305SOL     OW31813   2.594   3.720   5.716
10305SOL    HW131814   2.602   3.818   5.733
10305SOL    HW231815   2.543   3.677   5.790
10306SOL     OW31816   5.565   0.098   1.042
10306SOL    HW131817   5.501   0.135   1.109
10306SOL    HW231818   5.514   0.053   0.969
10307SOL     OW31819   2.890   1.133   4.381
10307SOL    HW131820   2.807   1.186   4.396
10307SOL    HW231821   2.969   1.183   4.417
10308SOL     OW31822   2.201   4.518   2.643
10308SOL    HW131823   2.289   4.555   2.615
10308SOL    HW231824   2.189   4.427   2.603
10309SOL     OW31825   5.846   0.232   5.467
10309SOL    HW131826   5.778   0.159   5.470
10309SOL    HW231827   5.826   0.298   5.540
10310SOL     OW31828   2.600   3.206   6.998
10310SOL    HW131829   2.573   3.139   0.042
10310SOL    HW231830   2.626   3.158   6.914
10311SOL     OW31831   5.568   5.832   6.722
10311SOL    HW131832   5.539   5.782   6.640
10311SOL    HW231833   5.493   5.888   6.756
10312SOL     OW31834   4.421   0.136   2.049
10312SOL    HW131835   4.510   0.104   2.081
10312SOL    HW231836   4.367   0.168   2.127
10313SOL     OW31837   4.487   5.593   3.057
10313SOL    HW131838   4.390   5.575   3.045
10313SOL    HW231839   4.503   5.627   3.150
10314SOL     OW31840   0.808   0.269   6.885
10314SOL    HW131841   0.899   0.233   6.865
10314SOL    HW231842   0.745   0.193   6.901
10315SOL     OW31843   5.142   6.567   3.530
10315SOL    HW131844   5.103   6.563   3.622
10315SOL    HW231845   5.114   6.652   3.485
10316SOL     OW31846   6.623   1.597   6.024
10316SOL    HW131847   6.703   1.594   5.963
10316SOL    HW231848   6.562   1.671   5.996
10317SOL     OW31849   3.521   5.943   6.047
10317SOL    HW131850   3.504   5.890   6.130
10317SOL    HW231851   3.532   5.880   5.970
10318SOL     OW31852   5.221   0.022   7.021
10318SOL    HW131853   5.173   0.072   0.068
10318SOL    HW231854   5.268   0.087   6.961
10319SOL     OW31855   0.339   4.968   4.721
10319SOL    HW131856   0.263   5.006   4.669
10319SOL    HW231857   0.408   5.039   4.737
10320SOL     OW31858   0.080   0.451   3.582
10320SOL    HW131859   0.064   0.487   3.674
10320SOL    HW231860   0.017   0.375   3.564
10321SOL     OW31861   5.913   2.105   1.925
10321SOL    HW131862   5.853   2.154   1.862
10321SOL    HW231863   5.886   2.008   1.927
10322SOL     OW31864   4.404   4.740   4.462
10322SOL    HW131865   4.367   4.711   4.550
10322SOL    HW231866   4.467   4.671   4.427
10323SOL     OW31867   5.940   4.414   5.418
10323SOL    HW131868   5.960   4.508   5.394
10323SOL    HW231869   6.005   4.383   5.489
10324SOL     OW31870   2.974   3.403   2.376
10324SOL    HW131871   3.067   3.398   2.411
10324SOL    HW231872   2.973   3.374   2.280
10325SOL     OW31873   0.320   5.638   2.368
10325SOL    HW131874   0.272   5.617   2.454
10325SOL    HW231875   0.418   5.644   2.385
10326SOL     OW31876   5.422   3.843   6.732
10326SOL    HW131877   5.406   3.821   6.636
10326SOL    HW231878   5.512   3.808   6.759
10327SOL     OW31879   2.607   3.998   1.145
10327SOL    HW131880   2.558   3.971   1.062
10327SOL    HW231881   2.699   4.026   1.122
10328SOL     OW31882   6.558   3.175   2.436
10328SOL    HW131883   6.532   3.227   2.355
10328SOL    HW231884   6.476   3.159   2.492
10329SOL     OW31885   3.035   0.893   3.113
10329SOL    HW131886   2.969   0.827   3.078
10329SOL    HW231887   3.046   0.880   3.212
10330SOL     OW31888   4.689   0.531   0.752
10330SOL    HW131889   4.740   0.613   0.728
10330SOL    HW231890   4.635   0.501   0.673
10331SOL     OW31891   6.379   6.516   6.576
10331SOL    HW131892   6.416   6.607   6.596
10331SOL    HW231893   6.411   6.451   6.644
10332SOL     OW31894   0.827   0.837   7.000
10332SOL    HW131895   0.844   0.825   0.073
10332SOL    HW231896   0.885   0.774   6.948
10333SOL     OW31897   0.544   5.730   4.486
10333SOL    HW131898   0.516   5.675   4.564
10333SOL    HW231899   0.464   5.775   4.446
10334SOL     OW31900   3.206   6.962   4.427
10334SOL    HW131901   3.172   6.956   4.520
10334SOL    HW231902   3.305   6.946   4.427
10335SOL     OW31903   0.518   4.638   6.750
10335SOL    HW131904   0.541   4.570   6.819
10335SOL    HW231905   0.591   4.642   6.682
10336SOL     OW31906   6.375   6.781   2.389
10336SOL    HW131907   6.452   6.817   2.338
10336SOL    HW231908   6.408   6.729   2.468
10337SOL     OW31909   6.370   5.375   0.136
10337SOL    HW131910   6.363   5.315   0.216
10337SOL    HW231911   6.420   5.458   0.160
10338SOL     OW31912   2.107   6.668   2.034
10338SOL    HW131913   2.132   6.763   2.011
10338SOL    HW231914   2.008   6.658   2.031
10339SOL     OW31915   6.318   3.531   6.362
10339SOL    HW131916   6.229   3.509   6.401
10339SOL    HW231917   6.308   3.605   6.295
10340SOL     OW31918   1.840   3.046   6.491
10340SOL    HW131919   1.886   2.978   6.433
10340SOL    HW231920   1.749   3.065   6.453
10341SOL     OW31921   2.077   3.283   2.348
10341SOL    HW131922   1.995   3.250   2.302
10341SOL    HW231923   2.069   3.381   2.364
10342SOL     OW31924   1.770   0.948   3.459
10342SOL    HW131925   1.705   0.871   3.461
10342SOL    HW231926   1.745   1.014   3.530
10343SOL     OW31927   2.258   5.385   0.813
10343SOL    HW131928   2.257   5.293   0.773
10343SOL    HW231929   2.266   5.379   0.912
10344SOL     OW31930   3.513   3.738   6.484
10344SOL    HW131931   3.585   3.751   6.551
10344SOL    HW231932   3.438   3.687   6.525
10345SOL     OW31933   1.023   3.059   5.456
10345SOL    HW131934   0.976   3.015   5.379
10345SOL    HW231935   1.066   3.143   5.424
10346SOL     OW31936   0.189   5.710   1.304
10346SOL    HW131937   0.245   5.686   1.383
10346SOL    HW231938   0.112   5.647   1.297
10347SOL     OW31939   4.393   1.351   3.457
10347SOL    HW131940   4.425   1.333   3.550
10347SOL    HW231941   4.472   1.365   3.397
10348SOL     OW31942   6.186   3.084   0.449
10348SOL    HW131943   6.198   3.025   0.529
10348SOL    HW231944   6.226   3.173   0.468
10349SOL     OW31945   0.796   0.109   6.600
10349SOL    HW131946   0.754   0.090   6.689
10349SOL    HW231947   0.747   0.059   6.528
10350SOL     OW31948   2.814   6.048   4.917
10350SOL    HW131949   2.768   6.123   4.869
10350SOL    HW231950   2.756   6.017   4.993
10351SOL     OW31951   4.787   5.486   5.600
10351SOL    HW131952   4.841   5.426   5.659
10351SOL    HW231953   4.724   5.430   5.545
10352SOL     OW31954   3.680   1.017   6.151
10352SOL    HW131955   3.628   0.940   6.115
10352SOL    HW231956   3.773   1.015   6.113
10353SOL     OW31957   6.674   3.052   4.738
10353SOL    HW131958   6.598   3.104   4.775
10353SOL    HW231959   6.751   3.113   4.720
10354SOL     OW31960   5.458   0.723   1.329
10354SOL    HW131961   5.489   0.720   1.424
10354SOL    HW231962   5.494   0.805   1.285
10355SOL     OW31963   2.582   6.258   2.486
10355SOL    HW131964   2.530   6.222   2.564
10355SOL    HW231965   2.598   6.356   2.500
10356SOL     OW31966   6.615   4.072   5.370
10356SOL    HW131967   6.651   4.139   5.435
10356SOL    HW231968   6.676   3.992   5.369
10357SOL     OW31969   2.147   2.532   6.541
10357SOL    HW131970   2.127   2.601   6.472
10357SOL    HW231971   2.083   2.456   6.532
10358SOL     OW31972   0.347   2.524   2.852
10358SOL    HW131973   0.432   2.569   2.877
10358SOL    HW231974   0.326   2.542   2.756
10359SOL     OW31975   0.206   1.536   1.453
10359SOL    HW131976   0.234   1.456   1.400
10359SOL    HW231977   0.286   1.594   1.469
10360SOL     OW31978   4.935   6.183   2.922
10360SOL    HW131979   4.988   6.250   2.973
10360SOL    HW231980   4.950   6.092   2.961
10361SOL     OW31981   3.125   5.837   2.508
10361SOL    HW131982   3.069   5.780   2.568
10361SOL    HW231983   3.101   5.819   2.413
10362SOL     OW31984   2.344   4.817   4.901
10362SOL    HW131985   2.440   4.787   4.903
10362SOL    HW231986   2.284   4.738   4.896
10363SOL     OW31987   5.214   0.422   2.750
10363SOL    HW131988   5.128   0.472   2.743
10363SOL    HW231989   5.285   0.482   2.786
10364SOL     OW31990   2.193   4.285   1.345
10364SOL    HW131991   2.229   4.192   1.351
10364SOL    HW231992   2.153   4.300   1.255
10365SOL     OW31993   4.651   5.366   0.458
10365SOL    HW131994   4.628   5.291   0.395
10365SOL    HW231995   4.651   5.452   0.408
10366SOL     OW31996   2.406   6.916   3.919
10366SOL    HW131997   2.452   7.005   3.927
10366SOL    HW231998   2.350   6.900   4.000
10367SOL     OW31999   6.105   2.766   3.135
10367SOL    HW132000   6.148   2.690   3.086
10367SOL    HW232001   6.013   2.782   3.098
10368SOL     OW32002   2.148   1.308   2.142
10368SOL    HW132003   2.210   1.247   2.191
10368SOL    HW232004   2.104   1.370   2.207
10369SOL     OW32005   4.031   1.699   0.984
10369SOL    HW132006   4.008   1.792   1.014
10369SOL    HW232007   4.107   1.665   1.038
10370SOL     OW32008   4.058   0.991   5.101
10370SOL    HW132009   4.107   0.981   5.014
10370SOL    HW232010   3.991   0.917   5.110
10371SOL     OW32011   4.185   5.904   5.140
10371SOL    HW132012   4.236   5.951   5.213
10371SOL    HW232013   4.222   5.931   5.051
10372SOL     OW32014   2.336   0.917   4.332
10372SOL    HW132015   2.390   0.984   4.383
10372SOL    HW232016   2.258   0.888   4.388
10373SOL     OW32017   0.796   6.256   4.720
10373SOL    HW132018   0.864   6.241   4.792
10373SOL    HW232019   0.797   6.178   4.657
10374SOL     OW32020   3.190   1.617   3.337
10374SOL    HW132021   3.168   1.673   3.416
10374SOL    HW232022   3.161   1.523   3.354
10375SOL     OW32023   5.633   2.041   1.193
10375SOL    HW132024   5.700   1.997   1.253
10375SOL    HW232025   5.596   2.121   1.239
10376SOL     OW32026   0.016   1.160   3.530
10376SOL    HW132027   0.065   1.083   3.489
10376SOL    HW232028   0.059   1.183   3.617
10377SOL     OW32029   0.247   0.680   3.953
10377SOL    HW132030   0.233   0.591   3.996
10377SOL    HW232031   0.344   0.699   3.945
10378SOL     OW32032   6.583   0.512   6.349
10378SOL    HW132033   6.501   0.468   6.312
10378SOL    HW232034   6.609   0.469   6.435
10379SOL     OW32035   5.230   0.620   4.923
10379SOL    HW132036   5.299   0.692   4.911
10379SOL    HW232037   5.160   0.629   4.852
10380SOL     OW32038   5.268   0.119   2.432
10380SOL    HW132039   5.289   0.042   2.372
10380SOL    HW232040   5.251   0.086   2.524
10381SOL     OW32041   4.606   4.943   5.548
10381SOL    HW132042   4.606   5.042   5.530
10381SOL    HW232043   4.536   4.899   5.491
10382SOL     OW32044   2.455   5.409   6.606
10382SOL    HW132045   2.447   5.310   6.595
10382SOL    HW232046   2.370   5.452   6.574
10383SOL     OW32047   0.853   2.497   1.373
10383SOL    HW132048   0.776   2.559   1.384
10383SOL    HW232049   0.932   2.547   1.337
10384SOL     OW32050   6.596   6.626   0.353
10384SOL    HW132051   6.566   6.701   0.411
10384SOL    HW232052   6.695   6.616   0.359
10385SOL     OW32053   6.371   0.918   6.179
10385SOL    HW132054   6.334   0.953   6.265
10385SOL    HW232055   6.318   0.954   6.102
10386SOL     OW32056   6.212   2.878   5.123
10386SOL    HW132057   6.169   2.961   5.159
10386SOL    HW232058   6.273   2.840   5.192
10387SOL     OW32059   1.907   2.853   3.292
10387SOL    HW132060   1.936   2.758   3.280
10387SOL    HW232061   1.833   2.874   3.229
10388SOL     OW32062   1.548   5.044   3.146
10388SOL    HW132063   1.628   5.070   3.199
10388SOL    HW232064   1.473   5.108   3.164
10389SOL     OW32065   0.846   4.810   3.730
10389SOL    HW132066   0.813   4.756   3.808
10389SOL    HW232067   0.905   4.753   3.673
10390SOL     OW32068   1.062   3.108   3.170
10390SOL    HW132069   1.112   3.185   3.129
10390SOL    HW232070   1.097   3.092   3.263
10391SOL     OW32071   2.516   6.299   6.493
10391SOL    HW132072   2.501   6.397   6.483
10391SOL    HW232073   2.534   6.258   6.403
10392SOL     OW32074   6.492   5.107   0.944
10392SOL    HW132075   6.568   5.151   0.991
10392SOL    HW232076   6.453   5.170   0.877
10393SOL     OW32077   0.818   1.108   4.215
10393SOL    HW132078   0.913   1.128   4.236
10393SOL    HW232079   0.783   1.039   4.278
10394SOL     OW32080   2.387   6.273   0.033
10394SOL    HW132081   2.354   6.335   0.104
10394SOL    HW232082   2.383   6.319   6.969
10395SOL     OW32083   0.380   0.698   5.095
10395SOL    HW132084   0.293   0.673   5.138
10395SOL    HW232085   0.377   0.675   4.998
10396SOL     OW32086   1.128   6.957   4.879
10396SOL    HW132087   1.060   6.932   4.810
10396SOL    HW232088   1.098   6.923   4.968
10397SOL     OW32089   3.514   1.561   3.336
10397SOL    HW132090   3.419   1.587   3.316
10397SOL    HW232091   3.547   1.498   3.266
10398SOL     OW32092   6.021   2.810   2.205
10398SOL    HW132093   6.120   2.804   2.218
10398SOL    HW232094   6.000   2.835   2.111
10399SOL     OW32095   5.561   2.665   5.146
10399SOL    HW132096   5.557   2.760   5.178
10399SOL    HW232097   5.481   2.646   5.089
10400SOL     OW32098   2.817   5.698   2.438
10400SOL    HW132099   2.874   5.698   2.520
10400SOL    HW232100   2.792   5.792   2.416
10401SOL     OW32101   0.818   5.875   1.874
10401SOL    HW132102   0.758   5.805   1.912
10401SOL    HW232103   0.813   5.957   1.929
10402SOL     OW32104   0.461   3.352   4.488
10402SOL    HW132105   0.528   3.281   4.468
10402SOL    HW232106   0.475   3.431   4.428
10403SOL     OW32107   5.627   0.892   2.020
10403SOL    HW132108   5.617   0.988   1.995
10403SOL    HW232109   5.616   0.835   1.938
10404SOL     OW32110   0.600   6.390   3.994
10404SOL    HW132111   0.608   6.425   4.088
10404SOL    HW232112   0.587   6.467   3.931
10405SOL     OW32113   1.648   6.371   5.929
10405SOL    HW132114   1.650   6.348   5.832
10405SOL    HW232115   1.661   6.289   5.984
10406SOL     OW32116   2.251   4.227   5.865
10406SOL    HW132117   2.339   4.215   5.910
10406SOL    HW232118   2.259   4.296   5.793
10407SOL     OW32119   0.547   2.219   6.932
10407SOL    HW132120   0.506   2.302   6.972
10407SOL    HW232121   0.541   2.144   6.998
10408SOL     OW32122   4.909   5.510   2.946
10408SOL    HW132123   4.916   5.522   2.847
10408SOL    HW232124   4.840   5.440   2.966
10409SOL     OW32125   6.921   4.615   2.338
10409SOL    HW132126   6.915   4.619   2.438
10409SOL    HW232127   6.878   4.696   2.299
10410SOL     OW32128   4.547   0.593   1.013
10410SOL    HW132129   4.561   0.637   1.102
10410SOL    HW232130   4.634   0.555   0.981
10411SOL     OW32131   2.108   4.522   2.950
10411SOL    HW132132   2.153   4.592   3.004
10411SOL    HW232133   2.166   4.495   2.873
10412SOL     OW32134   0.824   2.139   0.504
10412SOL    HW132135   0.868   2.107   0.420
10412SOL    HW232136   0.815   2.239   0.501
10413SOL     OW32137   7.007   2.343   7.014
10413SOL    HW132138   6.942   2.289   0.042
10413SOL    HW232139   7.010   2.436   0.025
10414SOL     OW32140   5.822   6.566   5.954
10414SOL    HW132141   5.836   6.470   5.976
10414SOL    HW232142   5.911   6.613   5.949
10415SOL     OW32143   0.475   5.954   3.677
10415SOL    HW132144   0.506   5.859   3.676
10415SOL    HW232145   0.535   6.009   3.618
10416SOL     OW32146   5.962   1.292   5.339
10416SOL    HW132147   5.981   1.262   5.432
10416SOL    HW232148   5.990   1.221   5.274
10417SOL     OW32149   3.859   4.851   4.130
10417SOL    HW132150   3.857   4.817   4.224
10417SOL    HW232151   3.939   4.814   4.083
10418SOL     OW32152   6.271   3.829   6.854
10418SOL    HW132153   6.283   3.738   6.893
10418SOL    HW232154   6.359   3.876   6.851
10419SOL     OW32155   3.045   1.370   4.421
10419SOL    HW132156   3.117   1.365   4.351
10419SOL    HW232157   3.013   1.464   4.429
10420SOL     OW32158   6.951   3.616   3.180
10420SOL    HW132159   6.989   3.695   3.227
10420SOL    HW232160   6.854   3.609   3.199
10421SOL     OW32161   1.137   4.338   4.602
10421SOL    HW132162   1.072   4.291   4.662
10421SOL    HW232163   1.129   4.437   4.616
10422SOL     OW32164   6.496   3.628   4.947
10422SOL    HW132165   6.493   3.627   4.847
10422SOL    HW232166   6.403   3.631   4.984
10423SOL     OW32167   3.146   5.034   3.744
10423SOL    HW132168   3.151   4.959   3.678
10423SOL    HW232169   3.153   4.997   3.837
10424SOL     OW32170   3.778   1.206   0.599
10424SOL    HW132171   3.721   1.145   0.654
10424SOL    HW232172   3.875   1.185   0.615
10425SOL     OW32173   1.972   1.668   0.953
10425SOL    HW132174   1.907   1.607   0.998
10425SOL    HW232175   1.923   1.745   0.912
10426SOL     OW32176   6.161   2.370   6.045
10426SOL    HW132177   6.213   2.346   6.127
10426SOL    HW232178   6.194   2.457   6.009
10427SOL     OW32179   5.704   6.984   4.171
10427SOL    HW132180   5.635   6.931   4.120
10427SOL    HW232181   5.792   6.935   4.167
10428SOL     OW32182   2.547   0.531   4.212
10428SOL    HW132183   2.488   0.546   4.133
10428SOL    HW232184   2.562   0.618   4.259
10429SOL     OW32185   0.748   2.736   1.966
10429SOL    HW132186   0.757   2.672   1.890
10429SOL    HW232187   0.832   2.791   1.973
10430SOL     OW32188   2.944   0.109   3.610
10430SOL    HW132189   3.003   0.143   3.683
10430SOL    HW232190   2.997   0.047   3.551
10431SOL     OW32191   3.553   0.339   3.206
10431SOL    HW132192   3.551   0.241   3.188
10431SOL    HW232193   3.519   0.356   3.299
10432SOL     OW32194   1.077   5.390   5.769
10432SOL    HW132195   1.136   5.323   5.814
10432SOL    HW232196   1.124   5.425   5.688
10433SOL     OW32197   2.579   0.054   2.683
10433SOL    HW132198   2.644   7.003   2.677
10433SOL    HW232199   2.490   0.019   2.714
10434SOL     OW32200   4.630   6.833   5.491
10434SOL    HW132201   4.608   6.929   5.476
10434SOL    HW232202   4.563   6.792   5.552
10435SOL     OW32203   2.286   2.037   0.003
10435SOL    HW132204   2.381   2.060   0.025
10435SOL    HW232205   2.271   2.050   6.930
10436SOL     OW32206   6.425   3.472   5.286
10436SOL    HW132207   6.464   3.397   5.338
10436SOL    HW232208   6.354   3.518   5.341
10437SOL     OW32209   5.300   6.443   4.710
10437SOL    HW132210   5.369   6.412   4.776
10437SOL    HW232211   5.236   6.368   4.692
10438SOL     OW32212   6.887   6.384   6.723
10438SOL    HW132213   6.900   6.286   6.732
10438SOL    HW232214   6.801   6.403   6.676
10439SOL     OW32215   6.725   6.441   5.242
10439SOL    HW132216   6.740   6.458   5.340
10439SOL    HW232217   6.741   6.526   5.191
10440SOL     OW32218   0.028   2.558   0.412
10440SOL    HW132219   0.055   2.639   0.463
10440SOL    HW232220   0.010   2.483   0.475
10441SOL     OW32221   3.974   1.896   0.547
10441SOL    HW132222   3.989   1.836   0.468
10441SOL    HW232223   3.918   1.848   0.615
10442SOL     OW32224   2.266   1.547   6.132
10442SOL    HW132225   2.226   1.605   6.061
10442SOL    HW232226   2.360   1.575   6.148
10443SOL     OW32227   0.497   1.730   3.118
10443SOL    HW132228   0.593   1.701   3.118
10443SOL    HW232229   0.468   1.750   3.212
10444SOL     OW32230   4.042   5.925   4.327
10444SOL    HW132231   4.015   6.015   4.294
10444SOL    HW232232   4.065   5.866   4.250
10445SOL     OW32233   1.291   3.849   3.134
10445SOL    HW132234   1.366   3.786   3.159
10445SOL    HW232235   1.235   3.807   3.063
10446SOL     OW32236   1.730   4.082   5.578
10446SOL    HW132237   1.731   4.181   5.592
10446SOL    HW232238   1.654   4.042   5.629
10447SOL     OW32239   0.331   2.099   3.174
10447SOL    HW132240   0.350   2.074   3.079
10447SOL    HW232241   0.260   2.038   3.210
10448SOL     OW32242   2.737   6.351   2.906
10448SOL    HW132243   2.663   6.395   2.854
10448SOL    HW232244   2.735   6.384   3.001
10449SOL     OW32245   3.779   5.345   4.846
10449SOL    HW132246   3.847   5.272   4.846
10449SOL    HW232247   3.824   5.433   4.860
10450SOL     OW32248   6.900   0.896   6.034
10450SOL    HW132249   6.890   0.993   6.013
10450SOL    HW232250   6.809   0.856   6.046
10451SOL     OW32251   3.021   0.781   3.372
10451SOL    HW132252   3.049   0.809   3.464
10451SOL    HW232253   3.024   0.681   3.366
10452SOL     OW32254   0.056   3.715   4.266
10452SOL    HW132255   0.123   3.674   4.203
10452SOL    HW232256   0.085   3.807   4.289
10453SOL     OW32257   3.877   5.975   3.459
10453SOL    HW132258   3.860   6.064   3.501
10453SOL    HW232259   3.933   5.919   3.521
10454SOL     OW32260   6.620   0.893   6.080
10454SOL    HW132261   6.644   0.986   6.054
10454SOL    HW232262   6.528   0.892   6.118
10455SOL     OW32263   6.317   5.845   3.623
10455SOL    HW132264   6.413   5.825   3.644
10455SOL    HW232265   6.309   5.939   3.590
10456SOL     OW32266   0.936   5.226   6.785
10456SOL    HW132267   0.974   5.151   6.839
10456SOL    HW232268   0.889   5.189   6.704
10457SOL     OW32269   3.212   2.432   6.654
10457SOL    HW132270   3.281   2.382   6.601
10457SOL    HW232271   3.157   2.367   6.707
10458SOL     OW32272   6.953   5.847   6.657
10458SOL    HW132273   6.941   5.748   6.667
10458SOL    HW232274   6.874   5.885   6.610
10459SOL     OW32275   6.878   5.061   0.388
10459SOL    HW132276   6.933   5.120   0.329
10459SOL    HW232277   6.807   5.116   0.433
10460SOL     OW32278   0.532   2.099   0.478
10460SOL    HW132279   0.522   2.112   0.379
10460SOL    HW232280   0.628   2.106   0.503
10461SOL     OW32281   6.837   5.253   5.809
10461SOL    HW132282   6.788   5.185   5.754
10461SOL    HW232283   6.889   5.313   5.748
10462SOL     OW32284   4.313   2.165   0.813
10462SOL    HW132285   4.286   2.119   0.728
10462SOL    HW232286   4.236   2.167   0.876
10463SOL     OW32287   4.536   2.960   6.059
10463SOL    HW132288   4.544   3.011   6.145
10463SOL    HW232289   4.498   2.870   6.077
10464SOL     OW32290   6.415   4.963   2.334
10464SOL    HW132291   6.332   4.909   2.318
10464SOL    HW232292   6.462   4.979   2.247
10465SOL     OW32293   4.980   4.475   1.513
10465SOL    HW132294   4.995   4.412   1.589
10465SOL    HW232295   5.052   4.463   1.445
10466SOL     OW32296   6.027   5.242   6.828
10466SOL    HW132297   5.971   5.237   6.910
10466SOL    HW232298   5.986   5.308   6.764
10467SOL     OW32299   1.170   2.691   6.971
10467SOL    HW132300   1.134   2.687   0.040
10467SOL    HW232301   1.252   2.748   6.969
10468SOL     OW32302   2.663   4.688   3.574
10468SOL    HW132303   2.762   4.671   3.577
10468SOL    HW232304   2.638   4.723   3.484
10469SOL     OW32305   6.885   1.308   4.481
10469SOL    HW132306   6.874   1.355   4.393
10469SOL    HW232307   6.807   1.329   4.539
10470SOL     OW32308   2.315   2.711   3.417
10470SOL    HW132309   2.379   2.673   3.351
10470SOL    HW232310   2.352   2.701   3.509
10471SOL     OW32311   3.452   6.735   6.885
10471SOL    HW132312   3.390   6.664   6.917
10471SOL    HW232313   3.492   6.782   6.964
10472SOL     OW32314   3.516   5.019   6.100
10472SOL    HW132315   3.588   4.976   6.045
10472SOL    HW232316   3.524   4.990   6.195
10473SOL     OW32317   4.836   5.508   0.277
10473SOL    HW132318   4.913   5.547   0.227
10473SOL    HW232319   4.841   5.408   0.273
10474SOL     OW32320   5.072   0.998   4.086
10474SOL    HW132321   5.076   0.912   4.035
10474SOL    HW232322   5.026   0.983   4.174
10475SOL     OW32323   1.275   6.760   1.093
10475SOL    HW132324   1.194   6.817   1.085
10475SOL    HW232325   1.316   6.773   1.184
10476SOL     OW32326   3.590   5.713   6.656
10476SOL    HW132327   3.567   5.758   6.570
10476SOL    HW232328   3.679   5.669   6.648
10477SOL     OW32329   6.836   5.344   3.698
10477SOL    HW132330   6.796   5.429   3.664
10477SOL    HW232331   6.862   5.287   3.620
10478SOL     OW32332   5.660   0.789   0.163
10478SOL    HW132333   5.577   0.759   0.211
10478SOL    HW232334   5.739   0.741   0.201
10479SOL     OW32335   1.048   2.350   1.994
10479SOL    HW132336   1.137   2.307   2.009
10479SOL    HW232337   1.021   2.401   2.075
10480SOL     OW32338   2.184   0.365   2.487
10480SOL    HW132339   2.105   0.407   2.532
10480SOL    HW232340   2.267   0.389   2.537
10481SOL     OW32341   0.253   1.492   2.244
10481SOL    HW132342   0.230   1.536   2.331
10481SOL    HW232343   0.338   1.441   2.253
10482SOL     OW32344   5.105   4.104   4.229
10482SOL    HW132345   5.042   4.028   4.217
10482SOL    HW232346   5.067   4.186   4.186
10483SOL     OW32347   6.284   5.991   0.069
10483SOL    HW132348   6.186   6.006   0.060
10483SOL    HW232349   6.321   6.056   0.136
10484SOL     OW32350   6.230   0.789   2.112
10484SOL    HW132351   6.198   0.831   2.197
10484SOL    HW232352   6.185   0.832   2.034
10485SOL     OW32353   5.826   3.805   5.306
10485SOL    HW132354   5.866   3.714   5.309
10485SOL    HW232355   5.736   3.803   5.349
10486SOL     OW32356   5.375   2.957   1.727
10486SOL    HW132357   5.335   2.875   1.768
10486SOL    HW232358   5.302   3.017   1.694
10487SOL     OW32359   6.178   6.558   1.964
10487SOL    HW132360   6.081   6.533   1.955
10487SOL    HW232361   6.227   6.531   1.881
10488SOL     OW32362   2.810   2.471   6.196
10488SOL    HW132363   2.758   2.539   6.145
10488SOL    HW232364   2.845   2.512   6.280
10489SOL     OW32365   0.696   5.865   6.381
10489SOL    HW132366   0.689   5.924   6.462
10489SOL    HW232367   0.626   5.892   6.314
10490SOL     OW32368   6.770   1.263   3.522
10490SOL    HW132369   6.861   1.230   3.547
10490SOL    HW232370   6.765   1.362   3.537
10491SOL     OW32371   1.421   4.402   5.909
10491SOL    HW132372   1.471   4.335   5.854
10491SOL    HW232373   1.343   4.357   5.953
10492SOL     OW32374   5.180   3.574   5.157
10492SOL    HW132375   5.150   3.482   5.184
10492SOL    HW232376   5.117   3.642   5.194
10493SOL     OW32377   2.957   1.269   1.768
10493SOL    HW132378   2.919   1.341   1.711
10493SOL    HW232379   3.043   1.301   1.810
10494SOL     OW32380   6.066   2.033   4.517
10494SOL    HW132381   6.138   1.967   4.495
10494SOL    HW232382   5.997   1.989   4.574
10495SOL     OW32383   1.381   6.354   0.610
10495SOL    HW132384   1.445   6.290   0.653
10495SOL    HW232385   1.398   6.358   0.511
10496SOL     OW32386   0.207   7.007   6.189
10496SOL    HW132387   0.245   6.914   6.184
10496SOL    HW232388   0.155   7.017   6.273
10497SOL     OW32389   1.390   1.097   1.214
10497SOL    HW132390   1.414   1.000   1.211
10497SOL    HW232391   1.455   1.146   1.273
10498SOL     OW32392   2.284   6.576   6.051
10498SOL    HW132393   2.373   6.553   6.012
10498SOL    HW232394   2.212   6.536   5.994
10499SOL     OW32395   3.274   5.778   3.358
10499SOL    HW132396   3.183   5.819   3.357
10499SOL    HW232397   3.285   5.717   3.279
10500SOL     OW32398   1.497   1.913   6.011
10500SOL    HW132399   1.445   1.949   5.934
10500SOL    HW232400   1.435   1.891   6.086
10501SOL     OW32401   1.690   3.820   2.730
10501SOL    HW132402   1.665   3.799   2.635
10501SOL    HW232403   1.667   3.915   2.750
10502SOL     OW32404   3.203   6.165   6.402
10502SOL    HW132405   3.247   6.214   6.328
10502SOL    HW232406   3.272   6.124   6.462
10503SOL     OW32407   2.991   2.502   6.835
10503SOL    HW132408   2.983   2.440   6.757
10503SOL    HW232409   2.937   2.466   6.911
10504SOL     OW32410   2.824   3.730   1.106
10504SOL    HW132411   2.825   3.822   1.144
10504SOL    HW232412   2.915   3.689   1.114
10505SOL     OW32413   6.747   5.947   1.553
10505SOL    HW132414   6.767   5.920   1.459
10505SOL    HW232415   6.721   6.044   1.555
10506SOL     OW32416   0.331   4.107   5.944
10506SOL    HW132417   0.351   4.126   5.848
10506SOL    HW232418   0.402   4.048   5.982
10507SOL     OW32419   0.969   0.380   6.015
10507SOL    HW132420   0.916   0.323   6.078
10507SOL    HW232421   1.018   0.321   5.951
10508SOL     OW32422   5.503   4.210   3.179
10508SOL    HW132423   5.503   4.296   3.128
10508SOL    HW232424   5.566   4.146   3.136
10509SOL     OW32425   1.531   6.723   6.860
10509SOL    HW132426   1.533   6.679   6.950
10509SOL    HW232427   1.614   6.777   6.847
10510SOL     OW32428   6.292   5.722   0.195
10510SOL    HW132429   6.211   5.666   0.209
10510SOL    HW232430   6.321   5.716   0.099
10511SOL     OW32431   4.241   2.961   0.421
10511SOL    HW132432   4.190   3.039   0.457
10511SOL    HW232433   4.182   2.880   0.421
10512SOL     OW32434   4.218   6.996   5.583
10512SOL    HW132435   4.249   6.902   5.575
10512SOL    HW232436   4.131   6.998   5.632
10513SOL     OW32437   0.607   2.564   6.843
10513SOL    HW132438   0.675   2.630   6.874
10513SOL    HW232439   0.519   2.586   6.885
10514SOL     OW32440   0.260   4.578   0.630
10514SOL    HW132441   0.265   4.631   0.545
10514SOL    HW232442   0.187   4.510   0.621
10515SOL     OW32443   6.803   1.944   3.280
10515SOL    HW132444   6.846   1.939   3.370
10515SOL    HW232445   6.722   2.003   3.285
10516SOL     OW32446   4.044   1.023   5.727
10516SOL    HW132447   4.053   1.074   5.641
10516SOL    HW232448   4.079   0.930   5.715
10517SOL     OW32449   6.909   1.651   2.315
10517SOL    HW132450   6.861   1.682   2.397
10517SOL    HW232451   6.853   1.584   2.266
10518SOL     OW32452   0.840   6.557   1.007
10518SOL    HW132453   0.828   6.481   0.943
10518SOL    HW232454   0.763   6.560   1.070
10519SOL     OW32455   3.380   3.243   5.778
10519SOL    HW132456   3.302   3.271   5.721
10519SOL    HW232457   3.391   3.307   5.853
10520SOL     OW32458   3.543   2.697   0.135
10520SOL    HW132459   3.557   2.790   0.169
10520SOL    HW232460   3.611   2.676   0.065
10521SOL     OW32461   6.572   5.734   1.272
10521SOL    HW132462   6.608   5.650   1.230
10521SOL    HW232463   6.472   5.727   1.278
10522SOL     OW32464   6.498   0.406   1.132
10522SOL    HW132465   6.575   0.462   1.161
10522SOL    HW232466   6.531   0.328   1.079
10523SOL     OW32467   0.447   5.561   6.235
10523SOL    HW132468   0.398   5.500   6.297
10523SOL    HW232469   0.541   5.530   6.225
10524SOL     OW32470   2.791   0.518   4.126
10524SOL    HW132471   2.814   0.440   4.068
10524SOL    HW232472   2.698   0.506   4.161
10525SOL     OW32473   2.035   6.226   4.963
10525SOL    HW132474   2.130   6.196   4.973
10525SOL    HW232475   2.032   6.326   4.962
10526SOL     OW32476   0.184   0.793   2.324
10526SOL    HW132477   0.196   0.703   2.366
10526SOL    HW232478   0.088   0.805   2.298
10527SOL     OW32479   0.846   2.983   4.713
10527SOL    HW132480   0.786   2.920   4.664
10527SOL    HW232481   0.791   3.048   4.765
10528SOL     OW32482   0.134   4.745   5.283
10528SOL    HW132483   0.043   4.721   5.316
10528SOL    HW232484   0.148   4.704   5.193
10529SOL     OW32485   6.664   0.169   3.727
10529SOL    HW132486   6.671   0.115   3.811
10529SOL    HW232487   6.581   0.224   3.730
10530SOL     OW32488   2.750   1.974   6.144
10530SOL    HW132489   2.768   1.927   6.057
10530SOL    HW232490   2.656   1.956   6.173
10531SOL     OW32491   1.920   3.046   4.757
10531SOL    HW132492   1.964   2.990   4.687
10531SOL    HW232493   1.932   3.004   4.846
10532SOL     OW32494   4.236   2.585   5.908
10532SOL    HW132495   4.290   2.661   5.870
10532SOL    HW232496   4.283   2.499   5.890
10533SOL     OW32497   2.612   1.559   5.853
10533SOL    HW132498   2.648   1.488   5.792
10533SOL    HW232499   2.582   1.637   5.798
10534SOL     OW32500   0.181   5.399   0.540
10534SOL    HW132501   0.235   5.325   0.501
10534SOL    HW232502   0.200   5.484   0.490
10535SOL     OW32503   0.522   1.389   2.300
10535SOL    HW132504   0.600   1.371   2.361
10535SOL    HW232505   0.505   1.309   2.243
10536SOL     OW32506   4.579   0.320   2.520
10536SOL    HW132507   4.492   0.304   2.474
10536SOL    HW232508   4.616   0.409   2.493
10537SOL     OW32509   1.944   5.121   2.119
10537SOL    HW132510   1.845   5.116   2.108
10537SOL    HW232511   1.982   5.028   2.124
10538SOL     OW32512   4.342   4.174   6.976
10538SOL    HW132513   4.369   4.109   0.023
10538SOL    HW232514   4.413   4.243   6.965
10539SOL     OW32515   0.601   3.700   6.583
10539SOL    HW132516   0.563   3.615   6.620
10539SOL    HW232517   0.661   3.679   6.506
10540SOL     OW32518   1.681   0.295   6.574
10540SOL    HW132519   1.617   0.340   6.512
10540SOL    HW232520   1.643   0.207   6.603
10541SOL     OW32521   3.572   3.368   0.019
10541SOL    HW132522   3.569   3.431   0.097
10541SOL    HW232523   3.662   3.325   0.014
10542SOL     OW32524   0.277   2.416   0.350
10542SOL    HW132525   0.188   2.444   0.315
10542SOL    HW232526   0.265   2.353   0.426
10543SOL     OW32527   0.608   1.387   5.687
10543SOL    HW132528   0.537   1.370   5.618
10543SOL    HW232529   0.676   1.450   5.649
10544SOL     OW32530   2.073   1.983   2.253
10544SOL    HW132531   2.070   2.048   2.177
10544SOL    HW232532   2.006   1.910   2.237
10545SOL     OW32533   6.537   0.878   2.469
10545SOL    HW132534   6.437   0.872   2.460
10545SOL    HW232535   6.559   0.942   2.542
10546SOL     OW32536   2.294   0.443   4.459
10546SOL    HW132537   2.349   0.360   4.456
10546SOL    HW232538   2.198   0.420   4.444
10547SOL     OW32539   4.432   1.805   1.184
10547SOL    HW132540   4.431   1.868   1.107
10547SOL    HW232541   4.512   1.746   1.178
10548SOL     OW32542   4.873   3.969   4.648
10548SOL    HW132543   4.942   3.900   4.626
10548SOL    HW232544   4.811   3.980   4.571
10549SOL     OW32545   0.875   1.035   1.958
10549SOL    HW132546   0.909   0.990   2.040
10549SOL    HW232547   0.924   1.121   1.944
10550SOL     OW32548   5.697   0.211   4.062
10550SOL    HW132549   5.626   0.213   3.993
10550SOL    HW232550   5.704   0.119   4.100
10551SOL     OW32551   1.047   2.141   6.080
10551SOL    HW132552   1.076   2.075   6.150
10551SOL    HW232553   1.049   2.233   6.117
10552SOL     OW32554   3.332   2.282   5.427
10552SOL    HW132555   3.424   2.244   5.417
10552SOL    HW232556   3.306   2.329   5.343
10553SOL     OW32557   1.129   5.501   0.242
10553SOL    HW132558   1.228   5.494   0.231
10553SOL    HW232559   1.099   5.593   0.220
10554SOL     OW32560   6.798   4.778   6.996
10554SOL    HW132561   6.782   4.868   0.012
10554SOL    HW232562   6.714   4.724   7.001
10555SOL     OW32563   3.797   1.361   1.697
10555SOL    HW132564   3.857   1.396   1.769
10555SOL    HW232565   3.706   1.403   1.706
10556SOL     OW32566   1.920   3.296   5.091
10556SOL    HW132567   1.994   3.327   5.032
10556SOL    HW232568   1.894   3.202   5.066
10557SOL     OW32569   6.810   2.911   3.140
10557SOL    HW132570   6.760   2.866   3.214
10557SOL    HW232571   6.810   2.853   3.059
10558SOL     OW32572   4.836   6.227   5.356
10558SOL    HW132573   4.778   6.231   5.275
10558SOL    HW232574   4.780   6.202   5.435
10559SOL     OW32575   4.716   2.075   0.598
10559SOL    HW132576   4.634   2.133   0.594
10559SOL    HW232577   4.791   2.127   0.639
10560SOL     OW32578   1.182   3.608   4.719
10560SOL    HW132579   1.196   3.576   4.625
10560SOL    HW232580   1.227   3.697   4.731
10561SOL     OW32581   2.052   4.324   6.962
10561SOL    HW132582   1.990   4.261   6.916
10561SOL    HW232583   2.039   4.319   0.036
10562SOL     OW32584   4.184   1.371   0.813
10562SOL    HW132585   4.252   1.425   0.861
10562SOL    HW232586   4.228   1.317   0.741
10563SOL     OW32587   1.680   2.049   5.492
10563SOL    HW132588   1.731   2.040   5.577
10563SOL    HW232589   1.743   2.061   5.416
10564SOL     OW32590   5.885   1.412   1.948
10564SOL    HW132591   5.944   1.455   1.880
10564SOL    HW232592   5.910   1.444   2.039
10565SOL     OW32593   6.225   1.458   4.902
10565SOL    HW132594   6.142   1.510   4.881
10565SOL    HW232595   6.287   1.516   4.955
10566SOL     OW32596   3.746   3.956   6.166
10566SOL    HW132597   3.807   3.946   6.087
10566SOL    HW232598   3.681   3.880   6.168
10567SOL     OW32599   1.810   3.670   4.140
10567SOL    HW132600   1.821   3.626   4.228
10567SOL    HW232601   1.712   3.683   4.121
10568SOL     OW32602   5.103   1.131   2.660
10568SOL    HW132603   5.132   1.040   2.689
10568SOL    HW232604   5.182   1.192   2.657
10569SOL     OW32605   5.630   2.663   4.442
10569SOL    HW132606   5.544   2.662   4.390
10569SOL    HW232607   5.646   2.754   4.478
10570SOL     OW32608   2.140   4.791   2.618
10570SOL    HW132609   2.142   4.691   2.618
10570SOL    HW232610   2.167   4.824   2.528
10571SOL     OW32611   6.368   6.189   3.232
10571SOL    HW132612   6.427   6.109   3.241
10571SOL    HW232613   6.282   6.173   3.280
10572SOL     OW32614   5.355   3.240   2.270
10572SOL    HW132615   5.384   3.183   2.193
10572SOL    HW232616   5.426   3.306   2.291
10573SOL     OW32617   6.123   5.221   4.834
10573SOL    HW132618   6.081   5.308   4.860
10573SOL    HW232619   6.145   5.169   4.917
10574SOL     OW32620   0.182   1.403   3.567
10574SOL    HW132621   0.132   1.432   3.485
10574SOL    HW232622   0.242   1.478   3.597
10575SOL     OW32623   1.025   0.435   5.217
10575SOL    HW132624   0.990   0.350   5.180
10575SOL    HW232625   1.069   0.488   5.144
10576SOL     OW32626   1.660   5.788   4.466
10576SOL    HW132627   1.651   5.783   4.367
10576SOL    HW232628   1.753   5.766   4.493
10577SOL     OW32629   1.785   3.411   5.930
10577SOL    HW132630   1.753   3.348   5.859
10577SOL    HW232631   1.849   3.476   5.890
10578SOL     OW32632   6.049   0.079   5.358
10578SOL    HW132633   6.017   7.009   5.351
10578SOL    HW232634   5.977   0.136   5.396
10579SOL     OW32635   4.672   1.906   0.356
10579SOL    HW132636   4.655   1.943   0.447
10579SOL    HW232637   4.701   1.981   0.295
10580SOL     OW32638   6.912   6.329   0.167
10580SOL    HW132639   6.929   6.407   0.106
10580SOL    HW232640   6.950   6.246   0.126
10581SOL     OW32641   5.598   0.365   3.233
10581SOL    HW132642   5.684   0.361   3.284
10581SOL    HW232643   5.560   0.273   3.224
10582SOL     OW32644   3.901   4.933   6.813
10582SOL    HW132645   3.824   4.870   6.822
10582SOL    HW232646   3.915   4.981   6.900
10583SOL     OW32647   3.985   1.259   6.979
10583SOL    HW132648   4.080   1.285   6.995
10583SOL    HW232649   3.981   1.166   6.943
10584SOL     OW32650   5.775   6.713   1.038
10584SOL    HW132651   5.683   6.716   0.998
10584SOL    HW232652   5.768   6.687   1.134
10585SOL     OW32653   0.613   3.247   6.354
10585SOL    HW132654   0.668   3.174   6.393
10585SOL    HW232655   0.516   3.222   6.361
10586SOL     OW32656   2.548   5.845   5.701
10586SOL    HW132657   2.532   5.788   5.620
10586SOL    HW232658   2.639   5.826   5.737
10587SOL     OW32659   5.832   3.332   0.961
10587SOL    HW132660   5.861   3.242   0.929
10587SOL    HW232661   5.863   3.402   0.897
10588SOL     OW32662   1.101   4.687   3.104
10588SOL    HW132663   1.165   4.629   3.154
10588SOL    HW232664   1.091   4.775   3.153
10589SOL     OW32665   5.608   1.978   3.861
10589SOL    HW132666   5.669   2.015   3.791
10589SOL    HW232667   5.567   1.893   3.829
10590SOL     OW32668   1.227   0.159   3.633
10590SOL    HW132669   1.274   0.246   3.648
10590SOL    HW232670   1.157   0.172   3.562
10591SOL     OW32671   1.130   1.851   6.611
10591SOL    HW132672   1.075   1.810   6.539
10591SOL    HW232673   1.086   1.836   6.699
10592SOL     OW32674   6.157   1.447   0.458
10592SOL    HW132675   6.190   1.534   0.423
10592SOL    HW232676   6.076   1.463   0.515
10593SOL     OW32677   1.829   5.681   1.666
10593SOL    HW132678   1.865   5.657   1.756
10593SOL    HW232679   1.899   5.729   1.613
10594SOL     OW32680   6.397   1.847   4.151
10594SOL    HW132681   6.416   1.769   4.090
10594SOL    HW232682   6.335   1.910   4.105
10595SOL     OW32683   3.868   6.499   6.305
10595SOL    HW132684   3.896   6.451   6.389
10595SOL    HW232685   3.791   6.558   6.326
10596SOL     OW32686   3.969   6.698   2.204
10596SOL    HW132687   3.974   6.786   2.250
10596SOL    HW232688   3.888   6.696   2.145
10597SOL     OW32689   1.650   0.998   4.794
10597SOL    HW132690   1.613   0.974   4.705
10597SOL    HW232691   1.645   1.097   4.806
10598SOL     OW32692   1.942   2.336   6.586
10598SOL    HW132693   1.924   2.273   6.662
10598SOL    HW232694   1.899   2.424   6.606
10599SOL     OW32695   5.853   1.328   6.844
10599SOL    HW132696   5.763   1.288   6.860
10599SOL    HW232697   5.919   1.256   6.825
10600SOL     OW32698   2.312   2.795   5.975
10600SOL    HW132699   2.284   2.831   5.885
10600SOL    HW232700   2.233   2.751   6.019
10601SOL     OW32701   2.943   6.507   6.116
10601SOL    HW132702   3.026   6.549   6.153
10601SOL    HW232703   2.964   6.459   6.032
10602SOL     OW32704   4.693   1.785   1.509
10602SOL    HW132705   4.712   1.745   1.419
10602SOL    HW232706   4.604   1.753   1.541
10603SOL     OW32707   2.050   5.536   4.194
10603SOL    HW132708   2.127   5.587   4.232
10603SOL    HW232709   2.061   5.530   4.094
10604SOL     OW32710   6.496   4.015   3.828
10604SOL    HW132711   6.424   4.025   3.898
10604SOL    HW232712   6.578   3.976   3.870
10605SOL     OW32713   1.175   5.354   6.428
10605SOL    HW132714   1.258   5.307   6.399
10605SOL    HW232715   1.125   5.386   6.348
10606SOL     OW32716   0.616   0.326   1.819
10606SOL    HW132717   0.555   0.405   1.809
10606SOL    HW232718   0.600   0.282   1.908
10607SOL     OW32719   4.994   4.524   6.995
10607SOL    HW132720   4.962   4.430   7.008
10607SOL    HW232721   5.056   4.527   6.916
10608SOL     OW32722   5.783   1.588   3.965
10608SOL    HW132723   5.860   1.525   3.982
10608SOL    HW232724   5.762   1.588   3.867
10609SOL     OW32725   4.026   6.514   0.840
10609SOL    HW132726   4.096   6.450   0.870
10609SOL    HW232727   3.957   6.525   0.912
10610SOL     OW32728   1.275   2.883   5.740
10610SOL    HW132729   1.316   2.956   5.686
10610SOL    HW232730   1.199   2.842   5.689
10611SOL     OW32731   5.728   2.646   6.060
10611SOL    HW132732   5.726   2.556   6.017
10611SOL    HW232733   5.821   2.683   6.056
10612SOL     OW32734   2.348   0.566   6.805
10612SOL    HW132735   2.415   0.596   6.738
10612SOL    HW232736   2.286   0.499   6.763
10613SOL     OW32737   0.476   6.427   5.644
10613SOL    HW132738   0.390   6.470   5.672
10613SOL    HW232739   0.459   6.333   5.615
10614SOL     OW32740   6.481   1.230   4.092
10614SOL    HW132741   6.403   1.173   4.119
10614SOL    HW232742   6.483   1.238   3.993
10615SOL     OW32743   5.164   5.414   5.027
10615SOL    HW132744   5.075   5.369   5.018
10615SOL    HW232745   5.151   5.508   5.056
10616SOL     OW32746   3.218   6.165   6.750
10616SOL    HW132747   3.132   6.115   6.747
10616SOL    HW232748   3.284   6.122   6.688
10617SOL     OW32749   2.276   2.295   0.545
10617SOL    HW132750   2.357   2.244   0.517
10617SOL    HW232751   2.303   2.366   0.612
10618SOL     OW32752   6.098   3.341   0.196
10618SOL    HW132753   6.144   3.273   0.253
10618SOL    HW232754   6.029   3.297   0.139
10619SOL     OW32755   1.136   4.200   4.359
10619SOL    HW132756   1.151   4.217   4.456
10619SOL    HW232757   1.192   4.262   4.305
10620SOL     OW32758   1.421   6.025   4.794
10620SOL    HW132759   1.350   6.093   4.817
10620SOL    HW232760   1.483   6.065   4.726
10621SOL     OW32761   1.875   6.299   0.275
10621SOL    HW132762   1.843   6.295   0.180
10621SOL    HW232763   1.952   6.236   0.287
10622SOL     OW32764   3.723   0.380   1.530
10622SOL    HW132765   3.675   0.332   1.603
10622SOL    HW232766   3.796   0.322   1.494
10623SOL     OW32767   5.726   2.370   3.912
10623SOL    HW132768   5.705   2.447   3.852
10623SOL    HW232769   5.642   2.322   3.935
10624SOL     OW32770   1.517   0.615   4.733
10624SOL    HW132771   1.435   0.670   4.720
10624SOL    HW232772   1.598   0.672   4.721
10625SOL     OW32773   0.564   3.149   0.202
10625SOL    HW132774   0.622   3.093   0.261
10625SOL    HW232775   0.489   3.188   0.256
10626SOL     OW32776   0.828   2.058   2.014
10626SOL    HW132777   0.866   2.067   2.106
10626SOL    HW232778   0.728   2.065   2.018
10627SOL     OW32779   6.602   6.540   3.640
10627SOL    HW132780   6.632   6.507   3.550
10627SOL    HW232781   6.660   6.500   3.711
10628SOL     OW32782   6.179   5.842   5.809
10628SOL    HW132783   6.162   5.938   5.789
10628SOL    HW232784   6.202   5.793   5.725
10629SOL     OW32785   2.532   5.424   5.570
10629SOL    HW132786   2.521   5.326   5.554
10629SOL    HW232787   2.442   5.467   5.581
10630SOL     OW32788   6.182   1.639   3.194
10630SOL    HW132789   6.091   1.616   3.160
10630SOL    HW232790   6.245   1.650   3.117
10631SOL     OW32791   0.831   0.006   4.027
10631SOL    HW132792   0.914   0.003   3.973
10631SOL    HW232793   0.853   7.016   4.124
10632SOL     OW32794   7.000   1.788   4.964
10632SOL    HW132795   0.056   1.760   4.912
10632SOL    HW232796   7.019   1.874   5.012
10633SOL     OW32797   2.631   5.666   1.648
10633SOL    HW132798   2.719   5.660   1.600
10633SOL    HW232799   2.642   5.632   1.741
10634SOL     OW32800   3.704   6.273   0.952
10634SOL    HW132801   3.693   6.314   0.861
10634SOL    HW232802   3.660   6.332   1.020
10635SOL     OW32803   2.270   0.926   1.163
10635SOL    HW132804   2.176   0.893   1.152
10635SOL    HW232805   2.328   0.886   1.093
10636SOL     OW32806   1.028   2.108   1.124
10636SOL    HW132807   1.064   2.108   1.217
10636SOL    HW232808   0.979   2.193   1.107
10637SOL     OW32809   3.368   4.185   4.561
10637SOL    HW132810   3.326   4.195   4.471
10637SOL    HW232811   3.414   4.270   4.586
10638SOL     OW32812   6.969   6.641   4.902
10638SOL    HW132813   6.954   6.674   4.808
10638SOL    HW232814   6.947   6.543   4.906
10639SOL     OW32815   1.794   0.955   5.204
10639SOL    HW132816   1.766   0.998   5.290
10639SOL    HW232817   1.714   0.914   5.160
10640SOL     OW32818   4.741   1.354   0.390
10640SOL    HW132819   4.670   1.387   0.452
10640SOL    HW232820   4.807   1.299   0.442
10641SOL     OW32821   5.990   1.491   7.013
10641SOL    HW132822   6.019   1.429   0.061
10641SOL    HW232823   5.924   1.445   6.954
10642SOL     OW32824   0.378   2.802   1.543
10642SOL    HW132825   0.300   2.832   1.598
10642SOL    HW232826   0.354   2.719   1.493
10643SOL     OW32827   2.490   3.518   5.432
10643SOL    HW132828   2.489   3.422   5.403
10643SOL    HW232829   2.585   3.549   5.440
10644SOL     OW32830   4.680   1.346   3.715
10644SOL    HW132831   4.776   1.320   3.709
10644SOL    HW232832   4.668   1.439   3.681
10645SOL     OW32833   2.413   6.993   4.908
10645SOL    HW132834   2.383   0.060   4.934
10645SOL    HW232835   2.460   6.950   4.986
10646SOL     OW32836   1.248   3.326   6.475
10646SOL    HW132837   1.348   3.322   6.472
10646SOL    HW232838   1.219   3.398   6.538
10647SOL     OW32839   6.893   5.163   0.837
10647SOL    HW132840   6.840   5.199   0.760
10647SOL    HW232841   6.893   5.063   0.833
10648SOL     OW32842   4.492   2.738   7.009
10648SOL    HW132843   4.528   2.831   7.002
10648SOL    HW232844   4.408   2.732   6.954
10649SOL     OW32845   6.938   4.941   5.811
10649SOL    HW132846   7.014   4.886   5.777
10649SOL    HW232847   6.903   4.901   5.896
10650SOL     OW32848   2.954   6.025   3.739
10650SOL    HW132849   2.904   6.054   3.821
10650SOL    HW232850   2.994   5.935   3.755
10651SOL     OW32851   4.645   6.161   6.414
10651SOL    HW132852   4.602   6.235   6.466
10651SOL    HW232853   4.599   6.150   6.326
10652SOL     OW32854   3.712   0.424   6.302
10652SOL    HW132855   3.655   0.372   6.239
10652SOL    HW232856   3.675   0.516   6.313
10653SOL     OW32857   5.343   3.842   3.964
10653SOL    HW132858   5.418   3.853   4.029
10653SOL    HW232859   5.256   3.859   4.010
10654SOL     OW32860   3.994   1.180   0.880
10654SOL    HW132861   4.045   1.264   0.859
10654SOL    HW232862   4.034   1.136   0.961
10655SOL     OW32863   2.847   6.144   1.106
10655SOL    HW132864   2.862   6.241   1.087
10655SOL    HW232865   2.760   6.115   1.066
10656SOL     OW32866   6.454   2.370   6.769
10656SOL    HW132867   6.395   2.332   6.841
10656SOL    HW232868   6.537   2.316   6.762
10657SOL     OW32869   6.302   0.742   1.057
10657SOL    HW132870   6.230   0.728   1.125
10657SOL    HW232871   6.369   0.806   1.092
10658SOL     OW32872   0.110   5.343   4.606
10658SOL    HW132873   0.023   5.297   4.619
10658SOL    HW232874   0.127   5.406   4.682
10659SOL     OW32875   6.151   0.553   0.348
10659SOL    HW132876   6.243   0.593   0.350
10659SOL    HW232877   6.154   0.467   0.297
10660SOL     OW32878   4.542   5.221   5.600
10660SOL    HW132879   4.522   5.307   5.552
10660SOL    HW232880   4.459   5.187   5.643
10661SOL     OW32881   0.416   6.610   2.654
10661SOL    HW132882   0.406   6.523   2.607
10661SOL    HW232883   0.344   6.619   2.723
10662SOL     OW32884   5.993   1.627   0.851
10662SOL    HW132885   6.084   1.665   0.834
10662SOL    HW232886   5.951   1.676   0.928
10663SOL     OW32887   6.795   0.340   0.171
10663SOL    HW132888   6.805   0.322   0.073
10663SOL    HW232889   6.883   0.326   0.217
10664SOL     OW32890   2.161   5.666   6.954
10664SOL    HW132891   2.237   5.716   6.912
10664SOL    HW232892   2.114   5.725   7.019
10665SOL     OW32893   6.473   1.728   1.041
10665SOL    HW132894   6.553   1.671   1.060
10665SOL    HW232895   6.480   1.814   1.092
10666SOL     OW32896   1.845   6.836   0.174
10666SOL    HW132897   1.816   6.922   0.131
10666SOL    HW232898   1.942   6.821   0.156
10667SOL     OW32899   3.232   2.023   5.434
10667SOL    HW132900   3.219   2.121   5.451
10667SOL    HW232901   3.166   1.971   5.488
10668SOL     OW32902   1.497   1.167   5.943
10668SOL    HW132903   1.508   1.208   5.852
10668SOL    HW232904   1.436   1.224   5.998
10669SOL     OW32905   1.206   6.889   0.186
10669SOL    HW132906   1.182   6.859   0.279
10669SOL    HW232907   1.240   6.983   0.189
10670SOL     OW32908   6.127   4.623   5.826
10670SOL    HW132909   6.149   4.678   5.746
10670SOL    HW232910   6.202   4.629   5.892
10671SOL     OW32911   2.119   1.158   3.638
10671SOL    HW132912   2.099   1.244   3.591
10671SOL    HW232913   2.129   1.085   3.570
10672SOL     OW32914   7.009   2.990   1.225
10672SOL    HW132915   6.923   2.959   1.185
10672SOL    HW232916   0.057   2.924   1.202
10673SOL     OW32917   2.694   2.996   5.392
10673SOL    HW132918   2.623   2.999   5.322
10673SOL    HW232919   2.670   3.058   5.467
10674SOL     OW32920   3.527   2.906   1.536
10674SOL    HW132921   3.431   2.883   1.547
10674SOL    HW232922   3.545   2.995   1.576
10675SOL     OW32923   0.175   0.159   5.779
10675SOL    HW132924   0.152   0.123   5.689
10675SOL    HW232925   0.195   0.257   5.770
10676SOL     OW32926   6.343   0.074   6.283
10676SOL    HW132927   6.393   0.122   6.355
10676SOL    HW232928   6.381   0.099   6.194
10677SOL     OW32929   0.234   0.548   0.806
10677SOL    HW132930   0.288   0.522   0.725
10677SOL    HW232931   0.205   0.643   0.797
10678SOL     OW32932   2.423   6.199   2.742
10678SOL    HW132933   2.367   6.155   2.671
10678SOL    HW232934   2.498   6.138   2.767
10679SOL     OW32935   5.464   4.871   4.648
10679SOL    HW132936   5.481   4.801   4.717
10679SOL    HW232937   5.538   4.938   4.648
10680SOL     OW32938   1.337   2.544   3.141
10680SOL    HW132939   1.276   2.623   3.145
10680SOL    HW232940   1.355   2.511   3.234
10681SOL     OW32941   7.013   1.793   6.073
10681SOL    HW132942   0.033   1.882   6.079
10681SOL    HW232943   7.023   1.744   6.159
10682SOL     OW32944   6.965   1.822   3.115
10682SOL    HW132945   6.919   1.851   3.198
10682SOL    HW232946   6.943   1.885   3.041
10683SOL     OW32947   2.008   1.181   4.766
10683SOL    HW132948   1.957   1.194   4.851
10683SOL    HW232949   1.960   1.225   4.691
10684SOL     OW32950   6.062   5.040   0.101
10684SOL    HW132951   6.103   4.988   0.026
10684SOL    HW232952   6.092   5.001   0.188
10685SOL     OW32953   0.133   2.887   2.641
10685SOL    HW132954   0.139   2.787   2.639
10685SOL    HW232955   0.155   2.920   2.732
10686SOL     OW32956   3.206   5.209   0.213
10686SOL    HW132957   3.176   5.266   0.137
10686SOL    HW232958   3.293   5.244   0.248
10687SOL     OW32959   0.158   4.728   2.887
10687SOL    HW132960   0.095   4.734   2.810
10687SOL    HW232961   0.175   4.820   2.923
10688SOL     OW32962   6.161   5.324   2.192
10688SOL    HW132963   6.208   5.412   2.197
10688SOL    HW232964   6.123   5.302   2.282
10689SOL     OW32965   0.557   1.048   2.876
10689SOL    HW132966   0.462   1.075   2.862
10689SOL    HW232967   0.618   1.124   2.851
10690SOL     OW32968   4.563   5.085   1.886
10690SOL    HW132969   4.521   5.000   1.918
10690SOL    HW232970   4.490   5.151   1.866
10691SOL     OW32971   6.861   1.350   1.841
10691SOL    HW132972   6.806   1.345   1.758
10691SOL    HW232973   6.827   1.285   1.908
10692SOL     OW32974   3.477   5.771   3.683
10692SOL    HW132975   3.533   5.786   3.764
10692SOL    HW232976   3.533   5.736   3.609
10693SOL     OW32977   6.609   1.993   1.637
10693SOL    HW132978   6.557   1.915   1.601
10693SOL    HW232979   6.688   1.959   1.688
10694SOL     OW32980   3.634   6.371   0.713
10694SOL    HW132981   3.618   6.463   0.679
10694SOL    HW232982   3.598   6.304   0.648
10695SOL     OW32983   0.006   2.851   4.068
10695SOL    HW132984   7.004   2.946   4.051
10695SOL    HW232985   6.954   2.802   4.109
10696SOL     OW32986   6.529   6.303   1.696
10696SOL    HW132987   6.591   6.306   1.774
10696SOL    HW232988   6.577   6.332   1.613
10697SOL     OW32989   2.530   5.507   3.272
10697SOL    HW132990   2.437   5.538   3.253
10697SOL    HW232991   2.584   5.583   3.306
10698SOL     OW32992   2.943   6.780   3.595
10698SOL    HW132993   2.998   6.861   3.580
10698SOL    HW232994   2.886   6.793   3.676
10699SOL     OW32995   2.542   2.164   2.980
10699SOL    HW132996   2.532   2.152   3.078
10699SOL    HW232997   2.586   2.252   2.961
10700SOL     OW32998   0.198   6.804   1.273
10700SOL    HW132999   0.261   6.868   1.227
10700SOL    HW233000   0.106   6.814   1.233
10701SOL     OW33001   3.047   6.209   0.767
10701SOL    HW133002   3.122   6.194   0.702
10701SOL    HW233003   2.981   6.273   0.727
10702SOL     OW33004   6.431   3.203   1.557
10702SOL    HW133005   6.486   3.173   1.634
10702SOL    HW233006   6.460   3.295   1.530
10703SOL     OW33007   3.998   3.645   3.763
10703SOL    HW133008   3.974   3.600   3.677
10703SOL    HW233009   3.995   3.577   3.837
10704SOL     OW33010   5.256   6.824   1.737
10704SOL    HW133011   5.203   6.781   1.810
10704SOL    HW233012   5.249   6.770   1.654
10705SOL     OW33013   0.089   2.514   6.537
10705SOL    HW133014   0.171   2.516   6.593
10705SOL    HW233015   0.081   2.426   6.491
10706SOL     OW33016   3.513   1.035   1.840
10706SOL    HW133017   3.609   1.012   1.858
10706SOL    HW233018   3.458   0.951   1.843
10707SOL     OW33019   5.875   0.235   6.147
10707SOL    HW133020   5.952   0.193   6.194
10707SOL    HW233021   5.791   0.220   6.200
10708SOL     OW33022   4.904   1.063   1.327
10708SOL    HW133023   4.888   0.999   1.403
10708SOL    HW233024   4.874   1.020   1.242
10709SOL     OW33025   0.125   5.504   6.027
10709SOL    HW133026   0.035   5.520   5.988
10709SOL    HW233027   0.120   5.425   6.089
10710SOL     OW33028   6.431   5.471   3.446
10710SOL    HW133029   6.341   5.441   3.413
10710SOL    HW233030   6.438   5.453   3.544
10711SOL     OW33031   1.673   6.175   4.390
10711SOL    HW133032   1.726   6.203   4.310
10711SOL    HW233033   1.592   6.125   4.360
10712SOL     OW33034   3.778   1.464   4.704
10712SOL    HW133035   3.778   1.560   4.674
10712SOL    HW233036   3.701   1.416   4.662
10713SOL     OW33037   0.771   5.942   1.277
10713SOL    HW133038   0.799   5.965   1.184
10713SOL    HW233039   0.746   5.845   1.282
10714SOL     OW33040   6.842   4.479   5.692
10714SOL    HW133041   6.932   4.507   5.659
10714SOL    HW233042   6.808   4.548   5.756
10715SOL     OW33043   5.906   1.452   4.522
10715SOL    HW133044   5.892   1.384   4.450
10715SOL    HW233045   5.962   1.527   4.488
10716SOL     OW33046   6.137   0.483   3.192
10716SOL    HW133047   6.184   0.562   3.152
10716SOL    HW233048   6.057   0.514   3.242
10717SOL     OW33049   0.067   6.607   1.516
10717SOL    HW133050   0.083   6.651   1.604
10717SOL    HW233051   0.095   6.511   1.521
10718SOL     OW33052   7.021   4.560   6.820
10718SOL    HW133053   7.020   4.460   6.829
10718SOL    HW233054   0.081   4.588   6.773
10719SOL     OW33055   4.826   0.734   2.224
10719SOL    HW133056   4.892   0.803   2.252
10719SOL    HW233057   4.874   0.653   2.191
10720SOL     OW33058   0.664   3.654   6.954
10720SOL    HW133059   0.568   3.672   6.931
10720SOL    HW233060   0.692   3.567   6.913
10721SOL     OW33061   4.693   2.687   4.287
10721SOL    HW133062   4.627   2.638   4.344
10721SOL    HW233063   4.678   2.663   4.191
10722SOL     OW33064   0.309   4.088   0.208
10722SOL    HW133065   0.217   4.053   0.189
10722SOL    HW233066   0.304   4.156   0.281
10723SOL     OW33067   6.441   4.139   0.155
10723SOL    HW133068   6.473   4.201   0.084
10723SOL    HW233069   6.343   4.154   0.171
10724SOL     OW33070   3.343   6.403   5.598
10724SOL    HW133071   3.411   6.334   5.622
10724SOL    HW233072   3.281   6.366   5.529
10725SOL     OW33073   6.660   6.225   4.555
10725SOL    HW133074   6.587   6.272   4.604
10725SOL    HW233075   6.628   6.135   4.525
10726SOL     OW33076   5.354   0.461   4.240
10726SOL    HW133077   5.375   0.557   4.254
10726SOL    HW233078   5.255   0.447   4.240
10727SOL     OW33079   2.290   5.868   6.843
10727SOL    HW133080   2.258   5.955   6.881
10727SOL    HW233081   2.390   5.866   6.842
10728SOL     OW33082   5.172   5.744   3.453
10728SOL    HW133083   5.147   5.825   3.506
10728SOL    HW233084   5.263   5.757   3.413
10729SOL     OW33085   6.069   3.281   3.905
10729SOL    HW133086   6.102   3.200   3.953
10729SOL    HW233087   6.113   3.363   3.943
10730SOL     OW33088   1.709   5.946   3.129
10730SOL    HW133089   1.726   6.042   3.104
10730SOL    HW233090   1.792   5.908   3.171
10731SOL     OW33091   4.951   6.421   6.749
10731SOL    HW133092   4.926   6.517   6.739
10731SOL    HW233093   4.871   6.364   6.731
10732SOL     OW33094   6.051   5.839   3.477
10732SOL    HW133095   5.971   5.783   3.501
10732SOL    HW233096   6.116   5.783   3.427
10733SOL     OW33097   0.460   0.996   6.148
10733SOL    HW133098   0.440   1.086   6.108
10733SOL    HW233099   0.416   0.925   6.094
10734SOL     OW33100   1.078   1.423   4.807
10734SOL    HW133101   1.156   1.362   4.791
10734SOL    HW233102   1.102   1.516   4.778
10735SOL     OW33103   0.566   5.723   1.969
10735SOL    HW133104   0.496   5.711   2.040
10735SOL    HW233105   0.525   5.765   1.889
10736SOL     OW33106   5.793   6.516   3.979
10736SOL    HW133107   5.736   6.504   3.898
10736SOL    HW233108   5.757   6.461   4.054
10737SOL     OW33109   6.503   0.881   2.106
10737SOL    HW133110   6.594   0.840   2.107
10737SOL    HW233111   6.434   0.810   2.120
10738SOL     OW33112   3.520   1.241   1.608
10738SOL    HW133113   3.614   1.268   1.586
10738SOL    HW233114   3.517   1.200   1.699
10739SOL     OW33115   5.929   2.808   3.532
10739SOL    HW133116   5.966   2.855   3.612
10739SOL    HW233117   5.987   2.827   3.453
10740SOL     OW33118   2.224   0.368   5.966
10740SOL    HW133119   2.187   0.335   6.053
10740SOL    HW233120   2.316   0.404   5.981
10741SOL     OW33121   2.434   2.160   3.241
10741SOL    HW133122   2.494   2.167   3.320
10741SOL    HW233123   2.349   2.210   3.260
10742SOL     OW33124   6.221   6.180   2.681
10742SOL    HW133125   6.311   6.163   2.642
10742SOL    HW233126   6.159   6.212   2.610
10743SOL     OW33127   2.913   0.982   5.675
10743SOL    HW133128   3.002   1.026   5.686
10743SOL    HW233129   2.852   1.012   5.748
10744SOL     OW33130   2.282   1.163   0.337
10744SOL    HW133131   2.245   1.089   0.392
10744SOL    HW233132   2.355   1.210   0.388
10745SOL     OW33133   1.571   4.501   2.299
10745SOL    HW133134   1.633   4.450   2.239
10745SOL    HW233135   1.622   4.573   2.346
10746SOL     OW33136   2.115   5.995   6.651
10746SOL    HW133137   2.035   5.963   6.701
10746SOL    HW233138   2.170   6.054   6.710
10747SOL     OW33139   6.219   1.301   4.659
10747SOL    HW133140   6.197   1.350   4.574
10747SOL    HW233141   6.249   1.366   4.729
10748SOL     OW33142   3.725   5.852   1.004
10748SOL    HW133143   3.647   5.829   1.062
10748SOL    HW233144   3.769   5.935   1.039
10749SOL     OW33145   5.694   4.994   1.680
10749SOL    HW133146   5.755   5.072   1.696
10749SOL    HW233147   5.604   5.029   1.652
10750SOL     OW33148   4.767   2.350   4.220
10750SOL    HW133149   4.737   2.399   4.138
10750SOL    HW233150   4.804   2.261   4.194
10751SOL     OW33151   0.400   4.814   5.183
10751SOL    HW133152   0.363   4.732   5.226
10751SOL    HW233153   0.338   4.846   5.112
10752SOL     OW33154   6.630   6.314   0.503
10752SOL    HW133155   6.624   6.307   0.404
10752SOL    HW233156   6.544   6.349   0.539
10753SOL     OW33157   4.890   6.836   4.115
10753SOL    HW133158   4.907   6.887   4.199
10753SOL    HW233159   4.963   6.854   4.049
10754SOL     OW33160   0.818   3.939   2.345
10754SOL    HW133161   0.743   3.952   2.409
10754SOL    HW233162   0.785   3.892   2.263
10755SOL     OW33163   6.738   2.778   1.330
10755SOL    HW133164   6.721   2.846   1.401
10755SOL    HW233165   6.726   2.686   1.368
10756SOL     OW33166   0.752   1.244   0.157
10756SOL    HW133167   0.809   1.319   0.121
10756SOL    HW233168   0.726   1.265   0.251
10757SOL     OW33169   0.077   4.254   2.034
10757SOL    HW133170   0.082   4.340   2.085
10757SOL    HW233171   0.025   4.188   2.087
10758SOL     OW33172   0.413   0.780   6.747
10758SOL    HW133173   0.499   0.737   6.774
10758SOL    HW233174   0.348   0.710   6.718
10759SOL     OW33175   2.902   1.906   5.918
10759SOL    HW133176   2.935   1.824   5.965
10759SOL    HW233177   2.978   1.967   5.900
10760SOL     OW33178   1.332   5.202   0.191
10760SOL    HW133179   1.381   5.123   0.153
10760SOL    HW233180   1.290   5.176   0.278
10761SOL     OW33181   0.447   1.229   6.005
10761SOL    HW133182   0.510   1.185   5.940
10761SOL    HW233183   0.475   1.324   6.020
10762SOL     OW33184   2.933   6.105   6.340
10762SOL    HW133185   2.925   6.038   6.266
10762SOL    HW233186   3.029   6.119   6.362
10763SOL     OW33187   5.104   6.954   3.658
10763SOL    HW133188   5.185   6.999   3.619
10763SOL    HW233189   5.022   6.987   3.611
10764SOL     OW33190   4.334   0.296   4.259
10764SOL    HW133191   4.426   0.311   4.296
10764SOL    HW233192   4.336   0.219   4.195
10765SOL     OW33193   0.308   2.181   2.118
10765SOL    HW133194   0.297   2.190   2.217
10765SOL    HW233195   0.275   2.092   2.088
10766SOL     OW33196   1.426   5.574   6.965
10766SOL    HW133197   1.444   5.508   0.013
10766SOL    HW233198   1.450   5.534   6.876
10767SOL     OW33199   1.438   5.189   0.483
10767SOL    HW133200   1.507   5.261   0.488
10767SOL    HW233201   1.412   5.161   0.575
10768SOL     OW33202   5.189   6.021   0.421
10768SOL    HW133203   5.175   5.932   0.464
10768SOL    HW233204   5.287   6.039   0.413
10769SOL     OW33205   3.539   2.860   4.714
10769SOL    HW133206   3.559   2.951   4.751
10769SOL    HW233207   3.622   2.805   4.715
10770SOL     OW33208   5.490   0.100   3.290
10770SOL    HW133209   5.402   0.055   3.280
10770SOL    HW233210   5.515   0.102   3.387
10771SOL     OW33211   4.681   6.193   5.572
10771SOL    HW133212   4.613   6.264   5.555
10771SOL    HW233213   4.655   6.140   5.654
10772SOL     OW33214   5.291   5.740   2.391
10772SOL    HW133215   5.279   5.835   2.360
10772SOL    HW233216   5.272   5.678   2.316
10773SOL     OW33217   0.042   3.715   1.644
10773SOL    HW133218   7.020   3.642   1.594
10773SOL    HW233219   0.136   3.686   1.666
10774SOL     OW33220   1.096   2.628   0.475
10774SOL    HW133221   1.078   2.539   0.516
10774SOL    HW233222   1.172   2.672   0.524
10775SOL     OW33223   1.451   4.028   0.310
10775SOL    HW133224   1.377   3.981   0.262
10775SOL    HW233225   1.461   4.120   0.273
10776SOL     OW33226   1.142   2.872   3.465
10776SOL    HW133227   1.214   2.804   3.449
10776SOL    HW233228   1.076   2.835   3.531
10777SOL     OW33229   3.318   1.251   1.932
10777SOL    HW133230   3.365   1.297   2.007
10777SOL    HW233231   3.365   1.166   1.909
10778SOL     OW33232   6.363   0.364   3.449
10778SOL    HW133233   6.279   0.413   3.427
10778SOL    HW233234   6.365   0.344   3.547
10779SOL     OW33235   5.290   3.769   4.889
10779SOL    HW133236   5.293   3.714   4.972
10779SOL    HW233237   5.277   3.709   4.810
10780SOL     OW33238   1.675   5.681   5.105
10780SOL    HW133239   1.632   5.771   5.096
10780SOL    HW233240   1.764   5.691   5.149
10781SOL     OW33241   6.189   2.280   5.241
10781SOL    HW133242   6.169   2.198   5.295
10781SOL    HW233243   6.133   2.279   5.158
10782SOL     OW33244   1.165   2.422   5.114
10782SOL    HW133245   1.194   2.516   5.098
10782SOL    HW233246   1.065   2.417   5.108
10783SOL     OW33247   1.341   2.717   3.510
10783SOL    HW133248   1.363   2.623   3.484
10783SOL    HW233249   1.397   2.744   3.589
10784SOL     OW33250   3.697   5.831   2.626
10784SOL    HW133251   3.676   5.801   2.533
10784SOL    HW233252   3.745   5.919   2.622
10785SOL     OW33253   1.560   5.490   2.491
10785SOL    HW133254   1.546   5.513   2.587
10785SOL    HW233255   1.655   5.463   2.476
10786SOL     OW33256   4.200   1.110   1.975
10786SOL    HW133257   4.232   1.137   2.066
10786SOL    HW233258   4.237   1.172   1.907
10787SOL     OW33259   4.346   0.676   3.028
10787SOL    HW133260   4.403   0.744   3.074
10787SOL    HW233261   4.330   0.599   3.090
10788SOL     OW33262   1.240   4.650   0.239
10788SOL    HW133263   1.271   4.683   0.328
10788SOL    HW233264   1.169   4.580   0.252
10789SOL     OW33265   6.239   1.248   1.521
10789SOL    HW133266   6.310   1.203   1.574
10789SOL    HW233267   6.156   1.192   1.523
10790SOL     OW33268   0.759   1.892   5.279
10790SOL    HW133269   0.705   1.932   5.353
10790SOL    HW233270   0.700   1.837   5.220
10791SOL     OW33271   0.996   1.887   4.155
10791SOL    HW133272   0.981   1.985   4.161
10791SOL    HW233273   0.944   1.850   4.078
10792SOL     OW33274   4.002   1.866   2.152
10792SOL    HW133275   3.969   1.960   2.160
10792SOL    HW233276   3.926   1.803   2.166
10793SOL     OW33277   4.457   2.068   4.749
10793SOL    HW133278   4.517   2.005   4.699
10793SOL    HW233279   4.508   2.108   4.825
10794SOL     OW33280   5.022   2.455   0.626
10794SOL    HW133281   4.968   2.491   0.550
10794SOL    HW233282   4.972   2.469   0.711
10795SOL     OW33283   0.432   3.895   3.325
10795SOL    HW133284   0.361   3.965   3.333
10795SOL    HW233285   0.455   3.882   3.229
10796SOL     OW33286   0.371   6.753   6.219
10796SOL    HW133287   0.357   6.755   6.318
10796SOL    HW233288   0.439   6.683   6.196
10797SOL     OW33289   4.177   4.187   6.774
10797SOL    HW133290   4.194   4.275   6.729
10797SOL    HW233291   4.251   4.168   6.839
10798SOL     OW33292   1.768   0.049   0.061
10798SOL    HW133293   1.801   0.076   6.995
10798SOL    HW233294   1.668   0.057   0.065
10799SOL     OW33295   3.310   0.879   2.934
10799SOL    HW133296   3.225   0.845   2.974
10799SOL    HW233297   3.339   0.962   2.983
10800SOL     OW33298   2.120   0.201   5.794
10800SOL    HW133299   2.182   0.161   5.727
10800SOL    HW233300   2.168   0.270   5.847
10801SOL     OW33301   2.534   6.489   5.938
10801SOL    HW133302   2.504   6.467   5.846
10801SOL    HW233303   2.596   6.418   5.971
10802SOL     OW33304   0.740   4.624   4.489
10802SOL    HW133305   0.670   4.660   4.550
10802SOL    HW233306   0.807   4.696   4.468
10803SOL     OW33307   0.353   4.065   4.690
10803SOL    HW133308   0.354   3.966   4.704
10803SOL    HW233309   0.272   4.090   4.637
10804SOL     OW33310   5.075   4.738   1.166
10804SOL    HW133311   5.001   4.779   1.219
10804SOL    HW233312   5.103   4.652   1.210
10805SOL     OW33313   3.586   6.165   0.054
10805SOL    HW133314   3.651   6.117   7.020
10805SOL    HW233315   3.625   6.176   0.145
10806SOL     OW33316   5.888   4.111   6.766
10806SOL    HW133317   5.918   4.016   6.757
10806SOL    HW233318   5.873   4.150   6.675
10807SOL     OW33319   4.836   0.148   3.556
10807SOL    HW133320   4.751   0.187   3.592
10807SOL    HW233321   4.906   0.219   3.549
10808SOL     OW33322   0.057   2.748   6.735
10808SOL    HW133323   0.052   2.656   6.698
10808SOL    HW233324   0.063   2.814   6.660
10809SOL     OW33325   3.468   0.786   2.731
10809SOL    HW133326   3.414   0.821   2.808
10809SOL    HW233327   3.468   0.686   2.734
10810SOL     OW33328   0.749   1.906   6.545
10810SOL    HW133329   0.676   1.841   6.525
10810SOL    HW233330   0.712   1.986   6.592
10811SOL     OW33331   5.261   4.535   5.403
10811SOL    HW133332   5.283   4.593   5.481
10811SOL    HW233333   5.172   4.492   5.417
10812SOL     OW33334   6.628   2.345   3.165
10812SOL    HW133335   6.718   2.387   3.152
10812SOL    HW233336   6.580   2.344   3.077
10813SOL     OW33337   2.258   5.898   2.699
10813SOL    HW133338   2.244   5.980   2.644
10813SOL    HW233339   2.356   5.881   2.710
10814SOL     OW33340   1.737   6.630   5.243
10814SOL    HW133341   1.750   6.633   5.342
10814SOL    HW233342   1.678   6.706   5.215
10815SOL     OW33343   4.613   2.501   3.034
10815SOL    HW133344   4.622   2.458   3.124
10815SOL    HW233345   4.543   2.452   2.981
10816SOL     OW33346   2.132   1.713   2.507
10816SOL    HW133347   2.193   1.684   2.433
10816SOL    HW233348   2.169   1.681   2.594
10817SOL     OW33349   5.064   6.712   1.981
10817SOL    HW133350   4.991   6.717   1.913
10817SOL    HW233351   5.026   6.726   2.073
10818SOL     OW33352   4.894   3.017   0.029
10818SOL    HW133353   4.950   2.941   0.063
10818SOL    HW233354   4.846   3.059   0.106
10819SOL     OW33355   0.462   3.884   6.117
10819SOL    HW133356   0.381   3.828   6.134
10819SOL    HW233357   0.543   3.825   6.109
10820SOL     OW33358   0.146   0.150   4.269
10820SOL    HW133359   0.199   0.213   4.325
10820SOL    HW233360   0.195   0.132   4.184
10821SOL     OW33361   0.187   6.864   0.325
10821SOL    HW133362   0.128   6.944   0.342
10821SOL    HW233363   0.213   6.824   0.413
10822SOL     OW33364   1.233   4.926   0.823
10822SOL    HW133365   1.290   4.996   0.779
10822SOL    HW233366   1.142   4.964   0.841
10823SOL     OW33367   1.425   1.384   1.841
10823SOL    HW133368   1.431   1.394   1.742
10823SOL    HW233369   1.489   1.447   1.885
10824SOL     OW33370   5.515   0.421   2.685
10824SOL    HW133371   5.468   0.364   2.618
10824SOL    HW233372   5.576   0.364   2.740
10825SOL     OW33373   3.500   1.968   1.043
10825SOL    HW133374   3.448   1.895   1.087
10825SOL    HW233375   3.439   2.025   0.988
10826SOL     OW33376   6.919   2.896   1.640
10826SOL    HW133377   6.842   2.833   1.628
10826SOL    HW233378   6.907   2.949   1.724
10827SOL     OW33379   0.976   2.443   4.278
10827SOL    HW133380   0.910   2.502   4.231
10827SOL    HW233381   0.939   2.416   4.366
10828SOL     OW33382   1.030   5.919   6.877
10828SOL    HW133383   0.955   5.858   6.902
10828SOL    HW233384   1.103   5.912   6.946
10829SOL     OW33385   2.679   3.770   1.625
10829SOL    HW133386   2.660   3.794   1.530
10829SOL    HW233387   2.596   3.735   1.668
10830SOL     OW33388   4.681   1.629   3.644
10830SOL    HW133389   4.593   1.665   3.613
10830SOL    HW233390   4.715   1.685   3.720
10831SOL     OW33391   5.393   2.896   3.592
10831SOL    HW133392   5.323   2.967   3.598
10831SOL    HW233393   5.360   2.813   3.635
10832SOL     OW33394   0.074   2.385   1.642
10832SOL    HW133395   0.103   2.479   1.655
10832SOL    HW233396   0.098   2.330   1.722
10833SOL     OW33397   2.959   6.838   4.074
10833SOL    HW133398   2.927   6.819   4.166
10833SOL    HW233399   3.058   6.825   4.070
10834SOL     OW33400   0.202   1.069   5.430
10834SOL    HW133401   0.116   1.018   5.442
10834SOL    HW233402   0.185   1.151   5.375
10835SOL     OW33403   6.964   2.015   2.160
10835SOL    HW133404   7.000   1.922   2.151
10835SOL    HW233405   6.976   2.064   2.075
10836SOL     OW33406   1.484   2.282   0.110
10836SOL    HW133407   1.406   2.342   0.127
10836SOL    HW233408   1.548   2.289   0.187
10837SOL     OW33409   0.391   6.127   1.381
10837SOL    HW133410   0.366   6.063   1.309
10837SOL    HW233411   0.310   6.146   1.437
10838SOL     OW33412   6.370   6.591   1.242
10838SOL    HW133413   6.356   6.673   1.187
10838SOL    HW233414   6.468   6.573   1.250
10839SOL     OW33415   2.336   1.845   0.754
10839SOL    HW133416   2.278   1.918   0.718
10839SOL    HW233417   2.298   1.757   0.728
10840SOL     OW33418   3.721   4.879   2.731
10840SOL    HW133419   3.741   4.863   2.827
10840SOL    HW233420   3.709   4.977   2.714
10841SOL     OW33421   4.960   4.259   5.735
10841SOL    HW133422   4.885   4.205   5.775
10841SOL    HW233423   5.046   4.210   5.747
10842SOL     OW33424   6.702   2.993   1.490
10842SOL    HW133425   6.672   3.021   1.581
10842SOL    HW233426   6.656   3.049   1.421
10843SOL     OW33427   0.202   1.204   1.550
10843SOL    HW133428   0.201   1.292   1.596
10843SOL    HW233429   0.279   1.149   1.583
10844SOL     OW33430   3.411   6.506   3.646
10844SOL    HW133431   3.421   6.452   3.730
10844SOL    HW233432   3.315   6.507   3.618
10845SOL     OW33433   1.545   2.911   0.896
10845SOL    HW133434   1.586   2.923   0.987
10845SOL    HW233435   1.501   2.996   0.869
10846SOL     OW33436   3.552   1.983   1.917
10846SOL    HW133437   3.599   2.066   1.947
10846SOL    HW233438   3.455   2.003   1.905
10847SOL     OW33439   3.941   2.780   5.538
10847SOL    HW133440   3.967   2.689   5.569
10847SOL    HW233441   4.002   2.809   5.465
10848SOL     OW33442   1.794   1.328   0.535
10848SOL    HW133443   1.838   1.416   0.521
10848SOL    HW233444   1.863   1.258   0.553
10849SOL     OW33445   2.383   5.030   4.699
10849SOL    HW133446   2.375   4.975   4.782
10849SOL    HW233447   2.477   5.065   4.692
10850SOL     OW33448   5.555   0.594   1.544
10850SOL    HW133449   5.620   0.670   1.544
10850SOL    HW233450   5.592   0.518   1.597
10851SOL     OW33451   4.235   2.291   6.318
10851SOL    HW133452   4.257   2.271   6.222
10851SOL    HW233453   4.249   2.389   6.335
10852SOL     OW33454   0.457   6.405   6.419
10852SOL    HW133455   0.437   6.458   6.336
10852SOL    HW233456   0.383   6.416   6.485
10853SOL     OW33457   2.211   1.339   4.820
10853SOL    HW133458   2.284   1.337   4.752
10853SOL    HW233459   2.148   1.264   4.803
10854SOL     OW33460   0.465   6.350   0.100
10854SOL    HW133461   0.502   6.419   0.038
10854SOL    HW233462   0.522   6.347   0.183
10855SOL     OW33463   1.499   6.045   2.002
10855SOL    HW133464   1.491   6.081   1.909
10855SOL    HW233465   1.561   5.967   2.003
10856SOL     OW33466   6.093   0.380   6.801
10856SOL    HW133467   6.177   0.351   6.754
10856SOL    HW233468   6.038   0.437   6.739
10857SOL     OW33469   6.246   0.379   4.843
10857SOL    HW133470   6.272   0.340   4.931
10857SOL    HW233471   6.324   0.427   4.804
10858SOL     OW33472   1.997   2.086   0.009
10858SOL    HW133473   1.932   2.148   6.988
10858SOL    HW233474   2.089   2.125   0.003
10859SOL     OW33475   0.969   5.182   2.195
10859SOL    HW133476   0.960   5.229   2.283
10859SOL    HW233477   0.934   5.089   2.203
10860SOL     OW33478   6.073   2.774   0.885
10860SOL    HW133479   5.995   2.768   0.949
10860SOL    HW233480   6.042   2.751   0.793
10861SOL     OW33481   3.412   2.813   2.049
10861SOL    HW133482   3.497   2.859   2.076
10861SOL    HW233483   3.432   2.745   1.978
10862SOL     OW33484   3.753   3.154   5.742
10862SOL    HW133485   3.791   3.088   5.676
10862SOL    HW233486   3.660   3.126   5.767
10863SOL     OW33487   2.380   1.062   3.253
10863SOL    HW133488   2.361   1.132   3.184
10863SOL    HW233489   2.386   0.972   3.210
10864SOL     OW33490   3.117   4.721   1.859
10864SOL    HW133491   3.059   4.642   1.839
10864SOL    HW233492   3.099   4.753   1.952
10865SOL     OW33493   3.647   1.128   2.401
10865SOL    HW133494   3.731   1.172   2.370
10865SOL    HW233495   3.599   1.189   2.464
10866SOL     OW33496   6.882   3.292   3.139
10866SOL    HW133497   6.887   3.357   3.064
10866SOL    HW233498   6.969   3.291   3.188
10867SOL     OW33499   4.247   3.482   0.522
10867SOL    HW133500   4.160   3.532   0.517
10867SOL    HW233501   4.289   3.497   0.611
10868SOL     OW33502   1.563   0.855   5.070
10868SOL    HW133503   1.511   0.769   5.071
10868SOL    HW233504   1.568   0.889   4.976
10869NA      NA33505   6.876   1.838   5.890
10870NA      NA33506   4.554   4.517   5.097
10871NA      NA33507   1.445   4.853   3.015
10872NA      NA33508   6.004   3.882   3.330
10873NA      NA33509   3.738   2.393   5.422
10874NA      NA33510   2.383   5.137   0.342
10875NA      NA33511   1.076   5.407   6.844
10876NA      NA33512   3.756   4.290   1.042
10877NA      NA33513   4.013   5.092   0.432
10878NA      NA33514   3.561   1.114   6.330
10879NA      NA33515   5.671   6.838   1.745
10880NA      NA33516   2.173   6.649   5.295
10881NA      NA33517   4.009   5.407   1.704
10882NA      NA33518   3.642   3.237   6.524
   7.02460   7.02460   7.02460
