Generated by trjconv : CNT in water t= 495.00000
33518
    1C        C    1   2.846   2.773   4.750
    1C        C    2   2.899   2.718   4.869
    1C        C    3   2.837   2.766   4.985
    1C        C    4   2.849   2.776   4.261
    1C        C    5   2.901   2.728   4.384
    1C        C    6   2.849   2.774   4.507
    1C        C    7   3.016   2.645   4.627
    1C        C    8   2.898   2.723   4.629
    1C        C    9   3.076   2.598   4.746
    1C        C   10   3.005   2.625   4.866
    1C        C   11   3.182   2.489   4.976
    1C        C   12   3.063   2.563   4.977
    1C        C   13   2.849   2.771   3.771
    1C        C   14   2.903   2.725   3.894
    1C        C   15   2.853   2.774   4.016
    1C        C   16   3.021   2.650   4.139
    1C        C   17   2.905   2.730   4.140
    1C        C   18   3.081   2.613   4.262
    1C        C   19   3.016   2.648   4.383
    1C        C   20   3.210   2.560   4.505
    1C        C   21   3.081   2.617   4.505
    1C        C   22   3.280   2.534   4.625
    1C        C   23   3.209   2.547   4.746
    1C        C   24   3.413   2.478   4.865
    1C        C   25   3.271   2.499   4.865
    1C        C   26   3.491   2.471   4.981
    1C        C   27   2.849   2.769   3.282
    1C        C   28   2.904   2.725   3.405
    1C        C   29   2.852   2.772   3.528
    1C        C   30   3.020   2.643   3.650
    1C        C   31   2.906   2.726   3.650
    1C        C   32   3.078   2.603   3.773
    1C        C   33   3.017   2.641   3.894
    1C        C   34   3.210   2.555   4.017
    1C        C   35   3.079   2.609   4.017
    1C        C   36   3.277   2.533   4.140
    1C        C   37   3.212   2.560   4.262
    1C        C   38   3.419   2.512   4.383
    1C        C   39   3.281   2.542   4.384
    1C        C   40   3.489   2.505   4.506
    1C        C   41   3.417   2.503   4.628
    1C        C   42   3.633   2.485   4.747
    1C        C   43   3.491   2.476   4.746
    1C        C   44   3.707   2.494   4.866
    1C        C   45   3.630   2.483   4.982
    1C        C   46   2.840   2.750   2.793
    1C        C   47   2.894   2.709   2.916
    1C        C   48   2.843   2.759   3.038
    1C        C   49   3.016   2.638   3.162
    1C        C   50   2.902   2.721   3.161
    1C        C   51   3.079   2.603   3.284
    1C        C   52   3.021   2.645   3.405
    1C        C   53   3.208   2.546   3.527
    1C        C   54   3.080   2.607   3.528
    1C        C   55   3.275   2.526   3.649
    1C        C   56   3.210   2.552   3.772
    1C        C   57   3.416   2.510   3.894
    1C        C   58   3.277   2.536   3.895
    1C        C   59   3.487   2.501   4.016
    1C        C   60   3.416   2.507   4.138
    1C        C   61   3.628   2.506   4.261
    1C        C   62   3.487   2.502   4.260
    1C        C   63   3.703   2.507   4.381
    1C        C   64   3.630   2.504   4.502
    1C        C   65   3.836   2.544   4.624
    1C        C   66   3.699   2.508   4.625
    1C        C   67   3.908   2.559   4.744
    1C        C   68   3.846   2.522   4.865
    1C        C   69   4.053   2.584   4.978
    1C        C   70   3.927   2.522   4.979
    1C        C   71   2.827   2.736   2.307
    1C        C   72   2.882   2.691   2.429
    1C        C   73   2.831   2.744   2.549
    1C        C   74   3.008   2.623   2.673
    1C        C   75   2.890   2.701   2.670
    1C        C   76   3.070   2.594   2.796
    1C        C   77   3.011   2.629   2.919
    1C        C   78   3.205   2.541   3.038
    1C        C   79   3.075   2.596   3.041
    1C        C   80   3.273   2.522   3.160
    1C        C   81   3.207   2.545   3.283
    1C        C   82   3.415   2.502   3.403
    1C        C   83   3.276   2.523   3.405
    1C        C   84   3.486   2.499   3.526
    1C        C   85   3.414   2.503   3.648
    1C        C   86   3.625   2.504   3.770
    1C        C   87   3.484   2.498   3.770
    1C        C   88   3.696   2.511   3.892
    1C        C   89   3.628   2.505   4.016
    1C        C   90   3.835   2.547   4.136
    1C        C   91   3.697   2.516   4.138
    1C        C   92   3.906   2.567   4.257
    1C        C   93   3.839   2.544   4.379
    1C        C   94   4.031   2.631   4.499
    1C        C   95   3.904   2.569   4.502
    1C        C   96   4.093   2.667   4.620
    1C        C   97   4.035   2.624   4.742
    1C        C   98   4.194   2.764   4.867
    1C        C   99   4.103   2.654   4.863
    1C        C  100   4.209   2.846   4.980
    1C        C  101   2.826   2.735   2.071
    1C        C  102   2.988   2.585   2.192
    1C        C  103   2.878   2.677   2.188
    1C        C  104   3.061   2.565   2.312
    1C        C  105   2.997   2.609   2.430
    1C        C  106   3.198   2.534   2.551
    1C        C  107   3.066   2.582   2.551
    1C        C  108   3.267   2.517   2.674
    1C        C  109   3.199   2.537   2.796
    1C        C  110   3.412   2.501   2.912
    1C        C  111   3.272   2.516   2.916
    1C        C  112   3.481   2.499   3.035
    1C        C  113   3.413   2.503   3.159
    1C        C  114   3.626   2.492   3.278
    1C        C  115   3.485   2.493   3.281
    1C        C  116   3.694   2.506   3.401
    1C        C  117   3.627   2.503   3.526
    1C        C  118   3.833   2.551   3.646
    1C        C  119   3.696   2.516   3.649
    1C        C  120   3.898   2.575   3.769
    1C        C  121   3.832   2.550   3.891
    1C        C  122   4.027   2.635   4.012
    1C        C  123   3.899   2.574   4.013
    1C        C  124   4.088   2.675   4.133
    1C        C  125   4.030   2.634   4.256
    1C        C  126   4.193   2.769   4.377
    1C        C  127   4.091   2.671   4.377
    1C        C  128   4.238   2.821   4.501
    1C        C  129   4.192   2.767   4.623
    1C        C  130   4.318   2.938   4.739
    1C        C  131   4.242   2.818   4.745
    1C        C  132   4.350   3.005   4.859
    1C        C  133   4.284   2.963   4.975
    1C        C  134   3.171   2.465   2.081
    1C        C  135   3.037   2.507   2.083
    1C        C  136   3.259   2.482   2.188
    1C        C  137   3.197   2.522   2.308
    1C        C  138   3.405   2.481   2.427
    1C        C  139   3.265   2.505   2.431
    1C        C  140   3.480   2.482   2.547
    1C        C  141   3.407   2.498   2.666
    1C        C  142   3.620   2.502   2.789
    1C        C  143   3.479   2.498   2.787
    1C        C  144   3.690   2.507   2.912
    1C        C  145   3.622   2.499   3.035
    1C        C  146   3.832   2.537   3.156
    1C        C  147   3.695   2.503   3.156
    1C        C  148   3.897   2.566   3.279
    1C        C  149   3.830   2.545   3.401
    1C        C  150   4.027   2.628   3.522
    1C        C  151   3.899   2.569   3.522
    1C        C  152   4.089   2.664   3.643
    1C        C  153   4.025   2.637   3.766
    1C        C  154   4.194   2.763   3.890
    1C        C  155   4.084   2.673   3.889
    1C        C  156   4.248   2.810   4.011
    1C        C  157   4.199   2.762   4.134
    1C        C  158   4.340   2.922   4.253
    1C        C  159   4.248   2.814   4.256
    1C        C  160   4.374   2.985   4.375
    1C        C  161   4.329   2.930   4.497
    1C        C  162   4.429   3.120   4.617
    1C        C  163   4.362   2.995   4.617
    1C        C  164   4.458   3.188   4.738
    1C        C  165   4.424   3.125   4.859
    1C        C  166   4.510   3.322   4.972
    1C        C  167   4.481   3.186   4.972
    1C        C  168   3.474   2.438   2.070
    1C        C  169   3.400   2.467   2.185
    1C        C  170   3.616   2.467   2.304
    1C        C  171   3.473   2.464   2.305
    1C        C  172   3.690   2.486   2.423
    1C        C  173   3.621   2.485   2.546
    1C        C  174   3.829   2.539   2.665
    1C        C  175   3.691   2.508   2.667
    1C        C  176   3.893   2.565   2.788
    1C        C  177   3.827   2.543   2.911
    1C        C  178   4.023   2.624   3.031
    1C        C  179   3.897   2.559   3.033
    1C        C  180   4.083   2.661   3.154
    1C        C  181   4.023   2.630   3.278
    1C        C  182   4.197   2.754   3.398
    1C        C  183   4.085   2.667   3.399
    1C        C  184   4.247   2.806   3.520
    1C        C  185   4.195   2.758   3.643
    1C        C  186   4.336   2.915   3.762
    1C        C  187   4.242   2.810   3.765
    1C        C  188   4.377   2.972   3.885
    1C        C  189   4.340   2.918   4.010
    1C        C  190   4.442   3.106   4.129
    1C        C  191   4.381   2.979   4.130
    1C        C  192   4.465   3.174   4.251
    1C        C  193   4.435   3.112   4.374
    1C        C  194   4.505   3.316   4.492
    1C        C  195   4.462   3.181   4.494
    1C        C  196   4.522   3.390   4.611
    1C        C  197   4.507   3.321   4.734
    1C        C  198   4.559   3.535   4.851
    1C        C  199   4.529   3.395   4.853
    1C        C  200   4.588   3.621   4.962
    1C        C  201   3.613   2.415   2.072
    1C        C  202   3.825   2.510   2.181
    1C        C  203   3.690   2.462   2.183
    1C        C  204   3.898   2.540   2.299
    1C        C  205   3.827   2.522   2.420
    1C        C  206   4.019   2.616   2.542
    1C        C  207   3.894   2.551   2.541
    1C        C  208   4.081   2.658   2.662
    1C        C  209   4.021   2.625   2.785
    1C        C  210   4.192   2.749   2.907
    1C        C  211   4.081   2.660   2.908
    1C        C  212   4.244   2.795   3.030
    1C        C  213   4.198   2.744   3.153
    1C        C  214   4.334   2.910   3.273
    1C        C  215   4.247   2.799   3.274
    1C        C  216   4.372   2.971   3.395
    1C        C  217   4.337   2.915   3.519
    1C        C  218   4.434   3.103   3.639
    1C        C  219   4.378   2.973   3.641
    1C        C  220   4.460   3.169   3.761
    1C        C  221   4.438   3.100   3.883
    1C        C  222   4.504   3.303   4.004
    1C        C  223   4.467   3.167   4.004
    1C        C  224   4.511   3.377   4.124
    1C        C  225   4.501   3.311   4.249
    1C        C  226   4.522   3.525   4.366
    1C        C  227   4.517   3.384   4.369
    1C        C  228   4.521   3.598   4.487
    1C        C  229   4.532   3.530   4.611
    1C        C  230   4.506   3.743   4.727
    1C        C  231   4.544   3.606   4.729
    1C        C  232   4.500   3.820   4.845
    1C        C  233   4.544   3.754   4.961
    1C        C  234   4.020   2.603   2.063
    1C        C  235   3.894   2.545   2.064
    1C        C  236   4.082   2.648   2.180
    1C        C  237   4.023   2.608   2.301
    1C        C  238   4.194   2.741   2.418
    1C        C  239   4.082   2.654   2.421
    1C        C  240   4.249   2.786   2.540
    1C        C  241   4.196   2.740   2.663
    1C        C  242   4.335   2.902   2.784
    1C        C  243   4.248   2.791   2.784
    1C        C  244   4.375   2.962   2.906
    1C        C  245   4.332   2.905   3.028
    1C        C  246   4.431   3.095   3.148
    1C        C  247   4.370   2.967   3.149
    1C        C  248   4.455   3.162   3.270
    1C        C  249   4.431   3.100   3.395
    1C        C  250   4.491   3.305   3.514
    1C        C  251   4.456   3.168   3.516
    1C        C  252   4.506   3.373   3.637
    1C        C  253   4.497   3.305   3.760
    1C        C  254   4.523   3.515   3.879
    1C        C  255   4.514   3.374   3.882
    1C        C  256   4.517   3.587   4.001
    1C        C  257   4.518   3.518   4.124
    1C        C  258   4.497   3.733   4.240
    1C        C  259   4.523   3.594   4.243
    1C        C  260   4.481   3.804   4.361
    1C        C  261   4.497   3.737   4.484
    1C        C  262   4.428   3.941   4.602
    1C        C  263   4.478   3.809   4.605
    1C        C  264   4.396   4.008   4.722
    1C        C  265   4.440   3.948   4.842
    1C        C  266   4.323   4.132   4.956
    1C        C  267   4.402   4.017   4.957
    1C        C  268   4.254   2.781   2.059
    1C        C  269   4.195   2.733   2.176
    1C        C  270   4.341   2.894   2.297
    1C        C  271   4.249   2.786   2.296
    1C        C  272   4.377   2.957   2.418
    1C        C  273   4.336   2.897   2.540
    1C        C  274   4.440   3.083   2.660
    1C        C  275   4.377   2.957   2.661
    1C        C  276   4.470   3.151   2.781
    1C        C  277   4.440   3.087   2.904
    1C        C  278   4.502   3.291   3.024
    1C        C  279   4.465   3.155   3.025
    1C        C  280   4.516   3.363   3.145
    1C        C  281   4.499   3.297   3.269
    1C        C  282   4.518   3.510   3.389
    1C        C  283   4.510   3.369   3.390
    1C        C  284   4.517   3.581   3.511
    1C        C  285   4.520   3.514   3.636
    1C        C  286   4.492   3.725   3.752
    1C        C  287   4.517   3.586   3.757
    1C        C  288   4.477   3.792   3.875
    1C        C  289   4.494   3.726   3.999
    1C        C  290   4.425   3.932   4.114
    1C        C  291   4.479   3.801   4.118
    1C        C  292   4.394   3.995   4.237
    1C        C  293   4.432   3.937   4.360
    1C        C  294   4.326   4.124   4.478
    1C        C  295   4.404   4.007   4.480
    1C        C  296   4.280   4.186   4.597
    1C        C  297   4.321   4.129   4.719
    1C        C  298   4.197   4.311   4.838
    1C        C  299   4.284   4.197   4.839
    1C        C  300   4.167   4.400   4.946
    1C        C  301   4.354   2.878   2.060
    1C        C  302   4.467   3.069   2.176
    1C        C  303   4.395   2.945   2.176
    1C        C  304   4.484   3.143   2.296
    1C        C  305   4.449   3.079   2.417
    1C        C  306   4.505   3.284   2.537
    1C        C  307   4.471   3.147   2.538
    1C        C  308   4.513   3.357   2.658
    1C        C  309   4.501   3.288   2.781
    1C        C  310   4.524   3.502   2.899
    1C        C  311   4.513   3.361   2.902
    1C        C  312   4.519   3.573   3.021
    1C        C  313   4.522   3.504   3.143
    1C        C  314   4.489   3.716   3.261
    1C        C  315   4.513   3.577   3.264
    1C        C  316   4.473   3.785   3.383
    1C        C  317   4.489   3.719   3.507
    1C        C  318   4.423   3.923   3.625
    1C        C  319   4.471   3.790   3.628
    1C        C  320   4.390   3.984   3.748
    1C        C  321   4.423   3.922   3.871
    1C        C  322   4.322   4.113   3.990
    1C        C  323   4.396   3.993   3.990
    1C        C  324   4.278   4.169   4.112
    1C        C  325   4.324   4.117   4.235
    1C        C  326   4.184   4.280   4.352
    1C        C  327   4.281   4.178   4.356
    1C        C  328   4.128   4.330   4.471
    1C        C  329   4.183   4.289   4.595
    1C        C  330   4.022   4.431   4.715
    1C        C  331   4.136   4.346   4.715
    1C        C  332   3.967   4.490   4.830
    1C        C  333   4.052   4.479   4.941
    1C        C  334   4.549   3.269   2.060
    1C        C  335   4.535   3.130   2.066
    1C        C  336   4.538   3.351   2.174
    1C        C  337   4.514   3.282   2.295
    1C        C  338   4.529   3.495   2.411
    1C        C  339   4.523   3.354   2.416
    1C        C  340   4.523   3.568   2.532
    1C        C  341   4.519   3.498   2.655
    1C        C  342   4.492   3.710   2.772
    1C        C  343   4.515   3.571   2.776
    1C        C  344   4.480   3.782   2.893
    1C        C  345   4.497   3.713   3.016
    1C        C  346   4.423   3.913   3.137
    1C        C  347   4.475   3.782   3.137
    1C        C  348   4.400   3.983   3.258
    1C        C  349   4.430   3.919   3.381
    1C        C  350   4.325   4.107   3.500
    1C        C  351   4.399   3.987   3.501
    1C        C  352   4.277   4.162   3.622
    1C        C  353   4.316   4.104   3.745
    1C        C  354   4.179   4.266   3.866
    1C        C  355   4.280   4.167   3.866
    1C        C  356   4.123   4.313   3.986
    1C        C  357   4.177   4.268   4.109
    1C        C  358   4.009   4.399   4.228
    1C        C  359   4.127   4.322   4.229
    1C        C  360   3.950   4.440   4.350
    1C        C  361   4.010   4.408   4.474
    1C        C  362   3.823   4.511   4.591
    1C        C  363   3.953   4.455   4.594
    1C        C  364   3.758   4.544   4.712
    1C        C  365   3.835   4.541   4.830
    1C        C  366   3.626   4.587   4.950
    1C        C  367   3.764   4.570   4.947
    1C        C  368   4.513   3.565   2.052
    1C        C  369   4.524   3.491   2.171
    1C        C  370   4.503   3.707   2.285
    1C        C  371   4.522   3.567   2.290
    1C        C  372   4.487   3.777   2.407
    1C        C  373   4.501   3.707   2.529
    1C        C  374   4.422   3.908   2.648
    1C        C  375   4.476   3.777   2.649
    1C        C  376   4.392   3.974   2.770
    1C        C  377   4.429   3.913   2.892
    1C        C  378   4.320   4.096   3.012
    1C        C  379   4.395   3.976   3.014
    1C        C  380   4.280   4.156   3.134
    1C        C  381   4.326   4.103   3.257
    1C        C  382   4.178   4.257   3.377
    1C        C  383   4.281   4.161   3.377
    1C        C  384   4.120   4.303   3.498
    1C        C  385   4.176   4.261   3.621
    1C        C  386   4.003   4.383   3.743
    1C        C  387   4.122   4.306   3.743
    1C        C  388   3.941   4.425   3.863
    1C        C  389   4.004   4.390   3.984
    1C        C  390   3.813   4.483   4.106
    1C        C  391   3.942   4.425   4.106
    1C        C  392   3.748   4.509   4.229
    1C        C  393   3.820   4.494   4.349
    1C        C  394   3.614   4.547   4.473
    1C        C  395   3.753   4.525   4.469
    1C        C  396   3.543   4.560   4.594
    1C        C  397   3.618   4.563   4.714
    1C        C  398   3.407   4.553   4.840
    1C        C  399   3.547   4.571   4.835
    1C        C  400   3.338   4.518   4.958
    1C        C  401   4.506   3.704   2.052
    1C        C  402   4.463   3.921   2.166
    1C        C  403   4.493   3.783   2.167
    1C        C  404   4.421   3.982   2.287
    1C        C  405   4.442   3.911   2.407
    1C        C  406   4.329   4.097   2.525
    1C        C  407   4.403   3.976   2.526
    1C        C  408   4.279   4.151   2.645
    1C        C  409   4.317   4.093   2.769
    1C        C  410   4.175   4.250   2.887
    1C        C  411   4.277   4.153   2.890
    1C        C  412   4.120   4.292   3.010
    1C        C  413   4.175   4.250   3.133
    1C        C  414   3.999   4.371   3.252
    1C        C  415   4.118   4.295   3.255
    1C        C  416   3.938   4.403   3.375
    1C        C  417   3.996   4.370   3.500
    1C        C  418   3.809   4.469   3.618
    1C        C  419   3.938   4.413   3.622
    1C        C  420   3.747   4.502   3.740
    1C        C  421   3.813   4.485   3.864
    1C        C  422   3.606   4.533   3.986
    1C        C  423   3.745   4.507   3.985
    1C        C  424   3.536   4.538   4.109
    1C        C  425   3.608   4.532   4.230
    1C        C  426   3.399   4.550   4.354
    1C        C  427   3.540   4.550   4.352
    1C        C  428   3.330   4.547   4.478
    1C        C  429   3.402   4.560   4.599
    1C        C  430   3.193   4.519   4.722
    1C        C  431   3.332   4.549   4.721
    1C        C  432   3.122   4.496   4.844
    1C        C  433   3.201   4.496   4.960
    1C        C  434   4.385   4.121   2.049
    1C        C  435   4.445   3.994   2.048
    1C        C  436   4.301   4.158   2.159
    1C        C  437   4.338   4.097   2.282
    1C        C  438   4.180   4.244   2.400
    1C        C  439   4.286   4.151   2.402
    1C        C  440   4.125   4.293   2.520
    1C        C  441   4.179   4.251   2.643
    1C        C  442   4.001   4.369   2.765
    1C        C  443   4.121   4.294   2.764
    1C        C  444   3.940   4.403   2.888
    1C        C  445   4.000   4.368   3.010
    1C        C  446   3.804   4.457   3.132
    1C        C  447   3.935   4.404   3.130
    1C        C  448   3.741   4.489   3.254
    1C        C  449   3.813   4.468   3.374
    1C        C  450   3.604   4.520   3.497
    1C        C  451   3.742   4.490   3.495
    1C        C  452   3.538   4.535   3.621
    1C        C  453   3.609   4.536   3.742
    1C        C  454   3.395   4.543   3.864
    1C        C  455   3.537   4.542   3.863
    1C        C  456   3.327   4.539   3.987
    1C        C  457   3.395   4.538   4.111
    1C        C  458   3.186   4.516   4.236
    1C        C  459   3.325   4.541   4.234
    1C        C  460   3.120   4.499   4.360
    1C        C  461   3.193   4.517   4.480
    1C        C  462   2.997   4.433   4.602
    1C        C  463   3.124   4.495   4.602
    1C        C  464   2.928   4.401   4.721
    1C        C  465   2.988   4.447   4.842
    1C        C  466   2.794   4.346   4.956
    1C        C  467   2.907   4.429   4.959
    1C        C  468   4.127   4.290   2.041
    1C        C  469   4.188   4.246   2.159
    1C        C  470   4.005   4.367   2.279
    1C        C  471   4.123   4.287   2.278
    1C        C  472   3.939   4.397   2.400
    1C        C  473   4.005   4.368   2.522
    1C        C  474   3.811   4.462   2.644
    1C        C  475   3.939   4.403   2.642
    1C        C  476   3.744   4.484   2.766
    1C        C  477   3.811   4.462   2.888
    1C        C  478   3.602   4.511   3.008
    1C        C  479   3.740   4.481   3.009
    1C        C  480   3.532   4.524   3.130
    1C        C  481   3.603   4.519   3.252
    1C        C  482   3.392   4.536   3.377
    1C        C  483   3.533   4.527   3.375
    1C        C  484   3.322   4.532   3.500
    1C        C  485   3.397   4.541   3.619
    1C        C  486   3.187   4.512   3.743
    1C        C  487   3.326   4.540   3.741
    1C        C  488   3.125   4.485   3.867
    1C        C  489   3.189   4.508   3.991
    1C        C  490   2.997   4.424   4.114
    1C        C  491   3.120   4.493   4.114
    1C        C  492   2.936   4.389   4.237
    1C        C  493   2.996   4.433   4.358
    1C        C  494   2.828   4.306   4.481
    1C        C  495   2.934   4.399   4.480
    1C        C  496   2.768   4.259   4.600
    1C        C  497   2.816   4.313   4.721
    1C        C  498   2.664   4.167   4.841
    1C        C  499   2.753   4.276   4.842
    1C        C  500   2.600   4.117   4.955
    1C        C  501   4.005   4.358   2.042
    1C        C  502   3.811   4.457   2.155
    1C        C  503   3.942   4.405   2.158
    1C        C  504   3.743   4.471   2.278
    1C        C  505   3.810   4.453   2.401
    1C        C  506   3.604   4.510   2.520
    1C        C  507   3.743   4.482   2.521
    1C        C  508   3.532   4.520   2.642
    1C        C  509   3.605   4.511   2.762
    1C        C  510   3.393   4.521   2.884
    1C        C  511   3.534   4.517   2.885
    1C        C  512   3.321   4.525   3.006
    1C        C  513   3.391   4.530   3.128
    1C        C  514   3.187   4.498   3.253
    1C        C  515   3.325   4.530   3.253
    1C        C  516   3.118   4.476   3.375
    1C        C  517   3.184   4.502   3.497
    1C        C  518   2.997   4.416   3.624
    1C        C  519   3.121   4.483   3.622
    1C        C  520   2.940   4.376   3.747
    1C        C  521   3.002   4.415   3.868
    1C        C  522   2.835   4.289   3.994
    1C        C  523   2.944   4.379   3.991
    1C        C  524   2.787   4.238   4.116
    1C        C  525   2.832   4.294   4.238
    1C        C  526   2.697   4.135   4.360
    1C        C  527   2.779   4.250   4.361
    1C        C  528   2.659   4.075   4.482
    1C        C  529   2.687   4.143   4.603
    1C        C  530   2.587   3.958   4.729
    1C        C  531   2.641   4.089   4.725
    1C        C  532   2.537   3.902   4.850
    1C        C  533   2.532   3.995   4.959
    1C        C  534   3.613   4.558   2.042
    1C        C  535   3.746   4.514   2.045
    1C        C  536   3.534   4.533   2.159
    1C        C  537   3.605   4.507   2.279
    1C        C  538   3.390   4.521   2.398
    1C        C  539   3.532   4.516   2.400
    1C        C  540   3.319   4.519   2.520
    1C        C  541   3.391   4.522   2.641
    1C        C  542   3.181   4.493   2.762
    1C        C  543   3.320   4.515   2.763
    1C        C  544   3.116   4.472   2.886
    1C        C  545   3.183   4.495   3.008
    1C        C  546   2.993   4.408   3.132
    1C        C  547   3.119   4.473   3.132
    1C        C  548   2.937   4.369   3.255
    1C        C  549   2.994   4.408   3.378
    1C        C  550   2.832   4.281   3.506
    1C        C  551   2.936   4.375   3.502
    1C        C  552   2.780   4.232   3.628
    1C        C  553   2.831   4.286   3.748
    1C        C  554   2.710   4.117   3.875
    1C        C  555   2.787   4.235   3.872
    1C        C  556   2.666   4.060   3.997
    1C        C  557   2.705   4.124   4.116
    1C        C  558   2.609   3.938   4.244
    1C        C  559   2.665   4.068   4.240
    1C        C  560   2.575   3.876   4.367
    1C        C  561   2.597   3.948   4.486
    1C        C  562   2.533   3.748   4.611
    1C        C  563   2.568   3.885   4.609
    1C        C  564   2.517   3.683   4.736
    1C        C  565   2.517   3.760   4.855
    1C        C  566   2.534   3.548   4.975
    1C        C  567   2.525   3.687   4.974
    1C        C  568   3.325   4.475   2.039
    1C        C  569   3.394   4.511   2.156
    1C        C  570   3.182   4.473   2.279
    1C        C  571   3.319   4.511   2.277
    1C        C  572   3.113   4.458   2.401
    1C        C  573   3.181   4.486   2.521
    1C        C  574   2.985   4.405   2.646
    1C        C  575   3.109   4.472   2.642
    1C        C  576   2.926   4.367   2.769
    1C        C  577   2.992   4.405   2.889
    1C        C  578   2.821   4.280   3.014
    1C        C  579   2.932   4.368   3.011
    1C        C  580   2.778   4.227   3.138
    1C        C  581   2.831   4.275   3.259
    1C        C  582   2.704   4.111   3.384
    1C        C  583   2.788   4.225   3.384
    1C        C  584   2.669   4.051   3.507
    1C        C  585   2.702   4.114   3.629
    1C        C  586   2.608   3.929   3.753
    1C        C  587   2.669   4.056   3.754
    1C        C  588   2.582   3.866   3.876
    1C        C  589   2.605   3.932   3.999
    1C        C  590   2.544   3.734   4.128
    1C        C  591   2.584   3.869   4.124
    1C        C  592   2.526   3.667   4.251
    1C        C  593   2.532   3.742   4.370
    1C        C  594   2.512   3.531   4.497
    1C        C  595   2.522   3.672   4.493
    1C        C  596   2.522   3.465   4.621
    1C        C  597   2.518   3.541   4.740
    1C        C  598   2.534   3.327   4.861
    1C        C  599   2.529   3.468   4.861
    1C        C  600   2.537   3.249   4.978
    1C        C  601   3.191   4.441   2.040
    1C        C  602   2.980   4.394   2.157
    1C        C  603   3.115   4.440   2.158
    1C        C  604   2.923   4.357   2.282
    1C        C  605   2.985   4.397   2.402
    1C        C  606   2.819   4.270   2.527
    1C        C  607   2.925   4.364   2.525
    1C        C  608   2.773   4.219   2.650
    1C        C  609   2.820   4.274   2.771
    1C        C  610   2.691   4.108   2.895
    1C        C  611   2.771   4.225   2.894
    1C        C  612   2.658   4.050   3.019
    1C        C  613   2.697   4.111   3.140
    1C        C  614   2.601   3.924   3.265
    1C        C  615   2.662   4.051   3.263
    1C        C  616   2.572   3.859   3.387
    1C        C  617   2.607   3.925   3.507
    1C        C  618   2.539   3.727   3.637
    1C        C  619   2.582   3.862   3.631
    1C        C  620   2.524   3.662   3.761
    1C        C  621   2.540   3.731   3.883
    1C        C  622   2.510   3.524   4.007
    1C        C  623   2.524   3.664   4.006
    1C        C  624   2.510   3.456   4.130
    1C        C  625   2.513   3.526   4.253
    1C        C  626   2.535   3.318   4.379
    1C        C  627   2.515   3.458   4.376
    1C        C  628   2.551   3.249   4.501
    1C        C  629   2.538   3.325   4.620
    1C        C  630   2.583   3.115   4.741
    1C        C  631   2.547   3.253   4.741
    1C        C  632   2.609   3.046   4.863
    1C        C  633   2.564   3.112   4.981
    1C        C  634   2.779   4.304   2.052
    1C        C  635   2.888   4.392   2.047
    1C        C  636   2.745   4.231   2.167
    1C        C  637   2.808   4.274   2.285
    1C        C  638   2.674   4.110   2.411
    1C        C  639   2.760   4.222   2.408
    1C        C  640   2.641   4.048   2.533
    1C        C  641   2.687   4.107   2.653
    1C        C  642   2.589   3.919   2.776
    1C        C  643   2.650   4.047   2.775
    1C        C  644   2.568   3.855   2.900
    1C        C  645   2.598   3.922   3.021
    1C        C  646   2.533   3.720   3.147
    1C        C  647   2.575   3.855   3.144
    1C        C  648   2.518   3.652   3.269
    1C        C  649   2.535   3.723   3.390
    1C        C  650   2.513   3.517   3.516
    1C        C  651   2.521   3.658   3.515
    1C        C  652   2.516   3.449   3.640
    1C        C  653   2.514   3.521   3.762
    1C        C  654   2.529   3.311   3.888
    1C        C  655   2.512   3.451   3.885
    1C        C  656   2.549   3.247   4.012
    1C        C  657   2.533   3.316   4.135
    1C        C  658   2.599   3.115   4.256
    1C        C  659   2.550   3.248   4.257
    1C        C  660   2.629   3.054   4.379
    1C        C  661   2.598   3.116   4.502
    1C        C  662   2.707   2.935   4.624
    1C        C  663   2.627   3.051   4.624
    1C        C  664   2.750   2.878   4.746
    1C        C  665   2.695   2.931   4.866
    1C        C  666   2.746   2.871   4.982
    1C        C  667   2.686   4.022   2.053
    1C        C  668   2.687   4.102   2.168
    1C        C  669   2.596   3.910   2.291
    1C        C  670   2.648   4.042   2.290
    1C        C  671   2.559   3.849   2.413
    1C        C  672   2.581   3.920   2.533
    1C        C  673   2.517   3.717   2.658
    1C        C  674   2.557   3.852   2.655
    1C        C  675   2.510   3.649   2.782
    1C        C  676   2.533   3.718   2.902
    1C        C  677   2.503   3.510   3.029
    1C        C  678   2.517   3.650   3.025
    1C        C  679   2.505   3.439   3.151
    1C        C  680   2.504   3.511   3.273
    1C        C  681   2.524   3.302   3.401
    1C        C  682   2.507   3.443   3.396
    1C        C  683   2.545   3.236   3.524
    1C        C  684   2.532   3.309   3.644
    1C        C  685   2.599   3.110   3.769
    1C        C  686   2.546   3.241   3.767
    1C        C  687   2.634   3.050   3.893
    1C        C  688   2.600   3.115   4.013
    1C        C  689   2.709   2.932   4.138
    1C        C  690   2.630   3.050   4.135
    1C        C  691   2.754   2.881   4.261
    1C        C  692   2.706   2.935   4.382
    1C        C  693   2.753   2.878   4.503
    1C        C  694   2.633   3.892   2.057
    1C        C  695   2.532   3.701   2.178
    1C        C  696   2.581   3.833   2.173
    1C        C  697   2.510   3.635   2.301
    1C        C  698   2.520   3.713   2.418
    1C        C  699   2.491   3.502   2.544
    1C        C  700   2.501   3.643   2.539
    1C        C  701   2.499   3.434   2.667
    1C        C  702   2.498   3.508   2.787
    1C        C  703   2.524   3.296   2.908
    1C        C  704   2.500   3.436   2.908
    1C        C  705   2.543   3.230   3.031
    1C        C  706   2.529   3.300   3.153
    1C        C  707   2.595   3.104   3.277
    1C        C  708   2.546   3.237   3.278
    1C        C  709   2.628   3.044   3.401
    1C        C  710   2.596   3.104   3.525
    1C        C  711   2.707   2.926   3.650
    1C        C  712   2.628   3.043   3.648
    1C        C  713   2.752   2.873   3.773
    1C        C  714   2.712   2.933   3.895
    1C        C  715   2.754   2.875   4.017
    1C        C  716   2.447   3.500   2.065
    1C        C  717   2.489   3.634   2.063
    1C        C  718   2.461   3.421   2.184
    1C        C  719   2.475   3.497   2.303
    1C        C  720   2.512   3.288   2.424
    1C        C  721   2.485   3.426   2.425
    1C        C  722   2.536   3.221   2.546
    1C        C  723   2.523   3.294   2.666
    1C        C  724   2.597   3.095   2.791
    1C        C  725   2.545   3.226   2.788
    1C        C  726   2.624   3.030   2.913
    1C        C  727   2.592   3.097   3.034
    1C        C  728   2.705   2.921   3.160
    1C        C  729   2.622   3.035   3.157
    1C        C  730   2.752   2.872   3.284
    1C        C  731   2.708   2.928   3.406
    1C        C  732   2.751   2.870   3.527
    1C        C  733   2.496   3.201   2.070
    1C        C  734   2.485   3.280   2.185
    1C        C  735   2.579   3.083   2.305
    1C        C  736   2.519   3.212   2.305
    1C        C  737   2.619   3.021   2.426
    1C        C  738   2.595   3.092   2.546
    1C        C  739   2.697   2.908   2.670
    1C        C  740   2.623   3.029   2.669
    1C        C  741   2.746   2.856   2.792
    1C        C  742   2.703   2.913   2.914
    1C        C  743   2.746   2.862   3.038
    1C        C  744   2.552   3.073   2.071
    1C        C  745   2.680   2.894   2.184
    1C        C  746   2.609   3.016   2.185
    1C        C  747   2.729   2.839   2.304
    1C        C  748   2.688   2.898   2.425
    1C        C  749   2.735   2.848   2.549
    1C        C  750   2.732   2.837   2.066
    1C        C  751   3.652   2.300   1.987
    1C        O  752   3.676   2.189   2.041
    1C        O  753   3.718   2.317   1.865
    1C        C  754   4.645   3.057   2.000
    1C        O  755   4.639   3.027   1.877
    1C        O  756   4.775   3.035   2.049
    1C        C  757   4.472   4.224   1.989
    1C        O  758   4.560   4.285   2.056
    1C        O  759   4.487   4.220   1.850
    1C        C  760   3.591   4.670   1.947
    1C        O  761   3.530   4.773   1.985
    1C        O  762   3.563   4.655   1.811
    1C        C  763   2.894   4.476   1.925
    1C        O  764   2.905   4.440   1.805
    1C        O  765   2.866   4.613   1.933
    1C        C  766   2.321   3.479   1.991
    1C        O  767   2.304   3.481   1.866
    1C        O  768   2.203   3.439   2.055
    1C        C  769   4.683   3.580   5.068
    1C        O  770   4.633   3.547   5.179
    1C        O  771   4.811   3.636   5.072
    1C        C  772   4.281   4.452   5.026
    1C        O  773   4.288   4.442   5.151
    1C        O  774   4.369   4.548   4.976
    1C        C  775   4.156   2.512   5.057
    1C        O  776   4.202   2.399   5.027
    1C        O  777   4.147   2.530   5.195
    1C        C  778   2.919   4.518   5.076
    1C        O  779   2.829   4.606   5.085
    1C        O  780   2.941   4.469   5.205
    1C        C  781   2.487   3.050   5.091
    1C        O  782   2.408   2.957   5.059
    1C        O  783   2.540   3.031   5.219
    1C        C  784   2.428   3.992   5.064
    1C        O  785   2.315   4.035   5.027
    1C        O  786   2.447   3.977   5.202
    1C        C  787   2.945   2.402   2.034
    1C        O  788   2.917   2.403   1.911
    1C        O  789   2.867   2.328   2.122
    1C        C  790   3.180   2.367   5.061
    1C        O  791   3.129   2.267   5.005
    1C        O  792   3.157   2.378   5.199
    1C        H  793   4.287   3.025   5.062
    1C        H  794   4.170   2.815   5.074
    1C        H  795   4.533   3.129   5.046
    1C        H  796   4.492   3.374   5.064
    1C        H  797   4.524   3.802   5.054
    1C        H  798   4.448   3.995   5.051
    1C        H  799   4.300   4.183   5.048
    1C        H  800   4.027   4.527   5.033
    1C        H  801   3.822   4.565   5.037
    1C        H  802   3.600   4.672   5.009
    1C        H  803   3.384   4.526   5.054
    1C        H  804   3.175   4.420   5.031
    1C        H  805   3.891   2.494   5.075
    1C        H  806   3.675   2.462   5.077
    1C        H  807   3.000   2.552   5.063
    1C        H  808   3.444   2.471   5.077
    1C        H  809   2.820   2.694   5.062
    1C        H  810   2.711   2.909   5.076
    1C        H  811   2.573   3.298   5.066
    1C        H  812   2.574   3.503   5.064
    1C        H  813   2.552   3.738   5.064
    1C        H  814   2.630   4.159   5.049
    1C        H  815   2.718   4.369   5.027
    1C        H  816   2.755   2.911   1.992
    1C        H  817   2.846   2.683   1.980
    1C        H  818   3.193   2.396   2.002
    1C        H  819   3.431   2.468   1.977
    1C        H  820   3.862   2.493   1.976
    1C        H  821   4.089   2.558   1.995
    1C        H  822   4.222   2.744   1.964
    1C        H  823   4.394   2.912   1.967
    1C        H  824   4.573   3.312   1.965
    1C        H  825   4.488   3.513   1.962
    1C        H  826   4.554   3.746   1.966
    1C        H  827   3.809   4.553   1.968
    1C        H  828   3.955   4.353   1.948
    1C        H  829   4.187   4.297   1.952
    1C        H  830   4.498   3.962   1.961
    1C        H  831   2.644   3.835   1.967
    1C        H  832   2.768   4.037   1.987
    1C        H  833   2.700   4.310   1.981
    1C        H  834   3.381   4.434   1.958
    1C        H  835   3.152   4.391   1.954
    1C        H  836   2.507   3.005   2.002
    1C        H  837   2.471   3.246   1.977
    1C        H  838   2.475   3.687   1.971
    2V3OU   H29  839   2.800   3.553   5.510
    2V3OU   C27  840   2.779   3.505   5.609
    2V3OU   H27  841   2.725   3.574   5.679
    2V3OU   H28  842   2.722   3.409   5.603
    2V3OU   O11  843   2.907   3.477   5.667
    2V3OU   C15  844   2.915   3.393   5.777
    2V3OU   C13  845   3.047   3.373   5.821
    2V3OU   C14  846   3.074   3.267   5.908
    2V3OU   C16  847   2.971   3.188   5.957
    2V3OU    H6  848   2.994   3.103   6.022
    2V3OU   C12  849   3.210   3.237   5.960
    2V3OU    O2  850   3.239   3.131   6.018
    2V3OU   C10  851   3.325   3.311   5.905
    2V3OU    C8  852   3.456   3.271   5.926
    2V3OU   O10  853   3.486   3.153   5.987
    2V3OU   H26  854   3.406   3.117   6.028
    2V3OU    C6  855   3.564   3.347   5.872
    2V3OU    C5  856   3.535   3.466   5.806
    2V3OU    C4  857   3.704   3.295   5.866
    2V3OU    H4  858   3.725   3.228   5.955
    2V3OU    H5  859   3.709   3.234   5.772
    2V3OU    C2  860   3.815   3.400   5.873
    2V3OU    O6  861   3.807   3.476   5.994
    2V3OU   H21  862   3.761   3.555   5.961
    2V3OU    C3  863   3.781   3.498   5.761
    2V3OU    H2  864   3.859   3.578   5.753
    2V3OU    H3  865   3.777   3.431   5.672
    2V3OU   C25  866   3.948   3.326   5.854
    2V3OU    O7  867   3.991   3.301   5.741
    2V3OU   C26  868   4.027   3.290   5.979
    2V3OU   H22  869   4.060   3.382   6.033
    2V3OU   H23  870   4.116   3.228   5.951
    2V3OU    O8  871   3.967   3.207   6.076
    2V3OU   H24  872   3.928   3.257   6.149
    2V3OU    C1  873   3.646   3.564   5.782
    2V3OU    H1  874   3.620   3.619   5.687
    2V3OU    O3  875   3.660   3.651   5.894
    2V3OU   C19  876   3.619   3.788   5.885
    2V3OU    H9  877   3.521   3.800   5.829
    2V3OU    O4  878   3.714   3.850   5.802
    2V3OU   C20  879   3.843   3.871   5.861
    2V3OU   H10  880   3.899   3.774   5.874
    2V3OU   C24  881   3.606   3.855   6.022
    2V3OU   H16  882   3.542   3.791   6.088
    2V3OU   H17  883   3.568   3.960   6.012
    2V3OU   C23  884   3.745   3.872   6.084
    2V3OU   H15  885   3.786   3.769   6.109
    2V3OU    N1  886   3.739   3.953   6.204
    2V3OU   H19  887   3.810   3.925   6.268
    2V3OU   H20  888   3.656   3.928   6.253
    2V3OU   C21  889   3.847   3.948   5.994
    2V3OU   H11  890   3.950   3.933   6.038
    2V3OU    O5  891   3.823   4.088   5.998
    2V3OU   H18  892   3.779   4.110   6.082
    2V3OU   C22  893   3.915   3.946   5.750
    2V3OU   H12  894   3.862   4.043   5.733
    2V3OU   H13  895   3.906   3.889   5.654
    2V3OU   H14  896   4.022   3.961   5.779
    2V3OU   C11  897   3.156   3.470   5.805
    2V3OU    O1  898   3.134   3.587   5.764
    2V3OU    C9  899   3.296   3.431   5.835
    2V3OU    C7  900   3.400   3.508   5.784
    2V3OU    O9  901   3.386   3.616   5.699
    2V3OU   H25  902   3.289   3.626   5.698
    2V3OU   C17  903   2.814   3.311   5.829
    2V3OU    H7  904   2.712   3.339   5.800
    2V3OU   C18  905   2.838   3.210   5.922
    2V3OU    H8  906   2.756   3.147   5.960
    3SOL     OW  907   3.720   3.033   4.005
    3SOL    HW1  908   3.644   2.968   4.013
    3SOL    HW2  909   3.714   3.082   3.919
    4SOL     OW  910   6.519   6.280   0.725
    4SOL    HW1  911   6.601   6.312   0.773
    4SOL    HW2  912   6.542   6.205   0.664
    5SOL     OW  913   5.410   1.615   1.242
    5SOL    HW1  914   5.420   1.517   1.225
    5SOL    HW2  915   5.457   1.665   1.169
    6SOL     OW  916   5.095   1.237   3.092
    6SOL    HW1  917   5.161   1.172   3.054
    6SOL    HW2  918   5.059   1.295   3.019
    7SOL     OW  919   2.245   4.112   4.139
    7SOL    HW1  920   2.170   4.087   4.078
    7SOL    HW2  921   2.213   4.108   4.234
    8SOL     OW  922   0.605   3.226   4.893
    8SOL    HW1  923   0.602   3.133   4.856
    8SOL    HW2  924   0.700   3.249   4.916
    9SOL     OW  925   0.135   0.837   6.580
    9SOL    HW1  926   0.168   0.924   6.616
    9SOL    HW2  927   0.177   0.762   6.631
   10SOL     OW  928   5.580   4.921   1.728
   10SOL    HW1  929   5.547   5.009   1.692
   10SOL    HW2  930   5.647   4.883   1.664
   11SOL     OW  931   2.071   2.044   1.142
   11SOL    HW1  932   2.061   2.143   1.131
   11SOL    HW2  933   2.014   2.013   1.218
   12SOL     OW  934   4.318   4.906   2.547
   12SOL    HW1  935   4.240   4.853   2.579
   12SOL    HW2  936   4.362   4.950   2.626
   13SOL     OW  937   5.703   6.065   1.405
   13SOL    HW1  938   5.705   6.035   1.500
   13SOL    HW2  939   5.770   6.014   1.352
   14SOL     OW  940   4.340   6.759   6.295
   14SOL    HW1  941   4.378   6.845   6.260
   14SOL    HW2  942   4.282   6.778   6.374
   15SOL     OW  943   1.141   6.226   6.235
   15SOL    HW1  944   1.164   6.307   6.182
   15SOL    HW2  945   1.162   6.242   6.332
   16SOL     OW  946   2.163   4.770   4.800
   16SOL    HW1  947   2.206   4.735   4.717
   16SOL    HW2  948   2.084   4.826   4.775
   17SOL     OW  949   6.534   1.208   5.214
   17SOL    HW1  950   6.436   1.216   5.235
   17SOL    HW2  951   6.573   1.132   5.266
   18SOL     OW  952   2.835   1.462   6.010
   18SOL    HW1  953   2.759   1.517   6.045
   18SOL    HW2  954   2.817   1.436   5.915
   19SOL     OW  955   3.304   6.261   2.999
   19SOL    HW1  956   3.282   6.172   2.960
   19SOL    HW2  957   3.221   6.304   3.034
   20SOL     OW  958   5.740   1.300   4.949
   20SOL    HW1  959   5.825   1.290   5.002
   20SOL    HW2  960   5.662   1.303   5.011
   21SOL     OW  961   2.311   4.467   2.302
   21SOL    HW1  962   2.264   4.555   2.293
   21SOL    HW2  963   2.290   4.428   2.392
   22SOL     OW  964   0.990   0.812   6.847
   22SOL    HW1  965   0.975   0.835   6.943
   22SOL    HW2  966   0.944   0.725   6.826
   23SOL     OW  967   5.553   4.644   0.971
   23SOL    HW1  968   5.651   4.626   0.966
   23SOL    HW2  969   5.522   4.688   0.887
   24SOL     OW  970   4.991   1.676   0.588
   24SOL    HW1  971   5.027   1.760   0.548
   24SOL    HW2  972   4.896   1.663   0.561
   25SOL     OW  973   1.773   0.362   4.594
   25SOL    HW1  974   1.696   0.400   4.646
   25SOL    HW2  975   1.830   0.436   4.558
   26SOL     OW  976   0.449   2.279   6.292
   26SOL    HW1  977   0.438   2.181   6.281
   26SOL    HW2  978   0.376   2.314   6.352
   27SOL     OW  979   6.814   0.264   2.316
   27SOL    HW1  980   6.803   0.200   2.240
   27SOL    HW2  981   6.767   0.228   2.397
   28SOL     OW  982   2.054   0.919   4.797
   28SOL    HW1  983   2.013   0.990   4.854
   28SOL    HW2  984   2.006   0.914   4.710
   29SOL     OW  985   6.861   6.815   0.776
   29SOL    HW1  986   6.780   6.756   0.783
   29SOL    HW2  987   6.921   6.798   0.854
   30SOL     OW  988   4.265   0.216   5.004
   30SOL    HW1  989   4.219   0.299   4.973
   30SOL    HW2  990   4.212   0.174   5.078
   31SOL     OW  991   0.986   4.304   4.801
   31SOL    HW1  992   0.913   4.354   4.755
   31SOL    HW2  993   1.029   4.241   4.737
   32SOL     OW  994   3.643   0.798   0.808
   32SOL    HW1  995   3.607   0.706   0.822
   32SOL    HW2  996   3.571   0.865   0.823
   33SOL     OW  997   2.070   5.431   6.338
   33SOL    HW1  998   2.164   5.466   6.339
   33SOL    HW2  999   2.015   5.487   6.277
   34SOL     OW 1000   2.911   5.873   5.232
   34SOL    HW1 1001   2.812   5.886   5.234
   34SOL    HW2 1002   2.944   5.888   5.139
   35SOL     OW 1003   1.618   2.806   6.389
   35SOL    HW1 1004   1.594   2.847   6.476
   35SOL    HW2 1005   1.536   2.792   6.334
   36SOL     OW 1006   4.423   0.904   3.108
   36SOL    HW1 1007   4.473   0.974   3.160
   36SOL    HW2 1008   4.340   0.943   3.070
   37SOL     OW 1009   2.376   6.806   3.742
   37SOL    HW1 1010   2.448   6.868   3.771
   37SOL    HW2 1011   2.304   6.804   3.812
   38SOL     OW 1012   0.756   4.218   2.680
   38SOL    HW1 1013   0.789   4.178   2.594
   38SOL    HW2 1014   0.660   4.246   2.669
   39SOL     OW 1015   6.712   5.087   1.362
   39SOL    HW1 1016   6.716   5.158   1.292
   39SOL    HW2 1017   6.730   4.998   1.320
   40SOL     OW 1018   4.852   1.624   0.835
   40SOL    HW1 1019   4.896   1.632   0.746
   40SOL    HW2 1020   4.811   1.534   0.845
   41SOL     OW 1021   5.082   4.037   1.749
   41SOL    HW1 1022   5.023   3.978   1.693
   41SOL    HW2 1023   5.092   3.997   1.840
   42SOL     OW 1024   2.768   4.799   6.637
   42SOL    HW1 1025   2.750   4.896   6.619
   42SOL    HW2 1026   2.800   4.789   6.732
   43SOL     OW 1027   4.747   6.933   5.502
   43SOL    HW1 1028   4.813   6.893   5.566
   43SOL    HW2 1029   4.777   6.913   5.408
   44SOL     OW 1030   6.590   1.090   6.937
   44SOL    HW1 1031   6.552   1.180   6.962
   44SOL    HW2 1032   6.536   1.019   6.982
   45SOL     OW 1033   2.133   4.819   6.185
   45SOL    HW1 1034   2.069   4.813   6.262
   45SOL    HW2 1035   2.213   4.874   6.213
   46SOL     OW 1036   1.456   3.290   5.295
   46SOL    HW1 1037   1.401   3.367   5.263
   46SOL    HW2 1038   1.553   3.314   5.288
   47SOL     OW 1039   5.376   3.846   0.072
   47SOL    HW1 1040   5.315   3.860   0.149
   47SOL    HW2 1041   5.467   3.883   0.094
   48SOL     OW 1042   6.164   3.915   0.342
   48SOL    HW1 1043   6.067   3.898   0.321
   48SOL    HW2 1044   6.198   3.843   0.401
   49SOL     OW 1045   3.076   3.887   6.779
   49SOL    HW1 1046   2.994   3.944   6.782
   49SOL    HW2 1047   3.113   3.889   6.686
   50SOL     OW 1048   6.281   1.777   0.198
   50SOL    HW1 1049   6.278   1.874   0.223
   50SOL    HW2 1050   6.189   1.746   0.175
   51SOL     OW 1051   0.770   5.853   2.454
   51SOL    HW1 1052   0.670   5.856   2.463
   51SOL    HW2 1053   0.812   5.850   2.545
   52SOL     OW 1054   5.917   2.675   1.874
   52SOL    HW1 1055   5.882   2.584   1.895
   52SOL    HW2 1056   5.865   2.744   1.924
   53SOL     OW 1057   3.457   0.668   1.277
   53SOL    HW1 1058   3.555   0.683   1.262
   53SOL    HW2 1059   3.432   0.703   1.367
   54SOL     OW 1060   5.521   0.141   6.339
   54SOL    HW1 1061   5.568   0.060   6.305
   54SOL    HW2 1062   5.500   0.202   6.262
   55SOL     OW 1063   1.204   3.301   5.977
   55SOL    HW1 1064   1.296   3.327   5.950
   55SOL    HW2 1065   1.161   3.377   6.028
   56SOL     OW 1066   0.564   2.001   6.796
   56SOL    HW1 1067   0.538   2.086   6.748
   56SOL    HW2 1068   0.637   2.021   6.860
   57SOL     OW 1069   4.272   6.359   0.971
   57SOL    HW1 1070   4.284   6.412   0.887
   57SOL    HW2 1071   4.175   6.347   0.989
   58SOL     OW 1072   1.239   0.851   6.755
   58SOL    HW1 1073   1.153   0.821   6.795
   58SOL    HW2 1074   1.288   0.909   6.820
   59SOL     OW 1075   4.509   3.203   5.481
   59SOL    HW1 1076   4.582   3.269   5.462
   59SOL    HW2 1077   4.457   3.186   5.398
   60SOL     OW 1078   6.104   2.696   2.077
   60SOL    HW1 1079   6.067   2.687   1.985
   60SOL    HW2 1080   6.175   2.627   2.092
   61SOL     OW 1081   0.963   6.417   4.063
   61SOL    HW1 1082   1.057   6.395   4.088
   61SOL    HW2 1083   0.961   6.486   3.991
   62SOL     OW 1084   6.202   3.230   3.208
   62SOL    HW1 1085   6.118   3.256   3.256
   62SOL    HW2 1086   6.198   3.260   3.113
   63SOL     OW 1087   3.610   0.659   5.976
   63SOL    HW1 1088   3.513   0.683   5.976
   63SOL    HW2 1089   3.663   0.735   6.013
   64SOL     OW 1090   1.354   3.002   5.619
   64SOL    HW1 1091   1.401   2.914   5.609
   64SOL    HW2 1092   1.416   3.076   5.593
   65SOL     OW 1093   0.685   5.019   4.199
   65SOL    HW1 1094   0.587   5.003   4.209
   65SOL    HW2 1095   0.714   5.091   4.262
   66SOL     OW 1096   3.866   1.130   1.804
   66SOL    HW1 1097   3.869   1.230   1.793
   66SOL    HW2 1098   3.940   1.102   1.866
   67SOL     OW 1099   6.685   3.343   1.493
   67SOL    HW1 1100   6.726   3.428   1.459
   67SOL    HW2 1101   6.608   3.318   1.434
   68SOL     OW 1102   0.002   1.539   6.615
   68SOL    HW1 1103   0.016   1.584   6.703
   68SOL    HW2 1104   0.013   1.605   6.541
   69SOL     OW 1105   1.080   6.050   6.839
   69SOL    HW1 1106   1.064   6.085   6.746
   69SOL    HW2 1107   1.175   6.020   6.847
   70SOL     OW 1108   4.985   4.398   4.136
   70SOL    HW1 1109   4.989   4.463   4.059
   70SOL    HW2 1110   4.984   4.449   4.222
   71SOL     OW 1111   5.216   2.232   4.314
   71SOL    HW1 1112   5.191   2.204   4.222
   71SOL    HW2 1113   5.168   2.316   4.338
   72SOL     OW 1114   0.415   1.720   3.375
   72SOL    HW1 1115   0.384   1.635   3.418
   72SOL    HW2 1116   0.383   1.798   3.429
   73SOL     OW 1117   2.500   0.043   0.808
   73SOL    HW1 1118   2.583   0.072   0.855
   73SOL    HW2 1119   2.515   6.977   0.764
   74SOL     OW 1120   3.479   2.393   0.915
   74SOL    HW1 1121   3.451   2.486   0.939
   74SOL    HW2 1122   3.418   2.327   0.960
   75SOL     OW 1123   2.855   2.884   0.138
   75SOL    HW1 1124   2.880   2.938   0.058
   75SOL    HW2 1125   2.802   2.941   0.201
   76SOL     OW 1126   3.758   5.154   5.393
   76SOL    HW1 1127   3.832   5.189   5.336
   76SOL    HW2 1128   3.786   5.151   5.488
   77SOL     OW 1129   0.845   5.398   4.671
   77SOL    HW1 1130   0.880   5.491   4.684
   77SOL    HW2 1131   0.894   5.353   4.597
   78SOL     OW 1132   4.440   1.735   1.370
   78SOL    HW1 1133   4.521   1.690   1.406
   78SOL    HW2 1134   4.455   1.757   1.273
   79SOL     OW 1135   1.487   4.460   3.788
   79SOL    HW1 1136   1.576   4.449   3.744
   79SOL    HW2 1137   1.422   4.499   3.723
   80SOL     OW 1138   3.463   1.729   4.673
   80SOL    HW1 1139   3.409   1.800   4.718
   80SOL    HW2 1140   3.475   1.752   4.577
   81SOL     OW 1141   3.925   5.128   1.612
   81SOL    HW1 1142   3.870   5.202   1.650
   81SOL    HW2 1143   3.993   5.099   1.679
   82SOL     OW 1144   2.663   6.463   1.942
   82SOL    HW1 1145   2.655   6.487   1.845
   82SOL    HW2 1146   2.705   6.539   1.992
   83SOL     OW 1147   5.246   1.286   3.817
   83SOL    HW1 1148   5.176   1.219   3.793
   83SOL    HW2 1149   5.312   1.293   3.743
   84SOL     OW 1150   5.880   2.720   2.760
   84SOL    HW1 1151   5.791   2.693   2.795
   84SOL    HW2 1152   5.941   2.742   2.837
   85SOL     OW 1153   2.784   6.360   3.487
   85SOL    HW1 1154   2.848   6.363   3.563
   85SOL    HW2 1155   2.825   6.406   3.407
   86SOL     OW 1156   5.161   6.888   0.405
   86SOL    HW1 1157   5.086   6.826   0.382
   86SOL    HW2 1158   5.159   6.967   0.343
   87SOL     OW 1159   2.720   4.007   6.599
   87SOL    HW1 1160   2.730   3.916   6.639
   87SOL    HW2 1161   2.802   4.061   6.617
   88SOL     OW 1162   2.686   3.368   1.536
   88SOL    HW1 1163   2.626   3.303   1.489
   88SOL    HW2 1164   2.631   3.442   1.575
   89SOL     OW 1165   2.923   3.464   4.100
   89SOL    HW1 1166   2.866   3.394   4.143
   89SOL    HW2 1167   3.004   3.480   4.156
   90SOL     OW 1168   5.840   3.729   2.244
   90SOL    HW1 1169   5.794   3.762   2.327
   90SOL    HW2 1170   5.911   3.794   2.218
   91SOL     OW 1171   4.470   5.506   6.019
   91SOL    HW1 1172   4.463   5.446   5.939
   91SOL    HW2 1173   4.415   5.469   6.094
   92SOL     OW 1174   5.181   4.110   0.159
   92SOL    HW1 1175   5.169   4.181   0.228
   92SOL    HW2 1176   5.240   4.144   0.086
   93SOL     OW 1177   2.870   3.595   2.079
   93SOL    HW1 1178   2.797   3.587   2.146
   93SOL    HW2 1179   2.916   3.507   2.070
   94SOL     OW 1180   2.969   2.262   4.081
   94SOL    HW1 1181   3.032   2.228   4.152
   94SOL    HW2 1182   2.875   2.240   4.106
   95SOL     OW 1183   0.151   0.617   4.003
   95SOL    HW1 1184   0.248   0.639   4.002
   95SOL    HW2 1185   0.139   0.519   3.995
   96SOL     OW 1186   6.965   5.120   6.591
   96SOL    HW1 1187   6.890   5.139   6.654
   96SOL    HW2 1188   6.928   5.085   6.505
   97SOL     OW 1189   2.394   4.435   5.753
   97SOL    HW1 1190   2.304   4.473   5.775
   97SOL    HW2 1191   2.449   4.504   5.707
   98SOL     OW 1192   0.915   2.082   3.762
   98SOL    HW1 1193   0.845   2.030   3.712
   98SOL    HW2 1194   0.996   2.094   3.703
   99SOL     OW 1195   3.392   4.244   5.177
   99SOL    HW1 1196   3.414   4.218   5.271
   99SOL    HW2 1197   3.452   4.194   5.114
  100SOL     OW 1198   0.071   0.498   5.020
  100SOL    HW1 1199   0.064   0.409   4.976
  100SOL    HW2 1200   0.162   0.509   5.059
  101SOL     OW 1201   5.173   3.565   2.861
  101SOL    HW1 1202   5.222   3.504   2.798
  101SOL    HW2 1203   5.088   3.521   2.890
  102SOL     OW 1204   4.066   0.449   6.974
  102SOL    HW1 1205   4.050   0.460   0.050
  102SOL    HW2 1206   4.164   0.456   6.955
  103SOL     OW 1207   1.389   1.320   1.891
  103SOL    HW1 1208   1.407   1.336   1.988
  103SOL    HW2 1209   1.396   1.222   1.871
  104SOL     OW 1210   6.626   4.417   1.795
  104SOL    HW1 1211   6.601   4.509   1.825
  104SOL    HW2 1212   6.685   4.423   1.714
  105SOL     OW 1213   6.866   0.685   5.068
  105SOL    HW1 1214   6.804   0.635   5.007
  105SOL    HW2 1215   6.957   0.642   5.065
  106SOL     OW 1216   4.411   3.030   1.354
  106SOL    HW1 1217   4.421   3.101   1.285
  106SOL    HW2 1218   4.459   3.057   1.437
  107SOL     OW 1219   6.043   6.953   1.589
  107SOL    HW1 1220   5.997   6.963   1.677
  107SOL    HW2 1221   6.054   6.855   1.568
  108SOL     OW 1222   2.905   1.260   4.572
  108SOL    HW1 1223   2.857   1.261   4.660
  108SOL    HW2 1224   2.920   1.165   4.544
  109SOL     OW 1225   1.754   1.179   4.985
  109SOL    HW1 1226   1.851   1.159   5.000
  109SOL    HW2 1227   1.721   1.129   4.905
  110SOL     OW 1228   3.445   4.188   5.433
  110SOL    HW1 1229   3.542   4.212   5.440
  110SOL    HW2 1230   3.436   4.089   5.423
  111SOL     OW 1231   5.893   2.662   1.060
  111SOL    HW1 1232   5.969   2.726   1.048
  111SOL    HW2 1233   5.854   2.639   0.970
  112SOL     OW 1234   5.188   0.002   6.591
  112SOL    HW1 1235   5.202   6.940   6.539
  112SOL    HW2 1236   5.271   0.058   6.586
  113SOL     OW 1237   0.477   5.197   2.486
  113SOL    HW1 1238   0.422   5.115   2.469
  113SOL    HW2 1239   0.477   5.254   2.404
  114SOL     OW 1240   0.239   2.393   2.148
  114SOL    HW1 1241   0.164   2.384   2.215
  114SOL    HW2 1242   0.203   2.431   2.063
  115SOL     OW 1243   5.110   6.547   3.445
  115SOL    HW1 1244   5.159   6.485   3.384
  115SOL    HW2 1245   5.018   6.512   3.461
  116SOL     OW 1246   6.946   4.971   0.510
  116SOL    HW1 1247   6.985   5.056   0.475
  116SOL    HW2 1248   6.946   4.974   0.610
  117SOL     OW 1249   2.486   2.698   0.158
  117SOL    HW1 1250   2.558   2.717   0.091
  117SOL    HW2 1251   2.409   2.760   0.143
  118SOL     OW 1252   0.035   2.031   2.859
  118SOL    HW1 1253   0.053   1.934   2.847
  118SOL    HW2 1254   0.005   2.048   2.953
  119SOL     OW 1255   6.261   0.459   5.204
  119SOL    HW1 1256   6.175   0.510   5.209
  119SOL    HW2 1257   6.317   0.496   5.130
  120SOL     OW 1258   4.527   0.987   4.147
  120SOL    HW1 1259   4.592   0.914   4.164
  120SOL    HW2 1260   4.477   0.969   4.063
  121SOL     OW 1261   0.303   5.167   6.993
  121SOL    HW1 1262   0.268   5.086   0.018
  121SOL    HW2 1263   0.264   5.171   6.901
  122SOL     OW 1264   6.751   5.077   6.119
  122SOL    HW1 1265   6.664   5.117   6.091
  122SOL    HW2 1266   6.813   5.073   6.040
  123SOL     OW 1267   0.915   2.678   1.869
  123SOL    HW1 1268   0.948   2.751   1.810
  123SOL    HW2 1269   0.831   2.708   1.914
  124SOL     OW 1270   1.212   3.718   0.003
  124SOL    HW1 1271   1.132   3.765   0.040
  124SOL    HW2 1272   1.295   3.766   0.034
  125SOL     OW 1273   4.933   2.778   0.240
  125SOL    HW1 1274   4.902   2.798   0.333
  125SOL    HW2 1275   5.014   2.721   0.244
  126SOL     OW 1276   3.678   2.996   4.330
  126SOL    HW1 1277   3.579   2.978   4.332
  126SOL    HW2 1278   3.727   2.909   4.327
  127SOL     OW 1279   0.740   4.969   5.164
  127SOL    HW1 1280   0.738   5.049   5.224
  127SOL    HW2 1281   0.781   4.892   5.212
  128SOL     OW 1282   5.004   3.829   6.875
  128SOL    HW1 1283   5.053   3.754   6.830
  128SOL    HW2 1284   5.054   3.915   6.862
  129SOL     OW 1285   0.215   5.585   2.309
  129SOL    HW1 1286   0.138   5.546   2.359
  129SOL    HW2 1287   0.260   5.654   2.365
  130SOL     OW 1288   6.207   2.653   4.419
  130SOL    HW1 1289   6.179   2.749   4.408
  130SOL    HW2 1290   6.147   2.594   4.365
  131SOL     OW 1291   0.872   2.948   3.306
  131SOL    HW1 1292   0.961   2.972   3.267
  131SOL    HW2 1293   0.886   2.894   3.389
  132SOL     OW 1294   3.940   2.732   0.963
  132SOL    HW1 1295   3.988   2.644   0.971
  132SOL    HW2 1296   3.969   2.792   1.037
  133SOL     OW 1297   4.598   5.900   5.919
  133SOL    HW1 1298   4.657   5.947   5.984
  133SOL    HW2 1299   4.557   5.966   5.857
  134SOL     OW 1300   6.005   1.823   1.271
  134SOL    HW1 1301   5.973   1.902   1.324
  134SOL    HW2 1302   5.931   1.791   1.212
  135SOL     OW 1303   4.858   3.665   3.882
  135SOL    HW1 1304   4.877   3.625   3.793
  135SOL    HW2 1305   4.869   3.765   3.877
  136SOL     OW 1306   3.603   0.981   6.353
  136SOL    HW1 1307   3.575   0.892   6.389
  136SOL    HW2 1308   3.671   1.022   6.413
  137SOL     OW 1309   2.596   3.518   6.013
  137SOL    HW1 1310   2.632   3.591   5.956
  137SOL    HW2 1311   2.497   3.516   6.008
  138SOL     OW 1312   1.213   5.302   6.658
  138SOL    HW1 1313   1.173   5.343   6.740
  138SOL    HW2 1314   1.196   5.362   6.580
  139SOL     OW 1315   1.206   0.248   0.972
  139SOL    HW1 1316   1.216   0.308   0.892
  139SOL    HW2 1317   1.285   0.186   0.976
  140SOL     OW 1318   4.620   0.501   1.332
  140SOL    HW1 1319   4.627   0.428   1.400
  140SOL    HW2 1320   4.531   0.497   1.287
  141SOL     OW 1321   0.370   3.029   0.500
  141SOL    HW1 1322   0.391   3.067   0.410
  141SOL    HW2 1323   0.425   3.077   0.569
  142SOL     OW 1324   2.256   3.546   0.715
  142SOL    HW1 1325   2.257   3.449   0.691
  142SOL    HW2 1326   2.304   3.599   0.645
  143SOL     OW 1327   4.160   6.266   2.178
  143SOL    HW1 1328   4.204   6.177   2.187
  143SOL    HW2 1329   4.230   6.336   2.166
  144SOL     OW 1330   3.253   5.737   2.808
  144SOL    HW1 1331   3.185   5.774   2.871
  144SOL    HW2 1332   3.301   5.813   2.763
  145SOL     OW 1333   0.316   5.096   3.387
  145SOL    HW1 1334   0.240   5.033   3.403
  145SOL    HW2 1335   0.291   5.161   3.315
  146SOL     OW 1336   4.941   0.842   6.281
  146SOL    HW1 1337   5.034   0.815   6.254
  146SOL    HW2 1338   4.875   0.778   6.241
  147SOL     OW 1339   4.228   0.705   4.613
  147SOL    HW1 1340   4.187   0.619   4.643
  147SOL    HW2 1341   4.274   0.750   4.690
  148SOL     OW 1342   1.882   6.118   1.217
  148SOL    HW1 1343   1.832   6.166   1.289
  148SOL    HW2 1344   1.863   6.163   1.129
  149SOL     OW 1345   1.995   2.548   4.396
  149SOL    HW1 1346   2.057   2.531   4.472
  149SOL    HW2 1347   2.047   2.551   4.310
  150SOL     OW 1348   4.152   1.209   4.863
  150SOL    HW1 1349   4.118   1.300   4.885
  150SOL    HW2 1350   4.224   1.184   4.927
  151SOL     OW 1351   5.345   2.456   0.772
  151SOL    HW1 1352   5.337   2.441   0.870
  151SOL    HW2 1353   5.337   2.553   0.752
  152SOL     OW 1354   0.674   2.401   1.317
  152SOL    HW1 1355   0.680   2.344   1.399
  152SOL    HW2 1356   0.762   2.446   1.301
  153SOL     OW 1357   2.291   1.494   3.760
  153SOL    HW1 1358   2.381   1.452   3.749
  153SOL    HW2 1359   2.300   1.594   3.761
  154SOL     OW 1360   6.314   2.546   2.644
  154SOL    HW1 1361   6.227   2.568   2.600
  154SOL    HW2 1362   6.381   2.618   2.623
  155SOL     OW 1363   6.855   5.488   3.098
  155SOL    HW1 1364   6.889   5.430   3.024
  155SOL    HW2 1365   6.814   5.570   3.059
  156SOL     OW 1366   5.090   2.548   0.441
  156SOL    HW1 1367   5.062   2.454   0.459
  156SOL    HW2 1368   5.125   2.589   0.526
  157SOL     OW 1369   5.000   6.430   1.018
  157SOL    HW1 1370   4.992   6.424   0.918
  157SOL    HW2 1371   4.925   6.378   1.060
  158SOL     OW 1372   0.781   2.739   3.911
  158SOL    HW1 1373   0.861   2.689   3.944
  158SOL    HW2 1374   0.752   2.702   3.823
  159SOL     OW 1375   6.437   5.172   0.912
  159SOL    HW1 1376   6.355   5.194   0.858
  159SOL    HW2 1377   6.437   5.074   0.933
  160SOL     OW 1378   5.518   0.451   1.115
  160SOL    HW1 1379   5.454   0.377   1.133
  160SOL    HW2 1380   5.512   0.519   1.187
  161SOL     OW 1381   6.428   6.962   0.743
  161SOL    HW1 1382   6.445   6.996   0.650
  161SOL    HW2 1383   6.360   6.888   0.740
  162SOL     OW 1384   4.304   0.116   6.412
  162SOL    HW1 1385   4.339   0.164   6.492
  162SOL    HW2 1386   4.338   0.161   6.329
  163SOL     OW 1387   1.058   3.514   2.303
  163SOL    HW1 1388   1.126   3.479   2.238
  163SOL    HW2 1389   1.095   3.595   2.350
  164SOL     OW 1390   2.963   1.879   3.126
  164SOL    HW1 1391   2.915   1.874   3.038
  164SOL    HW2 1392   2.963   1.974   3.158
  165SOL     OW 1393   6.878   0.020   3.932
  165SOL    HW1 1394   6.846   0.083   4.002
  165SOL    HW2 1395   6.846   6.949   3.954
  166SOL     OW 1396   6.662   4.453   3.938
  166SOL    HW1 1397   6.734   4.502   3.890
  166SOL    HW2 1398   6.654   4.360   3.901
  167SOL     OW 1399   2.089   1.555   5.693
  167SOL    HW1 1400   2.120   1.518   5.606
  167SOL    HW2 1401   2.169   1.576   5.750
  168SOL     OW 1402   3.973   3.523   1.690
  168SOL    HW1 1403   4.040   3.530   1.616
  168SOL    HW2 1404   3.933   3.431   1.690
  169SOL     OW 1405   4.903   2.082   1.140
  169SOL    HW1 1406   4.827   2.143   1.116
  169SOL    HW2 1407   4.989   2.133   1.133
  170SOL     OW 1408   6.101   5.530   1.139
  170SOL    HW1 1409   6.098   5.504   1.236
  170SOL    HW2 1410   6.025   5.486   1.091
  171SOL     OW 1411   3.461   2.996   1.353
  171SOL    HW1 1412   3.434   2.900   1.364
  171SOL    HW2 1413   3.471   3.017   1.256
  172SOL     OW 1414   1.197   1.689   6.517
  172SOL    HW1 1415   1.199   1.779   6.475
  172SOL    HW2 1416   1.282   1.674   6.569
  173SOL     OW 1417   6.289   1.494   3.946
  173SOL    HW1 1418   6.196   1.531   3.954
  173SOL    HW2 1419   6.351   1.567   3.914
  174SOL     OW 1420   5.585   4.329   4.374
  174SOL    HW1 1421   5.681   4.338   4.347
  174SOL    HW2 1422   5.531   4.299   4.295
  175SOL     OW 1423   0.168   6.737   2.886
  175SOL    HW1 1424   0.207   6.769   2.972
  175SOL    HW2 1425   0.187   6.803   2.813
  176SOL     OW 1426   5.868   3.405   1.773
  176SOL    HW1 1427   5.897   3.355   1.691
  176SOL    HW2 1428   5.813   3.345   1.831
  177SOL     OW 1429   6.152   2.517   3.616
  177SOL    HW1 1430   6.134   2.609   3.580
  177SOL    HW2 1431   6.200   2.525   3.703
  178SOL     OW 1432   2.663   5.774   4.768
  178SOL    HW1 1433   2.583   5.826   4.738
  178SOL    HW2 1434   2.634   5.684   4.801
  179SOL     OW 1435   3.220   4.126   1.424
  179SOL    HW1 1436   3.126   4.090   1.422
  179SOL    HW2 1437   3.229   4.190   1.500
  180SOL     OW 1438   4.445   1.012   0.041
  180SOL    HW1 1439   4.505   0.933   0.024
  180SOL    HW2 1440   4.501   1.094   0.052
  181SOL     OW 1441   3.494   2.249   5.959
  181SOL    HW1 1442   3.425   2.184   5.992
  181SOL    HW2 1443   3.535   2.297   6.036
  182SOL     OW 1444   3.155   2.607   6.089
  182SOL    HW1 1445   3.131   2.525   6.037
  182SOL    HW2 1446   3.102   2.685   6.053
  183SOL     OW 1447   2.951   0.616   3.495
  183SOL    HW1 1448   2.928   0.707   3.528
  183SOL    HW2 1449   2.954   0.552   3.571
  184SOL     OW 1450   5.250   5.633   3.900
  184SOL    HW1 1451   5.308   5.562   3.938
  184SOL    HW2 1452   5.173   5.650   3.961
  185SOL     OW 1453   0.038   0.363   4.697
  185SOL    HW1 1454   0.029   0.282   4.638
  185SOL    HW2 1455   0.078   0.438   4.646
  186SOL     OW 1456   3.452   6.021   4.883
  186SOL    HW1 1457   3.368   5.971   4.866
  186SOL    HW2 1458   3.440   6.080   4.963
  187SOL     OW 1459   4.135   6.104   1.844
  187SOL    HW1 1460   4.120   6.063   1.755
  187SOL    HW2 1461   4.177   6.037   1.906
  188SOL     OW 1462   1.243   3.324   3.104
  188SOL    HW1 1463   1.235   3.343   3.201
  188SOL    HW2 1464   1.155   3.295   3.068
  189SOL     OW 1465   5.541   5.083   5.379
  189SOL    HW1 1466   5.456   5.131   5.358
  189SOL    HW2 1467   5.523   4.986   5.394
  190SOL     OW 1468   5.831   0.289   0.592
  190SOL    HW1 1469   5.790   0.203   0.624
  190SOL    HW2 1470   5.810   0.362   0.657
  191SOL     OW 1471   0.274   1.844   5.468
  191SOL    HW1 1472   0.316   1.891   5.546
  191SOL    HW2 1473   0.244   1.912   5.401
  192SOL     OW 1474   0.534   5.585   1.262
  192SOL    HW1 1475   0.466   5.529   1.215
  192SOL    HW2 1476   0.529   5.567   1.361
  193SOL     OW 1477   2.263   7.012   0.554
  193SOL    HW1 1478   2.318   6.954   0.495
  193SOL    HW2 1479   2.322   0.039   0.618
  194SOL     OW 1480   4.060   5.955   2.321
  194SOL    HW1 1481   4.007   5.941   2.405
  194SOL    HW2 1482   4.074   5.867   2.276
  195SOL     OW 1483   4.117   0.649   1.289
  195SOL    HW1 1484   4.060   0.586   1.343
  195SOL    HW2 1485   4.060   0.723   1.254
  196SOL     OW 1486   3.763   2.482   0.725
  196SOL    HW1 1487   3.751   2.393   0.769
  196SOL    HW2 1488   3.687   2.542   0.750
  197SOL     OW 1489   1.881   6.096   0.422
  197SOL    HW1 1490   1.843   6.188   0.421
  197SOL    HW2 1491   1.866   6.055   0.512
  198SOL     OW 1492   3.952   6.937   6.672
  198SOL    HW1 1493   3.986   6.895   6.756
  198SOL    HW2 1494   4.028   6.967   6.616
  199SOL     OW 1495   0.382   0.449   2.822
  199SOL    HW1 1496   0.356   0.477   2.914
  199SOL    HW2 1497   0.405   0.352   2.822
  200SOL     OW 1498   0.849   4.712   3.154
  200SOL    HW1 1499   0.815   4.695   3.246
  200SOL    HW2 1500   0.948   4.724   3.157
  201SOL     OW 1501   5.001   1.359   6.478
  201SOL    HW1 1502   4.905   1.366   6.505
  201SOL    HW2 1503   5.050   1.301   6.543
  202SOL     OW 1504   3.604   1.136   2.314
  202SOL    HW1 1505   3.534   1.207   2.317
  202SOL    HW2 1506   3.681   1.167   2.258
  203SOL     OW 1507   5.755   2.830   6.872
  203SOL    HW1 1508   5.787   2.825   6.967
  203SOL    HW2 1509   5.809   2.897   6.822
  204SOL     OW 1510   2.643   6.601   1.700
  204SOL    HW1 1511   2.709   6.670   1.670
  204SOL    HW2 1512   2.556   6.646   1.722
  205SOL     OW 1513   5.720   0.863   0.897
  205SOL    HW1 1514   5.702   0.932   0.826
  205SOL    HW2 1515   5.660   0.784   0.882
  206SOL     OW 1516   0.782   5.166   1.826
  206SOL    HW1 1517   0.816   5.235   1.762
  206SOL    HW2 1518   0.835   5.170   1.910
  207SOL     OW 1519   4.696   1.586   5.421
  207SOL    HW1 1520   4.702   1.505   5.362
  207SOL    HW2 1521   4.774   1.646   5.404
  208SOL     OW 1522   3.735   5.000   6.407
  208SOL    HW1 1523   3.726   5.089   6.454
  208SOL    HW2 1524   3.647   4.953   6.407
  209SOL     OW 1525   6.810   5.435   4.987
  209SOL    HW1 1526   6.717   5.431   5.022
  209SOL    HW2 1527   6.846   5.342   4.977
  210SOL     OW 1528   3.918   2.130   2.216
  210SOL    HW1 1529   4.003   2.125   2.163
  210SOL    HW2 1530   3.848   2.178   2.163
  211SOL     OW 1531   1.275   2.183   1.825
  211SOL    HW1 1532   1.240   2.273   1.798
  211SOL    HW2 1533   1.198   2.123   1.847
  212SOL     OW 1534   0.930   4.750   4.453
  212SOL    HW1 1535   0.915   4.829   4.512
  212SOL    HW2 1536   0.854   4.742   4.389
  213SOL     OW 1537   4.315   2.620   6.564
  213SOL    HW1 1538   4.216   2.624   6.560
  213SOL    HW2 1539   4.344   2.526   6.586
  214SOL     OW 1540   1.477   6.657   3.136
  214SOL    HW1 1541   1.568   6.694   3.117
  214SOL    HW2 1542   1.486   6.577   3.196
  215SOL     OW 1543   3.509   3.460   2.917
  215SOL    HW1 1544   3.550   3.519   2.987
  215SOL    HW2 1545   3.551   3.369   2.921
  216SOL     OW 1546   1.525   6.284   5.781
  216SOL    HW1 1547   1.447   6.262   5.722
  216SOL    HW2 1548   1.513   6.375   5.821
  217SOL     OW 1549   0.341   2.671   4.005
  217SOL    HW1 1550   0.260   2.701   4.055
  217SOL    HW2 1551   0.419   2.729   4.031
  218SOL     OW 1552   1.985   3.998   5.646
  218SOL    HW1 1553   1.942   4.074   5.695
  218SOL    HW2 1554   2.084   4.007   5.650
  219SOL     OW 1555   4.393   5.393   0.615
  219SOL    HW1 1556   4.328   5.372   0.688
  219SOL    HW2 1557   4.472   5.440   0.655
  220SOL     OW 1558   1.788   4.601   0.768
  220SOL    HW1 1559   1.691   4.610   0.744
  220SOL    HW2 1560   1.842   4.593   0.685
  221SOL     OW 1561   6.574   2.751   4.039
  221SOL    HW1 1562   6.533   2.709   3.958
  221SOL    HW2 1563   6.511   2.821   4.075
  222SOL     OW 1564   1.057   6.189   4.576
  222SOL    HW1 1565   0.972   6.223   4.617
  222SOL    HW2 1566   1.135   6.219   4.632
  223SOL     OW 1567   5.869   4.342   2.554
  223SOL    HW1 1568   5.804   4.383   2.618
  223SOL    HW2 1569   5.956   4.392   2.559
  224SOL     OW 1570   3.499   2.081   2.221
  224SOL    HW1 1571   3.548   2.132   2.149
  224SOL    HW2 1572   3.402   2.080   2.200
  225SOL     OW 1573   0.298   0.173   1.167
  225SOL    HW1 1574   0.243   0.093   1.146
  225SOL    HW2 1575   0.362   0.190   1.093
  226SOL     OW 1576   0.352   6.020   1.463
  226SOL    HW1 1577   0.380   5.958   1.537
  226SOL    HW2 1578   0.410   6.101   1.463
  227SOL     OW 1579   1.848   2.797   3.123
  227SOL    HW1 1580   1.896   2.794   3.211
  227SOL    HW2 1581   1.915   2.800   3.049
  228SOL     OW 1582   3.975   6.706   2.624
  228SOL    HW1 1583   4.060   6.669   2.659
  228SOL    HW2 1584   3.959   6.797   2.664
  229SOL     OW 1585   6.344   5.755   3.019
  229SOL    HW1 1586   6.283   5.834   3.026
  229SOL    HW2 1587   6.318   5.687   3.088
  230SOL     OW 1588   1.011   4.257   5.961
  230SOL    HW1 1589   0.917   4.286   5.944
  230SOL    HW2 1590   1.013   4.199   6.043
  231SOL     OW 1591   0.594   1.844   0.314
  231SOL    HW1 1592   0.626   1.927   0.361
  231SOL    HW2 1593   0.561   1.778   0.382
  232SOL     OW 1594   1.922   4.512   6.554
  232SOL    HW1 1595   1.895   4.416   6.566
  232SOL    HW2 1596   1.844   4.564   6.521
  233SOL     OW 1597   3.330   1.044   5.975
  233SOL    HW1 1598   3.260   1.064   6.045
  233SOL    HW2 1599   3.294   1.066   5.885
  234SOL     OW 1600   2.767   5.612   7.016
  234SOL    HW1 1601   2.840   5.679   0.010
  234SOL    HW2 1602   2.765   5.588   6.918
  235SOL     OW 1603   3.925   3.080   4.401
  235SOL    HW1 1604   3.934   3.177   4.421
  235SOL    HW2 1605   3.829   3.059   4.381
  236SOL     OW 1606   6.674   1.771   5.600
  236SOL    HW1 1607   6.767   1.735   5.594
  236SOL    HW2 1608   6.640   1.792   5.509
  237SOL     OW 1609   0.005   6.601   2.110
  237SOL    HW1 1610   6.955   6.601   2.040
  237SOL    HW2 1611   6.997   6.657   2.188
  238SOL     OW 1612   0.047   2.382   2.319
  238SOL    HW1 1613   0.038   2.398   2.417
  238SOL    HW2 1614   6.978   2.364   2.280
  239SOL     OW 1615   0.334   5.652   0.700
  239SOL    HW1 1616   0.423   5.639   0.656
  239SOL    HW2 1617   0.289   5.733   0.661
  240SOL     OW 1618   6.820   2.842   5.625
  240SOL    HW1 1619   6.755   2.880   5.560
  240SOL    HW2 1620   6.775   2.770   5.678
  241SOL     OW 1621   6.518   1.744   4.179
  241SOL    HW1 1622   6.520   1.647   4.155
  241SOL    HW2 1623   6.423   1.775   4.186
  242SOL     OW 1624   2.011   2.636   3.686
  242SOL    HW1 1625   2.101   2.639   3.641
  242SOL    HW2 1626   1.949   2.579   3.632
  243SOL     OW 1627   4.020   0.992   6.106
  243SOL    HW1 1628   4.086   0.964   6.036
  243SOL    HW2 1629   3.994   1.088   6.091
  244SOL     OW 1630   6.691   0.618   6.210
  244SOL    HW1 1631   6.687   0.551   6.284
  244SOL    HW2 1632   6.701   0.710   6.248
  245SOL     OW 1633   5.793   2.937   3.599
  245SOL    HW1 1634   5.850   2.883   3.661
  245SOL    HW2 1635   5.709   2.887   3.579
  246SOL     OW 1636   4.955   3.515   3.635
  246SOL    HW1 1637   4.966   3.602   3.586
  246SOL    HW2 1638   5.029   3.505   3.702
  247SOL     OW 1639   3.118   0.080   3.646
  247SOL    HW1 1640   3.043   0.031   3.601
  247SOL    HW2 1641   3.081   0.135   3.721
  248SOL     OW 1642   6.578   1.522   2.071
  248SOL    HW1 1643   6.650   1.525   2.001
  248SOL    HW2 1644   6.492   1.551   2.030
  249SOL     OW 1645   1.974   6.335   4.415
  249SOL    HW1 1646   2.046   6.372   4.474
  249SOL    HW2 1647   1.998   6.242   4.388
  250SOL     OW 1648   5.458   3.191   6.410
  250SOL    HW1 1649   5.512   3.265   6.450
  250SOL    HW2 1650   5.369   3.187   6.454
  251SOL     OW 1651   2.064   2.444   0.937
  251SOL    HW1 1652   2.063   2.525   0.878
  251SOL    HW2 1653   2.158   2.411   0.948
  252SOL     OW 1654   0.714   1.438   0.499
  252SOL    HW1 1655   0.636   1.384   0.468
  252SOL    HW2 1656   0.688   1.489   0.582
  253SOL     OW 1657   1.673   3.953   5.662
  253SOL    HW1 1658   1.696   3.870   5.713
  253SOL    HW2 1659   1.755   3.988   5.616
  254SOL     OW 1660   5.151   3.712   5.718
  254SOL    HW1 1661   5.066   3.764   5.722
  254SOL    HW2 1662   5.146   3.636   5.783
  255SOL     OW 1663   3.291   1.975   3.071
  255SOL    HW1 1664   3.287   1.888   3.021
  255SOL    HW2 1665   3.265   1.961   3.166
  256SOL     OW 1666   0.141   5.524   0.914
  256SOL    HW1 1667   0.191   5.557   0.834
  256SOL    HW2 1668   0.206   5.488   0.981
  257SOL     OW 1669   3.219   5.510   6.586
  257SOL    HW1 1670   3.190   5.415   6.601
  257SOL    HW2 1671   3.245   5.551   6.673
  258SOL     OW 1672   4.703   4.149   4.063
  258SOL    HW1 1673   4.641   4.096   4.005
  258SOL    HW2 1674   4.798   4.125   4.042
  259SOL     OW 1675   1.440   2.155   3.669
  259SOL    HW1 1676   1.456   2.214   3.589
  259SOL    HW2 1677   1.476   2.199   3.751
  260SOL     OW 1678   6.438   6.674   5.767
  260SOL    HW1 1679   6.438   6.774   5.770
  260SOL    HW2 1680   6.355   6.642   5.721
  261SOL     OW 1681   0.326   1.527   3.150
  261SOL    HW1 1682   0.338   1.494   3.243
  261SOL    HW2 1683   0.397   1.595   3.129
  262SOL     OW 1684   2.194   4.640   1.956
  262SOL    HW1 1685   2.284   4.617   1.993
  262SOL    HW2 1686   2.168   4.732   1.987
  263SOL     OW 1687   6.433   2.659   5.104
  263SOL    HW1 1688   6.464   2.688   5.013
  263SOL    HW2 1689   6.333   2.663   5.107
  264SOL     OW 1690   3.443   3.610   6.254
  264SOL    HW1 1691   3.367   3.579   6.311
  264SOL    HW2 1692   3.527   3.562   6.280
  265SOL     OW 1693   5.419   5.818   4.908
  265SOL    HW1 1694   5.409   5.719   4.918
  265SOL    HW2 1695   5.401   5.862   4.996
  266SOL     OW 1696   3.322   2.775   6.324
  266SOL    HW1 1697   3.412   2.786   6.281
  266SOL    HW2 1698   3.251   2.805   6.260
  267SOL     OW 1699   1.866   1.261   6.268
  267SOL    HW1 1700   1.920   1.207   6.203
  267SOL    HW2 1701   1.807   1.324   6.217
  268SOL     OW 1702   3.211   5.674   3.802
  268SOL    HW1 1703   3.221   5.591   3.747
  268SOL    HW2 1704   3.298   5.697   3.844
  269SOL     OW 1705   1.648   0.947   4.852
  269SOL    HW1 1706   1.572   0.952   4.787
  269SOL    HW2 1707   1.623   0.886   4.928
  270SOL     OW 1708   5.168   6.527   4.539
  270SOL    HW1 1709   5.150   6.591   4.465
  270SOL    HW2 1710   5.096   6.534   4.608
  271SOL     OW 1711   1.387   1.663   0.596
  271SOL    HW1 1712   1.432   1.579   0.627
  271SOL    HW2 1713   1.397   1.734   0.666
  272SOL     OW 1714   5.109   5.594   1.842
  272SOL    HW1 1715   5.043   5.615   1.913
  272SOL    HW2 1716   5.201   5.591   1.882
  273SOL     OW 1717   2.845   6.469   4.425
  273SOL    HW1 1718   2.772   6.526   4.389
  273SOL    HW2 1719   2.867   6.498   4.518
  274SOL     OW 1720   5.966   1.601   0.866
  274SOL    HW1 1721   5.894   1.660   0.829
  274SOL    HW2 1722   5.926   1.513   0.892
  275SOL     OW 1723   5.351   6.139   5.734
  275SOL    HW1 1724   5.367   6.166   5.639
  275SOL    HW2 1725   5.392   6.049   5.750
  276SOL     OW 1726   6.904   6.436   4.071
  276SOL    HW1 1727   6.963   6.357   4.058
  276SOL    HW2 1728   6.825   6.410   4.127
  277SOL     OW 1729   4.518   2.444   5.387
  277SOL    HW1 1730   4.458   2.524   5.389
  277SOL    HW2 1731   4.507   2.396   5.300
  278SOL     OW 1732   5.649   4.034   3.356
  278SOL    HW1 1733   5.623   4.019   3.451
  278SOL    HW2 1734   5.600   3.969   3.298
  279SOL     OW 1735   0.231   3.664   4.020
  279SOL    HW1 1736   0.270   3.741   3.969
  279SOL    HW2 1737   0.226   3.688   4.117
  280SOL     OW 1738   4.000   1.400   3.602
  280SOL    HW1 1739   3.980   1.327   3.536
  280SOL    HW2 1740   3.943   1.480   3.582
  281SOL     OW 1741   5.244   6.405   5.050
  281SOL    HW1 1742   5.198   6.383   4.964
  281SOL    HW2 1743   5.313   6.476   5.034
  282SOL     OW 1744   1.473   2.663   0.245
  282SOL    HW1 1745   1.435   2.629   0.331
  282SOL    HW2 1746   1.565   2.626   0.232
  283SOL     OW 1747   5.065   3.455   4.692
  283SOL    HW1 1748   5.025   3.546   4.698
  283SOL    HW2 1749   5.164   3.460   4.704
  284SOL     OW 1750   5.104   5.759   2.609
  284SOL    HW1 1751   5.107   5.661   2.628
  284SOL    HW2 1752   5.023   5.799   2.653
  285SOL     OW 1753   4.191   0.900   5.917
  285SOL    HW1 1754   4.207   0.935   5.825
  285SOL    HW2 1755   4.247   0.818   5.932
  286SOL     OW 1756   2.848   4.872   5.522
  286SOL    HW1 1757   2.938   4.902   5.490
  286SOL    HW2 1758   2.807   4.810   5.454
  287SOL     OW 1759   3.705   7.015   0.262
  287SOL    HW1 1760   3.628   0.057   0.271
  287SOL    HW2 1761   3.669   6.922   0.256
  288SOL     OW 1762   4.730   1.864   0.776
  288SOL    HW1 1763   4.633   1.890   0.779
  288SOL    HW2 1764   4.739   1.770   0.809
  289SOL     OW 1765   6.418   5.736   4.189
  289SOL    HW1 1766   6.338   5.680   4.165
  289SOL    HW2 1767   6.422   5.745   4.289
  290SOL     OW 1768   3.749   0.928   6.071
  290SOL    HW1 1769   3.849   0.933   6.075
  290SOL    HW2 1770   3.712   0.921   6.164
  291SOL     OW 1771   3.801   0.540   5.407
  291SOL    HW1 1772   3.886   0.493   5.432
  291SOL    HW2 1773   3.751   0.565   5.489
  292SOL     OW 1774   4.272   0.207   3.853
  292SOL    HW1 1775   4.180   0.224   3.819
  292SOL    HW2 1776   4.283   0.247   3.944
  293SOL     OW 1777   5.418   6.232   2.659
  293SOL    HW1 1778   5.366   6.276   2.733
  293SOL    HW2 1779   5.508   6.274   2.652
  294SOL     OW 1780   6.507   1.204   6.598
  294SOL    HW1 1781   6.472   1.152   6.519
  294SOL    HW2 1782   6.537   1.294   6.567
  295SOL     OW 1783   1.163   0.528   4.512
  295SOL    HW1 1784   1.146   0.562   4.419
  295SOL    HW2 1785   1.081   0.540   4.567
  296SOL     OW 1786   0.791   2.231   2.045
  296SOL    HW1 1787   0.770   2.148   1.994
  296SOL    HW2 1788   0.707   2.281   2.064
  297SOL     OW 1789   5.629   3.708   3.298
  297SOL    HW1 1790   5.671   3.625   3.262
  297SOL    HW2 1791   5.581   3.756   3.225
  298SOL     OW 1792   4.347   0.698   5.989
  298SOL    HW1 1793   4.357   0.657   6.080
  298SOL    HW2 1794   4.435   0.735   5.960
  299SOL     OW 1795   1.212   0.841   6.481
  299SOL    HW1 1796   1.217   0.815   6.578
  299SOL    HW2 1797   1.273   0.918   6.464
  300SOL     OW 1798   4.341   0.129   3.397
  300SOL    HW1 1799   4.380   0.130   3.489
  300SOL    HW2 1800   4.286   0.047   3.385
  301SOL     OW 1801   6.196   5.499   6.808
  301SOL    HW1 1802   6.271   5.560   6.832
  301SOL    HW2 1803   6.200   5.417   6.864
  302SOL     OW 1804   6.833   5.988   2.500
  302SOL    HW1 1805   6.809   5.929   2.577
  302SOL    HW2 1806   6.933   5.998   2.496
  303SOL     OW 1807   5.551   5.360   3.400
  303SOL    HW1 1808   5.495   5.323   3.474
  303SOL    HW2 1809   5.647   5.334   3.416
  304SOL     OW 1810   2.491   6.129   4.888
  304SOL    HW1 1811   2.474   6.088   4.977
  304SOL    HW2 1812   2.496   6.057   4.819
  305SOL     OW 1813   0.926   2.424   1.758
  305SOL    HW1 1814   0.904   2.508   1.807
  305SOL    HW2 1815   0.859   2.354   1.781
  306SOL     OW 1816   0.033   0.087   3.231
  306SOL    HW1 1817   0.020   0.020   3.304
  306SOL    HW2 1818   0.072   0.171   3.269
  307SOL     OW 1819   3.568   3.264   4.344
  307SOL    HW1 1820   3.638   3.312   4.291
  307SOL    HW2 1821   3.573   3.166   4.324
  308SOL     OW 1822   6.274   2.128   2.931
  308SOL    HW1 1823   6.347   2.143   2.998
  308SOL    HW2 1824   6.291   2.184   2.850
  309SOL     OW 1825   1.701   5.772   6.675
  309SOL    HW1 1826   1.626   5.833   6.652
  309SOL    HW2 1827   1.695   5.747   6.772
  310SOL     OW 1828   5.462   6.566   5.028
  310SOL    HW1 1829   5.562   6.558   5.030
  310SOL    HW2 1830   5.438   6.662   5.011
  311SOL     OW 1831   1.503   5.752   2.549
  311SOL    HW1 1832   1.503   5.775   2.452
  311SOL    HW2 1833   1.597   5.749   2.583
  312SOL     OW 1834   3.525   0.161   3.711
  312SOL    HW1 1835   3.496   0.096   3.641
  312SOL    HW2 1836   3.484   0.250   3.693
  313SOL     OW 1837   3.045   3.804   2.632
  313SOL    HW1 1838   3.044   3.769   2.538
  313SOL    HW2 1839   3.042   3.904   2.630
  314SOL     OW 1840   3.114   5.744   6.000
  314SOL    HW1 1841   3.122   5.804   6.080
  314SOL    HW2 1842   3.163   5.785   5.923
  315SOL     OW 1843   6.096   1.113   4.808
  315SOL    HW1 1844   6.192   1.142   4.805
  315SOL    HW2 1845   6.086   1.026   4.760
  316SOL     OW 1846   4.323   1.028   6.194
  316SOL    HW1 1847   4.381   0.968   6.250
  316SOL    HW2 1848   4.277   0.973   6.125
  317SOL     OW 1849   1.137   2.169   0.984
  317SOL    HW1 1850   1.177   2.090   0.938
  317SOL    HW2 1851   1.118   2.241   0.917
  318SOL     OW 1852   0.560   0.147   5.412
  318SOL    HW1 1853   0.617   0.196   5.345
  318SOL    HW2 1854   0.465   0.175   5.401
  319SOL     OW 1855   0.176   1.062   3.693
  319SOL    HW1 1856   0.146   1.145   3.740
  319SOL    HW2 1857   0.198   0.991   3.761
  320SOL     OW 1858   5.421   1.899   6.581
  320SOL    HW1 1859   5.428   1.986   6.531
  320SOL    HW2 1860   5.511   1.872   6.614
  321SOL     OW 1861   5.106   2.774   0.908
  321SOL    HW1 1862   5.154   2.735   0.986
  321SOL    HW2 1863   5.012   2.795   0.934
  322SOL     OW 1864   2.951   2.882   6.560
  322SOL    HW1 1865   2.937   2.948   6.634
  322SOL    HW2 1866   2.982   2.795   6.598
  323SOL     OW 1867   2.235   4.070   2.717
  323SOL    HW1 1868   2.208   4.078   2.621
  323SOL    HW2 1869   2.256   3.974   2.738
  324SOL     OW 1870   0.401   0.068   2.584
  324SOL    HW1 1871   0.440   7.014   2.531
  324SOL    HW2 1872   0.411   0.153   2.534
  325SOL     OW 1873   0.087   4.337   0.614
  325SOL    HW1 1874   0.030   4.354   0.694
  325SOL    HW2 1875   0.181   4.319   0.644
  326SOL     OW 1876   0.705   6.384   6.978
  326SOL    HW1 1877   0.677   6.342   6.891
  326SOL    HW2 1878   0.661   6.335   0.032
  327SOL     OW 1879   5.154   5.386   5.035
  327SOL    HW1 1880   5.143   5.481   5.005
  327SOL    HW2 1881   5.174   5.384   5.133
  328SOL     OW 1882   1.237   4.540   3.087
  328SOL    HW1 1883   1.204   4.612   3.026
  328SOL    HW2 1884   1.323   4.569   3.129
  329SOL     OW 1885   3.307   3.441   1.837
  329SOL    HW1 1886   3.320   3.519   1.899
  329SOL    HW2 1887   3.319   3.356   1.888
  330SOL     OW 1888   2.801   4.429   0.768
  330SOL    HW1 1889   2.790   4.526   0.786
  330SOL    HW2 1890   2.885   4.414   0.715
  331SOL     OW 1891   6.214   5.044   5.883
  331SOL    HW1 1892   6.238   5.120   5.944
  331SOL    HW2 1893   6.208   4.959   5.935
  332SOL     OW 1894   5.470   2.522   3.120
  332SOL    HW1 1895   5.553   2.467   3.123
  332SOL    HW2 1896   5.493   2.619   3.132
  333SOL     OW 1897   3.252   0.937   5.136
  333SOL    HW1 1898   3.219   1.001   5.066
  333SOL    HW2 1899   3.175   0.907   5.193
  334SOL     OW 1900   3.853   3.799   3.243
  334SOL    HW1 1901   3.874   3.717   3.295
  334SOL    HW2 1902   3.767   3.839   3.277
  335SOL     OW 1903   4.314   1.674   1.088
  335SOL    HW1 1904   4.338   1.617   1.010
  335SOL    HW2 1905   4.266   1.756   1.057
  336SOL     OW 1906   2.983   1.481   4.364
  336SOL    HW1 1907   2.978   1.412   4.292
  336SOL    HW2 1908   3.003   1.437   4.451
  337SOL     OW 1909   1.034   0.683   5.293
  337SOL    HW1 1910   0.961   0.720   5.350
  337SOL    HW2 1911   1.097   0.756   5.267
  338SOL     OW 1912   4.356   1.349   1.517
  338SOL    HW1 1913   4.431   1.378   1.577
  338SOL    HW2 1914   4.336   1.422   1.452
  339SOL     OW 1915   4.141   5.605   5.969
  339SOL    HW1 1916   4.067   5.666   5.997
  339SOL    HW2 1917   4.227   5.636   6.008
  340SOL     OW 1918   5.048   1.867   4.063
  340SOL    HW1 1919   5.135   1.829   4.096
  340SOL    HW2 1920   5.000   1.798   4.009
  341SOL     OW 1921   6.573   6.164   3.142
  341SOL    HW1 1922   6.568   6.064   3.129
  341SOL    HW2 1923   6.504   6.208   3.085
  342SOL     OW 1924   5.011   2.116   2.358
  342SOL    HW1 1925   5.064   2.200   2.370
  342SOL    HW2 1926   4.994   2.074   2.447
  343SOL     OW 1927   6.689   6.735   2.520
  343SOL    HW1 1928   6.746   6.756   2.599
  343SOL    HW2 1929   6.674   6.637   2.515
  344SOL     OW 1930   0.688   2.015   0.879
  344SOL    HW1 1931   0.631   2.094   0.904
  344SOL    HW2 1932   0.679   1.944   0.949
  345SOL     OW 1933   6.785   2.898   4.340
  345SOL    HW1 1934   6.825   2.810   4.315
  345SOL    HW2 1935   6.686   2.893   4.334
  346SOL     OW 1936   2.514   6.490   3.744
  346SOL    HW1 1937   2.467   6.460   3.826
  346SOL    HW2 1938   2.494   6.587   3.728
  347SOL     OW 1939   2.552   4.835   0.476
  347SOL    HW1 1940   2.470   4.789   0.509
  347SOL    HW2 1941   2.527   4.908   0.413
  348SOL     OW 1942   4.738   5.357   1.417
  348SOL    HW1 1943   4.696   5.448   1.414
  348SOL    HW2 1944   4.781   5.337   1.330
  349SOL     OW 1945   5.913   4.133   0.858
  349SOL    HW1 1946   6.003   4.098   0.829
  349SOL    HW2 1947   5.914   4.148   0.957
  350SOL     OW 1948   3.460   2.831   0.426
  350SOL    HW1 1949   3.494   2.766   0.359
  350SOL    HW2 1950   3.428   2.913   0.379
  351SOL     OW 1951   3.234   4.468   1.142
  351SOL    HW1 1952   3.334   4.462   1.146
  351SOL    HW2 1953   3.195   4.378   1.156
  352SOL     OW 1954   4.896   0.478   2.462
  352SOL    HW1 1955   4.913   0.572   2.491
  352SOL    HW2 1956   4.803   0.452   2.489
  353SOL     OW 1957   1.615   0.236   6.618
  353SOL    HW1 1958   1.542   0.182   6.576
  353SOL    HW2 1959   1.684   0.257   6.548
  354SOL     OW 1960   0.362   2.056   0.178
  354SOL    HW1 1961   0.426   1.997   0.129
  354SOL    HW2 1962   0.366   2.036   0.276
  355SOL     OW 1963   1.209   2.069   2.833
  355SOL    HW1 1964   1.227   2.141   2.900
  355SOL    HW2 1965   1.138   2.008   2.868
  356SOL     OW 1966   1.800   1.026   5.768
  356SOL    HW1 1967   1.811   1.022   5.668
  356SOL    HW2 1968   1.859   0.957   5.810
  357SOL     OW 1969   4.937   0.368   5.034
  357SOL    HW1 1970   4.930   0.340   5.130
  357SOL    HW2 1971   5.019   0.329   4.994
  358SOL     OW 1972   3.541   5.987   6.461
  358SOL    HW1 1973   3.461   5.926   6.464
  358SOL    HW2 1974   3.570   6.008   6.554
  359SOL     OW 1975   1.855   2.163   2.281
  359SOL    HW1 1976   1.891   2.094   2.219
  359SOL    HW2 1977   1.767   2.195   2.248
  360SOL     OW 1978   0.784   4.753   4.191
  360SOL    HW1 1979   0.725   4.829   4.217
  360SOL    HW2 1980   0.809   4.761   4.094
  361SOL     OW 1981   6.792   2.049   2.683
  361SOL    HW1 1982   6.827   1.971   2.630
  361SOL    HW2 1983   6.852   2.066   2.761
  362SOL     OW 1984   4.012   3.965   0.687
  362SOL    HW1 1985   4.011   3.996   0.782
  362SOL    HW2 1986   3.960   4.028   0.630
  363SOL     OW 1987   5.324   5.353   1.425
  363SOL    HW1 1988   5.348   5.256   1.424
  363SOL    HW2 1989   5.323   5.389   1.331
  364SOL     OW 1990   1.137   6.838   6.462
  364SOL    HW1 1991   1.189   6.818   6.545
  364SOL    HW2 1992   1.063   6.771   6.453
  365SOL     OW 1993   4.939   1.790   3.327
  365SOL    HW1 1994   5.025   1.792   3.277
  365SOL    HW2 1995   4.925   1.699   3.366
  366SOL     OW 1996   5.617   1.315   6.749
  366SOL    HW1 1997   5.628   1.379   6.825
  366SOL    HW2 1998   5.520   1.310   6.724
  367SOL     OW 1999   6.003   1.624   6.162
  367SOL    HW1 2000   6.012   1.574   6.248
  367SOL    HW2 2001   5.908   1.654   6.151
  368SOL     OW 2002   6.796   2.215   5.569
  368SOL    HW1 2003   6.746   2.249   5.489
  368SOL    HW2 2004   6.784   2.279   5.646
  369SOL     OW 2005   6.846   3.772   1.643
  369SOL    HW1 2006   6.838   3.857   1.591
  369SOL    HW2 2007   6.764   3.717   1.629
  370SOL     OW 2008   1.563   3.084   3.899
  370SOL    HW1 2009   1.583   2.996   3.941
  370SOL    HW2 2010   1.471   3.083   3.861
  371SOL     OW 2011   0.829   4.741   6.782
  371SOL    HW1 2012   0.827   4.644   6.807
  371SOL    HW2 2013   0.917   4.781   6.809
  372SOL     OW 2014   3.916   6.046   6.358
  372SOL    HW1 2015   4.002   6.002   6.333
  372SOL    HW2 2016   3.842   6.010   6.301
  373SOL     OW 2017   5.699   5.146   3.673
  373SOL    HW1 2018   5.722   5.244   3.669
  373SOL    HW2 2019   5.777   5.092   3.642
  374SOL     OW 2020   2.695   1.268   2.804
  374SOL    HW1 2021   2.777   1.221   2.837
  374SOL    HW2 2022   2.709   1.367   2.811
  375SOL     OW 2023   1.143   5.273   4.246
  375SOL    HW1 2024   1.205   5.198   4.269
  375SOL    HW2 2025   1.111   5.260   4.152
  376SOL     OW 2026   2.862   0.774   3.715
  376SOL    HW1 2027   2.923   0.706   3.757
  376SOL    HW2 2028   2.889   0.865   3.745
  377SOL     OW 2029   1.562   1.782   7.006
  377SOL    HW1 2030   1.648   1.832   7.010
  377SOL    HW2 2031   1.493   1.838   6.961
  378SOL     OW 2032   4.026   1.101   2.012
  378SOL    HW1 2033   4.099   1.109   1.945
  378SOL    HW2 2034   4.049   1.032   2.079
  379SOL     OW 2035   5.401   1.943   6.195
  379SOL    HW1 2036   5.497   1.951   6.222
  379SOL    HW2 2037   5.354   1.879   6.255
  380SOL     OW 2038   4.278   2.569   0.367
  380SOL    HW1 2039   4.230   2.578   0.280
  380SOL    HW2 2040   4.330   2.653   0.385
  381SOL     OW 2041   1.675   3.635   3.197
  381SOL    HW1 2042   1.714   3.727   3.201
  381SOL    HW2 2043   1.652   3.613   3.102
  382SOL     OW 2044   4.625   0.832   6.971
  382SOL    HW1 2045   4.576   0.815   6.885
  382SOL    HW2 2046   4.706   0.773   6.975
  383SOL     OW 2047   5.204   1.661   0.813
  383SOL    HW1 2048   5.292   1.616   0.797
  383SOL    HW2 2049   5.165   1.691   0.726
  384SOL     OW 2050   6.406   3.751   4.801
  384SOL    HW1 2051   6.352   3.833   4.820
  384SOL    HW2 2052   6.474   3.772   4.730
  385SOL     OW 2053   4.099   3.255   0.091
  385SOL    HW1 2054   4.173   3.303   0.044
  385SOL    HW2 2055   4.014   3.307   0.082
  386SOL     OW 2056   3.819   6.040   3.728
  386SOL    HW1 2057   3.721   6.047   3.749
  386SOL    HW2 2058   3.838   5.949   3.691
  387SOL     OW 2059   3.345   6.547   3.440
  387SOL    HW1 2060   3.314   6.463   3.483
  387SOL    HW2 2061   3.267   6.595   3.400
  388SOL     OW 2062   1.798   4.441   6.973
  388SOL    HW1 2063   1.806   4.385   0.034
  388SOL    HW2 2064   1.722   4.505   6.983
  389SOL     OW 2065   2.914   3.283   2.977
  389SOL    HW1 2066   2.937   3.381   2.976
  389SOL    HW2 2067   2.830   3.269   3.029
  390SOL     OW 2068   2.158   1.265   3.919
  390SOL    HW1 2069   2.217   1.335   3.879
  390SOL    HW2 2070   2.129   1.293   4.010
  391SOL     OW 2071   0.501   2.698   6.918
  391SOL    HW1 2072   0.422   2.745   6.879
  391SOL    HW2 2073   0.581   2.757   6.911
  392SOL     OW 2074   2.881   5.608   2.904
  392SOL    HW1 2075   2.833   5.552   2.971
  392SOL    HW2 2076   2.841   5.595   2.813
  393SOL     OW 2077   5.621   4.301   4.633
  393SOL    HW1 2078   5.591   4.309   4.538
  393SOL    HW2 2079   5.716   4.271   4.635
  394SOL     OW 2080   2.293   0.374   6.815
  394SOL    HW1 2081   2.199   0.401   6.798
  394SOL    HW2 2082   2.353   0.454   6.804
  395SOL     OW 2083   6.356   3.233   0.858
  395SOL    HW1 2084   6.280   3.239   0.793
  395SOL    HW2 2085   6.403   3.322   0.862
  396SOL     OW 2086   2.994   3.215   4.678
  396SOL    HW1 2087   2.965   3.146   4.612
  396SOL    HW2 2088   3.015   3.170   4.766
  397SOL     OW 2089   4.658   2.240   6.667
  397SOL    HW1 2090   4.616   2.204   6.751
  397SOL    HW2 2091   4.652   2.171   6.595
  398SOL     OW 2092   1.311   5.307   1.986
  398SOL    HW1 2093   1.318   5.307   2.086
  398SOL    HW2 2094   1.223   5.344   1.959
  399SOL     OW 2095   5.368   5.104   2.109
  399SOL    HW1 2096   5.362   5.192   2.063
  399SOL    HW2 2097   5.464   5.081   2.125
  400SOL     OW 2098   1.361   5.744   5.441
  400SOL    HW1 2099   1.413   5.745   5.527
  400SOL    HW2 2100   1.353   5.650   5.408
  401SOL     OW 2101   5.372   1.334   6.674
  401SOL    HW1 2102   5.297   1.270   6.654
  401SOL    HW2 2103   5.358   1.418   6.621
  402SOL     OW 2104   6.101   4.980   1.082
  402SOL    HW1 2105   6.115   4.941   0.991
  402SOL    HW2 2106   6.187   4.980   1.133
  403SOL     OW 2107   5.215   3.418   6.280
  403SOL    HW1 2108   5.274   3.407   6.360
  403SOL    HW2 2109   5.186   3.514   6.273
  404SOL     OW 2110   0.318   0.258   4.748
  404SOL    HW1 2111   0.254   0.298   4.814
  404SOL    HW2 2112   0.278   0.175   4.709
  405SOL     OW 2113   0.714   2.344   0.333
  405SOL    HW1 2114   0.727   2.381   0.241
  405SOL    HW2 2115   0.789   2.372   0.392
  406SOL     OW 2116   1.759   3.306   3.870
  406SOL    HW1 2117   1.808   3.361   3.938
  406SOL    HW2 2118   1.692   3.248   3.916
  407SOL     OW 2119   2.608   0.640   4.640
  407SOL    HW1 2120   2.662   0.564   4.603
  407SOL    HW2 2121   2.563   0.688   4.565
  408SOL     OW 2122   1.987   0.331   2.933
  408SOL    HW1 2123   1.962   0.236   2.954
  408SOL    HW2 2124   1.918   0.370   2.873
  409SOL     OW 2125   6.205   3.382   3.596
  409SOL    HW1 2126   6.257   3.301   3.623
  409SOL    HW2 2127   6.268   3.454   3.567
  410SOL     OW 2128   2.476   1.643   6.376
  410SOL    HW1 2129   2.436   1.710   6.438
  410SOL    HW2 2130   2.508   1.563   6.428
  411SOL     OW 2131   6.678   4.286   5.482
  411SOL    HW1 2132   6.750   4.252   5.421
  411SOL    HW2 2133   6.651   4.378   5.454
  412SOL     OW 2134   3.713   0.020   2.374
  412SOL    HW1 2135   3.654   0.100   2.382
  412SOL    HW2 2136   3.679   6.969   2.434
  413SOL     OW 2137   2.723   6.655   0.845
  413SOL    HW1 2138   2.660   6.578   0.854
  413SOL    HW2 2139   2.671   6.741   0.849
  414SOL     OW 2140   4.346   3.947   0.587
  414SOL    HW1 2141   4.391   3.932   0.499
  414SOL    HW2 2142   4.297   3.865   0.614
  415SOL     OW 2143   3.006   6.487   1.688
  415SOL    HW1 2144   2.910   6.463   1.679
  415SOL    HW2 2145   3.037   6.466   1.781
  416SOL     OW 2146   3.752   6.323   4.986
  416SOL    HW1 2147   3.708   6.253   4.930
  416SOL    HW2 2148   3.755   6.293   5.081
  417SOL     OW 2149   4.902   5.776   1.253
  417SOL    HW1 2150   4.810   5.762   1.288
  417SOL    HW2 2151   4.968   5.772   1.328
  418SOL     OW 2152   5.526   4.907   1.092
  418SOL    HW1 2153   5.597   4.953   1.039
  418SOL    HW2 2154   5.523   4.810   1.066
  419SOL     OW 2155   6.062   6.698   1.517
  419SOL    HW1 2156   6.145   6.655   1.553
  419SOL    HW2 2157   6.025   6.641   1.443
  420SOL     OW 2158   4.446   4.849   0.261
  420SOL    HW1 2159   4.423   4.872   0.356
  420SOL    HW2 2160   4.387   4.901   0.199
  421SOL     OW 2161   1.725   6.031   6.538
  421SOL    HW1 2162   1.659   6.070   6.601
  421SOL    HW2 2163   1.801   6.096   6.525
  422SOL     OW 2164   5.907   3.501   6.889
  422SOL    HW1 2165   5.982   3.533   6.948
  422SOL    HW2 2166   5.944   3.443   6.817
  423SOL     OW 2167   0.339   2.729   6.622
  423SOL    HW1 2168   0.401   2.719   6.544
  423SOL    HW2 2169   0.259   2.671   6.608
  424SOL     OW 2170   2.649   3.552   0.332
  424SOL    HW1 2171   2.748   3.550   0.345
  424SOL    HW2 2172   2.607   3.480   0.387
  425SOL     OW 2173   2.996   1.265   0.540
  425SOL    HW1 2174   3.077   1.229   0.587
  425SOL    HW2 2175   2.934   1.306   0.606
  426SOL     OW 2176   5.610   4.165   5.658
  426SOL    HW1 2177   5.638   4.194   5.749
  426SOL    HW2 2178   5.675   4.200   5.591
  427SOL     OW 2179   5.191   4.060   1.042
  427SOL    HW1 2180   5.246   4.040   1.123
  427SOL    HW2 2181   5.250   4.101   0.972
  428SOL     OW 2182   3.709   1.009   4.800
  428SOL    HW1 2183   3.781   1.052   4.855
  428SOL    HW2 2184   3.750   0.967   4.719
  429SOL     OW 2185   1.583   5.308   6.680
  429SOL    HW1 2186   1.554   5.390   6.630
  429SOL    HW2 2187   1.651   5.259   6.626
  430SOL     OW 2188   1.216   0.483   5.356
  430SOL    HW1 2189   1.142   0.550   5.350
  430SOL    HW2 2190   1.302   0.526   5.329
  431SOL     OW 2191   3.631   1.835   0.553
  431SOL    HW1 2192   3.625   1.923   0.506
  431SOL    HW2 2193   3.546   1.818   0.602
  432SOL     OW 2194   0.421   1.982   1.048
  432SOL    HW1 2195   0.446   1.885   1.054
  432SOL    HW2 2196   0.483   2.036   1.105
  433SOL     OW 2197   3.392   6.696   5.470
  433SOL    HW1 2198   3.356   6.644   5.547
  433SOL    HW2 2199   3.381   6.643   5.386
  434SOL     OW 2200   0.257   3.751   1.432
  434SOL    HW1 2201   0.193   3.828   1.434
  434SOL    HW2 2202   0.346   3.780   1.468
  435SOL     OW 2203   3.834   4.470   0.101
  435SOL    HW1 2204   3.743   4.512   0.103
  435SOL    HW2 2205   3.825   4.372   0.117
  436SOL     OW 2206   1.978   1.062   0.247
  436SOL    HW1 2207   1.911   1.131   0.218
  436SOL    HW2 2208   1.942   1.013   0.327
  437SOL     OW 2209   6.663   6.862   6.855
  437SOL    HW1 2210   6.630   6.880   6.947
  437SOL    HW2 2211   6.672   6.948   6.805
  438SOL     OW 2212   1.428   2.756   1.974
  438SOL    HW1 2213   1.480   2.682   2.017
  438SOL    HW2 2214   1.469   2.844   1.998
  439SOL     OW 2215   6.433   5.072   3.150
  439SOL    HW1 2216   6.433   4.983   3.196
  439SOL    HW2 2217   6.510   5.126   3.181
  440SOL     OW 2218   0.982   2.572   3.977
  440SOL    HW1 2219   1.051   2.531   4.037
  440SOL    HW2 2220   0.928   2.499   3.935
  441SOL     OW 2221   0.890   1.511   3.748
  441SOL    HW1 2222   0.869   1.541   3.842
  441SOL    HW2 2223   0.941   1.583   3.701
  442SOL     OW 2224   0.251   4.045   0.126
  442SOL    HW1 2225   0.168   4.033   0.180
  442SOL    HW2 2226   0.305   3.961   0.128
  443SOL     OW 2227   0.578   4.193   5.594
  443SOL    HW1 2228   0.523   4.199   5.511
  443SOL    HW2 2229   0.640   4.115   5.588
  444SOL     OW 2230   4.395   3.286   6.581
  444SOL    HW1 2231   4.465   3.215   6.574
  444SOL    HW2 2232   4.349   3.278   6.669
  445SOL     OW 2233   2.157   4.483   3.152
  445SOL    HW1 2234   2.105   4.413   3.102
  445SOL    HW2 2235   2.182   4.557   3.089
  446SOL     OW 2236   4.626   4.998   3.989
  446SOL    HW1 2237   4.709   4.957   3.951
  446SOL    HW2 2238   4.635   5.097   3.988
  447SOL     OW 2239   6.430   5.621   0.703
  447SOL    HW1 2240   6.493   5.593   0.775
  447SOL    HW2 2241   6.417   5.546   0.639
  448SOL     OW 2242   4.110   0.866   4.882
  448SOL    HW1 2243   4.204   0.882   4.912
  448SOL    HW2 2244   4.091   0.925   4.804
  449SOL     OW 2245   5.497   0.158   4.786
  449SOL    HW1 2246   5.449   0.220   4.848
  449SOL    HW2 2247   5.539   0.211   4.712
  450SOL     OW 2248   0.091   6.321   3.707
  450SOL    HW1 2249   0.149   6.402   3.720
  450SOL    HW2 2250   0.035   6.333   3.625
  451SOL     OW 2251   0.871   2.643   3.004
  451SOL    HW1 2252   0.829   2.626   2.915
  451SOL    HW2 2253   0.800   2.665   3.071
  452SOL     OW 2254   6.983   4.757   6.336
  452SOL    HW1 2255   0.037   4.694   6.346
  452SOL    HW2 2256   6.911   4.734   6.401
  453SOL     OW 2257   2.784   1.150   6.303
  453SOL    HW1 2258   2.705   1.182   6.354
  453SOL    HW2 2259   2.867   1.193   6.339
  454SOL     OW 2260   1.025   6.149   0.100
  454SOL    HW1 2261   1.030   6.107   0.009
  454SOL    HW2 2262   1.051   6.245   0.094
  455SOL     OW 2263   5.228   0.924   5.697
  455SOL    HW1 2264   5.213   0.939   5.795
  455SOL    HW2 2265   5.160   0.975   5.644
  456SOL     OW 2266   4.386   5.772   5.998
  456SOL    HW1 2267   4.475   5.813   5.977
  456SOL    HW2 2268   4.399   5.675   6.017
  457SOL     OW 2269   2.151   4.939   2.933
  457SOL    HW1 2270   2.198   5.021   2.899
  457SOL    HW2 2271   2.055   4.960   2.950
  458SOL     OW 2272   6.732   5.235   5.838
  458SOL    HW1 2273   6.632   5.228   5.829
  458SOL    HW2 2274   6.757   5.329   5.858
  459SOL     OW 2275   1.865   0.644   2.833
  459SOL    HW1 2276   1.877   0.704   2.912
  459SOL    HW2 2277   1.848   0.550   2.865
  460SOL     OW 2278   6.496   1.940   3.065
  460SOL    HW1 2279   6.581   1.907   3.107
  460SOL    HW2 2280   6.435   1.974   3.137
  461SOL     OW 2281   4.287   6.275   5.149
  461SOL    HW1 2282   4.362   6.304   5.209
  461SOL    HW2 2283   4.255   6.185   5.178
  462SOL     OW 2284   3.010   3.065   6.741
  462SOL    HW1 2285   3.076   3.113   6.799
  462SOL    HW2 2286   2.927   3.046   6.793
  463SOL     OW 2287   6.601   5.369   2.286
  463SOL    HW1 2288   6.505   5.339   2.293
  463SOL    HW2 2289   6.638   5.383   2.377
  464SOL     OW 2290   2.042   1.431   5.967
  464SOL    HW1 2291   2.080   1.446   5.876
  464SOL    HW2 2292   1.977   1.503   5.989
  465SOL     OW 2293   6.900   2.649   4.293
  465SOL    HW1 2294   6.855   2.603   4.217
  465SOL    HW2 2295   6.885   2.598   4.378
  466SOL     OW 2296   1.445   0.071   3.945
  466SOL    HW1 2297   1.509   0.143   3.918
  466SOL    HW2 2298   1.352   0.099   3.922
  467SOL     OW 2299   1.429   0.811   5.525
  467SOL    HW1 2300   1.413   0.726   5.574
  467SOL    HW2 2301   1.360   0.879   5.551
  468SOL     OW 2302   3.559   4.712   0.978
  468SOL    HW1 2303   3.484   4.695   0.914
  468SOL    HW2 2304   3.524   4.711   1.072
  469SOL     OW 2305   2.099   5.691   6.886
  469SOL    HW1 2306   2.038   5.615   6.906
  469SOL    HW2 2307   2.049   5.761   6.835
  470SOL     OW 2308   4.028   0.281   2.712
  470SOL    HW1 2309   4.127   0.277   2.719
  470SOL    HW2 2310   4.000   0.264   2.618
  471SOL     OW 2311   2.083   2.802   4.720
  471SOL    HW1 2312   2.144   2.838   4.790
  471SOL    HW2 2313   2.079   2.865   4.642
  472SOL     OW 2314   4.054   5.022   5.600
  472SOL    HW1 2315   3.977   4.958   5.589
  472SOL    HW2 2316   4.134   4.986   5.551
  473SOL     OW 2317   1.520   3.281   2.713
  473SOL    HW1 2318   1.539   3.335   2.631
  473SOL    HW2 2319   1.467   3.337   2.778
  474SOL     OW 2320   4.420   5.129   4.614
  474SOL    HW1 2321   4.514   5.105   4.593
  474SOL    HW2 2322   4.386   5.195   4.546
  475SOL     OW 2323   0.233   6.531   5.913
  475SOL    HW1 2324   0.141   6.493   5.910
  475SOL    HW2 2325   0.229   6.627   5.941
  476SOL     OW 2326   6.782   4.572   2.669
  476SOL    HW1 2327   6.858   4.540   2.726
  476SOL    HW2 2328   6.802   4.549   2.573
  477SOL     OW 2329   2.166   5.506   3.686
  477SOL    HW1 2330   2.173   5.420   3.636
  477SOL    HW2 2331   2.211   5.579   3.635
  478SOL     OW 2332   3.358   5.383   3.766
  478SOL    HW1 2333   3.374   5.289   3.796
  478SOL    HW2 2334   3.426   5.407   3.697
  479SOL     OW 2335   3.665   2.735   0.918
  479SOL    HW1 2336   3.665   2.802   0.845
  479SOL    HW2 2337   3.758   2.697   0.929
  480SOL     OW 2338   0.776   6.951   2.295
  480SOL    HW1 2339   0.855   6.911   2.341
  480SOL    HW2 2340   0.772   6.919   2.200
  481SOL     OW 2341   3.899   0.172   1.323
  481SOL    HW1 2342   3.912   0.267   1.351
  481SOL    HW2 2343   3.816   0.135   1.364
  482SOL     OW 2344   5.838   4.370   2.286
  482SOL    HW1 2345   5.837   4.350   2.384
  482SOL    HW2 2346   5.846   4.469   2.272
  483SOL     OW 2347   5.919   1.840   1.920
  483SOL    HW1 2348   5.879   1.787   1.845
  483SOL    HW2 2349   5.947   1.930   1.886
  484SOL     OW 2350   0.076   2.547   4.531
  484SOL    HW1 2351   0.039   2.532   4.440
  484SOL    HW2 2352   0.162   2.597   4.524
  485SOL     OW 2353   3.528   5.101   2.297
  485SOL    HW1 2354   3.530   5.170   2.225
  485SOL    HW2 2355   3.493   5.142   2.382
  486SOL     OW 2356   0.483   0.202   0.954
  486SOL    HW1 2357   0.556   0.153   1.001
  486SOL    HW2 2358   0.431   0.139   0.897
  487SOL     OW 2359   0.266   2.364   6.811
  487SOL    HW1 2360   0.294   2.290   6.872
  487SOL    HW2 2361   0.345   2.422   6.791
  488SOL     OW 2362   0.386   2.527   2.304
  488SOL    HW1 2363   0.332   2.462   2.250
  488SOL    HW2 2364   0.344   2.539   2.393
  489SOL     OW 2365   3.323   5.837   6.443
  489SOL    HW1 2366   3.241   5.895   6.442
  489SOL    HW2 2367   3.303   5.749   6.401
  490SOL     OW 2368   5.875   6.515   4.282
  490SOL    HW1 2369   5.823   6.469   4.211
  490SOL    HW2 2370   5.958   6.463   4.301
  491SOL     OW 2371   1.375   2.703   2.750
  491SOL    HW1 2372   1.387   2.614   2.795
  491SOL    HW2 2373   1.457   2.723   2.696
  492SOL     OW 2374   1.980   0.492   5.816
  492SOL    HW1 2375   1.948   0.421   5.879
  492SOL    HW2 2376   1.901   0.544   5.782
  493SOL     OW 2377   6.253   4.513   5.453
  493SOL    HW1 2378   6.228   4.577   5.380
  493SOL    HW2 2379   6.279   4.563   5.535
  494SOL     OW 2380   0.072   0.132   0.783
  494SOL    HW1 2381   0.144   0.129   0.853
  494SOL    HW2 2382   7.008   0.161   0.826
  495SOL     OW 2383   5.031   4.292   1.592
  495SOL    HW1 2384   5.036   4.211   1.651
  495SOL    HW2 2385   4.942   4.294   1.547
  496SOL     OW 2386   5.799   3.477   2.948
  496SOL    HW1 2387   5.703   3.451   2.939
  496SOL    HW2 2388   5.853   3.429   2.878
  497SOL     OW 2389   3.936   0.775   4.568
  497SOL    HW1 2390   4.009   0.836   4.597
  497SOL    HW2 2391   3.969   0.717   4.493
  498SOL     OW 2392   1.023   2.840   2.736
  498SOL    HW1 2393   1.115   2.810   2.759
  498SOL    HW2 2394   0.987   2.784   2.662
  499SOL     OW 2395   3.212   1.091   4.905
  499SOL    HW1 2396   3.279   1.092   4.830
  499SOL    HW2 2397   3.200   1.185   4.939
  500SOL     OW 2398   1.044   3.890   2.628
  500SOL    HW1 2399   1.066   3.980   2.664
  500SOL    HW2 2400   0.956   3.859   2.665
  501SOL     OW 2401   1.328   3.211   6.628
  501SOL    HW1 2402   1.296   3.234   6.720
  501SOL    HW2 2403   1.288   3.274   6.562
  502SOL     OW 2404   4.322   5.381   0.030
  502SOL    HW1 2405   4.249   5.442   0.061
  502SOL    HW2 2406   4.303   5.351   6.958
  503SOL     OW 2407   6.020   4.839   5.616
  503SOL    HW1 2408   5.957   4.819   5.691
  503SOL    HW2 2409   6.057   4.931   5.628
  504SOL     OW 2410   2.298   6.372   4.480
  504SOL    HW1 2411   2.338   6.435   4.413
  504SOL    HW2 2412   2.240   6.424   4.543
  505SOL     OW 2413   3.963   0.071   5.723
  505SOL    HW1 2414   3.918   0.132   5.789
  505SOL    HW2 2415   3.895   0.035   5.659
  506SOL     OW 2416   2.159   4.456   5.930
  506SOL    HW1 2417   2.060   4.444   5.936
  506SOL    HW2 2418   2.183   4.547   5.964
  507SOL     OW 2419   3.225   0.491   4.800
  507SOL    HW1 2420   3.223   0.391   4.807
  507SOL    HW2 2421   3.249   0.530   4.889
  508SOL     OW 2422   6.802   3.946   3.287
  508SOL    HW1 2423   6.813   3.977   3.193
  508SOL    HW2 2424   6.749   3.861   3.288
  509SOL     OW 2425   4.671   1.553   1.932
  509SOL    HW1 2426   4.658   1.639   1.883
  509SOL    HW2 2427   4.765   1.548   1.967
  510SOL     OW 2428   6.885   4.334   4.620
  510SOL    HW1 2429   6.888   4.427   4.585
  510SOL    HW2 2430   6.977   4.296   4.624
  511SOL     OW 2431   0.447   6.538   0.427
  511SOL    HW1 2432   0.348   6.541   0.442
  511SOL    HW2 2433   0.466   6.538   0.329
  512SOL     OW 2434   1.085   3.770   6.201
  512SOL    HW1 2435   1.062   3.865   6.178
  512SOL    HW2 2436   1.161   3.770   6.267
  513SOL     OW 2437   6.368   6.128   4.627
  513SOL    HW1 2438   6.318   6.177   4.556
  513SOL    HW2 2439   6.317   6.132   4.713
  514SOL     OW 2440   5.757   1.934   4.020
  514SOL    HW1 2441   5.724   1.967   4.108
  514SOL    HW2 2442   5.802   2.008   3.970
  515SOL     OW 2443   1.810   6.512   6.246
  515SOL    HW1 2444   1.722   6.553   6.224
  515SOL    HW2 2445   1.865   6.578   6.297
  516SOL     OW 2446   2.275   5.165   1.940
  516SOL    HW1 2447   2.286   5.170   2.039
  516SOL    HW2 2448   2.230   5.249   1.907
  517SOL     OW 2449   4.519   6.710   0.797
  517SOL    HW1 2450   4.539   6.751   0.708
  517SOL    HW2 2451   4.423   6.727   0.820
  518SOL     OW 2452   2.321   2.657   1.310
  518SOL    HW1 2453   2.305   2.615   1.399
  518SOL    HW2 2454   2.419   2.654   1.290
  519SOL     OW 2455   0.265   0.105   6.023
  519SOL    HW1 2456   0.349   0.089   5.973
  519SOL    HW2 2457   0.187   0.072   5.970
  520SOL     OW 2458   5.373   4.839   5.700
  520SOL    HW1 2459   5.462   4.860   5.740
  520SOL    HW2 2460   5.321   4.782   5.763
  521SOL     OW 2461   0.015   1.669   0.092
  521SOL    HW1 2462   0.012   1.753   0.145
  521SOL    HW2 2463   0.072   1.601   0.140
  522SOL     OW 2464   3.791   3.405   4.224
  522SOL    HW1 2465   3.836   3.375   4.140
  522SOL    HW2 2466   3.779   3.504   4.223
  523SOL     OW 2467   6.911   6.949   4.730
  523SOL    HW1 2468   6.921   6.866   4.675
  523SOL    HW2 2469   6.891   6.924   4.825
  524SOL     OW 2470   2.567   1.166   5.686
  524SOL    HW1 2471   2.562   1.174   5.786
  524SOL    HW2 2472   2.662   1.156   5.658
  525SOL     OW 2473   2.801   3.839   7.008
  525SOL    HW1 2474   2.806   3.931   0.023
  525SOL    HW2 2475   2.885   3.789   0.008
  526SOL     OW 2476   3.360   5.639   4.775
  526SOL    HW1 2477   3.367   5.583   4.858
  526SOL    HW2 2478   3.443   5.692   4.764
  527SOL     OW 2479   0.256   0.895   0.109
  527SOL    HW1 2480   0.308   0.962   0.055
  527SOL    HW2 2481   0.268   0.804   0.069
  528SOL     OW 2482   2.048   1.374   5.214
  528SOL    HW1 2483   1.980   1.440   5.246
  528SOL    HW2 2484   2.140   1.409   5.231
  529SOL     OW 2485   1.003   5.264   4.009
  529SOL    HW1 2486   1.037   5.286   3.917
  529SOL    HW2 2487   0.980   5.167   4.013
  530SOL     OW 2488   2.337   3.140   5.348
  530SOL    HW1 2489   2.367   3.232   5.324
  530SOL    HW2 2490   2.393   3.073   5.299
  531SOL     OW 2491   0.798   0.237   1.307
  531SOL    HW1 2492   0.706   0.265   1.279
  531SOL    HW2 2493   0.838   0.180   1.235
  532SOL     OW 2494   1.107   1.603   5.768
  532SOL    HW1 2495   1.094   1.588   5.670
  532SOL    HW2 2496   1.056   1.534   5.819
  533SOL     OW 2497   5.621   6.943   4.873
  533SOL    HW1 2498   5.659   6.964   4.963
  533SOL    HW2 2499   5.593   0.006   4.828
  534SOL     OW 2500   4.896   5.282   2.165
  534SOL    HW1 2501   4.811   5.265   2.214
  534SOL    HW2 2502   4.877   5.333   2.081
  535SOL     OW 2503   0.279   3.937   3.541
  535SOL    HW1 2504   0.258   3.855   3.595
  535SOL    HW2 2505   0.194   3.988   3.524
  536SOL     OW 2506   1.753   5.473   1.075
  536SOL    HW1 2507   1.839   5.463   1.125
  536SOL    HW2 2508   1.764   5.541   1.003
  537SOL     OW 2509   2.238   0.181   2.354
  537SOL    HW1 2510   2.174   0.105   2.355
  537SOL    HW2 2511   2.327   0.150   2.389
  538SOL     OW 2512   0.598   6.192   3.389
  538SOL    HW1 2513   0.538   6.179   3.467
  538SOL    HW2 2514   0.552   6.247   3.319
  539SOL     OW 2515   1.898   5.031   1.680
  539SOL    HW1 2516   1.898   5.099   1.607
  539SOL    HW2 2517   1.988   4.987   1.684
  540SOL     OW 2518   1.861   2.439   2.618
  540SOL    HW1 2519   1.840   2.460   2.523
  540SOL    HW2 2520   1.901   2.519   2.662
  541SOL     OW 2521   2.649   5.515   5.864
  541SOL    HW1 2522   2.703   5.592   5.898
  541SOL    HW2 2523   2.711   5.441   5.838
  542SOL     OW 2524   6.041   5.285   6.639
  542SOL    HW1 2525   6.122   5.339   6.663
  542SOL    HW2 2526   6.021   5.298   6.542
  543SOL     OW 2527   0.958   5.149   6.743
  543SOL    HW1 2528   1.038   5.176   6.690
  543SOL    HW2 2529   0.915   5.070   6.700
  544SOL     OW 2530   1.283   5.024   0.433
  544SOL    HW1 2531   1.243   4.954   0.492
  544SOL    HW2 2532   1.286   5.111   0.483
  545SOL     OW 2533   3.903   1.497   2.654
  545SOL    HW1 2534   3.840   1.499   2.577
  545SOL    HW2 2535   3.851   1.490   2.739
  546SOL     OW 2536   1.700   3.873   0.421
  546SOL    HW1 2537   1.605   3.848   0.441
  546SOL    HW2 2538   1.753   3.874   0.506
  547SOL     OW 2539   2.824   3.299   0.317
  547SOL    HW1 2540   2.863   3.375   0.370
  547SOL    HW2 2541   2.841   3.315   0.220
  548SOL     OW 2542   3.394   2.946   4.323
  548SOL    HW1 2543   3.329   2.995   4.382
  548SOL    HW2 2544   3.359   2.944   4.230
  549SOL     OW 2545   5.693   3.236   1.900
  549SOL    HW1 2546   5.734   3.153   1.861
  549SOL    HW2 2547   5.594   3.232   1.891
  550SOL     OW 2548   0.144   4.292   2.201
  550SOL    HW1 2549   0.140   4.195   2.176
  550SOL    HW2 2550   0.089   4.345   2.136
  551SOL     OW 2551   6.823   2.347   0.637
  551SOL    HW1 2552   6.825   2.323   0.734
  551SOL    HW2 2553   6.829   2.263   0.582
  552SOL     OW 2554   3.743   5.848   0.232
  552SOL    HW1 2555   3.727   5.851   0.331
  552SOL    HW2 2556   3.700   5.927   0.189
  553SOL     OW 2557   1.800   1.225   1.661
  553SOL    HW1 2558   1.805   1.297   1.731
  553SOL    HW2 2559   1.892   1.196   1.637
  554SOL     OW 2560   5.091   6.487   5.333
  554SOL    HW1 2561   5.062   6.501   5.238
  554SOL    HW2 2562   5.025   6.429   5.380
  555SOL     OW 2563   1.341   4.771   4.137
  555SOL    HW1 2564   1.322   4.816   4.049
  555SOL    HW2 2565   1.392   4.687   4.120
  556SOL     OW 2566   5.411   3.065   4.141
  556SOL    HW1 2567   5.340   3.058   4.071
  556SOL    HW2 2568   5.369   3.064   4.232
  557SOL     OW 2569   0.536   6.208   6.068
  557SOL    HW1 2570   0.492   6.176   6.152
  557SOL    HW2 2571   0.593   6.134   6.031
  558SOL     OW 2572   4.147   4.078   5.370
  558SOL    HW1 2573   4.064   4.060   5.423
  558SOL    HW2 2574   4.210   4.001   5.379
  559SOL     OW 2575   6.743   5.921   6.138
  559SOL    HW1 2576   6.701   5.962   6.219
  559SOL    HW2 2577   6.772   5.993   6.075
  560SOL     OW 2578   4.073   7.001   0.112
  560SOL    HW1 2579   4.024   6.915   0.101
  560SOL    HW2 2580   4.021   0.053   0.069
  561SOL     OW 2581   5.108   6.710   0.743
  561SOL    HW1 2582   5.044   6.781   0.713
  561SOL    HW2 2583   5.176   6.694   0.671
  562SOL     OW 2584   5.535   1.446   5.745
  562SOL    HW1 2585   5.512   1.367   5.688
  562SOL    HW2 2586   5.559   1.523   5.687
  563SOL     OW 2587   3.004   6.640   4.157
  563SOL    HW1 2588   3.006   6.647   4.256
  563SOL    HW2 2589   3.005   6.732   4.117
  564SOL     OW 2590   0.412   1.002   6.937
  564SOL    HW1 2591   0.497   1.054   6.938
  564SOL    HW2 2592   0.411   0.941   6.857
  565SOL     OW 2593   4.695   4.004   5.173
  565SOL    HW1 2594   4.662   4.088   5.130
  565SOL    HW2 2595   4.657   3.996   5.265
  566SOL     OW 2596   4.850   4.462   2.765
  566SOL    HW1 2597   4.779   4.485   2.699
  566SOL    HW2 2598   4.808   4.439   2.853
  567SOL     OW 2599   3.519   3.193   4.704
  567SOL    HW1 2600   3.440   3.249   4.679
  567SOL    HW2 2601   3.516   3.106   4.656
  568SOL     OW 2602   2.581   1.727   6.707
  568SOL    HW1 2603   2.557   1.724   6.804
  568SOL    HW2 2604   2.653   1.660   6.688
  569SOL     OW 2605   2.357   2.512   0.901
  569SOL    HW1 2606   2.303   2.596   0.893
  569SOL    HW2 2607   2.413   2.501   0.819
  570SOL     OW 2608   6.687   6.143   1.321
  570SOL    HW1 2609   6.661   6.088   1.242
  570SOL    HW2 2610   6.781   6.122   1.348
  571SOL     OW 2611   4.202   5.303   3.122
  571SOL    HW1 2612   4.111   5.312   3.083
  571SOL    HW2 2613   4.203   5.345   3.213
  572SOL     OW 2614   1.588   3.573   5.345
  572SOL    HW1 2615   1.642   3.627   5.409
  572SOL    HW2 2616   1.649   3.526   5.281
  573SOL     OW 2617   3.956   2.295   5.926
  573SOL    HW1 2618   4.043   2.251   5.950
  573SOL    HW2 2619   3.887   2.225   5.907
  574SOL     OW 2620   2.125   1.365   4.160
  574SOL    HW1 2621   2.161   1.453   4.190
  574SOL    HW2 2622   2.143   1.296   4.231
  575SOL     OW 2623   5.409   2.468   0.025
  575SOL    HW1 2624   5.482   2.443   0.088
  575SOL    HW2 2625   5.448   2.499   6.960
  576SOL     OW 2626   0.915   1.822   2.642
  576SOL    HW1 2627   0.938   1.743   2.585
  576SOL    HW2 2628   0.905   1.903   2.584
  577SOL     OW 2629   2.817   2.021   3.481
  577SOL    HW1 2630   2.790   1.976   3.395
  577SOL    HW2 2631   2.905   1.984   3.511
  578SOL     OW 2632   6.860   3.660   3.869
  578SOL    HW1 2633   6.825   3.733   3.810
  578SOL    HW2 2634   6.806   3.577   3.854
  579SOL     OW 2635   4.531   3.126   6.799
  579SOL    HW1 2636   4.608   3.097   6.743
  579SOL    HW2 2637   4.458   3.057   6.794
  580SOL     OW 2638   0.650   5.519   6.946
  580SOL    HW1 2639   0.661   5.425   6.979
  580SOL    HW2 2640   0.593   5.571   7.010
  581SOL     OW 2641   3.910   3.771   2.823
  581SOL    HW1 2642   3.938   3.821   2.741
  581SOL    HW2 2643   3.949   3.816   2.904
  582SOL     OW 2644   6.197   3.706   1.860
  582SOL    HW1 2645   6.100   3.724   1.879
  582SOL    HW2 2646   6.252   3.784   1.889
  583SOL     OW 2647   2.595   4.940   0.054
  583SOL    HW1 2648   2.505   4.914   0.019
  583SOL    HW2 2649   2.592   4.944   0.154
  584SOL     OW 2650   0.433   5.025   4.644
  584SOL    HW1 2651   0.354   5.086   4.645
  584SOL    HW2 2652   0.507   5.068   4.593
  585SOL     OW 2653   0.296   1.237   0.082
  585SOL    HW1 2654   0.225   1.211   0.147
  585SOL    HW2 2655   0.254   1.284   0.004
  586SOL     OW 2656   2.742   6.663   0.582
  586SOL    HW1 2657   2.790   6.585   0.540
  586SOL    HW2 2658   2.757   6.662   0.681
  587SOL     OW 2659   0.715   2.865   5.313
  587SOL    HW1 2660   0.686   2.939   5.253
  587SOL    HW2 2661   0.766   2.902   5.390
  588SOL     OW 2662   3.226   6.849   1.692
  588SOL    HW1 2663   3.249   6.765   1.643
  588SOL    HW2 2664   3.177   6.827   1.776
  589SOL     OW 2665   4.463   5.019   2.798
  589SOL    HW1 2666   4.555   4.982   2.813
  589SOL    HW2 2667   4.435   5.071   2.879
  590SOL     OW 2668   6.928   2.115   1.850
  590SOL    HW1 2669   6.904   2.089   1.943
  590SOL    HW2 2670   6.888   2.204   1.828
  591SOL     OW 2671   3.757   6.797   3.285
  591SOL    HW1 2672   3.695   6.719   3.280
  591SOL    HW2 2673   3.728   6.859   3.359
  592SOL     OW 2674   5.123   0.980   0.109
  592SOL    HW1 2675   5.032   1.021   0.098
  592SOL    HW2 2676   5.132   0.903   0.045
  593SOL     OW 2677   5.119   1.672   3.631
  593SOL    HW1 2678   5.206   1.697   3.588
  593SOL    HW2 2679   5.072   1.604   3.575
  594SOL     OW 2680   4.143   2.681   1.394
  594SOL    HW1 2681   4.046   2.661   1.390
  594SOL    HW2 2682   4.189   2.639   1.315
  595SOL     OW 2683   3.686   6.849   3.900
  595SOL    HW1 2684   3.669   6.947   3.906
  595SOL    HW2 2685   3.599   6.799   3.903
  596SOL     OW 2686   1.563   4.562   2.319
  596SOL    HW1 2687   1.464   4.576   2.313
  596SOL    HW2 2688   1.584   4.511   2.403
  597SOL     OW 2689   3.882   1.877   5.294
  597SOL    HW1 2690   3.829   1.882   5.209
  597SOL    HW2 2691   3.914   1.968   5.319
  598SOL     OW 2692   3.757   4.383   0.732
  598SOL    HW1 2693   3.774   4.462   0.790
  598SOL    HW2 2694   3.660   4.380   0.707
  599SOL     OW 2695   6.702   6.469   2.457
  599SOL    HW1 2696   6.656   6.458   2.368
  599SOL    HW2 2697   6.786   6.414   2.457
  600SOL     OW 2698   2.367   0.041   0.057
  600SOL    HW1 2699   2.287   0.090   0.023
  600SOL    HW2 2700   2.447   0.101   0.054
  601SOL     OW 2701   3.532   5.378   4.215
  601SOL    HW1 2702   3.447   5.431   4.221
  601SOL    HW2 2703   3.597   5.424   4.155
  602SOL     OW 2704   1.593   0.712   1.226
  602SOL    HW1 2705   1.641   0.645   1.170
  602SOL    HW2 2706   1.504   0.734   1.184
  603SOL     OW 2707   3.968   1.849   3.411
  603SOL    HW1 2708   3.922   1.878   3.327
  603SOL    HW2 2709   3.920   1.887   3.490
  604SOL     OW 2710   0.075   4.161   5.997
  604SOL    HW1 2711   7.004   4.146   5.964
  604SOL    HW2 2712   0.134   4.185   5.920
  605SOL     OW 2713   5.811   0.448   4.809
  605SOL    HW1 2714   5.879   0.503   4.762
  605SOL    HW2 2715   5.800   0.481   4.903
  606SOL     OW 2716   3.519   0.249   3.319
  606SOL    HW1 2717   3.611   0.286   3.329
  606SOL    HW2 2718   3.523   0.150   3.304
  607SOL     OW 2719   4.570   1.233   4.272
  607SOL    HW1 2720   4.586   1.207   4.367
  607SOL    HW2 2721   4.562   1.150   4.216
  608SOL     OW 2722   4.347   1.136   1.335
  608SOL    HW1 2723   4.297   1.138   1.249
  608SOL    HW2 2724   4.340   1.225   1.380
  609SOL     OW 2725   3.451   4.137   4.204
  609SOL    HW1 2726   3.463   4.125   4.106
  609SOL    HW2 2727   3.539   4.126   4.251
  610SOL     OW 2728   5.071   2.459   4.363
  610SOL    HW1 2729   5.050   2.478   4.459
  610SOL    HW2 2730   4.996   2.490   4.305
  611SOL     OW 2731   0.644   6.802   1.196
  611SOL    HW1 2732   0.677   6.847   1.279
  611SOL    HW2 2733   0.546   6.786   1.204
  612SOL     OW 2734   3.279   5.506   5.461
  612SOL    HW1 2735   3.280   5.510   5.561
  612SOL    HW2 2736   3.357   5.557   5.425
  613SOL     OW 2737   3.235   2.131   0.118
  613SOL    HW1 2738   3.295   2.118   0.038
  613SOL    HW2 2739   3.195   2.043   0.143
  614SOL     OW 2740   4.999   4.403   1.183
  614SOL    HW1 2741   4.924   4.384   1.119
  614SOL    HW2 2742   5.023   4.500   1.177
  615SOL     OW 2743   6.176   6.783   0.764
  615SOL    HW1 2744   6.086   6.738   0.762
  615SOL    HW2 2745   6.164   6.882   0.755
  616SOL     OW 2746   5.594   1.858   5.024
  616SOL    HW1 2747   5.644   1.829   4.943
  616SOL    HW2 2748   5.559   1.951   5.010
  617SOL     OW 2749   0.100   5.237   5.475
  617SOL    HW1 2750   0.031   5.289   5.526
  617SOL    HW2 2751   0.190   5.255   5.514
  618SOL     OW 2752   6.284   3.706   0.492
  618SOL    HW1 2753   6.222   3.700   0.570
  618SOL    HW2 2754   6.346   3.783   0.504
  619SOL     OW 2755   2.655   0.566   5.999
  619SOL    HW1 2756   2.671   0.553   5.902
  619SOL    HW2 2757   2.568   0.524   6.025
  620SOL     OW 2758   6.800   2.095   2.321
  620SOL    HW1 2759   6.831   2.045   2.402
  620SOL    HW2 2760   6.743   2.173   2.349
  621SOL     OW 2761   3.135   0.966   6.754
  621SOL    HW1 2762   3.061   0.936   6.694
  621SOL    HW2 2763   3.183   1.043   6.712
  622SOL     OW 2764   1.295   1.800   4.961
  622SOL    HW1 2765   1.254   1.868   5.021
  622SOL    HW2 2766   1.381   1.835   4.924
  623SOL     OW 2767   5.898   0.166   4.334
  623SOL    HW1 2768   5.974   0.118   4.377
  623SOL    HW2 2769   5.892   0.140   4.237
  624SOL     OW 2770   6.413   0.723   6.470
  624SOL    HW1 2771   6.329   0.777   6.473
  624SOL    HW2 2772   6.413   0.666   6.388
  625SOL     OW 2773   2.296   1.771   0.743
  625SOL    HW1 2774   2.241   1.808   0.818
  625SOL    HW2 2775   2.271   1.816   0.658
  626SOL     OW 2776   7.009   5.743   3.729
  626SOL    HW1 2777   6.975   5.663   3.777
  626SOL    HW2 2778   0.010   5.815   3.794
  627SOL     OW 2779   6.374   0.318   0.178
  627SOL    HW1 2780   6.335   0.230   0.206
  627SOL    HW2 2781   6.337   0.390   0.236
  628SOL     OW 2782   4.318   4.402   5.775
  628SOL    HW1 2783   4.413   4.372   5.783
  628SOL    HW2 2784   4.287   4.438   5.864
  629SOL     OW 2785   1.114   6.944   6.201
  629SOL    HW1 2786   1.127   6.922   6.298
  629SOL    HW2 2787   1.178   6.891   6.146
  630SOL     OW 2788   6.455   1.234   1.379
  630SOL    HW1 2789   6.363   1.228   1.416
  630SOL    HW2 2790   6.516   1.276   1.447
  631SOL     OW 2791   1.800   2.994   3.775
  631SOL    HW1 2792   1.718   3.051   3.770
  631SOL    HW2 2793   1.822   2.959   3.684
  632SOL     OW 2794   3.437   3.730   6.635
  632SOL    HW1 2795   3.472   3.692   6.721
  632SOL    HW2 2796   3.508   3.723   6.565
  633SOL     OW 2797   1.490   6.161   1.272
  633SOL    HW1 2798   1.487   6.106   1.356
  633SOL    HW2 2799   1.540   6.110   1.202
  634SOL     OW 2800   3.272   2.986   4.728
  634SOL    HW1 2801   3.217   2.999   4.810
  634SOL    HW2 2802   3.369   2.990   4.752
  635SOL     OW 2803   5.327   0.485   6.771
  635SOL    HW1 2804   5.348   0.582   6.758
  635SOL    HW2 2805   5.413   0.434   6.778
  636SOL     OW 2806   2.595   0.529   5.735
  636SOL    HW1 2807   2.667   0.461   5.749
  636SOL    HW2 2808   2.507   0.482   5.723
  637SOL     OW 2809   6.613   0.391   2.683
  637SOL    HW1 2810   6.698   0.419   2.639
  637SOL    HW2 2811   6.632   0.363   2.777
  638SOL     OW 2812   6.522   3.484   4.354
  638SOL    HW1 2813   6.548   3.423   4.429
  638SOL    HW2 2814   6.425   3.472   4.333
  639SOL     OW 2815   5.576   4.598   2.610
  639SOL    HW1 2816   5.477   4.590   2.619
  639SOL    HW2 2817   5.621   4.532   2.670
  640SOL     OW 2818   0.534   2.469   1.855
  640SOL    HW1 2819   0.537   2.436   1.950
  640SOL    HW2 2820   0.563   2.564   1.852
  641SOL     OW 2821   2.261   5.053   4.473
  641SOL    HW1 2822   2.269   5.137   4.525
  641SOL    HW2 2823   2.322   4.984   4.511
  642SOL     OW 2824   1.115   4.111   4.647
  642SOL    HW1 2825   1.211   4.108   4.672
  642SOL    HW2 2826   1.106   4.144   4.553
  643SOL     OW 2827   5.163   5.402   0.663
  643SOL    HW1 2828   5.121   5.439   0.746
  643SOL    HW2 2829   5.095   5.349   0.612
  644SOL     OW 2830   6.578   6.732   5.174
  644SOL    HW1 2831   6.505   6.717   5.241
  644SOL    HW2 2832   6.626   6.817   5.196
  645SOL     OW 2833   3.950   5.473   2.087
  645SOL    HW1 2834   3.881   5.430   2.145
  645SOL    HW2 2835   3.905   5.534   2.022
  646SOL     OW 2836   3.308   1.679   4.980
  646SOL    HW1 2837   3.214   1.646   4.980
  646SOL    HW2 2838   3.327   1.727   4.894
  647SOL     OW 2839   4.001   2.730   5.865
  647SOL    HW1 2840   3.958   2.669   5.931
  647SOL    HW2 2841   3.942   2.809   5.849
  648SOL     OW 2842   5.983   1.120   2.974
  648SOL    HW1 2843   6.065   1.109   3.031
  648SOL    HW2 2844   6.010   1.120   2.878
  649SOL     OW 2845   2.138   5.978   0.328
  649SOL    HW1 2846   2.205   6.040   0.370
  649SOL    HW2 2847   2.046   6.011   0.346
  650SOL     OW 2848   0.162   3.982   0.983
  650SOL    HW1 2849   0.147   3.960   0.886
  650SOL    HW2 2850   0.178   3.898   1.034
  651SOL     OW 2851   1.118   0.034   4.630
  651SOL    HW1 2852   1.052   7.016   4.693
  651SOL    HW2 2853   1.175   0.101   4.679
  652SOL     OW 2854   3.811   5.917   1.924
  652SOL    HW1 2855   3.789   5.975   2.002
  652SOL    HW2 2856   3.797   5.968   1.839
  653SOL     OW 2857   1.142   6.815   2.249
  653SOL    HW1 2858   1.105   6.865   2.171
  653SOL    HW2 2859   1.079   6.822   2.326
  654SOL     OW 2860   0.169   0.075   5.102
  654SOL    HW1 2861   0.128   0.123   5.025
  654SOL    HW2 2862   0.230   0.003   5.068
  655SOL     OW 2863   6.909   4.169   1.869
  655SOL    HW1 2864   6.903   4.074   1.898
  655SOL    HW2 2865   6.976   4.217   1.925
  656SOL     OW 2866   3.601   6.029   0.089
  656SOL    HW1 2867   3.543   6.008   0.167
  656SOL    HW2 2868   3.621   6.127   0.087
  657SOL     OW 2869   3.568   3.210   2.574
  657SOL    HW1 2870   3.612   3.222   2.485
  657SOL    HW2 2871   3.571   3.114   2.600
  658SOL     OW 2872   1.265   2.232   5.053
  658SOL    HW1 2873   1.353   2.194   5.027
  658SOL    HW2 2874   1.278   2.323   5.093
  659SOL     OW 2875   2.082   5.957   6.278
  659SOL    HW1 2876   2.028   6.030   6.321
  659SOL    HW2 2877   2.144   5.917   6.345
  660SOL     OW 2878   4.649   4.612   2.632
  660SOL    HW1 2879   4.665   4.675   2.707
  660SOL    HW2 2880   4.623   4.662   2.550
  661SOL     OW 2881   4.706   4.181   4.587
  661SOL    HW1 2882   4.759   4.106   4.627
  661SOL    HW2 2883   4.614   4.180   4.625
  662SOL     OW 2884   5.105   3.353   0.053
  662SOL    HW1 2885   5.179   3.399   0.103
  662SOL    HW2 2886   5.059   3.289   0.115
  663SOL     OW 2887   0.136   4.042   6.795
  663SOL    HW1 2888   0.158   3.953   6.833
  663SOL    HW2 2889   0.037   4.059   6.802
  664SOL     OW 2890   2.107   6.689   6.701
  664SOL    HW1 2891   2.172   6.634   6.753
  664SOL    HW2 2892   2.146   6.712   6.612
  665SOL     OW 2893   3.767   4.906   1.491
  665SOL    HW1 2894   3.784   4.842   1.567
  665SOL    HW2 2895   3.811   4.994   1.511
  666SOL     OW 2896   3.566   1.377   0.294
  666SOL    HW1 2897   3.568   1.435   0.375
  666SOL    HW2 2898   3.609   1.289   0.315
  667SOL     OW 2899   0.958   3.255   3.841
  667SOL    HW1 2900   0.891   3.298   3.781
  667SOL    HW2 2901   0.996   3.324   3.903
  668SOL     OW 2902   5.305   6.709   0.560
  668SOL    HW1 2903   5.360   6.632   0.526
  668SOL    HW2 2904   5.238   6.734   0.491
  669SOL     OW 2905   2.015   5.847   3.072
  669SOL    HW1 2906   2.112   5.857   3.093
  669SOL    HW2 2907   1.961   5.871   3.153
  670SOL     OW 2908   3.283   3.013   3.312
  670SOL    HW1 2909   3.274   3.094   3.369
  670SOL    HW2 2910   3.373   2.971   3.326
  671SOL     OW 2911   1.175   0.421   6.263
  671SOL    HW1 2912   1.142   0.328   6.278
  671SOL    HW2 2913   1.184   0.438   6.165
  672SOL     OW 2914   2.405   2.209   3.756
  672SOL    HW1 2915   2.452   2.143   3.813
  672SOL    HW2 2916   2.464   2.288   3.741
  673SOL     OW 2917   5.781   6.378   0.962
  673SOL    HW1 2918   5.798   6.362   0.864
  673SOL    HW2 2919   5.686   6.406   0.975
  674SOL     OW 2920   6.895   2.129   3.624
  674SOL    HW1 2921   6.910   2.081   3.710
  674SOL    HW2 2922   6.800   2.161   3.619
  675SOL     OW 2923   5.967   1.904   4.680
  675SOL    HW1 2924   5.945   1.976   4.614
  675SOL    HW2 2925   6.055   1.863   4.655
  676SOL     OW 2926   2.060   4.639   4.487
  676SOL    HW1 2927   1.966   4.609   4.469
  676SOL    HW2 2928   2.121   4.601   4.417
  677SOL     OW 2929   5.270   6.891   1.020
  677SOL    HW1 2930   5.303   6.797   1.011
  677SOL    HW2 2931   5.170   6.891   1.021
  678SOL     OW 2932   2.255   1.865   5.971
  678SOL    HW1 2933   2.288   1.839   6.062
  678SOL    HW2 2934   2.172   1.814   5.950
  679SOL     OW 2935   5.622   6.636   2.579
  679SOL    HW1 2936   5.651   6.615   2.486
  679SOL    HW2 2937   5.535   6.685   2.577
  680SOL     OW 2938   5.320   4.122   5.408
  680SOL    HW1 2939   5.320   4.049   5.477
  680SOL    HW2 2940   5.394   4.106   5.343
  681SOL     OW 2941   1.985   6.699   2.039
  681SOL    HW1 2942   2.042   6.634   1.989
  681SOL    HW2 2943   2.043   6.759   2.094
  682SOL     OW 2944   1.183   6.362   0.461
  682SOL    HW1 2945   1.097   6.386   0.417
  682SOL    HW2 2946   1.192   6.262   0.464
  683SOL     OW 2947   5.151   1.878   0.453
  683SOL    HW1 2948   5.153   1.951   0.522
  683SOL    HW2 2949   5.237   1.828   0.456
  684SOL     OW 2950   0.333   5.943   6.460
  684SOL    HW1 2951   0.256   6.006   6.466
  684SOL    HW2 2952   0.328   5.878   6.536
  685SOL     OW 2953   5.665   0.988   5.825
  685SOL    HW1 2954   5.591   0.994   5.891
  685SOL    HW2 2955   5.648   0.912   5.762
  686SOL     OW 2956   5.508   4.957   3.321
  686SOL    HW1 2957   5.566   4.923   3.395
  686SOL    HW2 2958   5.562   5.016   3.262
  687SOL     OW 2959   6.136   2.728   4.791
  687SOL    HW1 2960   6.235   2.745   4.784
  687SOL    HW2 2961   6.086   2.807   4.754
  688SOL     OW 2962   0.204   3.806   4.898
  688SOL    HW1 2963   0.259   3.737   4.945
  688SOL    HW2 2964   0.114   3.814   4.942
  689SOL     OW 2965   6.098   3.875   6.109
  689SOL    HW1 2966   6.032   3.949   6.104
  689SOL    HW2 2967   6.179   3.905   6.159
  690SOL     OW 2968   1.110   2.430   3.605
  690SOL    HW1 2969   1.153   2.512   3.567
  690SOL    HW2 2970   1.016   2.450   3.629
  691SOL     OW 2971   0.431   3.103   6.992
  691SOL    HW1 2972   0.394   3.049   6.916
  691SOL    HW2 2973   0.454   3.042   0.046
  692SOL     OW 2974   1.907   6.773   3.215
  692SOL    HW1 2975   2.001   6.801   3.235
  692SOL    HW2 2976   1.849   6.793   3.294
  693SOL     OW 2977   6.848   1.477   2.404
  693SOL    HW1 2978   6.935   1.460   2.451
  693SOL    HW2 2979   6.775   1.427   2.449
  694SOL     OW 2980   1.582   0.472   1.969
  694SOL    HW1 2981   1.681   0.476   1.956
  694SOL    HW2 2982   1.559   0.397   2.031
  695SOL     OW 2983   3.974   6.006   6.026
  695SOL    HW1 2984   3.897   6.057   5.986
  695SOL    HW2 2985   4.060   6.042   5.991
  696SOL     OW 2986   4.470   5.629   2.419
  696SOL    HW1 2987   4.451   5.586   2.331
  696SOL    HW2 2988   4.387   5.673   2.453
  697SOL     OW 2989   1.281   3.999   3.910
  697SOL    HW1 2990   1.338   4.078   3.933
  697SOL    HW2 2991   1.213   3.986   3.982
  698SOL     OW 2992   4.188   6.669   3.965
  698SOL    HW1 2993   4.254   6.595   3.950
  698SOL    HW2 2994   4.196   6.702   4.060
  699SOL     OW 2995   2.273   4.498   0.383
  699SOL    HW1 2996   2.175   4.481   0.373
  699SOL    HW2 2997   2.323   4.444   0.315
  700SOL     OW 2998   1.943   1.038   3.932
  700SOL    HW1 2999   1.972   0.947   3.962
  700SOL    HW2 3000   2.017   1.103   3.948
  701SOL     OW 3001   0.583   4.621   5.815
  701SOL    HW1 3002   0.673   4.625   5.857
  701SOL    HW2 3003   0.539   4.535   5.839
  702SOL     OW 3004   5.782   5.419   4.885
  702SOL    HW1 3005   5.736   5.469   4.811
  702SOL    HW2 3006   5.834   5.483   4.941
  703SOL     OW 3007   4.233   3.822   0.025
  703SOL    HW1 3008   4.331   3.843   0.018
  703SOL    HW2 3009   4.181   3.882   6.987
  704SOL     OW 3010   2.509   6.819   0.693
  704SOL    HW1 3011   2.525   6.786   0.601
  704SOL    HW2 3012   2.420   6.786   0.726
  705SOL     OW 3013   5.788   2.456   3.083
  705SOL    HW1 3014   5.861   2.414   3.029
  705SOL    HW2 3015   5.715   2.389   3.098
  706SOL     OW 3016   4.153   2.113   3.690
  706SOL    HW1 3017   4.124   2.021   3.714
  706SOL    HW2 3018   4.216   2.109   3.612
  707SOL     OW 3019   5.035   1.416   1.612
  707SOL    HW1 3020   5.127   1.415   1.574
  707SOL    HW2 3021   4.968   1.420   1.537
  708SOL     OW 3022   4.260   0.832   1.634
  708SOL    HW1 3023   4.320   0.837   1.555
  708SOL    HW2 3024   4.298   0.887   1.708
  709SOL     OW 3025   1.066   4.841   6.852
  709SOL    HW1 3026   1.134   4.858   6.781
  709SOL    HW2 3027   1.058   4.921   6.910
  710SOL     OW 3028   3.157   4.084   2.552
  710SOL    HW1 3029   3.181   4.038   2.466
  710SOL    HW2 3030   3.065   4.121   2.545
  711SOL     OW 3031   1.124   0.674   3.815
  711SOL    HW1 3032   1.042   0.726   3.792
  711SOL    HW2 3033   1.134   0.669   3.914
  712SOL     OW 3034   1.679   3.820   1.324
  712SOL    HW1 3035   1.612   3.746   1.323
  712SOL    HW2 3036   1.672   3.872   1.238
  713SOL     OW 3037   4.091   3.264   3.107
  713SOL    HW1 3038   4.073   3.236   3.012
  713SOL    HW2 3039   4.145   3.348   3.108
  714SOL     OW 3040   4.987   5.090   5.318
  714SOL    HW1 3041   4.969   5.043   5.404
  714SOL    HW2 3042   4.903   5.133   5.285
  715SOL     OW 3043   4.090   0.396   6.417
  715SOL    HW1 3044   4.075   0.314   6.472
  715SOL    HW2 3045   4.002   0.439   6.395
  716SOL     OW 3046   0.120   4.839   1.716
  716SOL    HW1 3047   0.023   4.823   1.735
  716SOL    HW2 3048   0.174   4.811   1.796
  717SOL     OW 3049   6.305   2.504   0.554
  717SOL    HW1 3050   6.378   2.571   0.563
  717SOL    HW2 3051   6.217   2.550   0.550
  718SOL     OW 3052   3.831   3.885   6.636
  718SOL    HW1 3053   3.803   3.884   6.732
  718SOL    HW2 3054   3.834   3.791   6.601
  719SOL     OW 3055   5.430   4.400   0.139
  719SOL    HW1 3056   5.404   4.483   0.090
  719SOL    HW2 3057   5.369   4.388   0.218
  720SOL     OW 3058   2.406   0.998   6.099
  720SOL    HW1 3059   2.423   0.930   6.028
  720SOL    HW2 3060   2.345   0.961   6.168
  721SOL     OW 3061   1.488   6.824   6.020
  721SOL    HW1 3062   1.397   6.809   5.980
  721SOL    HW2 3063   1.553   6.843   5.946
  722SOL     OW 3064   4.443   0.042   5.621
  722SOL    HW1 3065   4.440   0.092   5.534
  722SOL    HW2 3066   4.354   7.021   5.638
  723SOL     OW 3067   1.211   3.119   1.691
  723SOL    HW1 3068   1.259   3.176   1.758
  723SOL    HW2 3069   1.245   3.025   1.697
  724SOL     OW 3070   6.730   1.354   5.048
  724SOL    HW1 3071   6.673   1.300   5.110
  724SOL    HW2 3072   6.673   1.390   4.974
  725SOL     OW 3073   1.937   5.622   0.876
  725SOL    HW1 3074   1.989   5.699   0.840
  725SOL    HW2 3075   1.847   5.618   0.831
  726SOL     OW 3076   4.056   0.138   6.546
  726SOL    HW1 3077   4.131   0.142   6.481
  726SOL    HW2 3078   4.092   0.142   6.639
  727SOL     OW 3079   2.895   4.781   3.929
  727SOL    HW1 3080   2.798   4.776   3.955
  727SOL    HW2 3081   2.952   4.763   4.009
  728SOL     OW 3082   6.982   3.706   4.987
  728SOL    HW1 3083   6.896   3.722   4.939
  728SOL    HW2 3084   0.002   3.622   4.952
  729SOL     OW 3085   3.188   0.030   1.286
  729SOL    HW1 3086   3.146   6.961   1.286
  729SOL    HW2 3087   3.121   0.097   1.256
  730SOL     OW 3088   6.108   0.546   4.487
  730SOL    HW1 3089   6.178   0.478   4.510
  730SOL    HW2 3090   6.152   0.630   4.455
  731SOL     OW 3091   5.770   3.664   3.664
  731SOL    HW1 3092   5.707   3.592   3.635
  731SOL    HW2 3093   5.818   3.700   3.584
  732SOL     OW 3094   6.668   3.158   1.712
  732SOL    HW1 3095   6.683   3.240   1.657
  732SOL    HW2 3096   6.593   3.173   1.776
  733SOL     OW 3097   4.582   4.337   3.694
  733SOL    HW1 3098   4.532   4.419   3.665
  733SOL    HW2 3099   4.627   4.296   3.614
  734SOL     OW 3100   6.905   4.472   0.784
  734SOL    HW1 3101   6.808   4.480   0.762
  734SOL    HW2 3102   6.918   4.479   0.883
  735SOL     OW 3103   1.682   4.952   6.749
  735SOL    HW1 3104   1.720   5.015   6.681
  735SOL    HW2 3105   1.593   4.919   6.716
  736SOL     OW 3106   6.073   1.192   3.406
  736SOL    HW1 3107   6.152   1.163   3.352
  736SOL    HW2 3108   6.104   1.245   3.484
  737SOL     OW 3109   5.567   3.304   0.712
  737SOL    HW1 3110   5.557   3.370   0.786
  737SOL    HW2 3111   5.477   3.270   0.686
  738SOL     OW 3112   0.868   3.941   4.057
  738SOL    HW1 3113   0.871   3.978   4.150
  738SOL    HW2 3114   0.772   3.933   4.027
  739SOL     OW 3115   4.919   6.153   6.828
  739SOL    HW1 3116   4.947   6.128   6.921
  739SOL    HW2 3117   4.966   6.093   6.763
  740SOL     OW 3118   5.782   6.763   1.518
  740SOL    HW1 3119   5.765   6.822   1.596
  740SOL    HW2 3120   5.881   6.749   1.507
  741SOL     OW 3121   2.290   0.750   2.650
  741SOL    HW1 3122   2.324   0.829   2.701
  741SOL    HW2 3123   2.267   0.677   2.714
  742SOL     OW 3124   1.182   0.321   3.193
  742SOL    HW1 3125   1.154   0.261   3.119
  742SOL    HW2 3126   1.109   0.329   3.261
  743SOL     OW 3127   2.033   4.163   4.707
  743SOL    HW1 3128   1.936   4.159   4.682
  743SOL    HW2 3129   2.069   4.254   4.687
  744SOL     OW 3130   0.264   5.933   0.563
  744SOL    HW1 3131   0.198   5.998   0.601
  744SOL    HW2 3132   0.352   5.943   0.610
  745SOL     OW 3133   1.686   6.225   3.097
  745SOL    HW1 3134   1.633   6.231   3.012
  745SOL    HW2 3135   1.697   6.129   3.122
  746SOL     OW 3136   1.682   0.524   4.801
  746SOL    HW1 3137   1.707   0.455   4.869
  746SOL    HW2 3138   1.753   0.594   4.796
  747SOL     OW 3139   5.033   4.693   2.799
  747SOL    HW1 3140   4.942   4.651   2.797
  747SOL    HW2 3141   5.050   4.738   2.711
  748SOL     OW 3142   4.379   3.245   1.180
  748SOL    HW1 3143   4.294   3.272   1.224
  748SOL    HW2 3144   4.384   3.287   1.089
  749SOL     OW 3145   6.851   1.561   5.432
  749SOL    HW1 3146   6.941   1.589   5.464
  749SOL    HW2 3147   6.825   1.615   5.352
  750SOL     OW 3148   2.422   3.977   0.575
  750SOL    HW1 3149   2.489   3.910   0.542
  750SOL    HW2 3150   2.387   4.029   0.497
  751SOL     OW 3151   4.845   0.679   6.954
  751SOL    HW1 3152   4.886   0.719   6.872
  751SOL    HW2 3153   4.917   0.664   0.001
  752SOL     OW 3154   5.104   1.903   2.230
  752SOL    HW1 3155   5.071   1.995   2.251
  752SOL    HW2 3156   5.026   1.845   2.205
  753SOL     OW 3157   2.005   2.824   3.928
  753SOL    HW1 3158   1.968   2.878   3.853
  753SOL    HW2 3159   2.103   2.842   3.938
  754SOL     OW 3160   4.568   5.557   0.140
  754SOL    HW1 3161   4.643   5.497   0.167
  754SOL    HW2 3162   4.514   5.512   0.068
  755SOL     OW 3163   0.386   5.951   0.907
  755SOL    HW1 3164   0.371   5.854   0.921
  755SOL    HW2 3165   0.304   6.002   0.933
  756SOL     OW 3166   5.107   0.090   3.527
  756SOL    HW1 3167   5.120   0.064   3.622
  756SOL    HW2 3168   5.068   0.013   3.477
  757SOL     OW 3169   0.352   0.752   3.600
  757SOL    HW1 3170   0.407   0.743   3.683
  757SOL    HW2 3171   0.395   0.817   3.538
  758SOL     OW 3172   3.817   2.392   1.184
  758SOL    HW1 3173   3.901   2.341   1.201
  758SOL    HW2 3174   3.816   2.475   1.241
  759SOL     OW 3175   1.558   1.322   6.797
  759SOL    HW1 3176   1.586   1.376   6.717
  759SOL    HW2 3177   1.595   1.364   6.880
  760SOL     OW 3178   4.349   2.007   6.007
  760SOL    HW1 3179   4.447   2.023   6.009
  760SOL    HW2 3180   4.326   1.947   5.930
  761SOL     OW 3181   5.659   2.673   6.632
  761SOL    HW1 3182   5.728   2.614   6.590
  761SOL    HW2 3183   5.705   2.746   6.683
  762SOL     OW 3184   2.508   6.098   3.873
  762SOL    HW1 3185   2.536   6.009   3.836
  762SOL    HW2 3186   2.409   6.097   3.890
  763SOL     OW 3187   4.218   5.980   6.555
  763SOL    HW1 3188   4.219   5.952   6.651
  763SOL    HW2 3189   4.174   5.909   6.500
  764SOL     OW 3190   4.770   1.543   2.225
  764SOL    HW1 3191   4.755   1.641   2.208
  764SOL    HW2 3192   4.683   1.496   2.231
  765SOL     OW 3193   6.734   0.082   3.492
  765SOL    HW1 3194   6.696   0.047   3.578
  765SOL    HW2 3195   6.824   0.041   3.476
  766SOL     OW 3196   0.235   6.194   6.927
  766SOL    HW1 3197   0.305   6.245   6.877
  766SOL    HW2 3198   0.174   6.258   6.974
  767SOL     OW 3199   5.983   0.157   2.486
  767SOL    HW1 3200   5.987   0.205   2.398
  767SOL    HW2 3201   6.073   0.121   2.509
  768SOL     OW 3202   3.145   6.268   3.411
  768SOL    HW1 3203   3.045   6.255   3.415
  768SOL    HW2 3204   3.178   6.299   3.500
  769SOL     OW 3205   3.982   1.293   6.111
  769SOL    HW1 3206   4.047   1.315   6.184
  769SOL    HW2 3207   3.991   1.360   6.038
  770SOL     OW 3208   3.260   4.908   4.043
  770SOL    HW1 3209   3.239   4.884   3.949
  770SOL    HW2 3210   3.343   4.860   4.072
  771SOL     OW 3211   0.674   5.436   3.796
  771SOL    HW1 3212   0.639   5.528   3.815
  771SOL    HW2 3213   0.661   5.379   3.877
  772SOL     OW 3214   6.864   3.900   6.177
  772SOL    HW1 3215   6.833   3.913   6.083
  772SOL    HW2 3216   6.939   3.963   6.196
  773SOL     OW 3217   0.057   4.118   2.496
  773SOL    HW1 3218   7.020   4.076   2.428
  773SOL    HW2 3219   0.140   4.064   2.507
  774SOL     OW 3220   1.419   1.069   1.800
  774SOL    HW1 3221   1.418   1.089   1.702
  774SOL    HW2 3222   1.419   0.970   1.813
  775SOL     OW 3223   1.836   2.070   4.629
  775SOL    HW1 3224   1.928   2.108   4.631
  775SOL    HW2 3225   1.841   1.971   4.621
  776SOL     OW 3226   2.106   0.591   6.267
  776SOL    HW1 3227   2.119   0.522   6.338
  776SOL    HW2 3228   2.072   0.675   6.308
  777SOL     OW 3229   4.506   1.100   0.815
  777SOL    HW1 3230   4.436   1.168   0.838
  777SOL    HW2 3231   4.461   1.017   0.781
  778SOL     OW 3232   3.818   6.641   4.750
  778SOL    HW1 3233   3.821   6.738   4.726
  778SOL    HW2 3234   3.727   6.619   4.785
  779SOL     OW 3235   1.246   1.417   2.344
  779SOL    HW1 3236   1.300   1.353   2.399
  779SOL    HW2 3237   1.238   1.504   2.393
  780SOL     OW 3238   5.596   3.105   4.934
  780SOL    HW1 3239   5.542   3.103   5.019
  780SOL    HW2 3240   5.622   3.199   4.913
  781SOL     OW 3241   6.857   0.965   5.816
  781SOL    HW1 3242   6.865   1.062   5.796
  781SOL    HW2 3243   6.885   0.948   5.911
  782SOL     OW 3244   6.987   3.179   0.672
  782SOL    HW1 3245   7.011   3.090   0.712
  782SOL    HW2 3246   6.891   3.199   0.691
  783SOL     OW 3247   2.883   4.784   0.746
  783SOL    HW1 3248   2.886   4.842   0.664
  783SOL    HW2 3249   2.793   4.789   0.787
  784SOL     OW 3250   4.377   0.745   4.857
  784SOL    HW1 3251   4.474   0.746   4.830
  784SOL    HW2 3252   4.369   0.703   4.947
  785SOL     OW 3253   6.428   2.838   2.947
  785SOL    HW1 3254   6.419   2.738   2.954
  785SOL    HW2 3255   6.428   2.864   2.851
  786SOL     OW 3256   6.707   6.883   0.137
  786SOL    HW1 3257   6.706   6.982   0.149
  786SOL    HW2 3258   6.744   6.840   0.219
  787SOL     OW 3259   3.284   2.259   6.275
  787SOL    HW1 3260   3.318   2.286   6.365
  787SOL    HW2 3261   3.327   2.173   6.248
  788SOL     OW 3262   1.825   3.817   4.274
  788SOL    HW1 3263   1.773   3.890   4.318
  788SOL    HW2 3264   1.842   3.840   4.179
  789SOL     OW 3265   5.665   3.943   0.907
  789SOL    HW1 3266   5.733   4.004   0.869
  789SOL    HW2 3267   5.577   3.956   0.860
  790SOL     OW 3268   2.958   1.346   3.790
  790SOL    HW1 3269   3.049   1.361   3.828
  790SOL    HW2 3270   2.937   1.418   3.723
  791SOL     OW 3271   3.137   1.649   4.206
  791SOL    HW1 3272   3.062   1.599   4.249
  791SOL    HW2 3273   3.222   1.597   4.216
  792SOL     OW 3274   5.817   0.079   3.799
  792SOL    HW1 3275   5.901   0.129   3.777
  792SOL    HW2 3276   5.787   0.027   3.719
  793SOL     OW 3277   5.612   0.250   6.743
  793SOL    HW1 3278   5.664   0.334   6.759
  793SOL    HW2 3279   5.636   0.182   6.812
  794SOL     OW 3280   2.450   5.419   5.428
  794SOL    HW1 3281   2.420   5.325   5.445
  794SOL    HW2 3282   2.549   5.421   5.417
  795SOL     OW 3283   4.694   4.390   6.253
  795SOL    HW1 3284   4.639   4.321   6.206
  795SOL    HW2 3285   4.707   4.365   6.348
  796SOL     OW 3286   0.290   2.383   6.518
  796SOL    HW1 3287   0.245   2.358   6.604
  796SOL    HW2 3288   0.224   2.429   6.458
  797SOL     OW 3289   5.951   3.019   3.954
  797SOL    HW1 3290   6.046   2.994   3.969
  797SOL    HW2 3291   5.941   3.118   3.965
  798SOL     OW 3292   5.292   1.048   6.331
  798SOL    HW1 3293   5.261   1.096   6.249
  798SOL    HW2 3294   5.370   0.989   6.308
  799SOL     OW 3295   6.861   3.233   3.238
  799SOL    HW1 3296   6.908   3.179   3.307
  799SOL    HW2 3297   6.927   3.273   3.175
  800SOL     OW 3298   6.211   1.288   2.022
  800SOL    HW1 3299   6.267   1.238   2.088
  800SOL    HW2 3300   6.245   1.382   2.015
  801SOL     OW 3301   0.442   2.732   3.463
  801SOL    HW1 3302   0.354   2.701   3.501
  801SOL    HW2 3303   0.436   2.829   3.440
  802SOL     OW 3304   5.459   1.050   0.729
  802SOL    HW1 3305   5.407   1.113   0.787
  802SOL    HW2 3306   5.484   1.096   0.644
  803SOL     OW 3307   6.649   6.986   5.244
  803SOL    HW1 3308   6.649   0.035   5.314
  803SOL    HW2 3309   6.564   6.991   5.191
  804SOL     OW 3310   0.247   0.080   0.462
  804SOL    HW1 3311   0.165   0.060   0.408
  804SOL    HW2 3312   0.297   7.017   0.479
  805SOL     OW 3313   2.940   2.992   6.319
  805SOL    HW1 3314   2.961   2.968   6.414
  805SOL    HW2 3315   3.014   2.962   6.260
  806SOL     OW 3316   5.228   0.542   0.614
  806SOL    HW1 3317   5.223   0.640   0.628
  806SOL    HW2 3318   5.310   0.506   0.659
  807SOL     OW 3319   1.512   0.194   3.510
  807SOL    HW1 3320   1.556   0.119   3.559
  807SOL    HW2 3321   1.488   0.165   3.417
  808SOL     OW 3322   4.997   3.221   5.264
  808SOL    HW1 3323   5.031   3.132   5.235
  808SOL    HW2 3324   5.062   3.263   5.327
  809SOL     OW 3325   0.236   4.610   6.321
  809SOL    HW1 3326   0.191   4.548   6.257
  809SOL    HW2 3327   0.280   4.684   6.270
  810SOL     OW 3328   6.009   4.270   0.021
  810SOL    HW1 3329   5.966   4.350   7.001
  810SOL    HW2 3330   6.037   4.206   6.972
  811SOL     OW 3331   5.069   5.111   4.132
  811SOL    HW1 3332   5.135   5.175   4.173
  811SOL    HW2 3333   5.117   5.051   4.067
  812SOL     OW 3334   0.227   6.912   1.820
  812SOL    HW1 3335   0.315   6.959   1.821
  812SOL    HW2 3336   0.234   6.826   1.871
  813SOL     OW 3337   5.347   5.648   2.297
  813SOL    HW1 3338   5.315   5.675   2.207
  813SOL    HW2 3339   5.297   5.567   2.328
  814SOL     OW 3340   5.756   6.358   1.907
  814SOL    HW1 3341   5.697   6.389   1.981
  814SOL    HW2 3342   5.766   6.430   1.839
  815SOL     OW 3343   0.072   2.558   0.990
  815SOL    HW1 3344   0.121   2.471   1.001
  815SOL    HW2 3345   6.996   2.542   0.997
  816SOL     OW 3346   6.631   6.661   0.840
  816SOL    HW1 3347   6.656   6.625   0.750
  816SOL    HW2 3348   6.540   6.628   0.865
  817SOL     OW 3349   2.036   2.738   2.432
  817SOL    HW1 3350   2.122   2.789   2.441
  817SOL    HW2 3351   1.960   2.795   2.464
  818SOL     OW 3352   6.341   1.775   1.141
  818SOL    HW1 3353   6.433   1.743   1.164
  818SOL    HW2 3354   6.327   1.867   1.179
  819SOL     OW 3355   6.791   3.767   4.125
  819SOL    HW1 3356   6.813   3.718   4.040
  819SOL    HW2 3357   6.699   3.805   4.118
  820SOL     OW 3358   1.101   2.925   4.833
  820SOL    HW1 3359   1.150   2.975   4.761
  820SOL    HW2 3360   1.156   2.924   4.916
  821SOL     OW 3361   1.241   3.517   6.830
  821SOL    HW1 3362   1.224   3.589   6.898
  821SOL    HW2 3363   1.302   3.552   6.759
  822SOL     OW 3364   1.610   3.979   4.370
  822SOL    HW1 3365   1.559   4.061   4.343
  822SOL    HW2 3366   1.547   3.909   4.401
  823SOL     OW 3367   3.853   4.171   0.590
  823SOL    HW1 3368   3.831   4.257   0.636
  823SOL    HW2 3369   3.809   4.169   0.500
  824SOL     OW 3370   5.514   2.021   5.903
  824SOL    HW1 3371   5.442   1.952   5.909
  824SOL    HW2 3372   5.560   2.029   5.991
  825SOL     OW 3373   2.293   4.188   2.190
  825SOL    HW1 3374   2.344   4.274   2.179
  825SOL    HW2 3375   2.314   4.127   2.114
  826SOL     OW 3376   0.202   4.223   6.288
  826SOL    HW1 3377   0.156   4.137   6.307
  826SOL    HW2 3378   0.149   4.276   6.221
  827SOL     OW 3379   3.948   5.932   6.883
  827SOL    HW1 3380   4.040   5.966   6.904
  827SOL    HW2 3381   3.898   6.001   6.831
  828SOL     OW 3382   6.348   0.294   5.974
  828SOL    HW1 3383   6.276   0.228   5.950
  828SOL    HW2 3384   6.353   0.302   6.074
  829SOL     OW 3385   3.517   2.955   4.853
  829SOL    HW1 3386   3.595   3.017   4.863
  829SOL    HW2 3387   3.542   2.879   4.793
  830SOL     OW 3388   4.446   3.917   5.602
  830SOL    HW1 3389   4.381   3.902   5.528
  830SOL    HW2 3390   4.437   4.010   5.636
  831SOL     OW 3391   6.559   0.879   4.740
  831SOL    HW1 3392   6.496   0.824   4.685
  831SOL    HW2 3393   6.507   0.941   4.798
  832SOL     OW 3394   1.942   1.988   5.903
  832SOL    HW1 3395   1.969   2.038   5.986
  832SOL    HW2 3396   1.980   2.034   5.823
  833SOL     OW 3397   6.799   6.868   5.918
  833SOL    HW1 3398   6.760   6.778   5.898
  833SOL    HW2 3399   6.726   6.934   5.933
  834SOL     OW 3400   3.141   4.008   5.048
  834SOL    HW1 3401   3.235   3.975   5.058
  834SOL    HW2 3402   3.135   4.103   5.080
  835SOL     OW 3403   4.137   6.938   3.433
  835SOL    HW1 3404   4.088   6.877   3.496
  835SOL    HW2 3405   4.071   6.988   3.377
  836SOL     OW 3406   2.622   1.263   0.537
  836SOL    HW1 3407   2.536   1.312   0.523
  836SOL    HW2 3408   2.628   1.188   0.471
  837SOL     OW 3409   4.853   1.095   5.840
  837SOL    HW1 3410   4.932   1.146   5.874
  837SOL    HW2 3411   4.815   1.142   5.761
  838SOL     OW 3412   2.376   5.417   3.163
  838SOL    HW1 3413   2.340   5.395   3.072
  838SOL    HW2 3414   2.461   5.367   3.178
  839SOL     OW 3415   3.104   1.591   2.693
  839SOL    HW1 3416   3.191   1.627   2.725
  839SOL    HW2 3417   3.037   1.665   2.687
  840SOL     OW 3418   0.964   1.399   6.664
  840SOL    HW1 3419   1.019   1.465   6.714
  840SOL    HW2 3420   1.024   1.334   6.617
  841SOL     OW 3421   0.939   3.490   6.961
  841SOL    HW1 3422   0.870   3.561   6.972
  841SOL    HW2 3423   1.000   3.489   0.019
  842SOL     OW 3424   3.749   5.343   3.379
  842SOL    HW1 3425   3.678   5.360   3.310
  842SOL    HW2 3426   3.804   5.264   3.352
  843SOL     OW 3427   6.583   2.266   1.928
  843SOL    HW1 3428   6.547   2.174   1.943
  843SOL    HW2 3429   6.566   2.322   2.008
  844SOL     OW 3430   5.394   5.922   0.668
  844SOL    HW1 3431   5.309   5.924   0.616
  844SOL    HW2 3432   5.378   5.878   0.757
  845SOL     OW 3433   0.769   4.700   4.969
  845SOL    HW1 3434   0.788   4.614   5.017
  845SOL    HW2 3435   0.844   4.763   4.984
  846SOL     OW 3436   6.290   1.789   6.405
  846SOL    HW1 3437   6.350   1.841   6.344
  846SOL    HW2 3438   6.333   1.781   6.495
  847SOL     OW 3439   4.899   3.457   2.384
  847SOL    HW1 3440   4.858   3.547   2.376
  847SOL    HW2 3441   4.948   3.449   2.471
  848SOL     OW 3442   5.925   0.462   5.858
  848SOL    HW1 3443   5.973   0.550   5.863
  848SOL    HW2 3444   5.891   0.437   5.949
  849SOL     OW 3445   0.411   5.230   4.299
  849SOL    HW1 3446   0.403   5.132   4.281
  849SOL    HW2 3447   0.497   5.249   4.346
  850SOL     OW 3448   3.696   0.787   2.791
  850SOL    HW1 3449   3.724   0.720   2.722
  850SOL    HW2 3450   3.611   0.758   2.835
  851SOL     OW 3451   1.526   0.825   6.268
  851SOL    HW1 3452   1.450   0.782   6.218
  851SOL    HW2 3453   1.489   0.898   6.326
  852SOL     OW 3454   1.960   4.051   6.505
  852SOL    HW1 3455   1.901   3.987   6.554
  852SOL    HW2 3456   2.055   4.037   6.533
  853SOL     OW 3457   1.977   4.040   1.375
  853SOL    HW1 3458   1.880   4.046   1.398
  853SOL    HW2 3459   2.014   4.132   1.361
  854SOL     OW 3460   5.654   4.980   2.010
  854SOL    HW1 3461   5.590   4.923   2.062
  854SOL    HW2 3462   5.652   4.952   1.913
  855SOL     OW 3463   5.166   0.328   1.665
  855SOL    HW1 3464   5.258   0.353   1.635
  855SOL    HW2 3465   5.144   0.236   1.632
  856SOL     OW 3466   1.565   6.866   5.331
  856SOL    HW1 3467   1.521   6.954   5.350
  856SOL    HW2 3468   1.541   6.837   5.238
  857SOL     OW 3469   6.822   3.656   2.111
  857SOL    HW1 3470   6.771   3.581   2.068
  857SOL    HW2 3471   6.920   3.633   2.112
  858SOL     OW 3472   3.150   4.218   1.168
  858SOL    HW1 3473   3.167   4.206   1.070
  858SOL    HW2 3474   3.159   4.130   1.214
  859SOL     OW 3475   6.747   4.826   6.656
  859SOL    HW1 3476   6.655   4.839   6.618
  859SOL    HW2 3477   6.789   4.744   6.616
  860SOL     OW 3478   1.906   4.496   1.588
  860SOL    HW1 3479   1.880   4.400   1.595
  860SOL    HW2 3480   1.844   4.552   1.644
  861SOL     OW 3481   3.331   5.850   5.514
  861SOL    HW1 3482   3.265   5.832   5.441
  861SOL    HW2 3483   3.385   5.931   5.491
  862SOL     OW 3484   4.496   4.466   4.177
  862SOL    HW1 3485   4.509   4.427   4.085
  862SOL    HW2 3486   4.535   4.404   4.245
  863SOL     OW 3487   5.909   0.951   1.281
  863SOL    HW1 3488   5.917   1.021   1.211
  863SOL    HW2 3489   5.995   0.902   1.290
  864SOL     OW 3490   5.985   4.486   2.987
  864SOL    HW1 3491   5.965   4.554   2.917
  864SOL    HW2 3492   5.899   4.443   3.017
  865SOL     OW 3493   1.652   6.892   4.527
  865SOL    HW1 3494   1.734   6.948   4.523
  865SOL    HW2 3495   1.588   6.922   4.456
  866SOL     OW 3496   3.250   1.780   1.663
  866SOL    HW1 3497   3.206   1.848   1.722
  866SOL    HW2 3498   3.190   1.760   1.585
  867SOL     OW 3499   1.545   2.869   6.070
  867SOL    HW1 3500   1.581   2.775   6.072
  867SOL    HW2 3501   1.447   2.866   6.050
  868SOL     OW 3502   5.316   2.750   3.362
  868SOL    HW1 3503   5.228   2.791   3.337
  868SOL    HW2 3504   5.300   2.664   3.410
  869SOL     OW 3505   6.322   4.851   2.777
  869SOL    HW1 3506   6.308   4.821   2.872
  869SOL    HW2 3507   6.397   4.799   2.737
  870SOL     OW 3508   0.324   1.627   0.837
  870SOL    HW1 3509   0.273   1.645   0.921
  870SOL    HW2 3510   0.282   1.550   0.788
  871SOL     OW 3511   6.147   3.126   0.713
  871SOL    HW1 3512   6.153   3.035   0.673
  871SOL    HW2 3513   6.151   3.194   0.640
  872SOL     OW 3514   5.864   2.100   3.129
  872SOL    HW1 3515   5.818   2.144   3.206
  872SOL    HW2 3516   5.955   2.069   3.157
  873SOL     OW 3517   4.273   6.811   5.392
  873SOL    HW1 3518   4.274   6.885   5.325
  873SOL    HW2 3519   4.355   6.754   5.381
  874SOL     OW 3520   0.756   3.645   5.982
  874SOL    HW1 3521   0.688   3.605   5.921
  874SOL    HW2 3522   0.750   3.601   6.072
  875SOL     OW 3523   6.287   4.692   6.767
  875SOL    HW1 3524   6.386   4.682   6.778
  875SOL    HW2 3525   6.266   4.786   6.739
  876SOL     OW 3526   0.698   3.411   2.116
  876SOL    HW1 3527   0.787   3.365   2.123
  876SOL    HW2 3528   0.653   3.408   2.205
  877SOL     OW 3529   5.680   5.756   0.718
  877SOL    HW1 3530   5.644   5.782   0.628
  877SOL    HW2 3531   5.776   5.728   0.708
  878SOL     OW 3532   3.070   4.154   0.172
  878SOL    HW1 3533   3.147   4.094   0.190
  878SOL    HW2 3534   3.080   4.196   0.082
  879SOL     OW 3535   4.800   2.183   2.006
  879SOL    HW1 3536   4.888   2.137   2.014
  879SOL    HW2 3537   4.730   2.130   2.055
  880SOL     OW 3538   4.024   5.139   0.788
  880SOL    HW1 3539   4.072   5.054   0.807
  880SOL    HW2 3540   3.927   5.128   0.808
  881SOL     OW 3541   4.513   5.282   5.140
  881SOL    HW1 3542   4.550   5.366   5.180
  881SOL    HW2 3543   4.492   5.297   5.044
  882SOL     OW 3544   0.731   0.863   4.666
  882SOL    HW1 3545   0.821   0.843   4.706
  882SOL    HW2 3546   0.737   0.853   4.567
  883SOL     OW 3547   2.995   5.046   6.218
  883SOL    HW1 3548   2.897   5.060   6.233
  883SOL    HW2 3549   3.019   4.952   6.245
  884SOL     OW 3550   4.745   3.970   1.341
  884SOL    HW1 3551   4.744   3.941   1.245
  884SOL    HW2 3552   4.650   3.977   1.373
  885SOL     OW 3553   4.284   6.384   0.422
  885SOL    HW1 3554   4.275   6.314   0.493
  885SOL    HW2 3555   4.205   6.445   0.425
  886SOL     OW 3556   4.743   1.570   6.119
  886SOL    HW1 3557   4.666   1.609   6.070
  886SOL    HW2 3558   4.798   1.644   6.159
  887SOL     OW 3559   4.517   0.595   6.194
  887SOL    HW1 3560   4.556   0.682   6.225
  887SOL    HW2 3561   4.442   0.569   6.256
  888SOL     OW 3562   6.083   6.003   3.368
  888SOL    HW1 3563   6.124   6.092   3.385
  888SOL    HW2 3564   6.050   5.999   3.274
  889SOL     OW 3565   0.558   6.895   4.803
  889SOL    HW1 3566   0.562   6.855   4.712
  889SOL    HW2 3567   0.628   6.852   4.861
  890SOL     OW 3568   2.765   4.770   2.129
  890SOL    HW1 3569   2.673   4.730   2.131
  890SOL    HW2 3570   2.823   4.717   2.068
  891SOL     OW 3571   6.067   3.210   6.404
  891SOL    HW1 3572   6.140   3.267   6.366
  891SOL    HW2 3573   6.070   3.119   6.362
  892SOL     OW 3574   3.130   5.082   1.735
  892SOL    HW1 3575   3.093   5.161   1.685
  892SOL    HW2 3576   3.056   5.016   1.751
  893SOL     OW 3577   2.288   0.542   0.431
  893SOL    HW1 3578   2.309   0.615   0.495
  893SOL    HW2 3579   2.239   0.579   0.352
  894SOL     OW 3580   0.878   5.685   3.712
  894SOL    HW1 3581   0.935   5.607   3.737
  894SOL    HW2 3582   0.844   5.731   3.794
  895SOL     OW 3583   1.896   6.854   5.160
  895SOL    HW1 3584   1.860   6.889   5.074
  895SOL    HW2 3585   1.842   6.775   5.189
  896SOL     OW 3586   5.250   6.871   3.237
  896SOL    HW1 3587   5.202   6.884   3.150
  896SOL    HW2 3588   5.185   6.882   3.312
  897SOL     OW 3589   5.518   2.626   5.942
  897SOL    HW1 3590   5.466   2.648   6.024
  897SOL    HW2 3591   5.466   2.654   5.861
  898SOL     OW 3592   5.875   6.488   3.960
  898SOL    HW1 3593   5.846   6.399   3.995
  898SOL    HW2 3594   5.892   6.481   3.861
  899SOL     OW 3595   0.368   4.807   6.201
  899SOL    HW1 3596   0.453   4.780   6.246
  899SOL    HW2 3597   0.383   4.818   6.103
  900SOL     OW 3598   1.000   5.938   3.600
  900SOL    HW1 3599   0.919   5.962   3.546
  900SOL    HW2 3600   1.066   5.890   3.542
  901SOL     OW 3601   5.903   2.456   3.526
  901SOL    HW1 3602   5.819   2.478   3.576
  901SOL    HW2 3603   5.982   2.470   3.586
  902SOL     OW 3604   0.067   6.372   0.050
  902SOL    HW1 3605   0.093   6.370   0.146
  902SOL    HW2 3606   6.991   6.388   0.041
  903SOL     OW 3607   1.397   4.226   0.545
  903SOL    HW1 3608   1.381   4.324   0.551
  903SOL    HW2 3609   1.438   4.193   0.630
  904SOL     OW 3610   1.922   1.745   3.378
  904SOL    HW1 3611   2.001   1.713   3.430
  904SOL    HW2 3612   1.853   1.672   3.374
  905SOL     OW 3613   5.675   2.041   5.319
  905SOL    HW1 3614   5.597   2.020   5.259
  905SOL    HW2 3615   5.724   1.957   5.341
  906SOL     OW 3616   6.225   4.084   5.342
  906SOL    HW1 3617   6.303   4.146   5.355
  906SOL    HW2 3618   6.210   4.069   5.244
  907SOL     OW 3619   6.856   3.440   1.735
  907SOL    HW1 3620   6.794   3.478   1.804
  907SOL    HW2 3621   6.815   3.453   1.644
  908SOL     OW 3622   2.048   0.441   3.326
  908SOL    HW1 3623   1.963   0.472   3.281
  908SOL    HW2 3624   2.031   0.428   3.423
  909SOL     OW 3625   3.715   0.749   1.289
  909SOL    HW1 3626   3.700   0.783   1.382
  909SOL    HW2 3627   3.771   0.814   1.238
  910SOL     OW 3628   2.051   1.885   1.375
  910SOL    HW1 3629   2.150   1.901   1.376
  910SOL    HW2 3630   2.015   1.890   1.468
  911SOL     OW 3631   0.270   4.221   1.072
  911SOL    HW1 3632   0.354   4.192   1.118
  911SOL    HW2 3633   0.230   4.142   1.024
  912SOL     OW 3634   0.695   0.318   5.791
  912SOL    HW1 3635   0.638   0.256   5.845
  912SOL    HW2 3636   0.676   0.413   5.818
  913SOL     OW 3637   2.531   1.372   1.893
  913SOL    HW1 3638   2.537   1.431   1.973
  913SOL    HW2 3639   2.622   1.358   1.854
  914SOL     OW 3640   3.211   6.637   2.996
  914SOL    HW1 3641   3.289   6.648   2.934
  914SOL    HW2 3642   3.231   6.683   3.083
  915SOL     OW 3643   0.769   2.472   0.075
  915SOL    HW1 3644   0.721   2.428   7.020
  915SOL    HW2 3645   0.867   2.454   0.067
  916SOL     OW 3646   1.920   3.121   3.109
  916SOL    HW1 3647   1.869   3.207   3.107
  916SOL    HW2 3648   1.856   3.045   3.122
  917SOL     OW 3649   3.332   2.534   0.008
  917SOL    HW1 3650   3.356   2.466   6.960
  917SOL    HW2 3651   3.309   2.487   0.093
  918SOL     OW 3652   0.959   0.818   5.771
  918SOL    HW1 3653   0.935   0.756   5.845
  918SOL    HW2 3654   0.922   0.909   5.790
  919SOL     OW 3655   2.438   6.343   1.583
  919SOL    HW1 3656   2.450   6.292   1.497
  919SOL    HW2 3657   2.423   6.440   1.562
  920SOL     OW 3658   1.966   0.550   4.489
  920SOL    HW1 3659   1.991   0.514   4.398
  920SOL    HW2 3660   1.917   0.636   4.479
  921SOL     OW 3661   5.292   5.029   6.026
  921SOL    HW1 3662   5.198   5.024   5.992
  921SOL    HW2 3663   5.314   5.124   6.050
  922SOL     OW 3664   2.202   3.650   6.556
  922SOL    HW1 3665   2.252   3.698   6.485
  922SOL    HW2 3666   2.105   3.648   6.533
  923SOL     OW 3667   3.902   0.811   6.529
  923SOL    HW1 3668   3.826   0.751   6.557
  923SOL    HW2 3669   3.867   0.903   6.513
  924SOL     OW 3670   6.424   3.899   3.205
  924SOL    HW1 3671   6.379   3.829   3.149
  924SOL    HW2 3672   6.439   3.981   3.150
  925SOL     OW 3673   6.350   2.030   3.268
  925SOL    HW1 3674   6.378   1.944   3.312
  925SOL    HW2 3675   6.250   2.037   3.271
  926SOL     OW 3676   5.495   6.410   0.937
  926SOL    HW1 3677   5.445   6.476   0.993
  926SOL    HW2 3678   5.484   6.319   0.975
  927SOL     OW 3679   4.231   5.011   4.785
  927SOL    HW1 3680   4.237   5.016   4.884
  927SOL    HW2 3681   4.307   5.062   4.744
  928SOL     OW 3682   0.538   1.100   1.286
  928SOL    HW1 3683   0.541   1.199   1.274
  928SOL    HW2 3684   0.485   1.078   1.369
  929SOL     OW 3685   0.781   2.554   2.720
  929SOL    HW1 3686   0.815   2.464   2.693
  929SOL    HW2 3687   0.828   2.625   2.666
  930SOL     OW 3688   4.671   5.955   3.659
  930SOL    HW1 3689   4.729   5.875   3.678
  930SOL    HW2 3690   4.576   5.925   3.647
  931SOL     OW 3691   1.656   2.932   1.886
  931SOL    HW1 3692   1.747   2.909   1.850
  931SOL    HW2 3693   1.658   3.023   1.926
  932SOL     OW 3694   4.628   6.389   1.446
  932SOL    HW1 3695   4.546   6.337   1.474
  932SOL    HW2 3696   4.616   6.423   1.353
  933SOL     OW 3697   2.235   6.082   3.404
  933SOL    HW1 3698   2.325   6.116   3.433
  933SOL    HW2 3699   2.247   6.020   3.326
  934SOL     OW 3700   3.079   1.298   5.293
  934SOL    HW1 3701   3.024   1.381   5.302
  934SOL    HW2 3702   3.139   1.307   5.213
  935SOL     OW 3703   2.797   3.089   6.967
  935SOL    HW1 3704   2.725   3.117   0.009
  935SOL    HW2 3705   2.761   3.089   6.874
  936SOL     OW 3706   0.567   1.635   1.995
  936SOL    HW1 3707   0.602   1.670   1.908
  936SOL    HW2 3708   0.467   1.625   1.989
  937SOL     OW 3709   4.901   2.285   3.904
  937SOL    HW1 3710   4.849   2.367   3.881
  937SOL    HW2 3711   4.926   2.238   3.819
  938SOL     OW 3712   0.138   2.037   0.018
  938SOL    HW1 3713   0.204   2.073   0.084
  938SOL    HW2 3714   0.186   2.003   6.959
  939SOL     OW 3715   6.178   1.239   5.815
  939SOL    HW1 3716   6.264   1.285   5.792
  939SOL    HW2 3717   6.108   1.307   5.835
  940SOL     OW 3718   0.580   0.744   4.345
  940SOL    HW1 3719   0.515   0.819   4.357
  940SOL    HW2 3720   0.641   0.764   4.268
  941SOL     OW 3721   5.573   2.636   4.795
  941SOL    HW1 3722   5.491   2.652   4.740
  941SOL    HW2 3723   5.631   2.569   4.749
  942SOL     OW 3724   5.065   0.209   5.541
  942SOL    HW1 3725   5.078   0.297   5.497
  942SOL    HW2 3726   5.151   0.177   5.580
  943SOL     OW 3727   6.056   1.554   0.168
  943SOL    HW1 3728   5.977   1.610   0.143
  943SOL    HW2 3729   6.037   1.506   0.254
  944SOL     OW 3730   6.262   3.974   4.855
  944SOL    HW1 3731   6.192   4.000   4.922
  944SOL    HW2 3732   6.353   3.985   4.896
  945SOL     OW 3733   5.462   4.365   5.434
  945SOL    HW1 3734   5.411   4.279   5.436
  945SOL    HW2 3735   5.535   4.359   5.366
  946SOL     OW 3736   5.755   2.953   5.861
  946SOL    HW1 3737   5.738   2.881   5.928
  946SOL    HW2 3738   5.845   2.993   5.877
  947SOL     OW 3739   1.984   3.143   5.610
  947SOL    HW1 3740   2.075   3.180   5.594
  947SOL    HW2 3741   1.939   3.195   5.683
  948SOL     OW 3742   3.682   1.979   0.168
  948SOL    HW1 3743   3.774   1.997   0.203
  948SOL    HW2 3744   3.615   1.994   0.241
  949SOL     OW 3745   5.671   5.819   6.346
  949SOL    HW1 3746   5.716   5.746   6.397
  949SOL    HW2 3747   5.610   5.869   6.408
  950SOL     OW 3748   4.241   5.299   0.826
  950SOL    HW1 3749   4.243   5.349   0.912
  950SOL    HW2 3750   4.163   5.237   0.824
  951SOL     OW 3751   1.339   2.449   2.923
  951SOL    HW1 3752   1.350   2.503   3.007
  951SOL    HW2 3753   1.242   2.428   2.910
  952SOL     OW 3754   5.279   1.653   1.846
  952SOL    HW1 3755   5.214   1.700   1.786
  952SOL    HW2 3756   5.283   1.699   1.934
  953SOL     OW 3757   3.514   0.124   6.401
  953SOL    HW1 3758   3.515   0.118   6.501
  953SOL    HW2 3759   3.606   0.107   6.365
  954SOL     OW 3760   0.103   6.130   0.689
  954SOL    HW1 3761   0.030   6.068   0.718
  954SOL    HW2 3762   0.157   6.157   0.769
  955SOL     OW 3763   6.199   0.016   2.280
  955SOL    HW1 3764   6.212   6.954   2.332
  955SOL    HW2 3765   6.275   0.028   2.216
  956SOL     OW 3766   1.240   2.358   0.301
  956SOL    HW1 3767   1.277   2.409   0.379
  956SOL    HW2 3768   1.294   2.275   0.288
  957SOL     OW 3769   2.565   6.482   5.129
  957SOL    HW1 3770   2.503   6.449   5.058
  957SOL    HW2 3771   2.515   6.539   5.194
  958SOL     OW 3772   5.056   2.281   0.432
  958SOL    HW1 3773   5.025   2.225   0.356
  958SOL    HW2 3774   5.094   2.222   0.504
  959SOL     OW 3775   1.327   4.428   2.593
  959SOL    HW1 3776   1.331   4.469   2.684
  959SOL    HW2 3777   1.362   4.335   2.596
  960SOL     OW 3778   1.776   5.497   5.547
  960SOL    HW1 3779   1.744   5.406   5.519
  960SOL    HW2 3780   1.875   5.501   5.540
  961SOL     OW 3781   3.507   6.469   1.900
  961SOL    HW1 3782   3.418   6.464   1.945
  961SOL    HW2 3783   3.529   6.380   1.860
  962SOL     OW 3784   1.359   6.834   4.491
  962SOL    HW1 3785   1.347   6.736   4.511
  962SOL    HW2 3786   1.427   6.845   4.419
  963SOL     OW 3787   6.009   0.656   1.563
  963SOL    HW1 3788   5.997   0.581   1.627
  963SOL    HW2 3789   6.101   0.694   1.572
  964SOL     OW 3790   5.134   4.048   1.394
  964SOL    HW1 3791   5.219   4.020   1.350
  964SOL    HW2 3792   5.146   4.138   1.435
  965SOL     OW 3793   0.944   2.478   1.111
  965SOL    HW1 3794   0.942   2.573   1.079
  965SOL    HW2 3795   0.866   2.428   1.073
  966SOL     OW 3796   0.249   1.895   1.460
  966SOL    HW1 3797   0.341   1.857   1.462
  966SOL    HW2 3798   0.198   1.862   1.539
  967SOL     OW 3799   0.729   6.241   2.705
  967SOL    HW1 3800   0.815   6.191   2.702
  967SOL    HW2 3801   0.744   6.330   2.750
  968SOL     OW 3802   6.242   3.883   2.497
  968SOL    HW1 3803   6.169   3.932   2.447
  968SOL    HW2 3804   6.297   3.949   2.548
  969SOL     OW 3805   4.570   6.411   5.942
  969SOL    HW1 3806   4.501   6.374   6.005
  969SOL    HW2 3807   4.629   6.338   5.909
  970SOL     OW 3808   4.282   2.071   5.139
  970SOL    HW1 3809   4.217   2.004   5.177
  970SOL    HW2 3810   4.324   2.034   5.056
  971SOL     OW 3811   6.982   2.059   1.506
  971SOL    HW1 3812   6.959   2.059   1.409
  971SOL    HW2 3813   6.993   1.964   1.537
  972SOL     OW 3814   6.998   5.381   1.491
  972SOL    HW1 3815   6.936   5.378   1.412
  972SOL    HW2 3816   6.991   5.295   1.542
  973SOL     OW 3817   6.100   4.139   5.579
  973SOL    HW1 3818   6.144   4.133   5.489
  973SOL    HW2 3819   6.169   4.149   5.650
  974SOL     OW 3820   2.450   0.987   4.122
  974SOL    HW1 3821   2.387   0.938   4.181
  974SOL    HW2 3822   2.417   0.984   4.028
  975SOL     OW 3823   3.440   6.884   5.674
  975SOL    HW1 3824   3.426   6.816   5.602
  975SOL    HW2 3825   3.408   6.846   5.761
  976SOL     OW 3826   0.338   5.385   3.736
  976SOL    HW1 3827   0.291   5.430   3.660
  976SOL    HW2 3828   0.419   5.338   3.701
  977SOL     OW 3829   1.332   1.583   3.214
  977SOL    HW1 3830   1.244   1.623   3.238
  977SOL    HW2 3831   1.404   1.626   3.268
  978SOL     OW 3832   5.822   2.957   4.914
  978SOL    HW1 3833   5.735   3.007   4.913
  978SOL    HW2 3834   5.869   2.976   5.001
  979SOL     OW 3835   5.366   0.894   3.188
  979SOL    HW1 3836   5.457   0.902   3.148
  979SOL    HW2 3837   5.352   0.801   3.222
  980SOL     OW 3838   5.804   0.874   5.055
  980SOL    HW1 3839   5.714   0.917   5.067
  980SOL    HW2 3840   5.875   0.941   5.076
  981SOL     OW 3841   0.065   2.934   5.581
  981SOL    HW1 3842   0.060   3.024   5.537
  981SOL    HW2 3843   6.995   2.898   5.594
  982SOL     OW 3844   1.380   3.132   1.260
  982SOL    HW1 3845   1.374   3.134   1.359
  982SOL    HW2 3846   1.435   3.052   1.231
  983SOL     OW 3847   5.385   1.363   2.995
  983SOL    HW1 3848   5.355   1.268   2.988
  983SOL    HW2 3849   5.484   1.369   2.981
  984SOL     OW 3850   4.773   0.867   4.285
  984SOL    HW1 3851   4.759   0.919   4.370
  984SOL    HW2 3852   4.787   0.930   4.209
  985SOL     OW 3853   3.117   5.530   7.017
  985SOL    HW1 3854   3.190   5.548   6.951
  985SOL    HW2 3855   3.094   5.615   0.043
  986SOL     OW 3856   4.708   5.413   6.285
  986SOL    HW1 3857   4.609   5.408   6.298
  986SOL    HW2 3858   4.732   5.505   6.253
  987SOL     OW 3859   3.685   6.829   2.528
  987SOL    HW1 3860   3.741   6.753   2.494
  987SOL    HW2 3861   3.729   6.869   2.608
  988SOL     OW 3862   3.327   4.025   2.080
  988SOL    HW1 3863   3.237   4.056   2.049
  988SOL    HW2 3864   3.364   3.960   2.014
  989SOL     OW 3865   0.911   0.046   5.120
  989SOL    HW1 3866   0.843   0.029   5.190
  989SOL    HW2 3867   0.943   6.980   5.083
  990SOL     OW 3868   4.633   6.194   3.784
  990SOL    HW1 3869   4.682   6.271   3.741
  990SOL    HW2 3870   4.658   6.109   3.738
  991SOL     OW 3871   6.209   1.683   4.998
  991SOL    HW1 3872   6.124   1.707   5.046
  991SOL    HW2 3873   6.253   1.765   4.964
  992SOL     OW 3874   0.371   3.387   0.820
  992SOL    HW1 3875   0.391   3.477   0.782
  992SOL    HW2 3876   0.274   3.384   0.846
  993SOL     OW 3877   3.377   5.124   3.830
  993SOL    HW1 3878   3.330   5.042   3.862
  993SOL    HW2 3879   3.472   5.102   3.807
  994SOL     OW 3880   2.907   3.520   2.705
  994SOL    HW1 3881   2.848   3.451   2.665
  994SOL    HW2 3882   2.923   3.593   2.638
  995SOL     OW 3883   1.030   1.281   4.851
  995SOL    HW1 3884   1.000   1.374   4.875
  995SOL    HW2 3885   1.130   1.278   4.851
  996SOL     OW 3886   1.432   3.663   2.703
  996SOL    HW1 3887   1.339   3.695   2.720
  996SOL    HW2 3888   1.497   3.736   2.727
  997SOL     OW 3889   6.673   1.057   1.571
  997SOL    HW1 3890   6.646   1.034   1.664
  997SOL    HW2 3891   6.592   1.064   1.513
  998SOL     OW 3892   5.153   6.971   3.008
  998SOL    HW1 3893   5.173   6.982   2.911
  998SOL    HW2 3894   5.160   0.037   3.054
  999SOL     OW 3895   0.425   5.197   1.067
  999SOL    HW1 3896   0.520   5.201   1.098
  999SOL    HW2 3897   0.418   5.134   0.989
 1000SOL     OW 3898   4.217   1.461   3.769
 1000SOL    HW1 3899   4.272   1.426   3.694
 1000SOL    HW2 3900   4.121   1.465   3.741
 1001SOL     OW 3901   4.458   0.478   5.325
 1001SOL    HW1 3902   4.493   0.457   5.416
 1001SOL    HW2 3903   4.462   0.396   5.268
 1002SOL     OW 3904   6.715   1.910   0.943
 1002SOL    HW1 3905   6.814   1.899   0.929
 1002SOL    HW2 3906   6.667   1.834   0.899
 1003SOL     OW 3907   4.671   5.250   2.303
 1003SOL    HW1 3908   4.606   5.325   2.292
 1003SOL    HW2 3909   4.627   5.163   2.281
 1004SOL     OW 3910   6.068   6.106   6.716
 1004SOL    HW1 3911   6.045   6.028   6.773
 1004SOL    HW2 3912   6.165   6.105   6.694
 1005SOL     OW 3913   6.736   6.380   3.662
 1005SOL    HW1 3914   6.707   6.309   3.726
 1005SOL    HW2 3915   6.788   6.450   3.710
 1006SOL     OW 3916   2.126   4.622   0.705
 1006SOL    HW1 3917   2.139   4.651   0.800
 1006SOL    HW2 3918   2.117   4.523   0.701
 1007SOL     OW 3919   0.490   1.018   3.282
 1007SOL    HW1 3920   0.523   1.070   3.203
 1007SOL    HW2 3921   0.564   1.010   3.349
 1008SOL     OW 3922   2.052   3.093   3.500
 1008SOL    HW1 3923   2.041   3.174   3.558
 1008SOL    HW2 3924   1.964   3.046   3.491
 1009SOL     OW 3925   1.391   6.097   5.082
 1009SOL    HW1 3926   1.321   6.151   5.128
 1009SOL    HW2 3927   1.402   6.129   4.988
 1010SOL     OW 3928   5.051   1.631   0.092
 1010SOL    HW1 3929   5.065   1.656   7.017
 1010SOL    HW2 3930   5.032   1.533   0.098
 1011SOL     OW 3931   3.505   6.190   3.617
 1011SOL    HW1 3932   3.555   6.269   3.583
 1011SOL    HW2 3933   3.429   6.220   3.674
 1012SOL     OW 3934   4.656   5.380   6.904
 1012SOL    HW1 3935   4.688   5.377   6.999
 1012SOL    HW2 3936   4.716   5.324   6.847
 1013SOL     OW 3937   0.736   0.763   1.298
 1013SOL    HW1 3938   0.720   0.795   1.392
 1013SOL    HW2 3939   0.816   0.704   1.296
 1014SOL     OW 3940   4.267   0.256   5.772
 1014SOL    HW1 3941   4.198   0.188   5.746
 1014SOL    HW2 3942   4.334   0.265   5.699
 1015SOL     OW 3943   3.241   6.056   4.216
 1015SOL    HW1 3944   3.318   6.062   4.280
 1015SOL    HW2 3945   3.183   5.979   4.242
 1016SOL     OW 3946   4.580   2.778   1.426
 1016SOL    HW1 3947   4.637   2.860   1.432
 1016SOL    HW2 3948   4.487   2.799   1.454
 1017SOL     OW 3949   4.217   1.838   6.711
 1017SOL    HW1 3950   4.151   1.913   6.721
 1017SOL    HW2 3951   4.258   1.841   6.620
 1018SOL     OW 3952   1.785   3.753   2.744
 1018SOL    HW1 3953   1.775   3.681   2.675
 1018SOL    HW2 3954   1.739   3.725   2.829
 1019SOL     OW 3955   6.454   0.928   0.430
 1019SOL    HW1 3956   6.468   1.017   0.473
 1019SOL    HW2 3957   6.407   0.867   0.494
 1020SOL     OW 3958   2.612   1.634   1.711
 1020SOL    HW1 3959   2.688   1.572   1.730
 1020SOL    HW2 3960   2.534   1.581   1.676
 1021SOL     OW 3961   6.724   1.387   1.259
 1021SOL    HW1 3962   6.745   1.467   1.203
 1021SOL    HW2 3963   6.730   1.412   1.355
 1022SOL     OW 3964   4.054   2.903   6.694
 1022SOL    HW1 3965   4.073   2.884   6.598
 1022SOL    HW2 3966   4.021   2.997   6.703
 1023SOL     OW 3967   5.400   1.128   3.390
 1023SOL    HW1 3968   5.469   1.192   3.356
 1023SOL    HW2 3969   5.400   1.046   3.333
 1024SOL     OW 3970   6.344   1.538   3.229
 1024SOL    HW1 3971   6.405   1.465   3.261
 1024SOL    HW2 3972   6.316   1.518   3.135
 1025SOL     OW 3973   2.929   4.630   1.177
 1025SOL    HW1 3974   2.950   4.538   1.211
 1025SOL    HW2 3975   2.843   4.662   1.216
 1026SOL     OW 3976   1.359   2.103   0.250
 1026SOL    HW1 3977   1.446   2.055   0.260
 1026SOL    HW2 3978   1.348   2.131   0.154
 1027SOL     OW 3979   2.659   4.935   2.544
 1027SOL    HW1 3980   2.680   4.908   2.638
 1027SOL    HW2 3981   2.723   4.889   2.482
 1028SOL     OW 3982   1.609   6.507   0.454
 1028SOL    HW1 3983   1.674   6.512   0.378
 1028SOL    HW2 3984   1.610   6.593   0.505
 1029SOL     OW 3985   3.048   0.731   6.201
 1029SOL    HW1 3986   2.951   0.714   6.217
 1029SOL    HW2 3987   3.060   0.806   6.137
 1030SOL     OW 3988   3.908   4.029   4.870
 1030SOL    HW1 3989   3.873   3.936   4.875
 1030SOL    HW2 3990   3.937   4.058   4.962
 1031SOL     OW 3991   2.243   5.649   1.268
 1031SOL    HW1 3992   2.313   5.669   1.198
 1031SOL    HW2 3993   2.153   5.645   1.224
 1032SOL     OW 3994   1.783   0.744   4.355
 1032SOL    HW1 3995   1.765   0.691   4.272
 1032SOL    HW2 3996   1.715   0.722   4.424
 1033SOL     OW 3997   2.228   5.908   3.641
 1033SOL    HW1 3998   2.219   5.826   3.586
 1033SOL    HW2 3999   2.204   5.988   3.586
 1034SOL     OW 4000   1.357   4.889   3.794
 1034SOL    HW1 4001   1.382   4.985   3.804
 1034SOL    HW2 4002   1.267   4.874   3.834
 1035SOL     OW 4003   2.058   1.081   4.561
 1035SOL    HW1 4004   2.018   1.163   4.602
 1035SOL    HW2 4005   2.149   1.066   4.598
 1036SOL     OW 4006   4.884   2.077   0.328
 1036SOL    HW1 4007   4.919   1.983   0.327
 1036SOL    HW2 4008   4.834   2.093   0.413
 1037SOL     OW 4009   2.720   2.014   6.787
 1037SOL    HW1 4010   2.697   2.110   6.806
 1037SOL    HW2 4011   2.815   1.997   6.814
 1038SOL     OW 4012   2.254   0.841   4.236
 1038SOL    HW1 4013   2.239   0.800   4.325
 1038SOL    HW2 4014   2.192   0.800   4.169
 1039SOL     OW 4015   3.927   1.578   3.194
 1039SOL    HW1 4016   3.986   1.630   3.132
 1039SOL    HW2 4017   3.855   1.637   3.229
 1040SOL     OW 4018   6.456   4.328   3.225
 1040SOL    HW1 4019   6.427   4.310   3.319
 1040SOL    HW2 4020   6.453   4.243   3.172
 1041SOL     OW 4021   0.848   0.111   4.202
 1041SOL    HW1 4022   0.919   0.129   4.270
 1041SOL    HW2 4023   0.765   0.161   4.226
 1042SOL     OW 4024   5.333   4.161   0.822
 1042SOL    HW1 4025   5.400   4.175   0.895
 1042SOL    HW2 4026   5.292   4.249   0.796
 1043SOL     OW 4027   3.012   1.010   6.487
 1043SOL    HW1 4028   2.995   1.108   6.490
 1043SOL    HW2 4029   3.100   0.993   6.442
 1044SOL     OW 4030   4.421   3.398   1.726
 1044SOL    HW1 4031   4.363   3.336   1.672
 1044SOL    HW2 4032   4.508   3.412   1.679
 1045SOL     OW 4033   3.046   1.411   3.261
 1045SOL    HW1 4034   3.127   1.368   3.300
 1045SOL    HW2 4035   3.064   1.508   3.243
 1046SOL     OW 4036   3.638   0.967   1.814
 1046SOL    HW1 4037   3.718   1.025   1.829
 1046SOL    HW2 4038   3.562   1.023   1.780
 1047SOL     OW 4039   1.292   5.025   2.317
 1047SOL    HW1 4040   1.223   4.979   2.373
 1047SOL    HW2 4041   1.255   5.111   2.283
 1048SOL     OW 4042   5.767   4.464   5.693
 1048SOL    HW1 4043   5.854   4.474   5.741
 1048SOL    HW2 4044   5.772   4.385   5.632
 1049SOL     OW 4045   0.451   3.441   4.812
 1049SOL    HW1 4046   0.508   3.364   4.841
 1049SOL    HW2 4047   0.505   3.525   4.814
 1050SOL     OW 4048   3.326   0.542   6.684
 1050SOL    HW1 4049   3.301   0.447   6.668
 1050SOL    HW2 4050   3.287   0.600   6.612
 1051SOL     OW 4051   4.207   4.535   1.477
 1051SOL    HW1 4052   4.224   4.468   1.548
 1051SOL    HW2 4053   4.158   4.613   1.516
 1052SOL     OW 4054   3.494   0.030   4.361
 1052SOL    HW1 4055   3.572   0.017   4.299
 1052SOL    HW2 4056   3.466   0.126   4.358
 1053SOL     OW 4057   4.202   4.766   3.585
 1053SOL    HW1 4058   4.169   4.770   3.490
 1053SOL    HW2 4059   4.227   4.858   3.614
 1054SOL     OW 4060   3.782   6.188   4.475
 1054SOL    HW1 4061   3.862   6.210   4.531
 1054SOL    HW2 4062   3.721   6.267   4.472
 1055SOL     OW 4063   4.741   5.152   5.158
 1055SOL    HW1 4064   4.743   5.068   5.104
 1055SOL    HW2 4065   4.650   5.194   5.151
 1056SOL     OW 4066   0.993   6.454   4.981
 1056SOL    HW1 4067   0.943   6.501   5.054
 1056SOL    HW2 4068   1.011   6.518   4.907
 1057SOL     OW 4069   3.698   4.186   1.873
 1057SOL    HW1 4070   3.675   4.211   1.967
 1057SOL    HW2 4071   3.617   4.193   1.816
 1058SOL     OW 4072   3.819   1.318   1.218
 1058SOL    HW1 4073   3.850   1.393   1.159
 1058SOL    HW2 4074   3.773   1.249   1.162
 1059SOL     OW 4075   3.039   1.609   0.870
 1059SOL    HW1 4076   2.951   1.637   0.832
 1059SOL    HW2 4077   3.025   1.534   0.935
 1060SOL     OW 4078   2.534   2.503   5.008
 1060SOL    HW1 4079   2.516   2.597   4.980
 1060SOL    HW2 4080   2.595   2.459   4.942
 1061SOL     OW 4081   3.471   5.860   1.475
 1061SOL    HW1 4082   3.431   5.940   1.521
 1061SOL    HW2 4083   3.399   5.793   1.456
 1062SOL     OW 4084   5.300   4.519   5.196
 1062SOL    HW1 4085   5.353   4.468   5.264
 1062SOL    HW2 4086   5.231   4.575   5.241
 1063SOL     OW 4087   2.000   2.766   6.211
 1063SOL    HW1 4088   1.965   2.698   6.147
 1063SOL    HW2 4089   1.963   2.749   6.302
 1064SOL     OW 4090   0.083   3.289   1.533
 1064SOL    HW1 4091   0.152   3.339   1.481
 1064SOL    HW2 4092   0.024   3.354   1.581
 1065SOL     OW 4093   6.117   5.918   4.892
 1065SOL    HW1 4094   6.215   5.907   4.910
 1065SOL    HW2 4095   6.101   6.008   4.851
 1066SOL     OW 4096   4.068   0.591   3.729
 1066SOL    HW1 4097   4.167   0.598   3.736
 1066SOL    HW2 4098   4.038   0.503   3.765
 1067SOL     OW 4099   1.585   3.333   1.262
 1067SOL    HW1 4100   1.498   3.286   1.272
 1067SOL    HW2 4101   1.608   3.339   1.165
 1068SOL     OW 4102   0.848   3.630   1.671
 1068SOL    HW1 4103   0.837   3.531   1.679
 1068SOL    HW2 4104   0.776   3.667   1.613
 1069SOL     OW 4105   3.766   3.838   1.715
 1069SOL    HW1 4106   3.844   3.817   1.774
 1069SOL    HW2 4107   3.793   3.906   1.647
 1070SOL     OW 4108   2.122   1.022   0.017
 1070SOL    HW1 4109   2.152   0.929   7.017
 1070SOL    HW2 4110   2.093   1.025   0.113
 1071SOL     OW 4111   4.130   6.440   3.611
 1071SOL    HW1 4112   4.072   6.360   3.596
 1071SOL    HW2 4113   4.224   6.410   3.632
 1072SOL     OW 4114   3.654   5.696   3.043
 1072SOL    HW1 4115   3.651   5.708   3.142
 1072SOL    HW2 4116   3.587   5.755   3.000
 1073SOL     OW 4117   2.708   4.939   2.806
 1073SOL    HW1 4118   2.784   4.930   2.871
 1073SOL    HW2 4119   2.637   4.873   2.829
 1074SOL     OW 4120   1.333   5.341   2.255
 1074SOL    HW1 4121   1.376   5.296   2.333
 1074SOL    HW2 4122   1.291   5.427   2.286
 1075SOL     OW 4123   0.293   4.284   3.510
 1075SOL    HW1 4124   0.305   4.222   3.433
 1075SOL    HW2 4125   0.302   4.378   3.479
 1076SOL     OW 4126   0.534   5.329   3.351
 1076SOL    HW1 4127   0.443   5.309   3.313
 1076SOL    HW2 4128   0.534   5.421   3.390
 1077SOL     OW 4129   4.508   0.382   0.683
 1077SOL    HW1 4130   4.468   0.291   0.687
 1077SOL    HW2 4131   4.556   0.393   0.596
 1078SOL     OW 4132   0.923   2.119   1.190
 1078SOL    HW1 4133   0.992   2.125   1.118
 1078SOL    HW2 4134   0.948   2.180   1.265
 1079SOL     OW 4135   2.294   5.540   2.879
 1079SOL    HW1 4136   2.343   5.624   2.856
 1079SOL    HW2 4137   2.212   5.562   2.932
 1080SOL     OW 4138   1.625   5.233   4.055
 1080SOL    HW1 4139   1.566   5.312   4.074
 1080SOL    HW2 4140   1.671   5.204   4.139
 1081SOL     OW 4141   1.329   1.093   6.897
 1081SOL    HW1 4142   1.301   1.156   6.969
 1081SOL    HW2 4143   1.331   1.142   6.809
 1082SOL     OW 4144   2.032   0.162   6.737
 1082SOL    HW1 4145   2.111   0.152   6.797
 1082SOL    HW2 4146   2.024   0.081   6.678
 1083SOL     OW 4147   3.922   3.170   1.344
 1083SOL    HW1 4148   3.825   3.175   1.368
 1083SOL    HW2 4149   3.958   3.081   1.371
 1084SOL     OW 4150   6.604   3.841   0.594
 1084SOL    HW1 4151   6.592   3.926   0.542
 1084SOL    HW2 4152   6.558   3.848   0.682
 1085SOL     OW 4153   2.123   3.991   3.640
 1085SOL    HW1 4154   2.126   3.998   3.740
 1085SOL    HW2 4155   2.097   3.899   3.613
 1086SOL     OW 4156   4.092   5.277   1.862
 1086SOL    HW1 4157   4.112   5.207   1.930
 1086SOL    HW2 4158   4.003   5.318   1.882
 1087SOL     OW 4159   4.301   2.991   5.308
 1087SOL    HW1 4160   4.224   3.009   5.369
 1087SOL    HW2 4161   4.317   2.892   5.303
 1088SOL     OW 4162   5.252   3.833   3.432
 1088SOL    HW1 4163   5.264   3.817   3.334
 1088SOL    HW2 4164   5.337   3.812   3.480
 1089SOL     OW 4165   6.000   0.167   3.599
 1089SOL    HW1 4166   5.954   0.121   3.523
 1089SOL    HW2 4167   5.960   0.258   3.612
 1090SOL     OW 4168   0.669   2.215   5.219
 1090SOL    HW1 4169   0.750   2.237   5.273
 1090SOL    HW2 4170   0.680   2.126   5.176
 1091SOL     OW 4171   1.051   1.808   4.783
 1091SOL    HW1 4172   1.087   1.839   4.695
 1091SOL    HW2 4173   1.116   1.831   4.855
 1092SOL     OW 4174   2.107   4.645   0.990
 1092SOL    HW1 4175   2.113   4.720   1.055
 1092SOL    HW2 4176   2.173   4.574   1.015
 1093SOL     OW 4177   0.374   1.882   2.876
 1093SOL    HW1 4178   0.464   1.892   2.834
 1093SOL    HW2 4179   0.314   1.832   2.814
 1094SOL     OW 4180   1.034   6.224   1.718
 1094SOL    HW1 4181   0.999   6.136   1.750
 1094SOL    HW2 4182   0.985   6.298   1.762
 1095SOL     OW 4183   6.348   3.596   5.912
 1095SOL    HW1 4184   6.442   3.623   5.896
 1095SOL    HW2 4185   6.293   3.614   5.830
 1096SOL     OW 4186   3.472   4.230   1.734
 1096SOL    HW1 4187   3.477   4.145   1.683
 1096SOL    HW2 4188   3.377   4.260   1.742
 1097SOL     OW 4189   1.806   4.583   5.339
 1097SOL    HW1 4190   1.864   4.656   5.306
 1097SOL    HW2 4191   1.710   4.607   5.324
 1098SOL     OW 4192   3.759   1.372   3.117
 1098SOL    HW1 4193   3.830   1.438   3.140
 1098SOL    HW2 4194   3.761   1.353   3.019
 1099SOL     OW 4195   3.416   1.775   2.740
 1099SOL    HW1 4196   3.507   1.791   2.777
 1099SOL    HW2 4197   3.402   1.678   2.723
 1100SOL     OW 4198   0.874   0.449   0.890
 1100SOL    HW1 4199   0.941   0.378   0.912
 1100SOL    HW2 4200   0.796   0.408   0.844
 1101SOL     OW 4201   5.184   2.697   0.658
 1101SOL    HW1 4202   5.272   2.734   0.627
 1101SOL    HW2 4203   5.158   2.740   0.744
 1102SOL     OW 4204   0.715   4.887   3.579
 1102SOL    HW1 4205   0.782   4.944   3.627
 1102SOL    HW2 4206   0.677   4.820   3.642
 1103SOL     OW 4207   0.703   3.171   1.383
 1103SOL    HW1 4208   0.733   3.121   1.464
 1103SOL    HW2 4209   0.761   3.148   1.305
 1104SOL     OW 4210   2.919   5.334   5.496
 1104SOL    HW1 4211   2.930   5.262   5.427
 1104SOL    HW2 4212   3.009   5.364   5.527
 1105SOL     OW 4213   4.351   5.879   0.087
 1105SOL    HW1 4214   4.418   5.903   0.158
 1105SOL    HW2 4215   4.357   5.782   0.067
 1106SOL     OW 4216   0.612   1.912   6.095
 1106SOL    HW1 4217   0.681   1.877   6.032
 1106SOL    HW2 4218   0.603   2.011   6.084
 1107SOL     OW 4219   1.345   0.370   1.296
 1107SOL    HW1 4220   1.320   0.401   1.205
 1107SOL    HW2 4221   1.403   0.438   1.340
 1108SOL     OW 4222   0.897   1.848   6.336
 1108SOL    HW1 4223   0.946   1.935   6.343
 1108SOL    HW2 4224   0.799   1.864   6.349
 1109SOL     OW 4225   4.789   1.395   4.236
 1109SOL    HW1 4226   4.713   1.330   4.237
 1109SOL    HW2 4227   4.845   1.381   4.318
 1110SOL     OW 4228   3.827   2.930   2.101
 1110SOL    HW1 4229   3.911   2.984   2.104
 1110SOL    HW2 4230   3.818   2.888   2.011
 1111SOL     OW 4231   5.462   6.762   0.258
 1111SOL    HW1 4232   5.554   6.790   0.230
 1111SOL    HW2 4233   5.469   6.700   0.337
 1112SOL     OW 4234   6.431   1.019   2.835
 1112SOL    HW1 4235   6.490   0.987   2.910
 1112SOL    HW2 4236   6.370   0.945   2.807
 1113SOL     OW 4237   6.079   4.016   1.463
 1113SOL    HW1 4238   5.985   3.982   1.457
 1113SOL    HW2 4239   6.140   3.941   1.488
 1114SOL     OW 4240   5.028   1.723   4.806
 1114SOL    HW1 4241   5.081   1.639   4.792
 1114SOL    HW2 4242   4.977   1.744   4.722
 1115SOL     OW 4243   2.375   3.192   0.862
 1115SOL    HW1 4244   2.424   3.135   0.928
 1115SOL    HW2 4245   2.347   3.277   0.906
 1116SOL     OW 4246   4.405   5.634   4.898
 1116SOL    HW1 4247   4.486   5.581   4.873
 1116SOL    HW2 4248   4.358   5.590   4.974
 1117SOL     OW 4249   2.768   3.343   0.780
 1117SOL    HW1 4250   2.841   3.359   0.847
 1117SOL    HW2 4251   2.716   3.262   0.806
 1118SOL     OW 4252   1.959   3.765   3.573
 1118SOL    HW1 4253   2.020   3.706   3.626
 1118SOL    HW2 4254   1.880   3.712   3.541
 1119SOL     OW 4255   3.597   4.158   2.135
 1119SOL    HW1 4256   3.511   4.118   2.105
 1119SOL    HW2 4257   3.578   4.231   2.201
 1120SOL     OW 4258   4.377   0.697   4.161
 1120SOL    HW1 4259   4.435   0.640   4.219
 1120SOL    HW2 4260   4.434   0.758   4.106
 1121SOL     OW 4261   5.438   3.483   2.328
 1121SOL    HW1 4262   5.491   3.457   2.247
 1121SOL    HW2 4263   5.449   3.581   2.345
 1122SOL     OW 4264   4.857   4.789   6.831
 1122SOL    HW1 4265   4.846   4.706   6.885
 1122SOL    HW2 4266   4.813   4.776   6.742
 1123SOL     OW 4267   3.649   0.830   1.555
 1123SOL    HW1 4268   3.603   0.746   1.582
 1123SOL    HW2 4269   3.685   0.877   1.636
 1124SOL     OW 4270   1.292   4.428   4.415
 1124SOL    HW1 4271   1.381   4.448   4.456
 1124SOL    HW2 4272   1.222   4.483   4.461
 1125SOL     OW 4273   4.082   3.409   4.972
 1125SOL    HW1 4274   4.081   3.441   4.877
 1125SOL    HW2 4275   4.070   3.487   5.033
 1126SOL     OW 4276   5.796   6.980   2.381
 1126SOL    HW1 4277   5.833   0.036   2.432
 1126SOL    HW2 4278   5.849   6.966   2.297
 1127SOL     OW 4279   1.604   4.549   0.103
 1127SOL    HW1 4280   1.520   4.528   0.153
 1127SOL    HW2 4281   1.590   4.632   0.048
 1128SOL     OW 4282   3.011   1.690   4.769
 1128SOL    HW1 4283   2.915   1.687   4.742
 1128SOL    HW2 4284   3.029   1.774   4.821
 1129SOL     OW 4285   5.001   6.932   0.110
 1129SOL    HW1 4286   5.096   6.922   0.140
 1129SOL    HW2 4287   4.998   6.936   0.010
 1130SOL     OW 4288   0.268   4.917   5.683
 1130SOL    HW1 4289   0.219   5.002   5.701
 1130SOL    HW2 4290   0.321   4.926   5.599
 1131SOL     OW 4291   0.706   5.061   6.350
 1131SOL    HW1 4292   0.767   5.080   6.427
 1131SOL    HW2 4293   0.716   5.133   6.281
 1132SOL     OW 4294   4.653   0.413   5.809
 1132SOL    HW1 4295   4.605   0.373   5.887
 1132SOL    HW2 4296   4.727   0.352   5.781
 1133SOL     OW 4297   0.721   3.188   0.927
 1133SOL    HW1 4298   0.733   3.094   0.895
 1133SOL    HW2 4299   0.637   3.194   0.980
 1134SOL     OW 4300   6.182   3.086   5.722
 1134SOL    HW1 4301   6.198   3.185   5.726
 1134SOL    HW2 4302   6.262   3.038   5.759
 1135SOL     OW 4303   4.655   1.309   3.322
 1135SOL    HW1 4304   4.710   1.376   3.372
 1135SOL    HW2 4305   4.666   1.322   3.224
 1136SOL     OW 4306   3.558   5.224   4.445
 1136SOL    HW1 4307   3.543   5.270   4.358
 1136SOL    HW2 4308   3.653   5.191   4.449
 1137SOL     OW 4309   1.822   1.230   5.970
 1137SOL    HW1 4310   1.792   1.155   5.911
 1137SOL    HW2 4311   1.908   1.267   5.935
 1138SOL     OW 4312   0.914   4.394   5.428
 1138SOL    HW1 4313   0.864   4.419   5.511
 1138SOL    HW2 4314   1.013   4.402   5.445
 1139SOL     OW 4315   1.378   6.440   1.789
 1139SOL    HW1 4316   1.341   6.515   1.734
 1139SOL    HW2 4317   1.371   6.354   1.738
 1140SOL     OW 4318   3.163   1.846   3.975
 1140SOL    HW1 4319   3.135   1.772   4.037
 1140SOL    HW2 4320   3.234   1.813   3.913
 1141SOL     OW 4321   6.762   5.738   5.651
 1141SOL    HW1 4322   6.730   5.790   5.730
 1141SOL    HW2 4323   6.784   5.645   5.679
 1142SOL     OW 4324   6.064   1.003   3.664
 1142SOL    HW1 4325   6.077   1.079   3.728
 1142SOL    HW2 4326   5.987   0.947   3.695
 1143SOL     OW 4327   4.698   1.689   2.731
 1143SOL    HW1 4328   4.771   1.630   2.697
 1143SOL    HW2 4329   4.736   1.757   2.794
 1144SOL     OW 4330   0.205   6.556   5.033
 1144SOL    HW1 4331   0.285   6.496   5.028
 1144SOL    HW2 4332   0.191   6.585   5.127
 1145SOL     OW 4333   1.203   4.998   5.559
 1145SOL    HW1 4334   1.112   4.996   5.516
 1145SOL    HW2 4335   1.272   5.022   5.491
 1146SOL     OW 4336   5.807   2.202   0.753
 1146SOL    HW1 4337   5.828   2.111   0.788
 1146SOL    HW2 4338   5.824   2.270   0.824
 1147SOL     OW 4339   6.212   2.472   1.758
 1147SOL    HW1 4340   6.311   2.463   1.743
 1147SOL    HW2 4341   6.178   2.551   1.706
 1148SOL     OW 4342   4.422   0.182   0.295
 1148SOL    HW1 4343   4.331   0.213   0.320
 1148SOL    HW2 4344   4.487   0.205   0.368
 1149SOL     OW 4345   0.083   3.578   2.757
 1149SOL    HW1 4346   0.175   3.612   2.777
 1149SOL    HW2 4347   0.015   3.643   2.791
 1150SOL     OW 4348   1.242   4.880   6.643
 1150SOL    HW1 4349   1.282   4.956   6.693
 1150SOL    HW2 4350   1.257   4.893   6.545
 1151SOL     OW 4351   4.791   5.383   0.135
 1151SOL    HW1 4352   4.880   5.428   0.131
 1151SOL    HW2 4353   4.801   5.295   0.183
 1152SOL     OW 4354   0.145   0.718   4.837
 1152SOL    HW1 4355   0.102   0.642   4.885
 1152SOL    HW2 4356   0.194   0.684   4.757
 1153SOL     OW 4357   2.397   5.418   2.588
 1153SOL    HW1 4358   2.436   5.497   2.541
 1153SOL    HW2 4359   2.395   5.436   2.687
 1154SOL     OW 4360   1.742   4.614   1.756
 1154SOL    HW1 4361   1.675   4.679   1.792
 1154SOL    HW2 4362   1.782   4.562   1.832
 1155SOL     OW 4363   3.264   5.469   1.734
 1155SOL    HW1 4364   3.182   5.476   1.678
 1155SOL    HW2 4365   3.249   5.402   1.807
 1156SOL     OW 4366   1.997   0.742   4.123
 1156SOL    HW1 4367   1.934   0.793   4.181
 1156SOL    HW2 4368   1.952   0.720   4.036
 1157SOL     OW 4369   1.452   2.124   4.062
 1157SOL    HW1 4370   1.517   2.182   4.110
 1157SOL    HW2 4371   1.373   2.178   4.033
 1158SOL     OW 4372   4.690   5.330   5.426
 1158SOL    HW1 4373   4.644   5.246   5.401
 1158SOL    HW2 4374   4.789   5.316   5.424
 1159SOL     OW 4375   5.189   4.998   2.883
 1159SOL    HW1 4376   5.096   5.034   2.884
 1159SOL    HW2 4377   5.194   4.920   2.821
 1160SOL     OW 4378   2.922   3.197   0.568
 1160SOL    HW1 4379   2.864   3.242   0.637
 1160SOL    HW2 4380   2.897   3.230   0.477
 1161SOL     OW 4381   4.395   0.318   4.079
 1161SOL    HW1 4382   4.489   0.336   4.051
 1161SOL    HW2 4383   4.375   0.365   4.165
 1162SOL     OW 4384   3.607   4.454   1.644
 1162SOL    HW1 4385   3.583   4.361   1.672
 1162SOL    HW2 4386   3.569   4.520   1.710
 1163SOL     OW 4387   4.926   2.449   2.548
 1163SOL    HW1 4388   4.933   2.439   2.448
 1163SOL    HW2 4389   4.830   2.442   2.575
 1164SOL     OW 4390   6.180   3.073   3.697
 1164SOL    HW1 4391   6.247   3.004   3.671
 1164SOL    HW2 4392   6.092   3.052   3.655
 1165SOL     OW 4393   1.550   4.780   1.873
 1165SOL    HW1 4394   1.554   4.860   1.812
 1165SOL    HW2 4395   1.519   4.809   1.963
 1166SOL     OW 4396   3.867   3.002   6.480
 1166SOL    HW1 4397   3.862   2.913   6.435
 1166SOL    HW2 4398   3.912   3.067   6.419
 1167SOL     OW 4399   4.717   1.608   4.852
 1167SOL    HW1 4400   4.659   1.553   4.792
 1167SOL    HW2 4401   4.681   1.701   4.857
 1168SOL     OW 4402   6.289   6.047   3.732
 1168SOL    HW1 4403   6.308   6.061   3.829
 1168SOL    HW2 4404   6.366   6.081   3.678
 1169SOL     OW 4405   1.266   3.330   1.884
 1169SOL    HW1 4406   1.264   3.388   1.966
 1169SOL    HW2 4407   1.263   3.387   1.803
 1170SOL     OW 4408   2.808   0.395   0.820
 1170SOL    HW1 4409   2.771   0.336   0.892
 1170SOL    HW2 4410   2.765   0.485   0.825
 1171SOL     OW 4411   2.293   6.775   0.196
 1171SOL    HW1 4412   2.214   6.780   0.134
 1171SOL    HW2 4413   2.360   6.711   0.158
 1172SOL     OW 4414   3.379   3.681   4.974
 1172SOL    HW1 4415   3.296   3.628   4.993
 1172SOL    HW2 4416   3.376   3.715   4.881
 1173SOL     OW 4417   4.594   0.842   6.218
 1173SOL    HW1 4418   4.631   0.886   6.136
 1173SOL    HW2 4419   4.625   0.892   6.300
 1174SOL     OW 4420   3.272   6.458   1.297
 1174SOL    HW1 4421   3.183   6.460   1.341
 1174SOL    HW2 4422   3.263   6.494   1.203
 1175SOL     OW 4423   6.322   5.029   5.289
 1175SOL    HW1 4424   6.334   4.946   5.344
 1175SOL    HW2 4425   6.360   5.014   5.198
 1176SOL     OW 4426   6.266   3.684   0.792
 1176SOL    HW1 4427   6.288   3.781   0.801
 1176SOL    HW2 4428   6.221   3.652   0.875
 1177SOL     OW 4429   6.564   3.015   0.186
 1177SOL    HW1 4430   6.587   2.927   0.146
 1177SOL    HW2 4431   6.639   3.045   0.246
 1178SOL     OW 4432   5.570   4.005   1.987
 1178SOL    HW1 4433   5.650   4.061   1.962
 1178SOL    HW2 4434   5.493   4.030   1.929
 1179SOL     OW 4435   2.474   6.173   6.349
 1179SOL    HW1 4436   2.495   6.170   6.446
 1179SOL    HW2 4437   2.539   6.115   6.299
 1180SOL     OW 4438   2.366   1.863   4.000
 1180SOL    HW1 4439   2.403   1.774   4.027
 1180SOL    HW2 4440   2.267   1.855   3.987
 1181SOL     OW 4441   2.470   4.471   2.777
 1181SOL    HW1 4442   2.430   4.417   2.850
 1181SOL    HW2 4443   2.561   4.435   2.755
 1182SOL     OW 4444   1.499   4.608   2.802
 1182SOL    HW1 4445   1.474   4.701   2.774
 1182SOL    HW2 4446   1.561   4.612   2.880
 1183SOL     OW 4447   4.642   5.802   1.386
 1183SOL    HW1 4448   4.630   5.713   1.429
 1183SOL    HW2 4449   4.554   5.837   1.354
 1184SOL     OW 4450   3.012   3.042   5.176
 1184SOL    HW1 4451   2.982   3.137   5.187
 1184SOL    HW2 4452   2.992   2.991   5.259
 1185SOL     OW 4453   2.043   1.800   0.017
 1185SOL    HW1 4454   2.080   1.731   0.080
 1185SOL    HW2 4455   2.102   1.881   0.018
 1186SOL     OW 4456   3.801   1.277   5.175
 1186SOL    HW1 4457   3.734   1.347   5.199
 1186SOL    HW2 4458   3.779   1.240   5.085
 1187SOL     OW 4459   6.693   1.011   5.058
 1187SOL    HW1 4460   6.644   1.085   5.012
 1187SOL    HW2 4461   6.778   0.992   5.009
 1188SOL     OW 4462   1.279   0.259   5.489
 1188SOL    HW1 4463   1.272   0.339   5.430
 1188SOL    HW2 4464   1.189   0.240   5.530
 1189SOL     OW 4465   6.792   1.108   1.861
 1189SOL    HW1 4466   6.854   1.055   1.919
 1189SOL    HW2 4467   6.707   1.057   1.849
 1190SOL     OW 4468   4.246   4.737   2.890
 1190SOL    HW1 4469   4.234   4.759   2.987
 1190SOL    HW2 4470   4.328   4.782   2.856
 1191SOL     OW 4471   3.658   5.058   6.722
 1191SOL    HW1 4472   3.754   5.045   6.696
 1191SOL    HW2 4473   3.651   5.062   6.822
 1192SOL     OW 4474   4.500   5.039   2.239
 1192SOL    HW1 4475   4.556   5.033   2.156
 1192SOL    HW2 4476   4.430   4.967   2.236
 1193SOL     OW 4477   4.316   6.799   3.760
 1193SOL    HW1 4478   4.266   6.794   3.673
 1193SOL    HW2 4479   4.277   6.734   3.825
 1194SOL     OW 4480   6.350   0.198   0.936
 1194SOL    HW1 4481   6.371   0.183   1.032
 1194SOL    HW2 4482   6.384   0.120   0.882
 1195SOL     OW 4483   3.957   0.499   6.718
 1195SOL    HW1 4484   4.021   0.572   6.696
 1195SOL    HW2 4485   3.973   0.468   6.812
 1196SOL     OW 4486   7.007   5.463   2.418
 1196SOL    HW1 4487   6.979   5.367   2.414
 1196SOL    HW2 4488   6.936   5.520   2.377
 1197SOL     OW 4489   3.241   5.472   6.069
 1197SOL    HW1 4490   3.240   5.472   6.169
 1197SOL    HW2 4491   3.195   5.554   6.036
 1198SOL     OW 4492   3.026   1.491   2.966
 1198SOL    HW1 4493   3.118   1.491   3.006
 1198SOL    HW2 4494   3.030   1.457   2.872
 1199SOL     OW 4495   3.710   4.085   3.257
 1199SOL    HW1 4496   3.764   4.150   3.309
 1199SOL    HW2 4497   3.668   4.018   3.319
 1200SOL     OW 4498   4.062   4.794   0.105
 1200SOL    HW1 4499   3.971   4.809   0.065
 1200SOL    HW2 4500   4.094   4.702   0.082
 1201SOL     OW 4501   1.274   0.938   4.516
 1201SOL    HW1 4502   1.317   0.848   4.516
 1201SOL    HW2 4503   1.275   0.975   4.423
 1202SOL     OW 4504   6.054   0.234   5.151
 1202SOL    HW1 4505   5.982   0.245   5.082
 1202SOL    HW2 4506   6.141   0.267   5.115
 1203SOL     OW 4507   5.988   6.938   1.911
 1203SOL    HW1 4508   6.046   6.857   1.919
 1203SOL    HW2 4509   5.893   6.913   1.931
 1204SOL     OW 4510   3.124   0.604   0.544
 1204SOL    HW1 4511   3.137   0.512   0.581
 1204SOL    HW2 4512   3.036   0.641   0.575
 1205SOL     OW 4513   0.293   2.407   4.882
 1205SOL    HW1 4514   0.208   2.393   4.831
 1205SOL    HW2 4515   0.301   2.337   4.954
 1206SOL     OW 4516   0.906   1.623   4.577
 1206SOL    HW1 4517   0.928   1.533   4.614
 1206SOL    HW2 4518   0.959   1.638   4.493
 1207SOL     OW 4519   5.455   6.119   6.923
 1207SOL    HW1 4520   5.358   6.094   6.920
 1207SOL    HW2 4521   5.463   6.212   6.959
 1208SOL     OW 4522   3.825   4.082   3.620
 1208SOL    HW1 4523   3.888   4.124   3.685
 1208SOL    HW2 4524   3.859   3.991   3.595
 1209SOL     OW 4525   6.357   5.353   4.305
 1209SOL    HW1 4526   6.321   5.299   4.381
 1209SOL    HW2 4527   6.287   5.415   4.271
 1210SOL     OW 4528   3.055   6.829   2.672
 1210SOL    HW1 4529   3.120   6.797   2.604
 1210SOL    HW2 4530   3.004   6.908   2.636
 1211SOL     OW 4531   1.333   3.542   4.348
 1211SOL    HW1 4532   1.281   3.622   4.379
 1211SOL    HW2 4533   1.273   3.481   4.297
 1212SOL     OW 4534   2.316   4.224   4.607
 1212SOL    HW1 4535   2.251   4.289   4.647
 1212SOL    HW2 4536   2.391   4.208   4.671
 1213SOL     OW 4537   6.014   3.134   5.462
 1213SOL    HW1 4538   5.937   3.082   5.500
 1213SOL    HW2 4539   6.091   3.131   5.526
 1214SOL     OW 4540   2.243   2.499   3.074
 1214SOL    HW1 4541   2.209   2.494   2.980
 1214SOL    HW2 4542   2.262   2.407   3.108
 1215SOL     OW 4543   0.860   5.086   1.560
 1215SOL    HW1 4544   0.952   5.098   1.522
 1215SOL    HW2 4545   0.856   4.998   1.607
 1216SOL     OW 4546   2.996   0.140   1.917
 1216SOL    HW1 4547   3.010   0.211   1.847
 1216SOL    HW2 4548   3.071   0.143   1.983
 1217SOL     OW 4549   1.519   1.238   2.633
 1217SOL    HW1 4550   1.491   1.221   2.539
 1217SOL    HW2 4551   1.613   1.208   2.646
 1218SOL     OW 4552   0.609   3.844   4.004
 1218SOL    HW1 4553   0.521   3.837   4.053
 1218SOL    HW2 4554   0.593   3.836   3.906
 1219SOL     OW 4555   2.675   5.975   2.886
 1219SOL    HW1 4556   2.761   5.993   2.933
 1219SOL    HW2 4557   2.636   6.062   2.854
 1220SOL     OW 4558   6.878   4.023   3.039
 1220SOL    HW1 4559   6.960   4.022   3.097
 1220SOL    HW2 4560   6.896   4.076   2.957
 1221SOL     OW 4561   5.099   3.006   0.182
 1221SOL    HW1 4562   5.052   2.918   0.170
 1221SOL    HW2 4563   5.032   3.077   0.199
 1222SOL     OW 4564   6.163   6.371   1.077
 1222SOL    HW1 4565   6.150   6.469   1.058
 1222SOL    HW2 4566   6.074   6.326   1.079
 1223SOL     OW 4567   6.026   5.898   5.176
 1223SOL    HW1 4568   5.984   5.988   5.171
 1223SOL    HW2 4569   6.058   5.871   5.085
 1224SOL     OW 4570   5.506   4.797   2.173
 1224SOL    HW1 4571   5.549   4.785   2.262
 1224SOL    HW2 4572   5.411   4.823   2.184
 1225SOL     OW 4573   5.000   1.353   0.091
 1225SOL    HW1 4574   4.991   1.343   0.190
 1225SOL    HW2 4575   4.969   1.269   0.046
 1226SOL     OW 4576   5.020   4.574   0.183
 1226SOL    HW1 4577   5.093   4.640   0.167
 1226SOL    HW2 4578   4.945   4.591   0.119
 1227SOL     OW 4579   5.165   4.556   6.735
 1227SOL    HW1 4580   5.087   4.582   6.677
 1227SOL    HW2 4581   5.148   4.465   6.774
 1228SOL     OW 4582   3.921   3.315   4.017
 1228SOL    HW1 4583   3.910   3.273   3.927
 1228SOL    HW2 4584   3.968   3.251   4.078
 1229SOL     OW 4585   1.603   5.462   3.166
 1229SOL    HW1 4586   1.553   5.380   3.138
 1229SOL    HW2 4587   1.654   5.442   3.250
 1230SOL     OW 4588   5.386   4.632   1.553
 1230SOL    HW1 4589   5.394   4.683   1.639
 1230SOL    HW2 4590   5.472   4.639   1.503
 1231SOL     OW 4591   2.031   1.990   6.816
 1231SOL    HW1 4592   2.008   2.026   6.725
 1231SOL    HW2 4593   2.057   1.894   6.809
 1232SOL     OW 4594   2.560   0.637   5.161
 1232SOL    HW1 4595   2.603   0.641   5.071
 1232SOL    HW2 4596   2.461   0.632   5.151
 1233SOL     OW 4597   0.858   5.303   5.126
 1233SOL    HW1 4598   0.949   5.262   5.131
 1233SOL    HW2 4599   0.808   5.267   5.047
 1234SOL     OW 4600   6.807   3.577   0.224
 1234SOL    HW1 4601   6.825   3.481   0.203
 1234SOL    HW2 4602   6.835   3.634   0.146
 1235SOL     OW 4603   6.129   4.598   1.174
 1235SOL    HW1 4604   6.174   4.687   1.188
 1235SOL    HW2 4605   6.084   4.597   1.085
 1236SOL     OW 4606   1.639   1.674   2.465
 1236SOL    HW1 4607   1.729   1.710   2.490
 1236SOL    HW2 4608   1.583   1.665   2.548
 1237SOL     OW 4609   0.411   6.840   5.228
 1237SOL    HW1 4610   0.442   6.935   5.223
 1237SOL    HW2 4611   0.467   6.790   5.294
 1238SOL     OW 4612   0.644   0.499   4.465
 1238SOL    HW1 4613   0.625   0.581   4.410
 1238SOL    HW2 4614   0.557   0.459   4.495
 1239SOL     OW 4615   5.515   5.013   4.666
 1239SOL    HW1 4616   5.537   5.098   4.715
 1239SOL    HW2 4617   5.421   4.986   4.687
 1240SOL     OW 4618   0.662   3.834   2.482
 1240SOL    HW1 4619   0.623   3.926   2.488
 1240SOL    HW2 4620   0.593   3.770   2.448
 1241SOL     OW 4621   4.292   4.959   5.059
 1241SOL    HW1 4622   4.212   4.942   5.117
 1241SOL    HW2 4623   4.370   4.984   5.117
 1242SOL     OW 4624   2.018   4.907   0.818
 1242SOL    HW1 4625   2.040   4.835   0.753
 1242SOL    HW2 4626   1.943   4.878   0.877
 1243SOL     OW 4627   0.908   4.082   4.966
 1243SOL    HW1 4628   0.941   3.995   4.928
 1243SOL    HW2 4629   0.927   4.156   4.902
 1244SOL     OW 4630   5.908   0.067   5.519
 1244SOL    HW1 4631   5.860   0.004   5.580
 1244SOL    HW2 4632   5.983   0.111   5.568
 1245SOL     OW 4633   4.452   6.148   1.342
 1245SOL    HW1 4634   4.442   6.217   1.271
 1245SOL    HW2 4635   4.362   6.120   1.376
 1246SOL     OW 4636   4.743   0.581   0.624
 1246SOL    HW1 4637   4.656   0.621   0.653
 1246SOL    HW2 4638   4.752   0.588   0.525
 1247SOL     OW 4639   6.610   0.233   2.924
 1247SOL    HW1 4640   6.545   0.158   2.938
 1247SOL    HW2 4641   6.693   0.215   2.976
 1248SOL     OW 4642   1.273   6.371   4.694
 1248SOL    HW1 4643   1.227   6.437   4.754
 1248SOL    HW2 4644   1.325   6.305   4.749
 1249SOL     OW 4645   5.289   5.738   6.428
 1249SOL    HW1 4646   5.330   5.671   6.490
 1249SOL    HW2 4647   5.334   5.827   6.441
 1250SOL     OW 4648   6.785   3.345   4.781
 1250SOL    HW1 4649   6.843   3.416   4.822
 1250SOL    HW2 4650   6.813   3.255   4.815
 1251SOL     OW 4651   3.072   0.678   2.670
 1251SOL    HW1 4652   3.012   0.745   2.626
 1251SOL    HW2 4653   3.138   0.643   2.603
 1252SOL     OW 4654   1.933   6.173   6.392
 1252SOL    HW1 4655   1.904   6.196   6.299
 1252SOL    HW2 4656   2.029   6.198   6.404
 1253SOL     OW 4657   2.935   7.013   0.098
 1253SOL    HW1 4658   2.835   7.016   0.096
 1253SOL    HW2 4659   2.965   6.938   0.158
 1254SOL     OW 4660   5.875   0.448   2.905
 1254SOL    HW1 4661   5.914   0.368   2.859
 1254SOL    HW2 4662   5.781   0.427   2.934
 1255SOL     OW 4663   5.361   1.679   5.642
 1255SOL    HW1 4664   5.388   1.667   5.738
 1255SOL    HW2 4665   5.416   1.751   5.600
 1256SOL     OW 4666   0.650   5.251   4.414
 1256SOL    HW1 4667   0.711   5.287   4.344
 1256SOL    HW2 4668   0.646   5.314   4.491
 1257SOL     OW 4669   1.003   6.535   3.816
 1257SOL    HW1 4670   1.008   6.540   3.716
 1257SOL    HW2 4671   1.095   6.548   3.854
 1258SOL     OW 4672   4.267   5.982   5.664
 1258SOL    HW1 4673   4.318   5.897   5.650
 1258SOL    HW2 4674   4.289   6.020   5.754
 1259SOL     OW 4675   5.513   0.377   5.360
 1259SOL    HW1 4676   5.571   0.454   5.389
 1259SOL    HW2 4677   5.569   0.295   5.349
 1260SOL     OW 4678   2.546   1.434   1.367
 1260SOL    HW1 4679   2.587   1.343   1.372
 1260SOL    HW2 4680   2.611   1.502   1.401
 1261SOL     OW 4681   6.445   4.379   5.735
 1261SOL    HW1 4682   6.399   4.291   5.724
 1261SOL    HW2 4683   6.540   4.364   5.763
 1262SOL     OW 4684   4.221   4.930   0.845
 1262SOL    HW1 4685   4.266   4.862   0.786
 1262SOL    HW2 4686   4.284   4.958   0.917
 1263SOL     OW 4687   6.734   1.929   1.216
 1263SOL    HW1 4688   6.710   1.923   1.120
 1263SOL    HW2 4689   6.795   2.008   1.230
 1264SOL     OW 4690   0.223   3.296   4.145
 1264SOL    HW1 4691   0.265   3.279   4.234
 1264SOL    HW2 4692   0.294   3.327   4.081
 1265SOL     OW 4693   6.861   5.624   4.547
 1265SOL    HW1 4694   6.898   5.636   4.454
 1265SOL    HW2 4695   6.923   5.566   4.600
 1266SOL     OW 4696   1.576   1.658   4.683
 1266SOL    HW1 4697   1.614   1.568   4.704
 1266SOL    HW2 4698   1.477   1.651   4.673
 1267SOL     OW 4699   6.564   4.923   2.132
 1267SOL    HW1 4700   6.611   4.957   2.050
 1267SOL    HW2 4701   6.471   4.960   2.135
 1268SOL     OW 4702   6.525   3.260   0.037
 1268SOL    HW1 4703   6.437   3.299   0.062
 1268SOL    HW2 4704   6.530   3.166   0.070
 1269SOL     OW 4705   6.842   5.479   5.859
 1269SOL    HW1 4706   6.788   5.555   5.894
 1269SOL    HW2 4707   6.927   5.471   5.912
 1270SOL     OW 4708   1.476   2.992   4.893
 1270SOL    HW1 4709   1.423   2.915   4.856
 1270SOL    HW2 4710   1.561   2.957   4.933
 1271SOL     OW 4711   5.123   1.856   2.969
 1271SOL    HW1 4712   5.132   1.842   3.068
 1271SOL    HW2 4713   5.111   1.768   2.924
 1272SOL     OW 4714   0.592   6.211   1.700
 1272SOL    HW1 4715   0.498   6.248   1.699
 1272SOL    HW2 4716   0.599   6.141   1.771
 1273SOL     OW 4717   2.972   6.956   6.397
 1273SOL    HW1 4718   2.964   6.872   6.343
 1273SOL    HW2 4719   2.881   6.996   6.409
 1274SOL     OW 4720   6.442   2.903   1.671
 1274SOL    HW1 4721   6.433   2.966   1.749
 1274SOL    HW2 4722   6.510   2.938   1.607
 1275SOL     OW 4723   3.651   1.559   3.794
 1275SOL    HW1 4724   3.712   1.484   3.821
 1275SOL    HW2 4725   3.700   1.621   3.733
 1276SOL     OW 4726   6.222   0.416   3.869
 1276SOL    HW1 4727   6.266   0.326   3.865
 1276SOL    HW2 4728   6.201   0.446   3.776
 1277SOL     OW 4729   0.398   1.331   5.028
 1277SOL    HW1 4730   0.355   1.271   5.096
 1277SOL    HW2 4731   0.486   1.293   5.001
 1278SOL     OW 4732   2.363   1.887   5.523
 1278SOL    HW1 4733   2.430   1.879   5.450
 1278SOL    HW2 4734   2.404   1.861   5.610
 1279SOL     OW 4735   2.379   5.415   6.467
 1279SOL    HW1 4736   2.389   5.474   6.387
 1279SOL    HW2 4737   2.465   5.367   6.484
 1280SOL     OW 4738   1.985   6.923   3.929
 1280SOL    HW1 4739   2.076   6.901   3.966
 1280SOL    HW2 4740   1.958   6.854   3.862
 1281SOL     OW 4741   1.012   6.922   3.869
 1281SOL    HW1 4742   1.030   7.009   3.913
 1281SOL    HW2 4743   1.002   6.850   3.938
 1282SOL     OW 4744   1.292   0.334   2.156
 1282SOL    HW1 4745   1.232   0.298   2.084
 1282SOL    HW2 4746   1.272   0.286   2.242
 1283SOL     OW 4747   5.382   5.569   6.191
 1283SOL    HW1 4748   5.404   5.501   6.261
 1283SOL    HW2 4749   5.346   5.651   6.235
 1284SOL     OW 4750   2.367   2.235   1.858
 1284SOL    HW1 4751   2.395   2.322   1.899
 1284SOL    HW2 4752   2.300   2.252   1.786
 1285SOL     OW 4753   4.505   2.315   5.620
 1285SOL    HW1 4754   4.533   2.369   5.700
 1285SOL    HW2 4755   4.520   2.369   5.537
 1286SOL     OW 4756   6.523   5.087   1.663
 1286SOL    HW1 4757   6.583   5.011   1.639
 1286SOL    HW2 4758   6.552   5.169   1.613
 1287SOL     OW 4759   0.053   4.961   6.114
 1287SOL    HW1 4760   0.024   4.886   6.173
 1287SOL    HW2 4761   7.005   4.978   6.044
 1288SOL     OW 4762   6.505   3.025   2.480
 1288SOL    HW1 4763   6.457   2.995   2.397
 1288SOL    HW2 4764   6.556   3.108   2.460
 1289SOL     OW 4765   6.807   6.434   3.071
 1289SOL    HW1 4766   6.799   6.470   2.979
 1289SOL    HW2 4767   6.903   6.434   3.099
 1290SOL     OW 4768   0.711   6.431   1.540
 1290SOL    HW1 4769   0.675   6.356   1.595
 1290SOL    HW2 4770   0.809   6.443   1.559
 1291SOL     OW 4771   2.460   6.427   0.401
 1291SOL    HW1 4772   2.377   6.439   0.456
 1291SOL    HW2 4773   2.495   6.517   0.375
 1292SOL     OW 4774   0.806   5.939   0.751
 1292SOL    HW1 4775   0.806   5.850   0.798
 1292SOL    HW2 4776   0.817   5.925   0.653
 1293SOL     OW 4777   0.306   2.434   5.744
 1293SOL    HW1 4778   0.365   2.507   5.712
 1293SOL    HW2 4779   0.217   2.440   5.698
 1294SOL     OW 4780   0.240   2.170   2.697
 1294SOL    HW1 4781   0.230   2.150   2.600
 1294SOL    HW2 4782   0.165   2.127   2.748
 1295SOL     OW 4783   6.130   3.040   1.563
 1295SOL    HW1 4784   6.210   3.009   1.511
 1295SOL    HW2 4785   6.101   2.968   1.626
 1296SOL     OW 4786   4.019   2.416   6.174
 1296SOL    HW1 4787   4.011   2.383   6.079
 1296SOL    HW2 4788   3.999   2.514   6.177
 1297SOL     OW 4789   6.591   1.296   6.058
 1297SOL    HW1 4790   6.556   1.321   5.967
 1297SOL    HW2 4791   6.513   1.283   6.120
 1298SOL     OW 4792   5.456   3.359   3.428
 1298SOL    HW1 4793   5.535   3.355   3.367
 1298SOL    HW2 4794   5.452   3.275   3.482
 1299SOL     OW 4795   0.988   4.034   3.769
 1299SOL    HW1 4796   0.957   4.004   3.859
 1299SOL    HW2 4797   0.924   3.999   3.700
 1300SOL     OW 4798   3.103   3.504   1.619
 1300SOL    HW1 4799   3.178   3.531   1.679
 1300SOL    HW2 4800   3.131   3.427   1.563
 1301SOL     OW 4801   0.474   0.157   2.852
 1301SOL    HW1 4802   0.438   0.096   2.781
 1301SOL    HW2 4803   0.573   0.165   2.842
 1302SOL     OW 4804   2.798   5.972   4.929
 1302SOL    HW1 4805   2.726   5.905   4.909
 1302SOL    HW2 4806   2.887   5.926   4.931
 1303SOL     OW 4807   3.919   1.624   1.254
 1303SOL    HW1 4808   3.975   1.699   1.290
 1303SOL    HW2 4809   3.927   1.622   1.155
 1304SOL     OW 4810   2.263   0.848   6.716
 1304SOL    HW1 4811   2.187   0.784   6.732
 1304SOL    HW2 4812   2.326   0.808   6.649
 1305SOL     OW 4813   4.670   6.799   4.991
 1305SOL    HW1 4814   4.718   6.835   5.072
 1305SOL    HW2 4815   4.628   6.875   4.941
 1306SOL     OW 4816   1.149   4.413   3.878
 1306SOL    HW1 4817   1.188   4.464   3.802
 1306SOL    HW2 4818   1.078   4.468   3.923
 1307SOL     OW 4819   1.426   2.004   4.639
 1307SOL    HW1 4820   1.484   2.017   4.558
 1307SOL    HW2 4821   1.483   1.987   4.719
 1308SOL     OW 4822   5.134   6.066   2.998
 1308SOL    HW1 4823   5.186   5.981   3.001
 1308SOL    HW2 4824   5.053   6.054   2.941
 1309SOL     OW 4825   5.236   3.107   4.703
 1309SOL    HW1 4826   5.304   3.043   4.738
 1309SOL    HW2 4827   5.145   3.078   4.731
 1310SOL     OW 4828   4.828   3.626   5.359
 1310SOL    HW1 4829   4.897   3.556   5.379
 1310SOL    HW2 4830   4.758   3.588   5.299
 1311SOL     OW 4831   5.338   5.867   5.165
 1311SOL    HW1 4832   5.277   5.893   5.240
 1311SOL    HW2 4833   5.394   5.789   5.194
 1312SOL     OW 4834   1.106   6.876   0.814
 1312SOL    HW1 4835   1.114   6.834   0.724
 1312SOL    HW2 4836   1.119   6.975   0.805
 1313SOL     OW 4837   3.510   5.174   5.302
 1313SOL    HW1 4838   3.517   5.106   5.230
 1313SOL    HW2 4839   3.597   5.183   5.349
 1314SOL     OW 4840   6.440   1.557   4.521
 1314SOL    HW1 4841   6.517   1.548   4.459
 1314SOL    HW2 4842   6.363   1.502   4.487
 1315SOL     OW 4843   1.965   0.942   2.799
 1315SOL    HW1 4844   1.982   0.912   2.705
 1315SOL    HW2 4845   2.018   1.024   2.819
 1316SOL     OW 4846   3.246   6.690   2.485
 1316SOL    HW1 4847   3.239   6.592   2.470
 1316SOL    HW2 4848   3.241   6.738   2.398
 1317SOL     OW 4849   0.038   5.946   3.938
 1317SOL    HW1 4850   0.025   6.042   3.959
 1317SOL    HW2 4851   7.001   5.890   3.996
 1318SOL     OW 4852   6.885   6.636   0.519
 1318SOL    HW1 4853   6.912   6.676   0.431
 1318SOL    HW2 4854   6.854   6.709   0.580
 1319SOL     OW 4855   6.221   0.819   0.234
 1319SOL    HW1 4856   6.312   0.790   0.207
 1319SOL    HW2 4857   6.219   0.918   0.245
 1320SOL     OW 4858   5.365   5.169   6.445
 1320SOL    HW1 4859   5.407   5.146   6.357
 1320SOL    HW2 4860   5.268   5.145   6.443
 1321SOL     OW 4861   3.749   2.236   6.653
 1321SOL    HW1 4862   3.807   2.223   6.572
 1321SOL    HW2 4863   3.806   2.264   6.730
 1322SOL     OW 4864   5.888   1.711   4.901
 1322SOL    HW1 4865   5.928   1.727   4.811
 1322SOL    HW2 4866   5.829   1.630   4.897
 1323SOL     OW 4867   6.615   1.850   5.026
 1323SOL    HW1 4868   6.684   1.921   5.011
 1323SOL    HW2 4869   6.658   1.760   5.020
 1324SOL     OW 4870   1.459   3.916   0.567
 1324SOL    HW1 4871   1.451   3.835   0.625
 1324SOL    HW2 4872   1.369   3.943   0.535
 1325SOL     OW 4873   3.365   5.989   2.391
 1325SOL    HW1 4874   3.464   5.994   2.396
 1325SOL    HW2 4875   3.325   6.077   2.417
 1326SOL     OW 4876   5.627   3.466   4.328
 1326SOL    HW1 4877   5.629   3.390   4.264
 1326SOL    HW2 4878   5.615   3.432   4.421
 1327SOL     OW 4879   3.345   5.214   3.288
 1327SOL    HW1 4880   3.366   5.124   3.326
 1327SOL    HW2 4881   3.275   5.204   3.216
 1328SOL     OW 4882   1.678   2.558   6.395
 1328SOL    HW1 4883   1.673   2.658   6.401
 1328SOL    HW2 4884   1.586   2.520   6.398
 1329SOL     OW 4885   0.879   0.255   0.693
 1329SOL    HW1 4886   0.795   0.199   0.693
 1329SOL    HW2 4887   0.959   0.195   0.692
 1330SOL     OW 4888   5.886   6.243   1.195
 1330SOL    HW1 4889   5.879   6.292   1.282
 1330SOL    HW2 4890   5.842   6.297   1.123
 1331SOL     OW 4891   5.976   0.378   1.785
 1331SOL    HW1 4892   6.073   0.354   1.781
 1331SOL    HW2 4893   5.932   0.355   1.699
 1332SOL     OW 4894   4.580   1.619   1.579
 1332SOL    HW1 4895   4.575   1.687   1.653
 1332SOL    HW2 4896   4.602   1.529   1.618
 1333SOL     OW 4897   3.667   4.635   5.314
 1333SOL    HW1 4898   3.758   4.601   5.288
 1333SOL    HW2 4899   3.661   4.637   5.414
 1334SOL     OW 4900   0.418   3.885   4.508
 1334SOL    HW1 4901   0.515   3.862   4.511
 1334SOL    HW2 4902   0.391   3.928   4.594
 1335SOL     OW 4903   2.885   5.249   2.981
 1335SOL    HW1 4904   2.805   5.301   2.950
 1335SOL    HW2 4905   2.857   5.156   3.004
 1336SOL     OW 4906   0.197   0.720   5.220
 1336SOL    HW1 4907   0.148   0.732   5.306
 1336SOL    HW2 4908   0.141   0.755   5.144
 1337SOL     OW 4909   2.496   1.824   5.773
 1337SOL    HW1 4910   2.435   1.877   5.831
 1337SOL    HW2 4911   2.589   1.858   5.782
 1338SOL     OW 4912   3.958   5.393   0.485
 1338SOL    HW1 4913   4.043   5.418   0.439
 1338SOL    HW2 4914   3.927   5.468   0.543
 1339SOL     OW 4915   0.162   4.368   5.247
 1339SOL    HW1 4916   0.244   4.385   5.301
 1339SOL    HW2 4917   0.087   4.425   5.283
 1340SOL     OW 4918   1.954   1.970   6.203
 1340SOL    HW1 4919   2.024   2.034   6.236
 1340SOL    HW2 4920   1.867   1.990   6.248
 1341SOL     OW 4921   4.273   1.292   3.321
 1341SOL    HW1 4922   4.210   1.222   3.289
 1341SOL    HW2 4923   4.225   1.380   3.327
 1342SOL     OW 4924   0.390   6.530   0.919
 1342SOL    HW1 4925   0.395   6.630   0.921
 1342SOL    HW2 4926   0.434   6.496   0.836
 1343SOL     OW 4927   4.084   4.824   3.350
 1343SOL    HW1 4928   4.109   4.904   3.295
 1343SOL    HW2 4929   3.994   4.838   3.392
 1344SOL     OW 4930   6.583   1.050   2.572
 1344SOL    HW1 4931   6.641   0.969   2.562
 1344SOL    HW2 4932   6.541   1.051   2.662
 1345SOL     OW 4933   0.826   0.081   3.459
 1345SOL    HW1 4934   0.793   0.108   3.549
 1345SOL    HW2 4935   0.900   0.014   3.470
 1346SOL     OW 4936   0.157   0.876   3.898
 1346SOL    HW1 4937   0.230   0.881   3.967
 1346SOL    HW2 4938   0.112   0.787   3.904
 1347SOL     OW 4939   5.658   0.561   3.103
 1347SOL    HW1 4940   5.599   0.626   3.054
 1347SOL    HW2 4941   5.622   0.469   3.091
 1348SOL     OW 4942   5.229   4.238   4.923
 1348SOL    HW1 4943   5.175   4.312   4.964
 1348SOL    HW2 4944   5.243   4.257   4.825
 1349SOL     OW 4945   4.705   2.707   6.790
 1349SOL    HW1 4946   4.720   2.632   6.726
 1349SOL    HW2 4947   4.614   2.700   6.830
 1350SOL     OW 4948   3.198   0.626   5.842
 1350SOL    HW1 4949   3.230   0.534   5.864
 1350SOL    HW2 4950   3.256   0.693   5.890
 1351SOL     OW 4951   0.641   0.802   4.913
 1351SOL    HW1 4952   0.628   0.704   4.898
 1351SOL    HW2 4953   0.646   0.850   4.825
 1352SOL     OW 4954   0.239   0.910   3.215
 1352SOL    HW1 4955   0.196   0.970   3.148
 1352SOL    HW2 4956   0.335   0.937   3.227
 1353SOL     OW 4957   1.422   4.225   3.965
 1353SOL    HW1 4958   1.490   4.195   4.032
 1353SOL    HW2 4959   1.456   4.306   3.917
 1354SOL     OW 4960   0.680   0.156   1.679
 1354SOL    HW1 4961   0.751   0.100   1.721
 1354SOL    HW2 4962   0.718   0.245   1.653
 1355SOL     OW 4963   4.874   3.132   6.738
 1355SOL    HW1 4964   4.867   3.046   6.789
 1355SOL    HW2 4965   4.916   3.202   6.796
 1356SOL     OW 4966   2.984   3.708   2.381
 1356SOL    HW1 4967   2.921   3.631   2.376
 1356SOL    HW2 4968   2.965   3.772   2.307
 1357SOL     OW 4969   2.847   3.027   5.535
 1357SOL    HW1 4970   2.756   3.003   5.499
 1357SOL    HW2 4971   2.873   2.963   5.606
 1358SOL     OW 4972   1.907   2.330   5.431
 1358SOL    HW1 4973   1.992   2.366   5.393
 1358SOL    HW2 4974   1.837   2.328   5.360
 1359SOL     OW 4975   6.740   1.142   0.575
 1359SOL    HW1 4976   6.817   1.081   0.556
 1359SOL    HW2 4977   6.703   1.177   0.489
 1360SOL     OW 4978   3.371   3.808   4.716
 1360SOL    HW1 4979   3.442   3.851   4.661
 1360SOL    HW2 4980   3.293   3.870   4.725
 1361SOL     OW 4981   0.547   6.036   0.700
 1361SOL    HW1 4982   0.483   6.025   0.776
 1361SOL    HW2 4983   0.639   6.008   0.730
 1362SOL     OW 4984   3.245   2.967   6.521
 1362SOL    HW1 4985   3.160   2.947   6.569
 1362SOL    HW2 4986   3.271   2.888   6.465
 1363SOL     OW 4987   5.634   6.215   2.291
 1363SOL    HW1 4988   5.543   6.257   2.286
 1363SOL    HW2 4989   5.666   6.192   2.199
 1364SOL     OW 4990   0.522   3.327   1.515
 1364SOL    HW1 4991   0.585   3.258   1.479
 1364SOL    HW2 4992   0.572   3.387   1.578
 1365SOL     OW 4993   0.929   3.570   5.765
 1365SOL    HW1 4994   0.971   3.479   5.759
 1365SOL    HW2 4995   0.902   3.588   5.859
 1366SOL     OW 4996   5.287   0.823   1.081
 1366SOL    HW1 4997   5.338   0.889   1.135
 1366SOL    HW2 4998   5.236   0.762   1.142
 1367SOL     OW 4999   0.718   6.552   4.193
 1367SOL    HW1 5000   0.706   6.528   4.289
 1367SOL    HW2 5001   0.796   6.501   4.156
 1368SOL     OW 5002   0.983   6.182   5.521
 1368SOL    HW1 5003   0.942   6.124   5.591
 1368SOL    HW2 5004   0.973   6.137   5.432
 1369SOL     OW 5005   3.100   6.520   3.300
 1369SOL    HW1 5006   3.135   6.440   3.348
 1369SOL    HW2 5007   3.049   6.491   3.219
 1370SOL     OW 5008   6.378   2.570   2.946
 1370SOL    HW1 5009   6.439   2.542   2.871
 1370SOL    HW2 5010   6.287   2.530   2.931
 1371SOL     OW 5011   5.802   1.800   5.627
 1371SOL    HW1 5012   5.859   1.764   5.701
 1371SOL    HW2 5013   5.787   1.728   5.559
 1372SOL     OW 5014   6.379   2.692   0.335
 1372SOL    HW1 5015   6.381   2.741   0.423
 1372SOL    HW2 5016   6.465   2.643   0.322
 1373SOL     OW 5017   5.271   2.714   2.105
 1373SOL    HW1 5018   5.281   2.752   2.013
 1373SOL    HW2 5019   5.225   2.781   2.164
 1374SOL     OW 5020   4.223   4.232   0.238
 1374SOL    HW1 5021   4.163   4.237   0.318
 1374SOL    HW2 5022   4.296   4.166   0.255
 1375SOL     OW 5023   5.384   5.791   4.185
 1375SOL    HW1 5024   5.417   5.805   4.279
 1375SOL    HW2 5025   5.455   5.819   4.121
 1376SOL     OW 5026   2.677   5.012   5.703
 1376SOL    HW1 5027   2.718   4.981   5.789
 1376SOL    HW2 5028   2.724   4.968   5.626
 1377SOL     OW 5029   1.718   1.442   2.999
 1377SOL    HW1 5030   1.635   1.386   2.986
 1377SOL    HW2 5031   1.706   1.529   2.952
 1378SOL     OW 5032   4.768   2.474   4.261
 1378SOL    HW1 5033   4.702   2.544   4.231
 1378SOL    HW2 5034   4.718   2.396   4.300
 1379SOL     OW 5035   4.828   5.538   1.074
 1379SOL    HW1 5036   4.867   5.481   1.146
 1379SOL    HW2 5037   4.837   5.634   1.099
 1380SOL     OW 5038   6.890   5.970   1.946
 1380SOL    HW1 5039   6.824   5.897   1.964
 1380SOL    HW2 5040   6.970   5.931   1.899
 1381SOL     OW 5041   5.978   2.116   5.664
 1381SOL    HW1 5042   6.042   2.054   5.709
 1381SOL    HW2 5043   5.889   2.110   5.710
 1382SOL     OW 5044   4.896   2.378   0.215
 1382SOL    HW1 5045   4.925   2.325   0.294
 1382SOL    HW2 5046   4.812   2.429   0.238
 1383SOL     OW 5047   0.452   1.218   2.092
 1383SOL    HW1 5048   0.433   1.158   2.170
 1383SOL    HW2 5049   0.526   1.281   2.116
 1384SOL     OW 5050   5.950   1.493   1.763
 1384SOL    HW1 5051   5.885   1.557   1.721
 1384SOL    HW2 5052   5.919   1.471   1.855
 1385SOL     OW 5053   0.996   5.650   1.692
 1385SOL    HW1 5054   0.909   5.669   1.646
 1385SOL    HW2 5055   1.069   5.647   1.624
 1386SOL     OW 5056   2.439   5.891   4.665
 1386SOL    HW1 5057   2.464   5.919   4.572
 1386SOL    HW2 5058   2.344   5.860   4.666
 1387SOL     OW 5059   3.185   5.466   2.180
 1387SOL    HW1 5060   3.166   5.401   2.107
 1387SOL    HW2 5061   3.270   5.513   2.162
 1388SOL     OW 5062   6.856   0.430   1.510
 1388SOL    HW1 5063   6.882   0.493   1.583
 1388SOL    HW2 5064   6.803   0.479   1.441
 1389SOL     OW 5065   6.078   1.040   2.735
 1389SOL    HW1 5066   6.025   0.964   2.697
 1389SOL    HW2 5067   6.110   1.099   2.661
 1390SOL     OW 5068   0.022   2.081   5.923
 1390SOL    HW1 5069   7.011   2.081   5.829
 1390SOL    HW2 5070   0.015   1.989   5.962
 1391SOL     OW 5071   0.871   3.084   2.635
 1391SOL    HW1 5072   0.777   3.073   2.668
 1391SOL    HW2 5073   0.923   3.001   2.656
 1392SOL     OW 5074   4.930   4.657   5.372
 1392SOL    HW1 5075   4.955   4.565   5.342
 1392SOL    HW2 5076   4.970   4.724   5.309
 1393SOL     OW 5077   3.863   6.501   5.669
 1393SOL    HW1 5078   3.940   6.462   5.618
 1393SOL    HW2 5079   3.782   6.443   5.656
 1394SOL     OW 5080   2.400   6.379   5.744
 1394SOL    HW1 5081   2.474   6.333   5.792
 1394SOL    HW2 5082   2.417   6.377   5.645
 1395SOL     OW 5083   3.430   4.659   5.764
 1395SOL    HW1 5084   3.355   4.594   5.751
 1395SOL    HW2 5085   3.397   4.752   5.746
 1396SOL     OW 5086   5.879   5.931   4.462
 1396SOL    HW1 5087   5.852   5.844   4.422
 1396SOL    HW2 5088   5.801   5.993   4.463
 1397SOL     OW 5089   4.590   5.966   4.901
 1397SOL    HW1 5090   4.567   5.932   4.810
 1397SOL    HW2 5091   4.557   6.060   4.910
 1398SOL     OW 5092   1.306   1.229   4.825
 1398SOL    HW1 5093   1.320   1.132   4.809
 1398SOL    HW2 5094   1.296   1.277   4.738
 1399SOL     OW 5095   3.329   6.299   1.662
 1399SOL    HW1 5096   3.353   6.255   1.576
 1399SOL    HW2 5097   3.244   6.258   1.697
 1400SOL     OW 5098   1.000   0.166   1.457
 1400SOL    HW1 5099   0.924   0.208   1.408
 1400SOL    HW2 5100   0.969   0.133   1.546
 1401SOL     OW 5101   6.757   1.241   4.715
 1401SOL    HW1 5102   6.840   1.289   4.744
 1401SOL    HW2 5103   6.678   1.277   4.766
 1402SOL     OW 5104   6.636   2.584   0.363
 1402SOL    HW1 5105   6.724   2.612   0.401
 1402SOL    HW2 5106   6.606   2.500   0.407
 1403SOL     OW 5107   2.098   0.267   1.874
 1403SOL    HW1 5108   2.143   0.356   1.879
 1403SOL    HW2 5109   2.060   0.254   1.783
 1404SOL     OW 5110   5.582   0.370   0.395
 1404SOL    HW1 5111   5.618   0.397   0.485
 1404SOL    HW2 5112   5.523   0.442   0.360
 1405SOL     OW 5113   2.339   3.498   0.976
 1405SOL    HW1 5114   2.429   3.538   0.990
 1405SOL    HW2 5115   2.304   3.525   0.886
 1406SOL     OW 5116   1.740   4.371   1.220
 1406SOL    HW1 5117   1.773   4.453   1.173
 1406SOL    HW2 5118   1.817   4.314   1.248
 1407SOL     OW 5119   6.563   2.118   2.569
 1407SOL    HW1 5120   6.497   2.135   2.642
 1407SOL    HW2 5121   6.654   2.107   2.609
 1408SOL     OW 5122   5.679   0.424   6.131
 1408SOL    HW1 5123   5.769   0.382   6.119
 1408SOL    HW2 5124   5.661   0.438   6.228
 1409SOL     OW 5125   0.085   0.578   4.535
 1409SOL    HW1 5126   0.020   0.654   4.530
 1409SOL    HW2 5127   0.107   0.546   4.443
 1410SOL     OW 5128   0.139   2.895   6.922
 1410SOL    HW1 5129   0.146   2.797   6.938
 1410SOL    HW2 5130   0.202   2.922   6.848
 1411SOL     OW 5131   1.866   6.481   2.396
 1411SOL    HW1 5132   1.818   6.550   2.342
 1411SOL    HW2 5133   1.903   6.524   2.479
 1412SOL     OW 5134   1.149   2.786   0.440
 1412SOL    HW1 5135   1.229   2.840   0.467
 1412SOL    HW2 5136   1.071   2.846   0.424
 1413SOL     OW 5137   2.017   0.475   4.242
 1413SOL    HW1 5138   2.021   0.567   4.204
 1413SOL    HW2 5139   2.104   0.428   4.227
 1414SOL     OW 5140   2.197   1.789   2.013
 1414SOL    HW1 5141   2.283   1.766   1.967
 1414SOL    HW2 5142   2.162   1.707   2.060
 1415SOL     OW 5143   3.870   6.206   5.832
 1415SOL    HW1 5144   3.807   6.269   5.787
 1415SOL    HW2 5145   3.921   6.155   5.763
 1416SOL     OW 5146   4.314   5.073   1.873
 1416SOL    HW1 5147   4.268   5.079   1.962
 1416SOL    HW2 5148   4.367   4.988   1.869
 1417SOL     OW 5149   2.350   1.809   6.225
 1417SOL    HW1 5150   2.383   1.894   6.266
 1417SOL    HW2 5151   2.408   1.733   6.254
 1418SOL     OW 5152   3.393   4.177   2.893
 1418SOL    HW1 5153   3.429   4.135   2.977
 1418SOL    HW2 5154   3.352   4.265   2.915
 1419SOL     OW 5155   4.084   6.574   4.900
 1419SOL    HW1 5156   3.998   6.621   4.881
 1419SOL    HW2 5157   4.145   6.581   4.821
 1420SOL     OW 5158   0.967   5.816   2.280
 1420SOL    HW1 5159   0.934   5.886   2.217
 1420SOL    HW2 5160   0.914   5.820   2.365
 1421SOL     OW 5161   3.033   1.929   2.194
 1421SOL    HW1 5162   2.978   2.005   2.227
 1421SOL    HW2 5163   3.009   1.909   2.099
 1422SOL     OW 5164   2.474   5.309   0.511
 1422SOL    HW1 5165   2.443   5.300   0.416
 1422SOL    HW2 5166   2.554   5.369   0.514
 1423SOL     OW 5167   4.950   6.823   2.586
 1423SOL    HW1 5168   4.914   6.769   2.662
 1423SOL    HW2 5169   4.875   6.844   2.523
 1424SOL     OW 5170   6.028   5.282   4.842
 1424SOL    HW1 5171   6.093   5.326   4.904
 1424SOL    HW2 5172   5.942   5.332   4.842
 1425SOL     OW 5173   2.246   6.841   4.027
 1425SOL    HW1 5174   2.265   6.743   4.031
 1425SOL    HW2 5175   2.211   6.871   4.116
 1426SOL     OW 5176   1.181   1.838   5.883
 1426SOL    HW1 5177   1.182   1.812   5.980
 1426SOL    HW2 5178   1.164   1.757   5.828
 1427SOL     OW 5179   5.839   0.430   4.057
 1427SOL    HW1 5180   5.911   0.374   4.015
 1427SOL    HW2 5181   5.870   0.462   4.146
 1428SOL     OW 5182   5.375   2.044   6.936
 1428SOL    HW1 5183   5.358   1.999   0.002
 1428SOL    HW2 5184   5.464   2.015   6.901
 1429SOL     OW 5185   0.245   0.984   0.957
 1429SOL    HW1 5186   0.282   0.896   0.986
 1429SOL    HW2 5187   0.169   0.969   0.893
 1430SOL     OW 5188   1.886   4.681   2.956
 1430SOL    HW1 5189   1.827   4.694   2.876
 1430SOL    HW2 5190   1.908   4.770   2.995
 1431SOL     OW 5191   2.755   0.565   1.470
 1431SOL    HW1 5192   2.808   0.604   1.395
 1431SOL    HW2 5193   2.807   0.573   1.555
 1432SOL     OW 5194   2.302   1.167   2.233
 1432SOL    HW1 5195   2.230   1.235   2.245
 1432SOL    HW2 5196   2.324   1.159   2.136
 1433SOL     OW 5197   3.666   0.425   4.229
 1433SOL    HW1 5198   3.698   0.516   4.253
 1433SOL    HW2 5199   3.566   0.424   4.228
 1434SOL     OW 5200   0.886   0.826   5.499
 1434SOL    HW1 5201   0.918   0.826   5.593
 1434SOL    HW2 5202   0.914   0.910   5.454
 1435SOL     OW 5203   6.277   1.949   2.591
 1435SOL    HW1 5204   6.348   1.923   2.526
 1435SOL    HW2 5205   6.312   1.937   2.684
 1436SOL     OW 5206   4.349   3.476   0.119
 1436SOL    HW1 5207   4.278   3.547   0.113
 1436SOL    HW2 5208   4.437   3.519   0.138
 1437SOL     OW 5209   3.417   0.678   2.509
 1437SOL    HW1 5210   3.355   0.756   2.520
 1437SOL    HW2 5211   3.469   0.688   2.424
 1438SOL     OW 5212   3.016   6.445   1.379
 1438SOL    HW1 5213   3.039   6.436   1.476
 1438SOL    HW2 5214   2.935   6.389   1.358
 1439SOL     OW 5215   0.397   5.987   2.592
 1439SOL    HW1 5216   0.486   6.032   2.588
 1439SOL    HW2 5217   0.376   5.963   2.687
 1440SOL     OW 5218   2.960   3.452   0.992
 1440SOL    HW1 5219   2.998   3.523   0.933
 1440SOL    HW2 5220   3.035   3.396   1.028
 1441SOL     OW 5221   5.951   6.503   1.357
 1441SOL    HW1 5222   5.897   6.433   1.404
 1441SOL    HW2 5223   5.897   6.543   1.283
 1442SOL     OW 5224   5.927   5.227   0.595
 1442SOL    HW1 5225   5.877   5.197   0.514
 1442SOL    HW2 5226   6.021   5.249   0.570
 1443SOL     OW 5227   1.652   2.569   2.823
 1443SOL    HW1 5228   1.621   2.479   2.793
 1443SOL    HW2 5229   1.650   2.632   2.745
 1444SOL     OW 5230   5.957   5.403   0.163
 1444SOL    HW1 5231   5.945   5.499   0.137
 1444SOL    HW2 5232   5.868   5.357   0.158
 1445SOL     OW 5233   1.164   3.457   2.575
 1445SOL    HW1 5234   1.158   3.381   2.510
 1445SOL    HW2 5235   1.131   3.427   2.664
 1446SOL     OW 5236   6.377   0.075   6.813
 1446SOL    HW1 5237   6.361   0.157   6.869
 1446SOL    HW2 5238   6.289   0.039   6.782
 1447SOL     OW 5239   6.166   5.007   4.800
 1447SOL    HW1 5240   6.086   4.973   4.850
 1447SOL    HW2 5241   6.150   5.102   4.773
 1448SOL     OW 5242   0.864   2.879   5.852
 1448SOL    HW1 5243   0.833   2.956   5.798
 1448SOL    HW2 5244   0.917   2.912   5.930
 1449SOL     OW 5245   1.654   4.485   4.155
 1449SOL    HW1 5246   1.555   4.495   4.151
 1449SOL    HW2 5247   1.681   4.404   4.102
 1450SOL     OW 5248   2.021   2.178   4.891
 1450SOL    HW1 5249   2.007   2.265   4.939
 1450SOL    HW2 5250   2.048   2.196   4.797
 1451SOL     OW 5251   2.263   6.932   1.834
 1451SOL    HW1 5252   2.322   7.011   1.849
 1451SOL    HW2 5253   2.185   6.937   1.896
 1452SOL     OW 5254   5.155   3.069   5.626
 1452SOL    HW1 5255   5.087   3.025   5.684
 1452SOL    HW2 5256   5.204   3.000   5.573
 1453SOL     OW 5257   1.216   4.467   4.797
 1453SOL    HW1 5258   1.233   4.526   4.876
 1453SOL    HW2 5259   1.119   4.442   4.796
 1454SOL     OW 5260   2.907   1.520   3.582
 1454SOL    HW1 5261   2.960   1.582   3.523
 1454SOL    HW2 5262   2.824   1.491   3.534
 1455SOL     OW 5263   1.316   5.554   2.412
 1455SOL    HW1 5264   1.397   5.568   2.470
 1455SOL    HW2 5265   1.296   5.638   2.363
 1456SOL     OW 5266   6.202   5.446   5.755
 1456SOL    HW1 5267   6.109   5.441   5.718
 1456SOL    HW2 5268   6.197   5.464   5.853
 1457SOL     OW 5269   0.473   3.989   6.052
 1457SOL    HW1 5270   0.532   4.046   6.109
 1457SOL    HW2 5271   0.382   3.982   6.095
 1458SOL     OW 5272   5.181   4.763   5.312
 1458SOL    HW1 5273   5.221   4.830   5.250
 1458SOL    HW2 5274   5.183   4.799   5.406
 1459SOL     OW 5275   5.069   0.061   5.305
 1459SOL    HW1 5276   5.045   0.144   5.355
 1459SOL    HW2 5277   5.121   0.000   5.365
 1460SOL     OW 5278   1.866   6.336   5.642
 1460SOL    HW1 5279   1.803   6.264   5.671
 1460SOL    HW2 5280   1.949   6.332   5.697
 1461SOL     OW 5281   0.441   2.904   3.211
 1461SOL    HW1 5282   0.351   2.902   3.168
 1461SOL    HW2 5283   0.442   2.972   3.284
 1462SOL     OW 5284   0.691   0.060   0.749
 1462SOL    HW1 5285   0.602   0.105   0.761
 1462SOL    HW2 5286   0.724   0.028   0.838
 1463SOL     OW 5287   1.811   5.607   6.467
 1463SOL    HW1 5288   1.867   5.536   6.510
 1463SOL    HW2 5289   1.749   5.647   6.534
 1464SOL     OW 5290   0.151   4.557   4.377
 1464SOL    HW1 5291   0.194   4.587   4.292
 1464SOL    HW2 5292   0.186   4.467   4.403
 1465SOL     OW 5293   1.531   1.961   3.062
 1465SOL    HW1 5294   1.562   2.056   3.056
 1465SOL    HW2 5295   1.450   1.956   3.119
 1466SOL     OW 5296   4.378   1.969   1.799
 1466SOL    HW1 5297   4.384   2.068   1.786
 1466SOL    HW2 5298   4.284   1.939   1.785
 1467SOL     OW 5299   1.402   0.708   4.227
 1467SOL    HW1 5300   1.377   0.804   4.233
 1467SOL    HW2 5301   1.488   0.699   4.177
 1468SOL     OW 5302   2.335   6.039   2.442
 1468SOL    HW1 5303   2.414   6.100   2.434
 1468SOL    HW2 5304   2.319   5.994   2.354
 1469SOL     OW 5305   6.259   5.259   3.305
 1469SOL    HW1 5306   6.287   5.328   3.238
 1469SOL    HW2 5307   6.212   5.184   3.257
 1470SOL     OW 5308   6.468   2.020   0.598
 1470SOL    HW1 5309   6.436   2.107   0.636
 1470SOL    HW2 5310   6.398   1.982   0.538
 1471SOL     OW 5311   5.300   6.968   1.487
 1471SOL    HW1 5312   5.223   7.017   1.529
 1471SOL    HW2 5313   5.306   6.991   1.390
 1472SOL     OW 5314   1.940   6.697   6.392
 1472SOL    HW1 5315   1.878   6.754   6.446
 1472SOL    HW2 5316   1.981   6.752   6.319
 1473SOL     OW 5317   2.835   5.312   4.670
 1473SOL    HW1 5318   2.919   5.363   4.687
 1473SOL    HW2 5319   2.853   5.214   4.675
 1474SOL     OW 5320   4.189   4.807   1.598
 1474SOL    HW1 5321   4.231   4.896   1.576
 1474SOL    HW2 5322   4.258   4.747   1.637
 1475SOL     OW 5323   4.823   0.025   0.422
 1475SOL    HW1 5324   4.848   0.073   0.338
 1475SOL    HW2 5325   4.849   0.081   0.501
 1476SOL     OW 5326   4.058   1.022   1.478
 1476SOL    HW1 5327   4.061   1.110   1.429
 1476SOL    HW2 5328   4.150   0.999   1.509
 1477SOL     OW 5329   4.172   5.172   1.379
 1477SOL    HW1 5330   4.073   5.177   1.391
 1477SOL    HW2 5331   4.217   5.183   1.468
 1478SOL     OW 5332   4.967   5.806   5.673
 1478SOL    HW1 5333   4.944   5.898   5.640
 1478SOL    HW2 5334   4.939   5.738   5.605
 1479SOL     OW 5335   3.567   3.713   1.536
 1479SOL    HW1 5336   3.657   3.730   1.577
 1479SOL    HW2 5337   3.532   3.625   1.568
 1480SOL     OW 5338   2.794   0.415   4.972
 1480SOL    HW1 5339   2.878   0.389   5.019
 1480SOL    HW2 5340   2.796   0.513   4.951
 1481SOL     OW 5341   5.222   2.459   5.528
 1481SOL    HW1 5342   5.193   2.555   5.530
 1481SOL    HW2 5343   5.184   2.411   5.607
 1482SOL     OW 5344   4.434   1.333   0.440
 1482SOL    HW1 5345   4.437   1.233   0.438
 1482SOL    HW2 5346   4.342   1.365   0.415
 1483SOL     OW 5347   4.817   1.323   6.031
 1483SOL    HW1 5348   4.798   1.329   5.934
 1483SOL    HW2 5349   4.808   1.413   6.073
 1484SOL     OW 5350   3.025   5.847   4.986
 1484SOL    HW1 5351   3.022   5.753   5.019
 1484SOL    HW2 5352   3.103   5.857   4.923
 1485SOL     OW 5353   5.112   2.607   2.701
 1485SOL    HW1 5354   5.061   2.533   2.657
 1485SOL    HW2 5355   5.199   2.571   2.737
 1486SOL     OW 5356   4.891   6.931   3.786
 1486SOL    HW1 5357   4.889   6.858   3.854
 1486SOL    HW2 5358   4.825   6.910   3.713
 1487SOL     OW 5359   6.708   0.177   0.530
 1487SOL    HW1 5360   6.758   0.143   0.611
 1487SOL    HW2 5361   6.756   0.255   0.492
 1488SOL     OW 5362   6.207   0.738   3.067
 1488SOL    HW1 5363   6.107   0.733   3.070
 1488SOL    HW2 5364   6.242   0.661   3.013
 1489SOL     OW 5365   4.004   4.560   6.201
 1489SOL    HW1 5366   3.922   4.550   6.257
 1489SOL    HW2 5367   4.075   4.607   6.254
 1490SOL     OW 5368   0.437   2.365   2.682
 1490SOL    HW1 5369   0.400   2.437   2.741
 1490SOL    HW2 5370   0.375   2.287   2.682
 1491SOL     OW 5371   0.091   3.278   2.517
 1491SOL    HW1 5372   0.113   3.180   2.515
 1491SOL    HW2 5373   7.016   3.289   2.540
 1492SOL     OW 5374   5.951   1.383   3.000
 1492SOL    HW1 5375   5.973   1.287   2.984
 1492SOL    HW2 5376   5.999   1.415   3.082
 1493SOL     OW 5377   4.652   2.725   5.961
 1493SOL    HW1 5378   4.574   2.689   6.012
 1493SOL    HW2 5379   4.639   2.707   5.864
 1494SOL     OW 5380   6.302   4.149   5.780
 1494SOL    HW1 5381   6.238   4.166   5.856
 1494SOL    HW2 5382   6.367   4.077   5.807
 1495SOL     OW 5383   6.316   4.335   4.394
 1495SOL    HW1 5384   6.273   4.263   4.447
 1495SOL    HW2 5385   6.361   4.296   4.314
 1496SOL     OW 5386   6.840   5.655   6.567
 1496SOL    HW1 5387   6.874   5.718   6.637
 1496SOL    HW2 5388   6.917   5.608   6.524
 1497SOL     OW 5389   5.530   3.077   2.779
 1497SOL    HW1 5390   5.462   3.004   2.786
 1497SOL    HW2 5391   5.616   3.039   2.746
 1498SOL     OW 5392   3.039   4.697   0.940
 1498SOL    HW1 5393   2.990   4.654   1.016
 1498SOL    HW2 5394   2.976   4.752   0.886
 1499SOL     OW 5395   0.509   3.895   5.770
 1499SOL    HW1 5396   0.502   3.988   5.733
 1499SOL    HW2 5397   0.494   3.896   5.868
 1500SOL     OW 5398   0.847   5.349   1.598
 1500SOL    HW1 5399   0.865   5.251   1.586
 1500SOL    HW2 5400   0.861   5.396   1.511
 1501SOL     OW 5401   5.811   1.636   6.559
 1501SOL    HW1 5402   5.736   1.574   6.535
 1501SOL    HW2 5403   5.897   1.600   6.523
 1502SOL     OW 5404   6.232   6.833   6.772
 1502SOL    HW1 5405   6.217   6.816   6.869
 1502SOL    HW2 5406   6.313   6.782   6.741
 1503SOL     OW 5407   0.439   4.413   2.029
 1503SOL    HW1 5408   0.537   4.420   2.044
 1503SOL    HW2 5409   0.390   4.450   2.109
 1504SOL     OW 5410   0.562   0.604   2.647
 1504SOL    HW1 5411   0.534   0.551   2.727
 1504SOL    HW2 5412   0.645   0.564   2.608
 1505SOL     OW 5413   4.983   6.068   4.732
 1505SOL    HW1 5414   4.896   6.077   4.683
 1505SOL    HW2 5415   5.023   5.978   4.713
 1506SOL     OW 5416   0.786   0.782   0.576
 1506SOL    HW1 5417   0.784   0.682   0.580
 1506SOL    HW2 5418   0.809   0.819   0.666
 1507SOL     OW 5419   1.784   2.565   4.541
 1507SOL    HW1 5420   1.837   2.560   4.626
 1507SOL    HW2 5421   1.844   2.543   4.464
 1508SOL     OW 5422   1.139   0.711   0.430
 1508SOL    HW1 5423   1.068   0.667   0.485
 1508SOL    HW2 5424   1.224   0.715   0.483
 1509SOL     OW 5425   5.405   0.469   3.875
 1509SOL    HW1 5426   5.493   0.444   3.836
 1509SOL    HW2 5427   5.400   0.439   3.970
 1510SOL     OW 5428   3.724   5.951   4.121
 1510SOL    HW1 5429   3.823   5.959   4.134
 1510SOL    HW2 5430   3.694   5.859   4.146
 1511SOL     OW 5431   3.895   3.341   4.481
 1511SOL    HW1 5432   3.901   3.363   4.384
 1511SOL    HW2 5433   3.809   3.376   4.518
 1512SOL     OW 5434   6.464   6.328   1.021
 1512SOL    HW1 5435   6.491   6.369   0.934
 1512SOL    HW2 5436   6.364   6.323   1.026
 1513SOL     OW 5437   3.140   0.445   6.320
 1513SOL    HW1 5438   3.068   0.384   6.286
 1513SOL    HW2 5439   3.147   0.525   6.261
 1514SOL     OW 5440   3.451   2.283   5.682
 1514SOL    HW1 5441   3.478   2.369   5.639
 1514SOL    HW2 5442   3.478   2.284   5.779
 1515SOL     OW 5443   6.158   1.733   2.013
 1515SOL    HW1 5444   6.182   1.759   2.107
 1515SOL    HW2 5445   6.063   1.761   1.994
 1516SOL     OW 5446   5.805   6.596   4.547
 1516SOL    HW1 5447   5.811   6.558   4.455
 1516SOL    HW2 5448   5.868   6.673   4.555
 1517SOL     OW 5449   3.902   6.229   3.921
 1517SOL    HW1 5450   3.939   6.320   3.905
 1517SOL    HW2 5451   3.877   6.187   3.834
 1518SOL     OW 5452   0.453   2.400   0.439
 1518SOL    HW1 5453   0.541   2.405   0.392
 1518SOL    HW2 5454   0.415   2.308   0.429
 1519SOL     OW 5455   0.041   4.306   6.855
 1519SOL    HW1 5456   7.020   4.365   6.787
 1519SOL    HW2 5457   0.104   4.243   6.808
 1520SOL     OW 5458   0.190   5.913   2.212
 1520SOL    HW1 5459   0.136   5.838   2.251
 1520SOL    HW2 5460   0.204   5.983   2.281
 1521SOL     OW 5461   2.014   4.973   6.489
 1521SOL    HW1 5462   2.035   4.935   6.579
 1521SOL    HW2 5463   2.084   5.041   6.465
 1522SOL     OW 5464   5.019   5.308   4.704
 1522SOL    HW1 5465   4.971   5.374   4.646
 1522SOL    HW2 5466   5.020   5.342   4.799
 1523SOL     OW 5467   3.828   6.140   6.713
 1523SOL    HW1 5468   3.869   6.197   6.783
 1523SOL    HW2 5469   3.823   6.191   6.627
 1524SOL     OW 5470   2.337   1.927   2.258
 1524SOL    HW1 5471   2.326   2.006   2.197
 1524SOL    HW2 5472   2.429   1.888   2.247
 1525SOL     OW 5473   5.871   2.754   0.101
 1525SOL    HW1 5474   5.830   2.675   0.057
 1525SOL    HW2 5475   5.968   2.736   0.120
 1526SOL     OW 5476   1.069   0.965   0.462
 1526SOL    HW1 5477   0.990   1.006   0.415
 1526SOL    HW2 5478   1.096   0.882   0.413
 1527SOL     OW 5479   3.432   1.231   3.916
 1527SOL    HW1 5480   3.506   1.190   3.862
 1527SOL    HW2 5481   3.442   1.204   4.011
 1528SOL     OW 5482   4.810   3.686   1.163
 1528SOL    HW1 5483   4.855   3.597   1.169
 1528SOL    HW2 5484   4.851   3.748   1.230
 1529SOL     OW 5485   4.728   1.440   5.774
 1529SOL    HW1 5486   4.796   1.513   5.764
 1529SOL    HW2 5487   4.644   1.477   5.813
 1530SOL     OW 5488   3.891   6.292   1.388
 1530SOL    HW1 5489   3.817   6.233   1.419
 1530SOL    HW2 5490   3.904   6.366   1.454
 1531SOL     OW 5491   3.248   6.620   4.656
 1531SOL    HW1 5492   3.284   6.661   4.572
 1531SOL    HW2 5493   3.260   6.683   4.733
 1532SOL     OW 5494   2.485   5.360   6.008
 1532SOL    HW1 5495   2.473   5.280   5.950
 1532SOL    HW2 5496   2.517   5.437   5.953
 1533SOL     OW 5497   5.664   5.159   1.385
 1533SOL    HW1 5498   5.730   5.084   1.389
 1533SOL    HW2 5499   5.579   5.128   1.341
 1534SOL     OW 5500   3.853   5.587   6.540
 1534SOL    HW1 5501   3.892   5.679   6.543
 1534SOL    HW2 5502   3.827   5.559   6.633
 1535SOL     OW 5503   5.972   6.822   4.581
 1535SOL    HW1 5504   6.033   6.782   4.512
 1535SOL    HW2 5505   6.018   6.899   4.626
 1536SOL     OW 5506   4.208   4.060   6.816
 1536SOL    HW1 5507   4.286   4.121   6.803
 1536SOL    HW2 5508   4.158   4.051   6.730
 1537SOL     OW 5509   3.287   5.198   4.208
 1537SOL    HW1 5510   3.302   5.248   4.123
 1537SOL    HW2 5511   3.292   5.099   4.191
 1538SOL     OW 5512   3.171   1.340   6.994
 1538SOL    HW1 5513   3.270   1.338   7.006
 1538SOL    HW2 5514   3.140   1.435   6.992
 1539SOL     OW 5515   5.823   3.040   0.999
 1539SOL    HW1 5516   5.813   3.087   0.911
 1539SOL    HW2 5517   5.735   3.002   1.025
 1540SOL     OW 5518   3.025   0.312   5.051
 1540SOL    HW1 5519   3.123   0.331   5.049
 1540SOL    HW2 5520   3.010   0.214   5.037
 1541SOL     OW 5521   3.843   2.995   4.639
 1541SOL    HW1 5522   3.887   3.023   4.553
 1541SOL    HW2 5523   3.884   3.046   4.715
 1542SOL     OW 5524   6.861   0.450   2.536
 1542SOL    HW1 5525   6.935   0.391   2.568
 1542SOL    HW2 5526   6.841   0.430   2.440
 1543SOL     OW 5527   2.557   5.033   6.463
 1543SOL    HW1 5528   2.640   5.072   6.504
 1543SOL    HW2 5529   2.497   4.999   6.535
 1544SOL     OW 5530   3.946   3.123   3.781
 1544SOL    HW1 5531   3.866   3.082   3.738
 1544SOL    HW2 5532   3.971   3.071   3.862
 1545SOL     OW 5533   6.517   6.624   2.784
 1545SOL    HW1 5534   6.601   6.575   2.758
 1545SOL    HW2 5535   6.500   6.611   2.881
 1546SOL     OW 5536   4.765   6.612   5.693
 1546SOL    HW1 5537   4.695   6.683   5.692
 1546SOL    HW2 5538   4.852   6.650   5.662
 1547SOL     OW 5539   1.586   3.474   6.374
 1547SOL    HW1 5540   1.605   3.477   6.472
 1547SOL    HW2 5541   1.668   3.447   6.324
 1548SOL     OW 5542   5.829   1.950   6.869
 1548SOL    HW1 5543   5.910   1.910   6.826
 1548SOL    HW2 5544   5.858   2.013   6.941
 1549SOL     OW 5545   4.558   1.193   4.781
 1549SOL    HW1 5546   4.492   1.174   4.709
 1549SOL    HW2 5547   4.513   1.243   4.855
 1550SOL     OW 5548   3.635   2.886   3.093
 1550SOL    HW1 5549   3.598   2.879   3.001
 1550SOL    HW2 5550   3.734   2.873   3.090
 1551SOL     OW 5551   0.232   5.297   6.369
 1551SOL    HW1 5552   0.234   5.207   6.325
 1551SOL    HW2 5553   0.138   5.320   6.393
 1552SOL     OW 5554   2.545   4.117   1.729
 1552SOL    HW1 5555   2.632   4.071   1.716
 1552SOL    HW2 5556   2.559   4.216   1.733
 1553SOL     OW 5557   6.778   1.366   5.641
 1553SOL    HW1 5558   6.781   1.408   5.731
 1553SOL    HW2 5559   6.773   1.436   5.570
 1554SOL     OW 5560   2.797   1.794   3.837
 1554SOL    HW1 5561   2.835   1.882   3.869
 1554SOL    HW2 5562   2.853   1.719   3.873
 1555SOL     OW 5563   6.984   3.098   6.268
 1555SOL    HW1 5564   6.922   3.155   6.323
 1555SOL    HW2 5565   0.026   3.157   6.218
 1556SOL     OW 5566   2.129   1.206   6.092
 1556SOL    HW1 5567   2.087   1.297   6.096
 1556SOL    HW2 5568   2.191   1.202   6.013
 1557SOL     OW 5569   0.693   3.419   6.816
 1557SOL    HW1 5570   0.633   3.484   6.768
 1557SOL    HW2 5571   0.784   3.459   6.826
 1558SOL     OW 5572   6.562   0.595   5.319
 1558SOL    HW1 5573   6.559   0.502   5.283
 1558SOL    HW2 5574   6.650   0.610   5.364
 1559SOL     OW 5575   0.550   2.300   5.668
 1559SOL    HW1 5576   0.464   2.342   5.698
 1559SOL    HW2 5577   0.535   2.249   5.584
 1560SOL     OW 5578   0.085   0.372   6.545
 1560SOL    HW1 5579   0.047   0.432   6.616
 1560SOL    HW2 5580   0.098   0.424   6.461
 1561SOL     OW 5581   5.700   5.882   2.516
 1561SOL    HW1 5582   5.759   5.960   2.493
 1561SOL    HW2 5583   5.617   5.914   2.561
 1562SOL     OW 5584   5.507   0.315   3.093
 1562SOL    HW1 5585   5.484   0.241   3.156
 1562SOL    HW2 5586   5.502   0.281   2.999
 1563SOL     OW 5587   3.640   1.518   5.873
 1563SOL    HW1 5588   3.575   1.593   5.883
 1563SOL    HW2 5589   3.640   1.463   5.956
 1564SOL     OW 5590   2.127   2.265   2.200
 1564SOL    HW1 5591   2.039   2.238   2.241
 1564SOL    HW2 5592   2.162   2.190   2.144
 1565SOL     OW 5593   5.197   3.678   1.813
 1565SOL    HW1 5594   5.156   3.653   1.901
 1565SOL    HW2 5595   5.131   3.662   1.740
 1566SOL     OW 5596   5.468   4.345   3.614
 1566SOL    HW1 5597   5.479   4.261   3.668
 1566SOL    HW2 5598   5.379   4.386   3.635
 1567SOL     OW 5599   6.961   5.445   5.590
 1567SOL    HW1 5600   0.027   5.472   5.628
 1567SOL    HW2 5601   6.893   5.438   5.663
 1568SOL     OW 5602   0.331   0.429   0.981
 1568SOL    HW1 5603   0.396   0.354   0.992
 1568SOL    HW2 5604   0.364   0.492   0.910
 1569SOL     OW 5605   4.023   6.088   5.626
 1569SOL    HW1 5606   4.099   6.032   5.658
 1569SOL    HW2 5607   4.058   6.164   5.571
 1570SOL     OW 5608   3.109   1.827   1.443
 1570SOL    HW1 5609   3.044   1.825   1.367
 1570SOL    HW2 5610   3.158   1.914   1.444
 1571SOL     OW 5611   6.640   3.627   1.571
 1571SOL    HW1 5612   6.578   3.589   1.502
 1571SOL    HW2 5613   6.589   3.653   1.652
 1572SOL     OW 5614   1.418   6.797   2.286
 1572SOL    HW1 5615   1.471   6.809   2.202
 1572SOL    HW2 5616   1.321   6.813   2.267
 1573SOL     OW 5617   3.996   0.382   1.962
 1573SOL    HW1 5618   3.968   0.399   1.868
 1573SOL    HW2 5619   4.019   0.469   2.006
 1574SOL     OW 5620   6.826   2.369   1.923
 1574SOL    HW1 5621   6.847   2.380   1.826
 1574SOL    HW2 5622   6.732   2.336   1.933
 1575SOL     OW 5623   1.961   2.253   0.751
 1575SOL    HW1 5624   2.010   2.295   0.828
 1575SOL    HW2 5625   1.981   2.304   0.667
 1576SOL     OW 5626   5.844   6.101   3.912
 1576SOL    HW1 5627   5.833   6.155   3.829
 1576SOL    HW2 5628   5.932   6.054   3.910
 1577SOL     OW 5629   2.784   0.331   5.744
 1577SOL    HW1 5630   2.770   0.235   5.721
 1577SOL    HW2 5631   2.821   0.379   5.664
 1578SOL     OW 5632   6.036   4.531   5.615
 1578SOL    HW1 5633   6.038   4.631   5.613
 1578SOL    HW2 5634   6.084   4.495   5.535
 1579SOL     OW 5635   0.719   0.795   3.534
 1579SOL    HW1 5636   0.689   0.755   3.621
 1579SOL    HW2 5637   0.811   0.762   3.512
 1580SOL     OW 5638   3.088   4.233   5.214
 1580SOL    HW1 5639   3.173   4.263   5.172
 1580SOL    HW2 5640   3.030   4.312   5.232
 1581SOL     OW 5641   6.737   4.482   4.326
 1581SOL    HW1 5642   6.741   4.386   4.299
 1581SOL    HW2 5643   6.671   4.494   4.399
 1582SOL     OW 5644   0.028   5.449   4.657
 1582SOL    HW1 5645   6.970   5.393   4.680
 1582SOL    HW2 5646   0.071   5.412   4.575
 1583SOL     OW 5647   1.639   2.943   2.988
 1583SOL    HW1 5648   1.670   3.002   2.914
 1583SOL    HW2 5649   1.718   2.896   3.028
 1584SOL     OW 5650   2.255   0.178   5.897
 1584SOL    HW1 5651   2.213   0.247   5.956
 1584SOL    HW2 5652   2.279   0.098   5.952
 1585SOL     OW 5653   5.090   1.600   4.439
 1585SOL    HW1 5654   5.006   1.631   4.485
 1585SOL    HW2 5655   5.093   1.500   4.440
 1586SOL     OW 5656   3.778   4.080   2.543
 1586SOL    HW1 5657   3.756   4.172   2.511
 1586SOL    HW2 5658   3.758   4.073   2.640
 1587SOL     OW 5659   3.511   6.724   6.522
 1587SOL    HW1 5660   3.512   6.631   6.558
 1587SOL    HW2 5661   3.576   6.780   6.575
 1588SOL     OW 5662   5.842   3.032   1.791
 1588SOL    HW1 5663   5.779   2.965   1.830
 1588SOL    HW2 5664   5.875   3.000   1.702
 1589SOL     OW 5665   6.239   3.979   4.099
 1589SOL    HW1 5666   6.171   4.053   4.098
 1589SOL    HW2 5667   6.256   3.948   4.006
 1590SOL     OW 5668   1.301   0.751   6.141
 1590SOL    HW1 5669   1.244   0.688   6.194
 1590SOL    HW2 5670   1.295   0.727   6.044
 1591SOL     OW 5671   1.153   4.722   1.811
 1591SOL    HW1 5672   1.130   4.819   1.816
 1591SOL    HW2 5673   1.198   4.702   1.724
 1592SOL     OW 5674   3.312   3.338   2.681
 1592SOL    HW1 5675   3.369   3.256   2.682
 1592SOL    HW2 5676   3.218   3.313   2.703
 1593SOL     OW 5677   1.119   5.184   4.896
 1593SOL    HW1 5678   1.104   5.280   4.920
 1593SOL    HW2 5679   1.041   5.151   4.843
 1594SOL     OW 5680   6.843   5.242   2.664
 1594SOL    HW1 5681   6.878   5.221   2.573
 1594SOL    HW2 5682   6.919   5.264   2.725
 1595SOL     OW 5683   6.434   4.876   6.106
 1595SOL    HW1 5684   6.466   4.855   6.198
 1595SOL    HW2 5685   6.467   4.967   6.079
 1596SOL     OW 5686   2.757   5.308   5.717
 1596SOL    HW1 5687   2.809   5.300   5.632
 1596SOL    HW2 5688   2.716   5.219   5.739
 1597SOL     OW 5689   2.768   6.380   1.579
 1597SOL    HW1 5690   2.700   6.439   1.623
 1597SOL    HW2 5691   2.756   6.383   1.480
 1598SOL     OW 5692   0.186   5.183   1.197
 1598SOL    HW1 5693   0.155   5.242   1.271
 1598SOL    HW2 5694   0.273   5.218   1.161
 1599SOL     OW 5695   3.670   5.147   6.973
 1599SOL    HW1 5696   3.763   5.182   6.968
 1599SOL    HW2 5697   3.650   5.118   0.044
 1600SOL     OW 5698   4.175   1.347   4.296
 1600SOL    HW1 5699   4.197   1.322   4.391
 1600SOL    HW2 5700   4.189   1.445   4.283
 1601SOL     OW 5701   1.126   5.246   3.759
 1601SOL    HW1 5702   1.152   5.207   3.671
 1601SOL    HW2 5703   1.120   5.345   3.751
 1602SOL     OW 5704   1.364   4.881   3.499
 1602SOL    HW1 5705   1.420   4.910   3.577
 1602SOL    HW2 5706   1.361   4.781   3.495
 1603SOL     OW 5707   6.876   6.711   1.902
 1603SOL    HW1 5708   6.785   6.748   1.924
 1603SOL    HW2 5709   6.869   6.652   1.821
 1604SOL     OW 5710   0.674   5.691   6.307
 1604SOL    HW1 5711   0.694   5.787   6.326
 1604SOL    HW2 5712   0.724   5.661   6.226
 1605SOL     OW 5713   5.814   6.516   3.151
 1605SOL    HW1 5714   5.846   6.422   3.143
 1605SOL    HW2 5715   5.804   6.556   3.060
 1606SOL     OW 5716   5.130   6.815   6.382
 1606SOL    HW1 5717   5.066   6.876   6.430
 1606SOL    HW2 5718   5.183   6.763   6.449
 1607SOL     OW 5719   4.185   2.184   1.069
 1607SOL    HW1 5720   4.233   2.253   1.015
 1607SOL    HW2 5721   4.232   2.170   1.156
 1608SOL     OW 5722   2.377   0.277   0.465
 1608SOL    HW1 5723   2.314   0.213   0.421
 1608SOL    HW2 5724   2.342   0.370   0.453
 1609SOL     OW 5725   4.629   2.089   5.492
 1609SOL    HW1 5726   4.558   2.028   5.458
 1609SOL    HW2 5727   4.589   2.153   5.558
 1610SOL     OW 5728   6.290   5.189   4.514
 1610SOL    HW1 5729   6.372   5.143   4.548
 1610SOL    HW2 5730   6.258   5.255   4.581
 1611SOL     OW 5731   2.867   3.674   1.577
 1611SOL    HW1 5732   2.944   3.611   1.583
 1611SOL    HW2 5733   2.836   3.681   1.483
 1612SOL     OW 5734   2.637   0.706   4.898
 1612SOL    HW1 5735   2.635   0.804   4.878
 1612SOL    HW2 5736   2.622   0.654   4.813
 1613SOL     OW 5737   2.284   6.137   0.477
 1613SOL    HW1 5738   2.340   6.079   0.536
 1613SOL    HW2 5739   2.259   6.220   0.527
 1614SOL     OW 5740   5.946   2.148   7.014
 1614SOL    HW1 5741   6.044   2.146   6.992
 1614SOL    HW2 5742   5.934   2.154   0.091
 1615SOL     OW 5743   6.438   4.980   6.696
 1615SOL    HW1 5744   6.366   5.014   6.756
 1615SOL    HW2 5745   6.464   5.051   6.630
 1616SOL     OW 5746   3.394   2.042   6.137
 1616SOL    HW1 5747   3.336   1.993   6.072
 1616SOL    HW2 5748   3.480   1.992   6.149
 1617SOL     OW 5749   4.660   0.294   3.629
 1617SOL    HW1 5750   4.746   0.273   3.583
 1617SOL    HW2 5751   4.658   0.390   3.655
 1618SOL     OW 5752   5.418   2.427   1.353
 1618SOL    HW1 5753   5.445   2.331   1.361
 1618SOL    HW2 5754   5.318   2.434   1.362
 1619SOL     OW 5755   1.386   3.276   4.508
 1619SOL    HW1 5756   1.390   3.363   4.459
 1619SOL    HW2 5757   1.462   3.217   4.478
 1620SOL     OW 5758   3.001   5.242   1.519
 1620SOL    HW1 5759   3.060   5.217   1.442
 1620SOL    HW2 5760   2.906   5.227   1.493
 1621SOL     OW 5761   1.504   0.913   1.538
 1621SOL    HW1 5762   1.565   0.839   1.564
 1621SOL    HW2 5763   1.558   0.992   1.509
 1622SOL     OW 5764   2.166   1.865   4.618
 1622SOL    HW1 5765   2.081   1.838   4.663
 1622SOL    HW2 5766   2.191   1.957   4.647
 1623SOL     OW 5767   2.933   2.281   5.271
 1623SOL    HW1 5768   2.876   2.241   5.200
 1623SOL    HW2 5769   3.015   2.320   5.230
 1624SOL     OW 5770   2.048   1.404   0.278
 1624SOL    HW1 5771   1.965   1.383   0.227
 1624SOL    HW2 5772   2.087   1.321   0.316
 1625SOL     OW 5773   0.631   5.140   2.189
 1625SOL    HW1 5774   0.567   5.216   2.201
 1625SOL    HW2 5775   0.721   5.176   2.166
 1626SOL     OW 5776   1.922   2.450   6.473
 1626SOL    HW1 5777   1.826   2.476   6.458
 1626SOL    HW2 5778   1.972   2.458   6.387
 1627SOL     OW 5779   5.707   3.204   3.671
 1627SOL    HW1 5780   5.741   3.112   3.654
 1627SOL    HW2 5781   5.740   3.237   3.759
 1628SOL     OW 5782   3.267   3.928   0.118
 1628SOL    HW1 5783   3.217   3.844   0.139
 1628SOL    HW2 5784   3.313   3.918   0.030
 1629SOL     OW 5785   4.247   2.364   3.441
 1629SOL    HW1 5786   4.165   2.406   3.481
 1629SOL    HW2 5787   4.234   2.265   3.436
 1630SOL     OW 5788   0.397   5.123   4.949
 1630SOL    HW1 5789   0.331   5.196   4.931
 1630SOL    HW2 5790   0.446   5.102   4.865
 1631SOL     OW 5791   0.396   6.830   5.561
 1631SOL    HW1 5792   0.339   6.912   5.558
 1631SOL    HW2 5793   0.338   6.749   5.549
 1632SOL     OW 5794   6.140   0.854   1.333
 1632SOL    HW1 5795   6.181   0.813   1.251
 1632SOL    HW2 5796   6.184   0.815   1.415
 1633SOL     OW 5797   5.752   2.551   3.719
 1633SOL    HW1 5798   5.778   2.648   3.723
 1633SOL    HW2 5799   5.738   2.516   3.812
 1634SOL     OW 5800   3.309   1.169   6.623
 1634SOL    HW1 5801   3.399   1.207   6.645
 1634SOL    HW2 5802   3.238   1.237   6.642
 1635SOL     OW 5803   0.401   5.551   4.255
 1635SOL    HW1 5804   0.419   5.542   4.157
 1635SOL    HW2 5805   0.395   5.460   4.297
 1636SOL     OW 5806   2.165   6.039   1.247
 1636SOL    HW1 5807   2.122   5.965   1.300
 1636SOL    HW2 5808   2.094   6.094   1.204
 1637SOL     OW 5809   0.018   3.622   1.533
 1637SOL    HW1 5810   6.985   3.678   1.595
 1637SOL    HW2 5811   0.111   3.660   1.528
 1638SOL     OW 5812   0.882   3.037   4.734
 1638SOL    HW1 5813   0.803   2.977   4.750
 1638SOL    HW2 5814   0.960   3.005   4.786
 1639SOL     OW 5815   5.262   4.847   2.274
 1639SOL    HW1 5816   5.181   4.896   2.241
 1639SOL    HW2 5817   5.259   4.840   2.374
 1640SOL     OW 5818   6.159   0.273   1.317
 1640SOL    HW1 5819   6.241   0.240   1.270
 1640SOL    HW2 5820   6.161   0.373   1.319
 1641SOL     OW 5821   6.039   2.368   5.578
 1641SOL    HW1 5822   6.009   2.288   5.629
 1641SOL    HW2 5823   5.965   2.436   5.577
 1642SOL     OW 5824   0.084   2.458   1.911
 1642SOL    HW1 5825   7.011   2.434   1.889
 1642SOL    HW2 5826   0.133   2.480   1.827
 1643SOL     OW 5827   4.241   0.650   5.470
 1643SOL    HW1 5828   4.220   0.626   5.565
 1643SOL    HW2 5829   4.333   0.618   5.447
 1644SOL     OW 5830   3.197   0.511   1.308
 1644SOL    HW1 5831   3.272   0.570   1.280
 1644SOL    HW2 5832   3.157   0.468   1.227
 1645SOL     OW 5833   2.445   0.177   6.458
 1645SOL    HW1 5834   2.468   0.162   6.554
 1645SOL    HW2 5835   2.346   0.178   6.447
 1646SOL     OW 5836   0.904   3.825   1.227
 1646SOL    HW1 5837   0.872   3.847   1.135
 1646SOL    HW2 5838   0.851   3.749   1.264
 1647SOL     OW 5839   5.608   3.459   3.665
 1647SOL    HW1 5840   5.640   3.367   3.689
 1647SOL    HW2 5841   5.536   3.453   3.597
 1648SOL     OW 5842   4.287   0.149   2.228
 1648SOL    HW1 5843   4.226   0.072   2.250
 1648SOL    HW2 5844   4.368   0.114   2.180
 1649SOL     OW 5845   3.140   0.781   3.346
 1649SOL    HW1 5846   3.077   0.849   3.307
 1649SOL    HW2 5847   3.087   0.704   3.381
 1650SOL     OW 5848   2.930   6.635   3.684
 1650SOL    HW1 5849   2.924   6.539   3.712
 1650SOL    HW2 5850   2.867   6.689   3.739
 1651SOL     OW 5851   1.457   6.986   0.589
 1651SOL    HW1 5852   1.434   6.979   0.492
 1651SOL    HW2 5853   1.380   0.006   0.639
 1652SOL     OW 5854   2.720   2.395   1.740
 1652SOL    HW1 5855   2.770   2.322   1.692
 1652SOL    HW2 5856   2.773   2.425   1.819
 1653SOL     OW 5857   1.029   5.928   1.473
 1653SOL    HW1 5858   0.953   5.992   1.460
 1653SOL    HW2 5859   1.027   5.860   1.401
 1654SOL     OW 5860   0.354   3.201   2.901
 1654SOL    HW1 5861   0.267   3.158   2.922
 1654SOL    HW2 5862   0.408   3.209   2.985
 1655SOL     OW 5863   4.923   4.863   6.290
 1655SOL    HW1 5864   4.938   4.832   6.384
 1655SOL    HW2 5865   4.956   4.794   6.226
 1656SOL     OW 5866   0.717   5.114   3.313
 1656SOL    HW1 5867   0.642   5.180   3.323
 1656SOL    HW2 5868   0.715   5.050   3.389
 1657SOL     OW 5869   1.285   0.727   4.937
 1657SOL    HW1 5870   1.370   0.692   4.978
 1657SOL    HW2 5871   1.209   0.670   4.966
 1658SOL     OW 5872   6.104   6.088   2.772
 1658SOL    HW1 5873   6.148   6.022   2.832
 1658SOL    HW2 5874   6.025   6.046   2.728
 1659SOL     OW 5875   4.039   2.312   5.629
 1659SOL    HW1 5876   3.983   2.298   5.548
 1659SOL    HW2 5877   3.983   2.300   5.711
 1660SOL     OW 5878   1.767   5.839   3.541
 1660SOL    HW1 5879   1.780   5.878   3.632
 1660SOL    HW2 5880   1.780   5.740   3.545
 1661SOL     OW 5881   2.810   0.426   2.368
 1661SOL    HW1 5882   2.822   0.342   2.314
 1661SOL    HW2 5883   2.842   0.504   2.314
 1662SOL     OW 5884   0.583   0.585   3.065
 1662SOL    HW1 5885   0.486   0.604   3.079
 1662SOL    HW2 5886   0.636   0.629   3.137
 1663SOL     OW 5887   2.889   0.038   3.480
 1663SOL    HW1 5888   2.913   6.962   3.478
 1663SOL    HW2 5889   2.800   0.051   3.438
 1664SOL     OW 5890   2.193   5.615   4.232
 1664SOL    HW1 5891   2.171   5.690   4.293
 1664SOL    HW2 5892   2.277   5.570   4.263
 1665SOL     OW 5893   0.062   0.357   3.954
 1665SOL    HW1 5894   6.987   0.357   3.979
 1665SOL    HW2 5895   0.110   0.285   4.003
 1666SOL     OW 5896   5.876   2.293   6.104
 1666SOL    HW1 5897   5.918   2.349   6.175
 1666SOL    HW2 5898   5.880   2.342   6.016
 1667SOL     OW 5899   6.421   0.623   6.222
 1667SOL    HW1 5900   6.381   0.710   6.192
 1667SOL    HW2 5901   6.516   0.617   6.191
 1668SOL     OW 5902   3.438   1.314   5.424
 1668SOL    HW1 5903   3.494   1.310   5.507
 1668SOL    HW2 5904   3.430   1.223   5.385
 1669SOL     OW 5905   5.491   6.529   6.475
 1669SOL    HW1 5906   5.433   6.596   6.522
 1669SOL    HW2 5907   5.577   6.573   6.448
 1670SOL     OW 5908   5.648   4.290   5.943
 1670SOL    HW1 5909   5.579   4.362   5.952
 1670SOL    HW2 5910   5.693   4.275   6.031
 1671SOL     OW 5911   5.628   3.479   0.525
 1671SOL    HW1 5912   5.656   3.437   0.439
 1671SOL    HW2 5913   5.623   3.409   0.596
 1672SOL     OW 5914   1.506   5.137   2.642
 1672SOL    HW1 5915   1.596   5.178   2.627
 1672SOL    HW2 5916   1.444   5.206   2.681
 1673SOL     OW 5917   0.105   2.449   3.960
 1673SOL    HW1 5918   0.174   2.385   3.995
 1673SOL    HW2 5919   0.111   2.535   4.011
 1674SOL     OW 5920   0.359   4.103   6.493
 1674SOL    HW1 5921   0.421   4.026   6.481
 1674SOL    HW2 5922   0.359   4.159   6.410
 1675SOL     OW 5923   4.814   1.712   6.797
 1675SOL    HW1 5924   4.819   1.796   6.850
 1675SOL    HW2 5925   4.785   1.733   6.704
 1676SOL     OW 5926   1.535   0.148   2.928
 1676SOL    HW1 5927   1.485   0.065   2.955
 1676SOL    HW2 5928   1.509   0.173   2.835
 1677SOL     OW 5929   5.736   1.751   5.257
 1677SOL    HW1 5930   5.691   1.756   5.168
 1677SOL    HW2 5931   5.690   1.683   5.314
 1678SOL     OW 5932   5.323   0.225   1.126
 1678SOL    HW1 5933   5.358   0.145   1.175
 1678SOL    HW2 5934   5.236   0.201   1.082
 1679SOL     OW 5935   0.508   3.571   6.692
 1679SOL    HW1 5936   0.515   3.589   6.593
 1679SOL    HW2 5937   0.456   3.488   6.707
 1680SOL     OW 5938   1.031   1.672   4.349
 1680SOL    HW1 5939   1.100   1.620   4.298
 1680SOL    HW2 5940   1.062   1.766   4.360
 1681SOL     OW 5941   6.638   5.341   0.974
 1681SOL    HW1 5942   6.605   5.430   0.941
 1681SOL    HW2 5943   6.564   5.274   0.967
 1682SOL     OW 5944   6.236   3.712   5.324
 1682SOL    HW1 5945   6.218   3.617   5.349
 1682SOL    HW2 5946   6.267   3.763   5.405
 1683SOL     OW 5947   5.562   5.977   0.865
 1683SOL    HW1 5948   5.577   5.906   0.796
 1683SOL    HW2 5949   5.649   6.022   0.885
 1684SOL     OW 5950   0.995   5.944   4.919
 1684SOL    HW1 5951   1.078   5.934   4.974
 1684SOL    HW2 5952   1.019   5.965   4.825
 1685SOL     OW 5953   1.586   1.464   0.287
 1685SOL    HW1 5954   1.538   1.413   0.358
 1685SOL    HW2 5955   1.561   1.561   0.292
 1686SOL     OW 5956   1.684   6.865   0.241
 1686SOL    HW1 5957   1.731   6.937   0.191
 1686SOL    HW2 5958   1.746   6.787   0.254
 1687SOL     OW 5959   1.478   6.546   2.034
 1687SOL    HW1 5960   1.453   6.527   1.939
 1687SOL    HW2 5961   1.548   6.482   2.064
 1688SOL     OW 5962   0.890   2.341   3.348
 1688SOL    HW1 5963   0.917   2.346   3.444
 1688SOL    HW2 5964   0.792   2.361   3.340
 1689SOL     OW 5965   1.983   1.327   3.026
 1689SOL    HW1 5966   2.056   1.352   3.090
 1689SOL    HW2 5967   1.928   1.408   3.006
 1690SOL     OW 5968   0.986   1.193   0.817
 1690SOL    HW1 5969   1.005   1.202   0.915
 1690SOL    HW2 5970   0.988   1.284   0.774
 1691SOL     OW 5971   5.399   4.236   2.533
 1691SOL    HW1 5972   5.441   4.269   2.617
 1691SOL    HW2 5973   5.407   4.136   2.529
 1692SOL     OW 5974   1.473   0.418   3.012
 1692SOL    HW1 5975   1.498   0.323   3.030
 1692SOL    HW2 5976   1.381   0.421   2.972
 1693SOL     OW 5977   2.793   2.256   3.640
 1693SOL    HW1 5978   2.812   2.168   3.597
 1693SOL    HW2 5979   2.873   2.286   3.692
 1694SOL     OW 5980   5.105   5.932   4.966
 1694SOL    HW1 5981   5.184   5.946   5.027
 1694SOL    HW2 5982   5.096   6.011   4.905
 1695SOL     OW 5983   2.809   2.580   5.657
 1695SOL    HW1 5984   2.880   2.510   5.642
 1695SOL    HW2 5985   2.723   2.550   5.616
 1696SOL     OW 5986   4.091   5.879   0.664
 1696SOL    HW1 5987   4.071   5.874   0.566
 1696SOL    HW2 5988   4.074   5.790   0.706
 1697SOL     OW 5989   0.814   1.294   1.886
 1697SOL    HW1 5990   0.905   1.334   1.902
 1697SOL    HW2 5991   0.750   1.326   1.955
 1698SOL     OW 5992   4.855   2.007   1.682
 1698SOL    HW1 5993   4.827   2.101   1.698
 1698SOL    HW2 5994   4.952   1.996   1.705
 1699SOL     OW 5995   2.491   3.210   1.406
 1699SOL    HW1 5996   2.409   3.158   1.429
 1699SOL    HW2 5997   2.471   3.272   1.331
 1700SOL     OW 5998   6.614   3.449   3.635
 1700SOL    HW1 5999   6.655   3.375   3.581
 1700SOL    HW2 6000   6.646   3.441   3.730
 1701SOL     OW 6001   5.555   3.368   4.561
 1701SOL    HW1 6002   5.464   3.361   4.602
 1701SOL    HW2 6003   5.624   3.366   4.633
 1702SOL     OW 6004   4.942   2.867   0.509
 1702SOL    HW1 6005   5.025   2.899   0.555
 1702SOL    HW2 6006   4.911   2.782   0.552
 1703SOL     OW 6007   1.903   3.797   0.198
 1703SOL    HW1 6008   1.950   3.835   0.118
 1703SOL    HW2 6009   1.804   3.809   0.187
 1704SOL     OW 6010   0.976   1.300   2.372
 1704SOL    HW1 6011   1.050   1.359   2.338
 1704SOL    HW2 6012   0.978   1.297   2.471
 1705SOL     OW 6013   4.511   3.103   1.646
 1705SOL    HW1 6014   4.412   3.118   1.650
 1705SOL    HW2 6015   4.543   3.069   1.734
 1706SOL     OW 6016   2.743   1.113   0.135
 1706SOL    HW1 6017   2.791   1.131   0.221
 1706SOL    HW2 6018   2.741   1.015   0.118
 1707SOL     OW 6019   5.398   2.163   3.200
 1707SOL    HW1 6020   5.318   2.160   3.260
 1707SOL    HW2 6021   5.370   2.141   3.107
 1708SOL     OW 6022   6.989   5.052   2.999
 1708SOL    HW1 6023   6.953   5.061   3.092
 1708SOL    HW2 6024   0.060   5.088   2.996
 1709SOL     OW 6025   2.990   5.925   2.570
 1709SOL    HW1 6026   2.949   5.981   2.642
 1709SOL    HW2 6027   3.086   5.908   2.592
 1710SOL     OW 6028   0.478   6.055   4.217
 1710SOL    HW1 6029   0.537   6.054   4.136
 1710SOL    HW2 6030   0.412   6.130   4.210
 1711SOL     OW 6031   1.430   4.296   5.464
 1711SOL    HW1 6032   1.336   4.328   5.477
 1711SOL    HW2 6033   1.439   4.204   5.503
 1712SOL     OW 6034   0.762   4.442   0.525
 1712SOL    HW1 6035   0.851   4.485   0.542
 1712SOL    HW2 6036   0.762   4.403   0.432
 1713SOL     OW 6037   0.891   2.917   0.667
 1713SOL    HW1 6038   0.955   2.965   0.727
 1713SOL    HW2 6039   0.925   2.918   0.574
 1714SOL     OW 6040   3.086   1.773   0.609
 1714SOL    HW1 6041   3.089   1.739   0.703
 1714SOL    HW2 6042   3.153   1.724   0.553
 1715SOL     OW 6043   0.079   3.348   3.588
 1715SOL    HW1 6044   0.083   3.396   3.676
 1715SOL    HW2 6045   0.070   3.414   3.514
 1716SOL     OW 6046   0.146   6.532   0.537
 1716SOL    HW1 6047   0.093   6.581   0.468
 1716SOL    HW2 6048   0.113   6.555   0.628
 1717SOL     OW 6049   2.781   0.701   6.753
 1717SOL    HW1 6050   2.822   0.618   6.716
 1717SOL    HW2 6051   2.758   0.764   6.679
 1718SOL     OW 6052   1.322   4.887   6.344
 1718SOL    HW1 6053   1.335   4.827   6.264
 1718SOL    HW2 6054   1.263   4.963   6.319
 1719SOL     OW 6055   2.215   3.551   1.569
 1719SOL    HW1 6056   2.125   3.544   1.611
 1719SOL    HW2 6057   2.286   3.560   1.639
 1720SOL     OW 6058   6.458   0.804   1.231
 1720SOL    HW1 6059   6.368   0.812   1.190
 1720SOL    HW2 6060   6.507   0.891   1.224
 1721SOL     OW 6061   2.025   6.221   3.774
 1721SOL    HW1 6062   1.996   6.289   3.707
 1721SOL    HW2 6063   1.948   6.159   3.794
 1722SOL     OW 6064   5.937   6.405   2.358
 1722SOL    HW1 6065   5.846   6.437   2.332
 1722SOL    HW2 6066   5.929   6.318   2.406
 1723SOL     OW 6067   6.240   1.581   2.497
 1723SOL    HW1 6068   6.337   1.590   2.520
 1723SOL    HW2 6069   6.185   1.600   2.578
 1724SOL     OW 6070   5.144   0.767   6.918
 1724SOL    HW1 6071   5.121   0.810   6.831
 1724SOL    HW2 6072   5.199   0.685   6.901
 1725SOL     OW 6073   3.957   4.429   1.591
 1725SOL    HW1 6074   3.936   4.363   1.663
 1725SOL    HW2 6075   4.030   4.394   1.532
 1726SOL     OW 6076   0.897   4.352   4.413
 1726SOL    HW1 6077   0.891   4.408   4.330
 1726SOL    HW2 6078   0.993   4.335   4.434
 1727SOL     OW 6079   3.602   3.949   5.563
 1727SOL    HW1 6080   3.555   3.955   5.651
 1727SOL    HW2 6081   3.536   3.933   5.490
 1728SOL     OW 6082   4.455   4.536   3.012
 1728SOL    HW1 6083   4.377   4.596   2.998
 1728SOL    HW2 6084   4.460   4.470   2.937
 1729SOL     OW 6085   2.073   3.783   3.120
 1729SOL    HW1 6086   2.059   3.736   3.032
 1729SOL    HW2 6087   2.112   3.874   3.103
 1730SOL     OW 6088   6.118   2.827   5.263
 1730SOL    HW1 6089   6.136   2.826   5.362
 1730SOL    HW2 6090   6.093   2.736   5.232
 1731SOL     OW 6091   1.736   5.438   0.495
 1731SOL    HW1 6092   1.749   5.531   0.461
 1731SOL    HW2 6093   1.766   5.433   0.591
 1732SOL     OW 6094   0.545   4.592   6.904
 1732SOL    HW1 6095   0.459   4.571   6.858
 1732SOL    HW2 6096   0.561   4.690   6.903
 1733SOL     OW 6097   1.726   3.666   0.685
 1733SOL    HW1 6098   1.722   3.573   0.721
 1733SOL    HW2 6099   1.747   3.730   0.759
 1734SOL     OW 6100   4.952   2.369   0.880
 1734SOL    HW1 6101   4.972   2.315   0.798
 1734SOL    HW2 6102   4.873   2.428   0.862
 1735SOL     OW 6103   6.282   4.981   1.596
 1735SOL    HW1 6104   6.352   5.038   1.639
 1735SOL    HW2 6105   6.244   5.029   1.517
 1736SOL     OW 6106   4.006   3.241   0.667
 1736SOL    HW1 6107   3.966   3.175   0.731
 1736SOL    HW2 6108   3.933   3.297   0.628
 1737SOL     OW 6109   2.110   6.446   3.907
 1737SOL    HW1 6110   2.102   6.353   3.873
 1737SOL    HW2 6111   2.201   6.481   3.887
 1738SOL     OW 6112   2.050   2.984   2.117
 1738SOL    HW1 6113   2.037   2.991   2.018
 1738SOL    HW2 6114   2.068   3.075   2.155
 1739SOL     OW 6115   4.239   1.728   4.760
 1739SOL    HW1 6116   4.161   1.675   4.793
 1739SOL    HW2 6117   4.222   1.757   4.666
 1740SOL     OW 6118   0.548   1.269   5.824
 1740SOL    HW1 6119   0.488   1.344   5.796
 1740SOL    HW2 6120   0.522   1.186   5.775
 1741SOL     OW 6121   1.181   0.244   2.721
 1741SOL    HW1 6122   1.229   0.170   2.768
 1741SOL    HW2 6123   1.219   0.332   2.751
 1742SOL     OW 6124   6.152   0.831   4.806
 1742SOL    HW1 6125   6.176   0.838   4.903
 1742SOL    HW2 6126   6.234   0.809   4.753
 1743SOL     OW 6127   4.021   1.412   1.053
 1743SOL    HW1 6128   4.074   1.448   1.129
 1743SOL    HW2 6129   4.035   1.469   0.972
 1744SOL     OW 6130   2.792   0.544   1.154
 1744SOL    HW1 6131   2.705   0.548   1.103
 1744SOL    HW2 6132   2.807   0.451   1.187
 1745SOL     OW 6133   0.355   2.385   3.042
 1745SOL    HW1 6134   0.428   2.320   3.021
 1745SOL    HW2 6135   0.316   2.364   3.131
 1746SOL     OW 6136   2.823   1.127   5.574
 1746SOL    HW1 6137   2.776   1.084   5.497
 1746SOL    HW2 6138   2.906   1.076   5.596
 1747SOL     OW 6139   3.247   0.250   1.995
 1747SOL    HW1 6140   3.276   0.325   2.054
 1747SOL    HW2 6141   3.304   0.250   1.912
 1748SOL     OW 6142   5.421   1.909   2.514
 1748SOL    HW1 6143   5.328   1.876   2.528
 1748SOL    HW2 6144   5.475   1.839   2.467
 1749SOL     OW 6145   3.816   0.089   6.342
 1749SOL    HW1 6146   3.828   0.113   6.245
 1749SOL    HW2 6147   3.885   0.136   6.396
 1750SOL     OW 6148   4.518   1.047   3.346
 1750SOL    HW1 6149   4.554   0.986   3.417
 1750SOL    HW2 6150   4.568   1.134   3.349
 1751SOL     OW 6151   2.053   5.860   3.834
 1751SOL    HW1 6152   2.105   5.884   3.752
 1751SOL    HW2 6153   2.075   5.766   3.860
 1752SOL     OW 6154   6.148   2.211   0.761
 1752SOL    HW1 6155   6.062   2.180   0.803
 1752SOL    HW2 6156   6.213   2.135   0.759
 1753SOL     OW 6157   1.636   0.297   1.605
 1753SOL    HW1 6158   1.554   0.250   1.638
 1753SOL    HW2 6159   1.630   0.394   1.627
 1754SOL     OW 6160   4.118   3.400   0.862
 1754SOL    HW1 6161   4.212   3.382   0.890
 1754SOL    HW2 6162   4.092   3.336   0.789
 1755SOL     OW 6163   5.436   3.918   0.750
 1755SOL    HW1 6164   5.378   3.837   0.746
 1755SOL    HW2 6165   5.381   3.999   0.769
 1756SOL     OW 6166   6.575   5.514   4.502
 1756SOL    HW1 6167   6.655   5.572   4.515
 1756SOL    HW2 6168   6.588   5.455   4.423
 1757SOL     OW 6169   2.926   6.827   4.756
 1757SOL    HW1 6170   2.926   6.828   4.856
 1757SOL    HW2 6171   2.872   6.904   4.722
 1758SOL     OW 6172   2.130   0.612   3.066
 1758SOL    HW1 6173   2.049   0.656   3.104
 1758SOL    HW2 6174   2.123   0.611   2.966
 1759SOL     OW 6175   0.639   6.024   7.011
 1759SOL    HW1 6176   0.573   5.967   6.962
 1759SOL    HW2 6177   0.732   6.002   6.981
 1760SOL     OW 6178   6.307   0.778   2.756
 1760SOL    HW1 6179   6.374   0.755   2.685
 1760SOL    HW2 6180   6.240   0.703   2.763
 1761SOL     OW 6181   6.835   2.395   1.139
 1761SOL    HW1 6182   6.900   2.398   1.215
 1761SOL    HW2 6183   6.748   2.434   1.169
 1762SOL     OW 6184   6.548   1.659   6.141
 1762SOL    HW1 6185   6.582   1.570   6.169
 1762SOL    HW2 6186   6.455   1.649   6.105
 1763SOL     OW 6187   2.010   4.031   3.974
 1763SOL    HW1 6188   1.969   4.108   3.926
 1763SOL    HW2 6189   1.966   3.946   3.946
 1764SOL     OW 6190   0.064   3.264   3.923
 1764SOL    HW1 6191   0.051   3.359   3.896
 1764SOL    HW2 6192   0.111   3.261   4.011
 1765SOL     OW 6193   2.859   2.337   6.281
 1765SOL    HW1 6194   2.798   2.334   6.360
 1765SOL    HW2 6195   2.938   2.394   6.301
 1766SOL     OW 6196   5.564   2.824   5.112
 1766SOL    HW1 6197   5.566   2.887   5.190
 1766SOL    HW2 6198   5.472   2.824   5.073
 1767SOL     OW 6199   5.603   3.392   2.550
 1767SOL    HW1 6200   5.564   3.374   2.640
 1767SOL    HW2 6201   5.538   3.365   2.479
 1768SOL     OW 6202   5.240   6.547   4.066
 1768SOL    HW1 6203   5.216   6.479   3.997
 1768SOL    HW2 6204   5.336   6.538   4.090
 1769SOL     OW 6205   4.179   1.259   2.264
 1769SOL    HW1 6206   4.106   1.192   2.249
 1769SOL    HW2 6207   4.140   1.351   2.263
 1770SOL     OW 6208   2.142   5.699   5.623
 1770SOL    HW1 6209   2.086   5.764   5.674
 1770SOL    HW2 6210   2.238   5.718   5.640
 1771SOL     OW 6211   4.553   5.973   6.624
 1771SOL    HW1 6212   4.511   5.885   6.602
 1771SOL    HW2 6213   4.507   6.046   6.573
 1772SOL     OW 6214   3.567   6.310   3.092
 1772SOL    HW1 6215   3.491   6.307   3.027
 1772SOL    HW2 6216   3.557   6.236   3.158
 1773SOL     OW 6217   1.504   5.715   6.264
 1773SOL    HW1 6218   1.585   5.773   6.267
 1773SOL    HW2 6219   1.530   5.620   6.284
 1774SOL     OW 6220   4.127   5.477   1.648
 1774SOL    HW1 6221   4.154   5.503   1.741
 1774SOL    HW2 6222   4.173   5.392   1.623
 1775SOL     OW 6223   0.624   3.958   2.184
 1775SOL    HW1 6224   0.621   3.984   2.280
 1775SOL    HW2 6225   0.605   3.860   2.175
 1776SOL     OW 6226   3.289   6.134   5.119
 1776SOL    HW1 6227   3.209   6.172   5.073
 1776SOL    HW2 6228   3.286   6.034   5.117
 1777SOL     OW 6229   4.164   6.104   0.786
 1777SOL    HW1 6230   4.167   6.091   0.885
 1777SOL    HW2 6231   4.126   6.023   0.742
 1778SOL     OW 6232   5.374   3.809   5.922
 1778SOL    HW1 6233   5.299   3.773   5.866
 1778SOL    HW2 6234   5.458   3.811   5.869
 1779SOL     OW 6235   3.620   0.434   4.874
 1779SOL    HW1 6236   3.571   0.388   4.800
 1779SOL    HW2 6237   3.676   0.508   4.836
 1780SOL     OW 6238   3.285   3.237   6.364
 1780SOL    HW1 6239   3.231   3.159   6.396
 1780SOL    HW2 6240   3.383   3.216   6.372
 1781SOL     OW 6241   3.684   5.496   2.867
 1781SOL    HW1 6242   3.669   5.569   2.933
 1781SOL    HW2 6243   3.603   5.486   2.808
 1782SOL     OW 6244   2.860   1.043   3.396
 1782SOL    HW1 6245   2.941   1.025   3.340
 1782SOL    HW2 6246   2.779   1.013   3.347
 1783SOL     OW 6247   1.976   5.847   6.676
 1783SOL    HW1 6248   2.045   5.863   6.606
 1783SOL    HW2 6249   1.886   5.836   6.634
 1784SOL     OW 6250   3.266   0.034   6.030
 1784SOL    HW1 6251   3.276   0.116   6.087
 1784SOL    HW2 6252   3.226   6.982   6.085
 1785SOL     OW 6253   6.367   3.636   2.612
 1785SOL    HW1 6254   6.335   3.632   2.517
 1785SOL    HW2 6255   6.413   3.723   2.629
 1786SOL     OW 6256   3.295   2.187   0.987
 1786SOL    HW1 6257   3.233   2.169   1.064
 1786SOL    HW2 6258   3.241   2.198   0.903
 1787SOL     OW 6259   3.404   1.545   6.168
 1787SOL    HW1 6260   3.339   1.563   6.094
 1787SOL    HW2 6261   3.430   1.448   6.166
 1788SOL     OW 6262   1.635   4.999   5.408
 1788SOL    HW1 6263   1.716   5.050   5.435
 1788SOL    HW2 6264   1.655   4.902   5.408
 1789SOL     OW 6265   6.360   1.546   0.038
 1789SOL    HW1 6266   6.330   1.614   0.104
 1789SOL    HW2 6267   6.323   1.569   6.969
 1790SOL     OW 6268   3.984   6.511   3.858
 1790SOL    HW1 6269   4.057   6.557   3.910
 1790SOL    HW2 6270   4.019   6.485   3.768
 1791SOL     OW 6271   6.887   6.748   2.726
 1791SOL    HW1 6272   6.958   6.814   2.704
 1791SOL    HW2 6273   6.895   6.720   2.822
 1792SOL     OW 6274   1.008   3.327   5.022
 1792SOL    HW1 6275   1.028   3.273   5.104
 1792SOL    HW2 6276   0.992   3.422   5.048
 1793SOL     OW 6277   6.954   0.627   3.792
 1793SOL    HW1 6278   0.003   0.661   3.731
 1793SOL    HW2 6279   6.997   0.584   3.872
 1794SOL     OW 6280   4.812   5.461   6.002
 1794SOL    HW1 6281   4.755   5.378   6.005
 1794SOL    HW2 6282   4.783   5.519   5.926
 1795SOL     OW 6283   0.159   2.843   0.513
 1795SOL    HW1 6284   0.156   2.812   0.608
 1795SOL    HW2 6285   0.244   2.892   0.496
 1796SOL     OW 6286   2.825   0.774   5.800
 1796SOL    HW1 6287   2.907   0.721   5.778
 1796SOL    HW2 6288   2.759   0.767   5.725
 1797SOL     OW 6289   0.849   6.636   0.561
 1797SOL    HW1 6290   0.851   6.668   0.466
 1797SOL    HW2 6291   0.754   6.620   0.588
 1798SOL     OW 6292   4.614   2.542   3.114
 1798SOL    HW1 6293   4.699   2.490   3.121
 1798SOL    HW2 6294   4.559   2.527   3.197
 1799SOL     OW 6295   0.982   2.096   6.447
 1799SOL    HW1 6296   1.015   2.191   6.444
 1799SOL    HW2 6297   0.884   2.096   6.465
 1800SOL     OW 6298   4.130   4.717   1.157
 1800SOL    HW1 6299   4.140   4.816   1.168
 1800SOL    HW2 6300   4.219   4.676   1.138
 1801SOL     OW 6301   7.013   6.965   2.220
 1801SOL    HW1 6302   0.079   6.917   2.231
 1801SOL    HW2 6303   6.987   6.966   2.124
 1802SOL     OW 6304   6.231   5.824   4.573
 1802SOL    HW1 6305   6.158   5.757   4.578
 1802SOL    HW2 6306   6.300   5.793   4.508
 1803SOL     OW 6307   0.039   5.796   0.180
 1803SOL    HW1 6308   0.127   5.813   0.226
 1803SOL    HW2 6309   7.022   5.884   0.152
 1804SOL     OW 6310   2.962   3.640   5.285
 1804SOL    HW1 6311   3.000   3.601   5.369
 1804SOL    HW2 6312   2.956   3.739   5.294
 1805SOL     OW 6313   5.132   3.505   5.890
 1805SOL    HW1 6314   5.057   3.507   5.957
 1805SOL    HW2 6315   5.166   3.412   5.880
 1806SOL     OW 6316   1.528   6.597   1.420
 1806SOL    HW1 6317   1.442   6.552   1.443
 1806SOL    HW2 6318   1.596   6.529   1.394
 1807SOL     OW 6319   6.363   1.917   4.946
 1807SOL    HW1 6320   6.352   1.998   5.004
 1807SOL    HW2 6321   6.457   1.885   4.951
 1808SOL     OW 6322   0.575   4.176   4.303
 1808SOL    HW1 6323   0.534   4.216   4.385
 1808SOL    HW2 6324   0.520   4.097   4.275
 1809SOL     OW 6325   3.114   1.778   5.620
 1809SOL    HW1 6326   3.167   1.798   5.537
 1809SOL    HW2 6327   3.019   1.803   5.606
 1810SOL     OW 6328   3.192   6.420   2.810
 1810SOL    HW1 6329   3.244   6.353   2.862
 1810SOL    HW2 6330   3.180   6.503   2.864
 1811SOL     OW 6331   6.047   5.618   3.336
 1811SOL    HW1 6332   6.145   5.616   3.355
 1811SOL    HW2 6333   6.010   5.526   3.344
 1812SOL     OW 6334   4.141   5.325   5.961
 1812SOL    HW1 6335   4.160   5.310   6.058
 1812SOL    HW2 6336   4.125   5.422   5.945
 1813SOL     OW 6337   6.150   4.543   0.130
 1813SOL    HW1 6338   6.071   4.545   0.068
 1813SOL    HW2 6339   6.203   4.459   0.113
 1814SOL     OW 6340   4.572   6.602   2.484
 1814SOL    HW1 6341   4.512   6.681   2.484
 1814SOL    HW2 6342   4.576   6.563   2.392
 1815SOL     OW 6343   6.998   0.525   2.932
 1815SOL    HW1 6344   0.036   0.483   2.865
 1815SOL    HW2 6345   0.015   0.513   3.024
 1816SOL     OW 6346   1.490   3.823   6.989
 1816SOL    HW1 6347   1.486   3.846   6.892
 1816SOL    HW2 6348   1.536   3.734   7.000
 1817SOL     OW 6349   1.820   5.362   2.295
 1817SOL    HW1 6350   1.730   5.379   2.255
 1817SOL    HW2 6351   1.811   5.296   2.370
 1818SOL     OW 6352   1.538   0.715   3.232
 1818SOL    HW1 6353   1.451   0.757   3.259
 1818SOL    HW2 6354   1.538   0.619   3.258
 1819SOL     OW 6355   1.570   4.700   1.139
 1819SOL    HW1 6356   1.644   4.637   1.114
 1819SOL    HW2 6357   1.483   4.651   1.136
 1820SOL     OW 6358   4.870   0.149   2.676
 1820SOL    HW1 6359   4.920   0.218   2.728
 1820SOL    HW2 6360   4.875   0.170   2.578
 1821SOL     OW 6361   2.643   2.121   2.790
 1821SOL    HW1 6362   2.580   2.127   2.713
 1821SOL    HW2 6363   2.729   2.166   2.766
 1822SOL     OW 6364   3.430   2.637   1.707
 1822SOL    HW1 6365   3.463   2.690   1.786
 1822SOL    HW2 6366   3.331   2.628   1.713
 1823SOL     OW 6367   4.203   6.706   2.045
 1823SOL    HW1 6368   4.134   6.663   1.988
 1823SOL    HW2 6369   4.170   6.795   2.077
 1824SOL     OW 6370   4.909   2.476   1.665
 1824SOL    HW1 6371   4.999   2.488   1.707
 1824SOL    HW2 6372   4.850   2.426   1.727
 1825SOL     OW 6373   1.208   0.598   1.720
 1825SOL    HW1 6374   1.189   0.521   1.660
 1825SOL    HW2 6375   1.122   0.642   1.746
 1826SOL     OW 6376   3.402   0.064   7.016
 1826SOL    HW1 6377   3.310   0.056   6.978
 1826SOL    HW2 6378   3.450   0.139   6.971
 1827SOL     OW 6379   0.037   5.865   1.562
 1827SOL    HW1 6380   0.057   5.809   1.642
 1827SOL    HW2 6381   0.105   5.938   1.555
 1828SOL     OW 6382   0.645   2.452   6.288
 1828SOL    HW1 6383   0.630   2.495   6.199
 1828SOL    HW2 6384   0.583   2.374   6.298
 1829SOL     OW 6385   5.521   5.592   2.709
 1829SOL    HW1 6386   5.559   5.612   2.619
 1829SOL    HW2 6387   5.460   5.666   2.737
 1830SOL     OW 6388   4.460   6.131   3.317
 1830SOL    HW1 6389   4.490   6.214   3.270
 1830SOL    HW2 6390   4.540   6.076   3.342
 1831SOL     OW 6391   5.191   6.509   2.134
 1831SOL    HW1 6392   5.219   6.572   2.061
 1831SOL    HW2 6393   5.254   6.432   2.138
 1832SOL     OW 6394   4.728   2.523   0.910
 1832SOL    HW1 6395   4.666   2.531   0.832
 1832SOL    HW2 6396   4.706   2.592   0.978
 1833SOL     OW 6397   4.666   0.772   4.804
 1833SOL    HW1 6398   4.730   0.722   4.862
 1833SOL    HW2 6399   4.652   0.722   4.719
 1834SOL     OW 6400   3.793   3.515   1.395
 1834SOL    HW1 6401   3.765   3.462   1.315
 1834SOL    HW2 6402   3.805   3.454   1.473
 1835SOL     OW 6403   1.555   5.279   1.058
 1835SOL    HW1 6404   1.623   5.341   1.097
 1835SOL    HW2 6405   1.599   5.217   0.994
 1836SOL     OW 6406   0.685   6.975   0.482
 1836SOL    HW1 6407   0.660   0.033   0.427
 1836SOL    HW2 6408   0.710   7.005   0.574
 1837SOL     OW 6409   0.721   2.281   4.675
 1837SOL    HW1 6410   0.761   2.369   4.647
 1837SOL    HW2 6411   0.786   2.231   4.732
 1838SOL     OW 6412   0.100   2.747   4.126
 1838SOL    HW1 6413   0.045   2.704   4.198
 1838SOL    HW2 6414   0.070   2.842   4.113
 1839SOL     OW 6415   6.623   2.689   5.759
 1839SOL    HW1 6416   6.575   2.619   5.707
 1839SOL    HW2 6417   6.616   2.668   5.857
 1840SOL     OW 6418   2.704   5.917   0.650
 1840SOL    HW1 6419   2.782   5.858   0.672
 1840SOL    HW2 6420   2.683   5.909   0.553
 1841SOL     OW 6421   2.339   2.793   3.389
 1841SOL    HW1 6422   2.265   2.818   3.325
 1841SOL    HW2 6423   2.416   2.757   3.337
 1842SOL     OW 6424   0.988   4.556   0.614
 1842SOL    HW1 6425   1.083   4.585   0.622
 1842SOL    HW2 6426   0.933   4.602   0.684
 1843SOL     OW 6427   2.412   1.781   4.947
 1843SOL    HW1 6428   2.362   1.701   4.981
 1843SOL    HW2 6429   2.402   1.857   5.011
 1844SOL     OW 6430   4.151   2.227   3.981
 1844SOL    HW1 6431   4.057   2.242   4.014
 1844SOL    HW2 6432   4.149   2.214   3.882
 1845SOL     OW 6433   3.832   0.158   0.085
 1845SOL    HW1 6434   3.777   0.084   0.123
 1845SOL    HW2 6435   3.822   0.240   0.142
 1846SOL     OW 6436   3.345   2.313   6.524
 1846SOL    HW1 6437   3.306   2.245   6.585
 1846SOL    HW2 6438   3.401   2.377   6.576
 1847SOL     OW 6439   0.059   0.392   0.927
 1847SOL    HW1 6440   0.157   0.392   0.905
 1847SOL    HW2 6441   0.048   0.401   1.026
 1848SOL     OW 6442   2.772   6.753   1.986
 1848SOL    HW1 6443   2.815   6.826   1.932
 1848SOL    HW2 6444   2.731   6.792   2.068
 1849SOL     OW 6445   3.205   2.051   6.735
 1849SOL    HW1 6446   3.156   2.109   6.799
 1849SOL    HW2 6447   3.302   2.074   6.736
 1850SOL     OW 6448   6.152   2.884   2.644
 1850SOL    HW1 6449   6.111   2.921   2.728
 1850SOL    HW2 6450   6.109   2.797   2.622
 1851SOL     OW 6451   0.626   2.701   2.437
 1851SOL    HW1 6452   0.576   2.742   2.360
 1851SOL    HW2 6453   0.561   2.679   2.510
 1852SOL     OW 6454   4.458   2.989   0.210
 1852SOL    HW1 6455   4.421   3.056   0.146
 1852SOL    HW2 6456   4.558   2.988   0.204
 1853SOL     OW 6457   1.193   4.678   1.313
 1853SOL    HW1 6458   1.097   4.677   1.285
 1853SOL    HW2 6459   1.245   4.613   1.257
 1854SOL     OW 6460   2.405   5.638   5.009
 1854SOL    HW1 6461   2.330   5.685   4.962
 1854SOL    HW2 6462   2.382   5.541   5.019
 1855SOL     OW 6463   5.228   4.893   0.753
 1855SOL    HW1 6464   5.201   4.929   0.842
 1855SOL    HW2 6465   5.180   4.807   0.736
 1856SOL     OW 6466   5.586   2.147   4.624
 1856SOL    HW1 6467   5.631   2.060   4.642
 1856SOL    HW2 6468   5.521   2.136   4.549
 1857SOL     OW 6469   4.126   1.096   3.501
 1857SOL    HW1 6470   4.171   1.179   3.468
 1857SOL    HW2 6471   4.124   1.028   3.428
 1858SOL     OW 6472   4.877   3.059   3.950
 1858SOL    HW1 6473   4.798   3.012   3.988
 1858SOL    HW2 6474   4.900   3.138   4.008
 1859SOL     OW 6475   4.553   2.188   3.347
 1859SOL    HW1 6476   4.482   2.210   3.279
 1859SOL    HW2 6477   4.622   2.130   3.305
 1860SOL     OW 6478   5.750   0.982   4.533
 1860SOL    HW1 6479   5.767   1.079   4.553
 1860SOL    HW2 6480   5.719   0.935   4.615
 1861SOL     OW 6481   5.284   6.303   3.000
 1861SOL    HW1 6482   5.239   6.217   3.024
 1861SOL    HW2 6483   5.242   6.342   2.918
 1862SOL     OW 6484   2.015   1.406   0.603
 1862SOL    HW1 6485   2.027   1.443   0.511
 1862SOL    HW2 6486   2.032   1.478   0.670
 1863SOL     OW 6487   2.987   2.721   1.361
 1863SOL    HW1 6488   2.969   2.623   1.371
 1863SOL    HW2 6489   2.943   2.771   1.436
 1864SOL     OW 6490   0.741   6.770   4.991
 1864SOL    HW1 6491   0.759   6.766   5.089
 1864SOL    HW2 6492   0.815   6.723   4.942
 1865SOL     OW 6493   4.389   2.334   6.546
 1865SOL    HW1 6494   4.486   2.312   6.554
 1865SOL    HW2 6495   4.335   2.249   6.552
 1866SOL     OW 6496   4.626   4.374   2.308
 1866SOL    HW1 6497   4.592   4.345   2.219
 1866SOL    HW2 6498   4.591   4.465   2.330
 1867SOL     OW 6499   0.377   4.276   0.110
 1867SOL    HW1 6500   0.339   4.190   0.142
 1867SOL    HW2 6501   0.303   4.339   0.086
 1868SOL     OW 6502   5.884   4.205   5.833
 1868SOL    HW1 6503   5.798   4.220   5.882
 1868SOL    HW2 6504   5.876   4.125   5.775
 1869SOL     OW 6505   6.209   1.419   4.967
 1869SOL    HW1 6506   6.278   1.368   4.917
 1869SOL    HW2 6507   6.218   1.517   4.948
 1870SOL     OW 6508   1.738   5.602   4.398
 1870SOL    HW1 6509   1.787   5.585   4.313
 1870SOL    HW2 6510   1.795   5.657   4.459
 1871SOL     OW 6511   2.170   0.203   0.309
 1871SOL    HW1 6512   2.133   0.110   0.311
 1871SOL    HW2 6513   2.095   0.268   0.301
 1872SOL     OW 6514   2.252   4.197   0.053
 1872SOL    HW1 6515   2.229   4.190   6.978
 1872SOL    HW2 6516   2.168   4.192   0.108
 1873SOL     OW 6517   4.525   1.136   6.802
 1873SOL    HW1 6518   4.481   1.133   6.712
 1873SOL    HW2 6519   4.548   1.042   6.830
 1874SOL     OW 6520   1.249   1.666   2.462
 1874SOL    HW1 6521   1.309   1.671   2.542
 1874SOL    HW2 6522   1.156   1.648   2.492
 1875SOL     OW 6523   0.923   6.660   6.524
 1875SOL    HW1 6524   0.947   6.563   6.525
 1875SOL    HW2 6525   0.906   6.691   6.618
 1876SOL     OW 6526   2.999   6.906   4.044
 1876SOL    HW1 6527   3.095   6.913   4.019
 1876SOL    HW2 6528   2.975   6.983   4.104
 1877SOL     OW 6529   0.476   6.990   3.084
 1877SOL    HW1 6530   0.501   0.009   2.996
 1877SOL    HW2 6531   0.414   0.029   3.133
 1878SOL     OW 6532   6.425   2.758   4.827
 1878SOL    HW1 6533   6.485   2.686   4.791
 1878SOL    HW2 6534   6.479   2.840   4.846
 1879SOL     OW 6535   1.236   3.849   5.206
 1879SOL    HW1 6536   1.326   3.885   5.231
 1879SOL    HW2 6537   1.174   3.925   5.189
 1880SOL     OW 6538   5.549   1.298   5.152
 1880SOL    HW1 6539   5.554   1.372   5.218
 1880SOL    HW2 6540   5.456   1.293   5.114
 1881SOL     OW 6541   6.903   1.758   0.682
 1881SOL    HW1 6542   6.860   1.828   0.625
 1881SOL    HW2 6543   6.949   1.802   0.759
 1882SOL     OW 6544   0.978   4.030   6.183
 1882SOL    HW1 6545   0.913   3.988   6.121
 1882SOL    HW2 6546   0.932   4.101   6.237
 1883SOL     OW 6547   0.116   2.701   3.450
 1883SOL    HW1 6548   0.019   2.684   3.467
 1883SOL    HW2 6549   0.133   2.799   3.446
 1884SOL     OW 6550   7.017   2.359   1.337
 1884SOL    HW1 6551   0.045   2.275   1.357
 1884SOL    HW2 6552   0.039   2.436   1.384
 1885SOL     OW 6553   2.341   1.966   5.149
 1885SOL    HW1 6554   2.423   1.935   5.199
 1885SOL    HW2 6555   2.292   2.034   5.204
 1886SOL     OW 6556   1.399   6.483   3.585
 1886SOL    HW1 6557   1.358   6.504   3.674
 1886SOL    HW2 6558   1.402   6.566   3.530
 1887SOL     OW 6559   1.381   6.184   6.634
 1887SOL    HW1 6560   1.478   6.158   6.629
 1887SOL    HW2 6561   1.374   6.282   6.653
 1888SOL     OW 6562   2.628   0.801   1.478
 1888SOL    HW1 6563   2.648   0.827   1.572
 1888SOL    HW2 6564   2.679   0.719   1.454
 1889SOL     OW 6565   1.235   3.431   3.374
 1889SOL    HW1 6566   1.303   3.399   3.440
 1889SOL    HW2 6567   1.222   3.529   3.383
 1890SOL     OW 6568   0.420   5.633   3.757
 1890SOL    HW1 6569   0.372   5.546   3.762
 1890SOL    HW2 6570   0.466   5.650   3.844
 1891SOL     OW 6571   4.099   3.645   2.504
 1891SOL    HW1 6572   4.135   3.629   2.413
 1891SOL    HW2 6573   4.077   3.742   2.515
 1892SOL     OW 6574   0.515   0.578   2.079
 1892SOL    HW1 6575   0.464   0.541   2.000
 1892SOL    HW2 6576   0.468   0.660   2.113
 1893SOL     OW 6577   3.622   3.290   3.464
 1893SOL    HW1 6578   3.646   3.319   3.556
 1893SOL    HW2 6579   3.703   3.255   3.417
 1894SOL     OW 6580   3.670   4.093   4.365
 1894SOL    HW1 6581   3.736   4.095   4.290
 1894SOL    HW2 6582   3.718   4.093   4.453
 1895SOL     OW 6583   3.618   6.562   6.843
 1895SOL    HW1 6584   3.716   6.582   6.842
 1895SOL    HW2 6585   3.589   6.531   6.753
 1896SOL     OW 6586   5.471   1.944   1.211
 1896SOL    HW1 6587   5.472   1.878   1.136
 1896SOL    HW2 6588   5.396   2.009   1.196
 1897SOL     OW 6589   2.203   4.840   3.427
 1897SOL    HW1 6590   2.276   4.836   3.359
 1897SOL    HW2 6591   2.129   4.778   3.400
 1898SOL     OW 6592   1.614   6.232   3.788
 1898SOL    HW1 6593   1.629   6.319   3.834
 1898SOL    HW2 6594   1.683   6.166   3.818
 1899SOL     OW 6595   6.928   0.245   1.868
 1899SOL    HW1 6596   6.953   0.149   1.872
 1899SOL    HW2 6597   6.940   0.287   1.958
 1900SOL     OW 6598   2.672   0.020   0.083
 1900SOL    HW1 6599   2.625   6.980   0.020
 1900SOL    HW2 6600   2.639   0.005   0.176
 1901SOL     OW 6601   2.883   3.762   0.661
 1901SOL    HW1 6602   2.917   3.699   0.730
 1901SOL    HW2 6603   2.952   3.833   0.644
 1902SOL     OW 6604   1.336   6.553   4.475
 1902SOL    HW1 6605   1.384   6.490   4.414
 1902SOL    HW2 6606   1.307   6.505   4.558
 1903SOL     OW 6607   1.437   2.562   4.581
 1903SOL    HW1 6608   1.406   2.510   4.501
 1903SOL    HW2 6609   1.482   2.646   4.550
 1904SOL     OW 6610   5.831   5.533   2.337
 1904SOL    HW1 6611   5.793   5.493   2.254
 1904SOL    HW2 6612   5.760   5.586   2.384
 1905SOL     OW 6613   0.115   0.645   3.608
 1905SOL    HW1 6614   0.184   0.718   3.607
 1905SOL    HW2 6615   0.074   0.637   3.517
 1906SOL     OW 6616   2.286   0.212   5.630
 1906SOL    HW1 6617   2.193   0.235   5.604
 1906SOL    HW2 6618   2.291   0.193   5.728
 1907SOL     OW 6619   5.253   2.855   0.363
 1907SOL    HW1 6620   5.251   2.758   0.337
 1907SOL    HW2 6621   5.189   2.906   0.307
 1908SOL     OW 6622   3.651   1.213   1.008
 1908SOL    HW1 6623   3.661   1.283   0.937
 1908SOL    HW2 6624   3.611   1.131   0.967
 1909SOL     OW 6625   0.225   4.832   5.086
 1909SOL    HW1 6626   0.320   4.857   5.071
 1909SOL    HW2 6627   0.170   4.859   5.006
 1910SOL     OW 6628   6.522   6.294   5.756
 1910SOL    HW1 6629   6.442   6.327   5.806
 1910SOL    HW2 6630   6.538   6.198   5.780
 1911SOL     OW 6631   0.141   4.950   4.265
 1911SOL    HW1 6632   0.099   4.942   4.356
 1911SOL    HW2 6633   0.101   4.882   4.204
 1912SOL     OW 6634   2.527   5.202   2.678
 1912SOL    HW1 6635   2.466   5.257   2.621
 1912SOL    HW2 6636   2.615   5.191   2.631
 1913SOL     OW 6637   2.761   4.684   5.331
 1913SOL    HW1 6638   2.823   4.650   5.259
 1913SOL    HW2 6639   2.674   4.636   5.325
 1914SOL     OW 6640   2.501   4.144   6.577
 1914SOL    HW1 6641   2.473   4.172   6.485
 1914SOL    HW2 6642   2.582   4.085   6.571
 1915SOL     OW 6643   4.571   2.118   6.443
 1915SOL    HW1 6644   4.474   2.110   6.420
 1915SOL    HW2 6645   4.626   2.110   6.360
 1916SOL     OW 6646   3.623   0.935   2.079
 1916SOL    HW1 6647   3.666   1.016   2.117
 1916SOL    HW2 6648   3.621   0.942   1.979
 1917SOL     OW 6649   2.720   4.074   1.418
 1917SOL    HW1 6650   2.679   4.163   1.437
 1917SOL    HW2 6651   2.704   4.050   1.322
 1918SOL     OW 6652   6.342   2.291   4.338
 1918SOL    HW1 6653   6.277   2.342   4.282
 1918SOL    HW2 6654   6.417   2.352   4.365
 1919SOL     OW 6655   0.908   1.849   1.208
 1919SOL    HW1 6656   0.956   1.837   1.121
 1919SOL    HW2 6657   0.902   1.947   1.229
 1920SOL     OW 6658   5.147   2.076   0.630
 1920SOL    HW1 6659   5.230   2.122   0.663
 1920SOL    HW2 6660   5.085   2.061   0.706
 1921SOL     OW 6661   1.767   2.700   6.713
 1921SOL    HW1 6662   1.741   2.607   6.740
 1921SOL    HW2 6663   1.842   2.731   6.771
 1922SOL     OW 6664   3.218   3.481   2.238
 1922SOL    HW1 6665   3.125   3.459   2.210
 1922SOL    HW2 6666   3.220   3.572   2.279
 1923SOL     OW 6667   3.851   0.533   5.141
 1923SOL    HW1 6668   3.937   0.551   5.187
 1923SOL    HW2 6669   3.779   0.517   5.208
 1924SOL     OW 6670   4.455   0.136   0.945
 1924SOL    HW1 6671   4.415   0.119   0.854
 1924SOL    HW2 6672   4.529   0.203   0.937
 1925SOL     OW 6673   1.241   4.951   1.329
 1925SOL    HW1 6674   1.265   4.853   1.325
 1925SOL    HW2 6675   1.308   5.003   1.276
 1926SOL     OW 6676   3.254   7.000   2.033
 1926SOL    HW1 6677   3.343   6.983   1.992
 1926SOL    HW2 6678   3.241   0.077   2.045
 1927SOL     OW 6679   2.246   5.485   1.825
 1927SOL    HW1 6680   2.147   5.492   1.809
 1927SOL    HW2 6681   2.283   5.411   1.769
 1928SOL     OW 6682   5.228   4.134   2.957
 1928SOL    HW1 6683   5.169   4.213   2.940
 1928SOL    HW2 6684   5.227   4.074   2.877
 1929SOL     OW 6685   2.984   0.067   2.612
 1929SOL    HW1 6686   2.919   0.141   2.624
 1929SOL    HW2 6687   3.055   0.095   2.547
 1930SOL     OW 6688   4.857   2.906   6.243
 1930SOL    HW1 6689   4.821   2.995   6.216
 1930SOL    HW2 6690   4.834   2.888   6.338
 1931SOL     OW 6691   0.662   1.810   4.517
 1931SOL    HW1 6692   0.682   1.906   4.502
 1931SOL    HW2 6693   0.720   1.775   4.591
 1932SOL     OW 6694   4.366   2.287   2.124
 1932SOL    HW1 6695   4.422   2.368   2.107
 1932SOL    HW2 6696   4.421   2.205   2.106
 1933SOL     OW 6697   1.133   1.463   0.945
 1933SOL    HW1 6698   1.198   1.390   0.923
 1933SOL    HW2 6699   1.073   1.480   0.866
 1934SOL     OW 6700   0.079   0.417   5.873
 1934SOL    HW1 6701   0.003   0.405   5.938
 1934SOL    HW2 6702   0.165   0.424   5.923
 1935SOL     OW 6703   7.012   5.420   3.789
 1935SOL    HW1 6704   6.964   5.434   3.702
 1935SOL    HW2 6705   0.037   5.331   3.787
 1936SOL     OW 6706   4.702   3.052   5.261
 1936SOL    HW1 6707   4.722   3.144   5.296
 1936SOL    HW2 6708   4.632   3.010   5.318
 1937SOL     OW 6709   5.474   5.077   6.691
 1937SOL    HW1 6710   5.433   5.120   6.772
 1937SOL    HW2 6711   5.436   5.118   6.608
 1938SOL     OW 6712   0.691   3.142   6.773
 1938SOL    HW1 6713   0.630   3.115   6.698
 1938SOL    HW2 6714   0.655   3.223   6.818
 1939SOL     OW 6715   0.848   0.308   4.655
 1939SOL    HW1 6716   0.911   0.385   4.657
 1939SOL    HW2 6717   0.845   0.265   4.746
 1940SOL     OW 6718   6.755   4.800   0.627
 1940SOL    HW1 6719   6.739   4.887   0.581
 1940SOL    HW2 6720   6.841   4.760   0.595
 1941SOL     OW 6721   6.460   2.069   4.270
 1941SOL    HW1 6722   6.507   2.018   4.341
 1941SOL    HW2 6723   6.389   2.127   4.312
 1942SOL     OW 6724   5.994   3.588   2.577
 1942SOL    HW1 6725   6.064   3.584   2.507
 1942SOL    HW2 6726   5.991   3.680   2.616
 1943SOL     OW 6727   1.126   1.502   2.778
 1943SOL    HW1 6728   1.215   1.457   2.789
 1943SOL    HW2 6729   1.093   1.534   2.867
 1944SOL     OW 6730   0.158   2.896   3.134
 1944SOL    HW1 6731   0.137   2.920   3.228
 1944SOL    HW2 6732   0.110   2.812   3.109
 1945SOL     OW 6733   4.919   0.828   2.076
 1945SOL    HW1 6734   4.961   0.756   2.021
 1945SOL    HW2 6735   4.934   0.917   2.033
 1946SOL     OW 6736   6.363   5.268   1.195
 1946SOL    HW1 6737   6.405   5.198   1.137
 1946SOL    HW2 6738   6.386   5.358   1.160
 1947SOL     OW 6739   6.083   4.770   3.917
 1947SOL    HW1 6740   6.133   4.688   3.945
 1947SOL    HW2 6741   5.999   4.778   3.971
 1948SOL     OW 6742   4.922   3.532   3.219
 1948SOL    HW1 6743   4.961   3.476   3.292
 1948SOL    HW2 6744   4.901   3.623   3.255
 1949SOL     OW 6745   3.880   4.690   6.721
 1949SOL    HW1 6746   3.904   4.786   6.703
 1949SOL    HW2 6747   3.819   4.658   6.649
 1950SOL     OW 6748   3.086   4.013   3.187
 1950SOL    HW1 6749   3.003   4.008   3.241
 1950SOL    HW2 6750   3.164   4.036   3.246
 1951SOL     OW 6751   6.100   4.445   5.889
 1951SOL    HW1 6752   6.110   4.457   5.790
 1951SOL    HW2 6753   6.096   4.347   5.910
 1952SOL     OW 6754   5.670   4.964   0.127
 1952SOL    HW1 6755   5.603   4.967   0.201
 1952SOL    HW2 6756   5.661   4.878   0.076
 1953SOL     OW 6757   0.642   0.635   6.750
 1953SOL    HW1 6758   0.730   0.619   6.795
 1953SOL    HW2 6759   0.606   0.548   6.715
 1954SOL     OW 6760   4.194   0.183   1.904
 1954SOL    HW1 6761   4.276   0.240   1.905
 1954SOL    HW2 6762   4.118   0.234   1.945
 1955SOL     OW 6763   0.629   2.302   2.923
 1955SOL    HW1 6764   0.616   2.341   2.832
 1955SOL    HW2 6765   0.712   2.247   2.925
 1956SOL     OW 6766   5.813   0.271   1.556
 1956SOL    HW1 6767   5.841   0.285   1.461
 1956SOL    HW2 6768   5.715   0.250   1.560
 1957SOL     OW 6769   5.356   2.083   4.491
 1957SOL    HW1 6770   5.332   1.988   4.468
 1957SOL    HW2 6771   5.306   2.145   4.430
 1958SOL     OW 6772   4.472   1.963   1.118
 1958SOL    HW1 6773   4.412   2.005   1.186
 1958SOL    HW2 6774   4.560   2.012   1.117
 1959SOL     OW 6775   0.340   0.913   4.894
 1959SOL    HW1 6776   0.439   0.903   4.909
 1959SOL    HW2 6777   0.302   0.825   4.866
 1960SOL     OW 6778   6.408   4.182   4.191
 1960SOL    HW1 6779   6.371   4.123   4.119
 1960SOL    HW2 6780   6.460   4.126   4.256
 1961SOL     OW 6781   0.084   4.145   4.597
 1961SOL    HW1 6782   0.164   4.153   4.656
 1961SOL    HW2 6783   0.022   4.076   4.633
 1962SOL     OW 6784   1.039   0.557   2.647
 1962SOL    HW1 6785   1.120   0.576   2.591
 1962SOL    HW2 6786   1.047   0.606   2.734
 1963SOL     OW 6787   0.418   2.381   1.568
 1963SOL    HW1 6788   0.421   2.418   1.661
 1963SOL    HW2 6789   0.423   2.456   1.502
 1964SOL     OW 6790   5.668   3.564   1.189
 1964SOL    HW1 6791   5.688   3.609   1.276
 1964SOL    HW2 6792   5.701   3.620   1.113
 1965SOL     OW 6793   0.300   4.556   4.130
 1965SOL    HW1 6794   0.237   4.526   4.058
 1965SOL    HW2 6795   0.394   4.534   4.103
 1966SOL     OW 6796   2.024   5.083   0.079
 1966SOL    HW1 6797   2.061   5.010   0.137
 1966SOL    HW2 6798   1.979   5.043   7.021
 1967SOL     OW 6799   6.364   3.682   3.047
 1967SOL    HW1 6800   6.416   3.599   3.027
 1967SOL    HW2 6801   6.311   3.708   2.966
 1968SOL     OW 6802   2.442   1.174   5.176
 1968SOL    HW1 6803   2.369   1.137   5.233
 1968SOL    HW2 6804   2.423   1.270   5.157
 1969SOL     OW 6805   2.807   6.372   0.183
 1969SOL    HW1 6806   2.743   6.444   0.156
 1969SOL    HW2 6807   2.890   6.378   0.127
 1970SOL     OW 6808   6.185   5.653   5.526
 1970SOL    HW1 6809   6.157   5.571   5.576
 1970SOL    HW2 6810   6.104   5.709   5.507
 1971SOL     OW 6811   1.899   5.737   4.592
 1971SOL    HW1 6812   1.947   5.671   4.651
 1971SOL    HW2 6813   1.881   5.820   4.644
 1972SOL     OW 6814   6.408   2.855   2.683
 1972SOL    HW1 6815   6.310   2.849   2.665
 1972SOL    HW2 6816   6.456   2.872   2.597
 1973SOL     OW 6817   2.587   3.506   6.839
 1973SOL    HW1 6818   2.570   3.602   6.862
 1973SOL    HW2 6819   2.501   3.462   6.816
 1974SOL     OW 6820   3.256   6.759   4.899
 1974SOL    HW1 6821   3.173   6.785   4.947
 1974SOL    HW2 6822   3.328   6.736   4.965
 1975SOL     OW 6823   1.900   2.420   3.535
 1975SOL    HW1 6824   1.884   2.322   3.522
 1975SOL    HW2 6825   1.901   2.465   3.446
 1976SOL     OW 6826   6.738   7.019   6.377
 1976SOL    HW1 6827   6.683   7.007   6.294
 1976SOL    HW2 6828   6.762   0.094   6.387
 1977SOL     OW 6829   2.094   4.712   5.773
 1977SOL    HW1 6830   2.072   4.638   5.709
 1977SOL    HW2 6831   2.011   4.740   5.822
 1978SOL     OW 6832   2.609   6.922   1.416
 1978SOL    HW1 6833   2.643   6.877   1.499
 1978SOL    HW2 6834   2.509   6.920   1.416
 1979SOL     OW 6835   0.252   5.063   6.248
 1979SOL    HW1 6836   0.166   5.052   6.198
 1979SOL    HW2 6837   0.304   4.977   6.245
 1980SOL     OW 6838   3.258   1.573   0.455
 1980SOL    HW1 6839   3.182   1.522   0.415
 1980SOL    HW2 6840   3.321   1.600   0.383
 1981SOL     OW 6841   3.545   2.066   3.152
 1981SOL    HW1 6842   3.473   2.025   3.095
 1981SOL    HW2 6843   3.622   2.093   3.094
 1982SOL     OW 6844   0.272   2.831   5.340
 1982SOL    HW1 6845   0.359   2.782   5.347
 1982SOL    HW2 6846   0.274   2.911   5.400
 1983SOL     OW 6847   0.218   0.623   2.490
 1983SOL    HW1 6848   0.163   0.707   2.487
 1983SOL    HW2 6849   0.315   0.647   2.496
 1984SOL     OW 6850   4.990   2.917   5.759
 1984SOL    HW1 6851   5.010   2.822   5.783
 1984SOL    HW2 6852   4.924   2.955   5.824
 1985SOL     OW 6853   6.511   3.526   2.294
 1985SOL    HW1 6854   6.470   3.441   2.260
 1985SOL    HW2 6855   6.579   3.558   2.228
 1986SOL     OW 6856   4.211   2.611   1.749
 1986SOL    HW1 6857   4.274   2.543   1.786
 1986SOL    HW2 6858   4.121   2.569   1.735
 1987SOL     OW 6859   2.867   1.199   1.584
 1987SOL    HW1 6860   2.822   1.211   1.495
 1987SOL    HW2 6861   2.820   1.128   1.636
 1988SOL     OW 6862   0.234   2.338   1.065
 1988SOL    HW1 6863   0.256   2.346   1.162
 1988SOL    HW2 6864   0.308   2.379   1.011
 1989SOL     OW 6865   2.522   4.951   4.859
 1989SOL    HW1 6866   2.576   4.877   4.897
 1989SOL    HW2 6867   2.570   5.038   4.871
 1990SOL     OW 6868   4.086   0.167   0.619
 1990SOL    HW1 6869   4.058   0.255   0.657
 1990SOL    HW2 6870   4.017   0.135   0.554
 1991SOL     OW 6871   2.533   5.148   1.197
 1991SOL    HW1 6872   2.434   5.156   1.197
 1991SOL    HW2 6873   2.569   5.179   1.285
 1992SOL     OW 6874   0.634   6.166   1.362
 1992SOL    HW1 6875   0.619   6.254   1.407
 1992SOL    HW2 6876   0.670   6.182   1.269
 1993SOL     OW 6877   2.327   2.615   3.837
 1993SOL    HW1 6878   2.316   2.635   3.740
 1993SOL    HW2 6879   2.293   2.523   3.856
 1994SOL     OW 6880   3.399   2.676   0.939
 1994SOL    HW1 6881   3.495   2.690   0.914
 1994SOL    HW2 6882   3.388   2.691   1.038
 1995SOL     OW 6883   5.507   2.263   4.336
 1995SOL    HW1 6884   5.424   2.209   4.320
 1995SOL    HW2 6885   5.481   2.353   4.372
 1996SOL     OW 6886   3.657   1.736   0.993
 1996SOL    HW1 6887   3.590   1.662   0.998
 1996SOL    HW2 6888   3.676   1.770   1.085
 1997SOL     OW 6889   3.980   0.333   3.796
 1997SOL    HW1 6890   3.922   0.312   3.718
 1997SOL    HW2 6891   3.948   0.283   3.876
 1998SOL     OW 6892   1.904   3.483   1.133
 1998SOL    HW1 6893   1.908   3.568   1.185
 1998SOL    HW2 6894   1.810   3.467   1.103
 1999SOL     OW 6895   1.498   6.843   6.611
 1999SOL    HW1 6896   1.471   6.892   6.529
 1999SOL    HW2 6897   1.416   6.811   6.659
 2000SOL     OW 6898   3.809   4.301   5.803
 2000SOL    HW1 6899   3.859   4.225   5.844
 2000SOL    HW2 6900   3.869   4.380   5.795
 2001SOL     OW 6901   1.993   1.658   0.757
 2001SOL    HW1 6902   2.051   1.704   0.824
 2001SOL    HW2 6903   1.968   1.722   0.685
 2002SOL     OW 6904   0.424   4.566   0.387
 2002SOL    HW1 6905   0.465   4.565   0.296
 2002SOL    HW2 6906   0.327   4.543   0.380
 2003SOL     OW 6907   6.688   5.247   2.889
 2003SOL    HW1 6908   6.645   5.159   2.910
 2003SOL    HW2 6909   6.747   5.238   2.809
 2004SOL     OW 6910   3.516   6.976   3.331
 2004SOL    HW1 6911   3.482   6.915   3.402
 2004SOL    HW2 6912   3.492   6.940   3.241
 2005SOL     OW 6913   1.705   6.266   0.557
 2005SOL    HW1 6914   1.673   6.337   0.494
 2005SOL    HW2 6915   1.632   6.200   0.572
 2006SOL     OW 6916   5.838   6.715   2.726
 2006SOL    HW1 6917   5.763   6.691   2.664
 2006SOL    HW2 6918   5.897   6.782   2.683
 2007SOL     OW 6919   5.882   4.525   6.693
 2007SOL    HW1 6920   5.974   4.488   6.677
 2007SOL    HW2 6921   5.861   4.523   6.791
 2008SOL     OW 6922   1.527   3.870   4.064
 2008SOL    HW1 6923   1.463   3.948   4.064
 2008SOL    HW2 6924   1.584   3.874   4.146
 2009SOL     OW 6925   6.192   0.045   3.309
 2009SOL    HW1 6926   6.098   0.056   3.340
 2009SOL    HW2 6927   6.248   0.120   3.344
 2010SOL     OW 6928   1.151   1.953   1.609
 2010SOL    HW1 6929   1.150   1.926   1.705
 2010SOL    HW2 6930   1.246   1.959   1.577
 2011SOL     OW 6931   0.973   6.787   5.777
 2011SOL    HW1 6932   0.945   6.883   5.783
 2011SOL    HW2 6933   1.022   6.772   5.691
 2012SOL     OW 6934   1.427   3.175   1.502
 2012SOL    HW1 6935   1.405   3.128   1.587
 2012SOL    HW2 6936   1.459   3.268   1.522
 2013SOL     OW 6937   0.592   3.408   2.375
 2013SOL    HW1 6938   0.669   3.423   2.437
 2013SOL    HW2 6939   0.526   3.347   2.417
 2014SOL     OW 6940   3.795   0.663   4.328
 2014SOL    HW1 6941   3.780   0.637   4.423
 2014SOL    HW2 6942   3.893   0.671   4.310
 2015SOL     OW 6943   4.331   0.723   1.908
 2015SOL    HW1 6944   4.360   0.715   2.003
 2015SOL    HW2 6945   4.349   0.816   1.875
 2016SOL     OW 6946   1.577   0.792   5.895
 2016SOL    HW1 6947   1.496   0.821   5.845
 2016SOL    HW2 6948   1.602   0.862   5.962
 2017SOL     OW 6949   3.992   6.193   3.555
 2017SOL    HW1 6950   3.942   6.127   3.611
 2017SOL    HW2 6951   4.004   6.156   3.463
 2018SOL     OW 6952   1.243   1.172   3.685
 2018SOL    HW1 6953   1.319   1.140   3.628
 2018SOL    HW2 6954   1.200   1.094   3.730
 2019SOL     OW 6955   5.856   5.185   6.246
 2019SOL    HW1 6956   5.863   5.284   6.243
 2019SOL    HW2 6957   5.829   5.156   6.338
 2020SOL     OW 6958   2.216   5.895   6.512
 2020SOL    HW1 6959   2.204   5.798   6.534
 2020SOL    HW2 6960   2.298   5.929   6.558
 2021SOL     OW 6961   6.814   6.143   4.189
 2021SOL    HW1 6962   6.793   6.171   4.282
 2021SOL    HW2 6963   6.733   6.154   4.131
 2022SOL     OW 6964   1.765   4.204   5.127
 2022SOL    HW1 6965   1.704   4.148   5.071
 2022SOL    HW2 6966   1.860   4.184   5.103
 2023SOL     OW 6967   6.501   6.426   0.480
 2023SOL    HW1 6968   6.522   6.379   0.565
 2023SOL    HW2 6969   6.548   6.515   0.478
 2024SOL     OW 6970   0.594   6.084   4.468
 2024SOL    HW1 6971   0.562   6.064   4.375
 2024SOL    HW2 6972   0.691   6.060   4.475
 2025SOL     OW 6973   1.238   6.823   4.776
 2025SOL    HW1 6974   1.280   6.850   4.689
 2025SOL    HW2 6975   1.150   6.869   4.786
 2026SOL     OW 6976   6.811   0.229   6.058
 2026SOL    HW1 6977   6.859   0.159   6.006
 2026SOL    HW2 6978   6.715   0.204   6.067
 2027SOL     OW 6979   6.918   6.295   2.503
 2027SOL    HW1 6980   6.909   6.196   2.505
 2027SOL    HW2 6981   6.962   6.323   2.417
 2028SOL     OW 6982   3.154   5.305   4.420
 2028SOL    HW1 6983   3.081   5.243   4.450
 2028SOL    HW2 6984   3.208   5.261   4.349
 2029SOL     OW 6985   6.279   2.633   6.860
 2029SOL    HW1 6986   6.251   2.690   6.783
 2029SOL    HW2 6987   6.202   2.575   6.888
 2030SOL     OW 6988   2.431   6.615   2.303
 2030SOL    HW1 6989   2.369   6.541   2.329
 2030SOL    HW2 6990   2.417   6.638   2.207
 2031SOL     OW 6991   6.867   5.871   4.116
 2031SOL    HW1 6992   6.850   5.960   4.158
 2031SOL    HW2 6993   6.781   5.836   4.077
 2032SOL     OW 6994   2.709   2.010   6.274
 2032SOL    HW1 6995   2.705   1.932   6.212
 2032SOL    HW2 6996   2.805   2.038   6.286
 2033SOL     OW 6997   2.481   2.295   0.555
 2033SOL    HW1 6998   2.512   2.390   0.548
 2033SOL    HW2 6999   2.480   2.253   0.465
 2034SOL     OW 7000   0.285   4.195   4.787
 2034SOL    HW1 7001   0.224   4.188   4.866
 2034SOL    HW2 7002   0.318   4.289   4.780
 2035SOL     OW 7003   5.871   0.205   2.729
 2035SOL    HW1 7004   5.780   0.164   2.722
 2035SOL    HW2 7005   5.917   0.197   2.640
 2036SOL     OW 7006   1.193   4.133   1.464
 2036SOL    HW1 7007   1.105   4.164   1.429
 2036SOL    HW2 7008   1.190   4.128   1.564
 2037SOL     OW 7009   0.297   2.311   0.091
 2037SOL    HW1 7010   0.380   2.367   0.093
 2037SOL    HW2 7011   0.311   2.229   0.146
 2038SOL     OW 7012   1.437   1.332   6.327
 2038SOL    HW1 7013   1.497   1.347   6.248
 2038SOL    HW2 7014   1.466   1.391   6.402
 2039SOL     OW 7015   5.647   6.376   2.657
 2039SOL    HW1 7016   5.723   6.360   2.720
 2039SOL    HW2 7017   5.651   6.470   2.623
 2040SOL     OW 7018   1.747   2.915   0.693
 2040SOL    HW1 7019   1.788   2.860   0.766
 2040SOL    HW2 7020   1.739   2.859   0.610
 2041SOL     OW 7021   2.508   0.605   6.342
 2041SOL    HW1 7022   2.440   0.618   6.269
 2041SOL    HW2 7023   2.558   0.519   6.326
 2042SOL     OW 7024   5.203   1.452   5.607
 2042SOL    HW1 7025   5.123   1.485   5.558
 2042SOL    HW2 7026   5.272   1.525   5.612
 2043SOL     OW 7027   6.975   3.939   1.205
 2043SOL    HW1 7028   0.023   3.971   1.141
 2043SOL    HW2 7029   6.989   3.981   1.294
 2044SOL     OW 7030   4.121   0.696   0.884
 2044SOL    HW1 7031   4.105   0.737   0.794
 2044SOL    HW2 7032   4.035   0.689   0.933
 2045SOL     OW 7033   1.198   6.361   5.424
 2045SOL    HW1 7034   1.121   6.311   5.464
 2045SOL    HW2 7035   1.199   6.346   5.325
 2046SOL     OW 7036   0.994   1.565   4.831
 2046SOL    HW1 7037   0.987   1.585   4.929
 2046SOL    HW2 7038   1.012   1.650   4.781
 2047SOL     OW 7039   0.380   0.749   1.062
 2047SOL    HW1 7040   0.472   0.789   1.067
 2047SOL    HW2 7041   0.389   0.650   1.049
 2048SOL     OW 7042   0.724   2.079   4.469
 2048SOL    HW1 7043   0.650   2.082   4.401
 2048SOL    HW2 7044   0.701   2.141   4.544
 2049SOL     OW 7045   4.871   1.794   5.312
 2049SOL    HW1 7046   4.803   1.856   5.272
 2049SOL    HW2 7047   4.934   1.763   5.241
 2050SOL     OW 7048   0.472   1.365   4.112
 2050SOL    HW1 7049   0.503   1.459   4.101
 2050SOL    HW2 7050   0.410   1.358   4.190
 2051SOL     OW 7051   3.006   6.682   0.086
 2051SOL    HW1 7052   3.099   6.711   0.067
 2051SOL    HW2 7053   2.971   6.731   0.166
 2052SOL     OW 7054   1.080   4.504   6.323
 2052SOL    HW1 7055   1.073   4.574   6.252
 2052SOL    HW2 7056   1.074   4.547   6.413
 2053SOL     OW 7057   6.928   6.383   3.462
 2053SOL    HW1 7058   6.855   6.398   3.529
 2053SOL    HW2 7059   6.902   6.308   3.401
 2054SOL     OW 7060   3.262   3.578   3.195
 2054SOL    HW1 7061   3.270   3.621   3.105
 2054SOL    HW2 7062   3.304   3.487   3.192
 2055SOL     OW 7063   3.163   2.165   5.708
 2055SOL    HW1 7064   3.243   2.222   5.689
 2055SOL    HW2 7065   3.136   2.116   5.625
 2056SOL     OW 7066   4.172   4.489   0.818
 2056SOL    HW1 7067   4.248   4.510   0.756
 2056SOL    HW2 7068   4.129   4.575   0.848
 2057SOL     OW 7069   5.171   2.517   4.110
 2057SOL    HW1 7070   5.238   2.582   4.144
 2057SOL    HW2 7071   5.110   2.489   4.184
 2058SOL     OW 7072   6.688   6.974   2.749
 2058SOL    HW1 7073   6.703   6.881   2.784
 2058SOL    HW2 7074   6.612   7.016   2.799
 2059SOL     OW 7075   0.653   0.590   5.862
 2059SOL    HW1 7076   0.731   0.597   5.925
 2059SOL    HW2 7077   0.580   0.651   5.892
 2060SOL     OW 7078   1.558   2.329   6.738
 2060SOL    HW1 7079   1.491   2.388   6.784
 2060SOL    HW2 7080   1.645   2.379   6.728
 2061SOL     OW 7081   1.946   2.558   2.273
 2061SOL    HW1 7082   1.979   2.618   2.346
 2061SOL    HW2 7083   1.903   2.612   2.201
 2062SOL     OW 7084   0.664   5.296   4.913
 2062SOL    HW1 7085   0.701   5.344   4.833
 2062SOL    HW2 7086   0.584   5.346   4.947
 2063SOL     OW 7087   0.628   1.215   4.999
 2063SOL    HW1 7088   0.676   1.292   5.041
 2063SOL    HW2 7089   0.667   1.130   5.033
 2064SOL     OW 7090   0.780   3.023   3.887
 2064SOL    HW1 7091   0.788   2.929   3.919
 2064SOL    HW2 7092   0.871   3.058   3.863
 2065SOL     OW 7093   4.183   3.648   5.622
 2065SOL    HW1 7094   4.227   3.562   5.648
 2065SOL    HW2 7095   4.195   3.715   5.695
 2066SOL     OW 7096   0.705   3.167   5.909
 2066SOL    HW1 7097   0.769   3.182   5.984
 2066SOL    HW2 7098   0.615   3.142   5.946
 2067SOL     OW 7099   6.840   5.017   1.577
 2067SOL    HW1 7100   6.933   5.053   1.577
 2067SOL    HW2 7101   6.793   5.044   1.492
 2068SOL     OW 7102   4.376   0.987   4.396
 2068SOL    HW1 7103   4.301   0.952   4.341
 2068SOL    HW2 7104   4.459   0.994   4.340
 2069SOL     OW 7105   0.565   2.106   3.872
 2069SOL    HW1 7106   0.557   2.164   3.953
 2069SOL    HW2 7107   0.613   2.156   3.800
 2070SOL     OW 7108   0.962   4.896   0.969
 2070SOL    HW1 7109   1.046   4.949   0.966
 2070SOL    HW2 7110   0.907   4.924   1.048
 2071SOL     OW 7111   0.082   1.354   5.557
 2071SOL    HW1 7112   0.172   1.395   5.569
 2071SOL    HW2 7113   0.015   1.405   5.610
 2072SOL     OW 7114   4.715   4.565   5.533
 2072SOL    HW1 7115   4.793   4.606   5.485
 2072SOL    HW2 7116   4.694   4.476   5.493
 2073SOL     OW 7117   2.998   5.651   6.493
 2073SOL    HW1 7118   2.959   5.610   6.410
 2073SOL    HW2 7119   3.079   5.599   6.521
 2074SOL     OW 7120   1.366   4.581   6.115
 2074SOL    HW1 7121   1.269   4.565   6.137
 2074SOL    HW2 7122   1.397   4.509   6.052
 2075SOL     OW 7123   6.513   2.390   0.915
 2075SOL    HW1 7124   6.612   2.381   0.929
 2075SOL    HW2 7125   6.466   2.375   1.002
 2076SOL     OW 7126   6.431   6.781   4.648
 2076SOL    HW1 7127   6.441   6.684   4.625
 2076SOL    HW2 7128   6.355   6.792   4.712
 2077SOL     OW 7129   6.397   4.587   0.607
 2077SOL    HW1 7130   6.416   4.685   0.603
 2077SOL    HW2 7131   6.383   4.552   0.515
 2078SOL     OW 7132   0.881   2.962   5.502
 2078SOL    HW1 7133   0.895   3.038   5.438
 2078SOL    HW2 7134   0.956   2.961   5.568
 2079SOL     OW 7135   5.594   1.195   2.239
 2079SOL    HW1 7136   5.676   1.245   2.269
 2079SOL    HW2 7137   5.533   1.257   2.191
 2080SOL     OW 7138   2.710   3.042   6.203
 2080SOL    HW1 7139   2.805   3.030   6.233
 2080SOL    HW2 7140   2.692   3.140   6.190
 2081SOL     OW 7141   6.272   5.661   2.184
 2081SOL    HW1 7142   6.181   5.701   2.191
 2081SOL    HW2 7143   6.327   5.686   2.264
 2082SOL     OW 7144   6.517   6.017   4.208
 2082SOL    HW1 7145   6.460   5.941   4.176
 2082SOL    HW2 7146   6.562   5.990   4.293
 2083SOL     OW 7147   0.131   6.661   3.803
 2083SOL    HW1 7148   0.179   6.650   3.716
 2083SOL    HW2 7149   0.198   6.680   3.875
 2084SOL     OW 7150   6.194   2.263   1.090
 2084SOL    HW1 7151   6.161   2.169   1.080
 2084SOL    HW2 7152   6.152   2.321   1.021
 2085SOL     OW 7153   5.894   5.889   0.978
 2085SOL    HW1 7154   5.822   5.835   0.934
 2085SOL    HW2 7155   5.982   5.843   0.968
 2086SOL     OW 7156   5.041   0.856   6.629
 2086SOL    HW1 7157   5.026   0.757   6.632
 2086SOL    HW2 7158   4.993   0.899   6.705
 2087SOL     OW 7159   4.289   1.386   6.797
 2087SOL    HW1 7160   4.318   1.297   6.831
 2087SOL    HW2 7161   4.260   1.378   6.702
 2088SOL     OW 7162   0.809   5.709   5.844
 2088SOL    HW1 7163   0.731   5.669   5.893
 2088SOL    HW2 7164   0.780   5.793   5.799
 2089SOL     OW 7165   2.520   3.766   6.925
 2089SOL    HW1 7166   2.602   3.798   6.879
 2089SOL    HW2 7167   2.540   3.752   0.000
 2090SOL     OW 7168   5.500   2.959   5.776
 2090SOL    HW1 7169   5.592   2.943   5.812
 2090SOL    HW2 7170   5.450   2.872   5.771
 2091SOL     OW 7171   5.226   6.371   1.586
 2091SOL    HW1 7172   5.140   6.394   1.631
 2091SOL    HW2 7173   5.256   6.280   1.617
 2092SOL     OW 7174   4.030   3.744   1.815
 2092SOL    HW1 7175   4.021   3.714   1.910
 2092SOL    HW2 7176   4.010   3.667   1.754
 2093SOL     OW 7177   4.106   1.423   1.656
 2093SOL    HW1 7178   4.184   1.483   1.674
 2093SOL    HW2 7179   4.136   1.346   1.600
 2094SOL     OW 7180   5.417   2.232   6.116
 2094SOL    HW1 7181   5.378   2.145   6.146
 2094SOL    HW2 7182   5.396   2.303   6.183
 2095SOL     OW 7183   5.625   5.559   4.009
 2095SOL    HW1 7184   5.586   5.532   3.921
 2095SOL    HW2 7185   5.610   5.657   4.023
 2096SOL     OW 7186   4.498   0.060   2.082
 2096SOL    HW1 7187   4.534   6.992   2.060
 2096SOL    HW2 7188   4.515   0.123   2.006
 2097SOL     OW 7189   0.974   5.915   6.511
 2097SOL    HW1 7190   0.943   5.922   6.606
 2097SOL    HW2 7191   1.004   5.822   6.493
 2098SOL     OW 7192   2.983   5.755   3.677
 2098SOL    HW1 7193   3.068   5.758   3.729
 2098SOL    HW2 7194   2.939   5.667   3.690
 2099SOL     OW 7195   4.954   1.718   6.234
 2099SOL    HW1 7196   5.005   1.659   6.297
 2099SOL    HW2 7197   4.909   1.791   6.287
 2100SOL     OW 7198   5.076   0.098   1.552
 2100SOL    HW1 7199   4.994   0.047   1.577
 2100SOL    HW2 7200   5.054   0.160   1.476
 2101SOL     OW 7201   0.584   0.137   2.358
 2101SOL    HW1 7202   0.632   0.064   2.310
 2101SOL    HW2 7203   0.650   0.206   2.388
 2102SOL     OW 7204   3.668   2.047   1.024
 2102SOL    HW1 7205   3.645   2.086   1.113
 2102SOL    HW2 7206   3.685   1.949   1.034
 2103SOL     OW 7207   2.723   5.944   0.351
 2103SOL    HW1 7208   2.726   6.043   0.366
 2103SOL    HW2 7209   2.811   5.912   0.317
 2104SOL     OW 7210   1.563   4.019   3.459
 2104SOL    HW1 7211   1.599   4.083   3.527
 2104SOL    HW2 7212   1.489   4.064   3.409
 2105SOL     OW 7213   5.702   5.969   4.982
 2105SOL    HW1 7214   5.622   6.015   5.020
 2105SOL    HW2 7215   5.713   5.880   5.026
 2106SOL     OW 7216   4.262   3.093   0.689
 2106SOL    HW1 7217   4.307   3.011   0.725
 2106SOL    HW2 7218   4.164   3.086   0.704
 2107SOL     OW 7219   5.557   4.810   5.407
 2107SOL    HW1 7220   5.520   4.808   5.314
 2107SOL    HW2 7221   5.503   4.750   5.466
 2108SOL     OW 7222   4.879   0.389   5.353
 2108SOL    HW1 7223   4.814   0.313   5.355
 2108SOL    HW2 7224   4.839   0.469   5.398
 2109SOL     OW 7225   2.810   6.708   2.347
 2109SOL    HW1 7226   2.756   6.730   2.266
 2109SOL    HW2 7227   2.895   6.761   2.346
 2110SOL     OW 7228   3.730   6.744   0.295
 2110SOL    HW1 7229   3.790   6.678   0.340
 2110SOL    HW2 7230   3.638   6.736   0.332
 2111SOL     OW 7231   1.038   2.264   6.002
 2111SOL    HW1 7232   1.137   2.249   5.997
 2111SOL    HW2 7233   1.009   2.319   5.923
 2112SOL     OW 7234   0.867   0.562   6.905
 2112SOL    HW1 7235   0.827   0.582   6.994
 2112SOL    HW2 7236   0.899   0.467   6.904
 2113SOL     OW 7237   0.211   1.139   4.859
 2113SOL    HW1 7238   0.259   1.205   4.917
 2113SOL    HW2 7239   0.257   1.051   4.862
 2114SOL     OW 7240   1.243   1.520   6.107
 2114SOL    HW1 7241   1.154   1.550   6.075
 2114SOL    HW2 7242   1.236   1.488   6.202
 2115SOL     OW 7243   6.495   6.285   3.398
 2115SOL    HW1 7244   6.545   6.368   3.425
 2115SOL    HW2 7245   6.527   6.255   3.308
 2116SOL     OW 7246   1.103   1.986   0.026
 2116SOL    HW1 7247   1.082   1.953   0.118
 2116SOL    HW2 7248   1.128   2.082   0.030
 2117SOL     OW 7249   6.499   1.902   2.381
 2117SOL    HW1 7250   6.543   1.982   2.421
 2117SOL    HW2 7251   6.568   1.838   2.348
 2118SOL     OW 7252   6.911   2.752   2.518
 2118SOL    HW1 7253   6.867   2.838   2.543
 2118SOL    HW2 7254   6.956   2.714   2.599
 2119SOL     OW 7255   1.480   1.274   0.462
 2119SOL    HW1 7256   1.480   1.338   0.539
 2119SOL    HW2 7257   1.386   1.254   0.435
 2120SOL     OW 7258   5.930   1.175   1.121
 2120SOL    HW1 7259   5.874   1.229   1.059
 2120SOL    HW2 7260   5.980   1.236   1.183
 2121SOL     OW 7261   1.627   0.425   6.866
 2121SOL    HW1 7262   1.541   0.476   6.858
 2121SOL    HW2 7263   1.643   0.374   6.782
 2122SOL     OW 7264   6.194   1.288   4.164
 2122SOL    HW1 7265   6.197   1.342   4.080
 2122SOL    HW2 7266   6.141   1.205   4.149
 2123SOL     OW 7267   1.155   5.426   2.988
 2123SOL    HW1 7268   1.062   5.421   3.026
 2123SOL    HW2 7269   1.185   5.335   2.962
 2124SOL     OW 7270   4.085   3.761   6.188
 2124SOL    HW1 7271   4.112   3.845   6.235
 2124SOL    HW2 7272   4.167   3.710   6.160
 2125SOL     OW 7273   1.472   6.135   4.531
 2125SOL    HW1 7274   1.413   6.190   4.472
 2125SOL    HW2 7275   1.562   6.177   4.536
 2126SOL     OW 7276   2.804   4.105   0.022
 2126SOL    HW1 7277   2.780   4.160   6.964
 2126SOL    HW2 7278   2.862   4.160   0.083
 2127SOL     OW 7279   0.527   2.573   4.520
 2127SOL    HW1 7280   0.514   2.478   4.547
 2127SOL    HW2 7281   0.539   2.630   4.601
 2128SOL     OW 7282   5.204   3.181   1.450
 2128SOL    HW1 7283   5.263   3.147   1.524
 2128SOL    HW2 7284   5.212   3.121   1.371
 2129SOL     OW 7285   5.496   3.765   4.499
 2129SOL    HW1 7286   5.413   3.802   4.458
 2129SOL    HW2 7287   5.574   3.786   4.440
 2130SOL     OW 7288   3.086   1.159   1.314
 2130SOL    HW1 7289   3.041   1.072   1.331
 2130SOL    HW2 7290   3.069   1.221   1.391
 2131SOL     OW 7291   5.209   0.458   5.460
 2131SOL    HW1 7292   5.216   0.467   5.361
 2131SOL    HW2 7293   5.190   0.548   5.500
 2132SOL     OW 7294   2.150   2.407   0.591
 2132SOL    HW1 7295   2.244   2.442   0.587
 2132SOL    HW2 7296   2.143   2.324   0.535
 2133SOL     OW 7297   3.298   2.227   1.622
 2133SOL    HW1 7298   3.356   2.204   1.701
 2133SOL    HW2 7299   3.202   2.216   1.648
 2134SOL     OW 7300   2.138   6.516   4.644
 2134SOL    HW1 7301   2.134   6.608   4.604
 2134SOL    HW2 7302   2.188   6.520   4.730
 2135SOL     OW 7303   0.964   0.184   4.439
 2135SOL    HW1 7304   1.048   0.129   4.439
 2135SOL    HW2 7305   0.933   0.196   4.533
 2136SOL     OW 7306   1.263   4.597   3.680
 2136SOL    HW1 7307   1.301   4.685   3.711
 2136SOL    HW2 7308   1.243   4.603   3.582
 2137SOL     OW 7309   1.022   0.896   4.667
 2137SOL    HW1 7310   1.034   0.830   4.741
 2137SOL    HW2 7311   1.111   0.931   4.639
 2138SOL     OW 7312   0.456   2.533   0.123
 2138SOL    HW1 7313   0.470   2.604   0.055
 2138SOL    HW2 7314   0.488   2.565   0.212
 2139SOL     OW 7315   2.029   1.131   4.987
 2139SOL    HW1 7316   2.117   1.176   4.995
 2139SOL    HW2 7317   2.022   1.058   5.056
 2140SOL     OW 7318   2.015   6.014   4.158
 2140SOL    HW1 7319   2.069   5.952   4.102
 2140SOL    HW2 7320   1.992   5.970   4.245
 2141SOL     OW 7321   6.538   1.306   0.065
 2141SOL    HW1 7322   6.449   1.353   0.057
 2141SOL    HW2 7323   6.611   1.368   0.036
 2142SOL     OW 7324   2.803   1.503   3.318
 2142SOL    HW1 7325   2.731   1.471   3.257
 2142SOL    HW2 7326   2.891   1.467   3.287
 2143SOL     OW 7327   3.500   6.635   0.042
 2143SOL    HW1 7328   3.404   6.650   0.019
 2143SOL    HW2 7329   3.553   6.617   6.981
 2144SOL     OW 7330   6.935   1.110   2.586
 2144SOL    HW1 7331   6.853   1.053   2.587
 2144SOL    HW2 7332   6.927   1.180   2.658
 2145SOL     OW 7333   3.996   5.361   2.964
 2145SOL    HW1 7334   3.933   5.437   2.975
 2145SOL    HW2 7335   4.037   5.364   2.873
 2146SOL     OW 7336   3.689   3.197   1.448
 2146SOL    HW1 7337   3.603   3.147   1.432
 2146SOL    HW2 7338   3.718   3.183   1.542
 2147SOL     OW 7339   7.003   0.925   5.098
 2147SOL    HW1 7340   6.944   0.848   5.120
 2147SOL    HW2 7341   6.996   0.946   5.001
 2148SOL     OW 7342   4.830   3.096   3.044
 2148SOL    HW1 7343   4.885   3.142   3.114
 2148SOL    HW2 7344   4.790   3.013   3.082
 2149SOL     OW 7345   3.509   1.188   3.467
 2149SOL    HW1 7346   3.597   1.187   3.419
 2149SOL    HW2 7347   3.522   1.225   3.559
 2150SOL     OW 7348   3.673   1.500   2.473
 2150SOL    HW1 7349   3.608   1.460   2.537
 2150SOL    HW2 7350   3.653   1.597   2.461
 2151SOL     OW 7351   3.431   2.935   5.731
 2151SOL    HW1 7352   3.385   3.010   5.683
 2151SOL    HW2 7353   3.530   2.949   5.729
 2152SOL     OW 7354   6.344   5.947   1.859
 2152SOL    HW1 7355   6.394   5.966   1.943
 2152SOL    HW2 7356   6.277   6.020   1.842
 2153SOL     OW 7357   4.872   2.749   2.773
 2153SOL    HW1 7358   4.867   2.834   2.720
 2153SOL    HW2 7359   4.954   2.698   2.746
 2154SOL     OW 7360   4.475   5.842   5.148
 2154SOL    HW1 7361   4.527   5.863   5.065
 2154SOL    HW2 7362   4.536   5.803   5.217
 2155SOL     OW 7363   6.469   3.676   0.029
 2155SOL    HW1 7364   6.493   3.633   0.116
 2155SOL    HW2 7365   6.402   3.620   7.003
 2156SOL     OW 7366   1.123   1.308   1.645
 2156SOL    HW1 7367   1.130   1.244   1.721
 2156SOL    HW2 7368   1.038   1.361   1.653
 2157SOL     OW 7369   0.587   1.098   4.655
 2157SOL    HW1 7370   0.665   1.038   4.637
 2157SOL    HW2 7371   0.608   1.158   4.733
 2158SOL     OW 7372   4.642   6.055   2.441
 2158SOL    HW1 7373   4.742   6.058   2.445
 2158SOL    HW2 7374   4.612   6.069   2.346
 2159SOL     OW 7375   2.036   6.187   4.725
 2159SOL    HW1 7376   2.064   6.156   4.634
 2159SOL    HW2 7377   1.950   6.237   4.718
 2160SOL     OW 7378   2.902   3.532   0.497
 2160SOL    HW1 7379   2.975   3.496   0.554
 2160SOL    HW2 7380   2.874   3.622   0.531
 2161SOL     OW 7381   5.182   2.226   3.750
 2161SOL    HW1 7382   5.213   2.276   3.830
 2161SOL    HW2 7383   5.211   2.131   3.756
 2162SOL     OW 7384   1.142   1.560   6.773
 2162SOL    HW1 7385   1.085   1.598   6.846
 2162SOL    HW2 7386   1.160   1.631   6.705
 2163SOL     OW 7387   2.804   2.618   0.417
 2163SOL    HW1 7388   2.709   2.603   0.445
 2163SOL    HW2 7389   2.835   2.707   0.451
 2164SOL     OW 7390   0.972   6.992   1.279
 2164SOL    HW1 7391   0.879   6.988   1.315
 2164SOL    HW2 7392   1.025   0.037   1.330
 2165SOL     OW 7393   2.788   6.797   1.609
 2165SOL    HW1 7394   2.852   6.825   1.538
 2165SOL    HW2 7395   2.829   6.813   1.699
 2166SOL     OW 7396   6.177   2.226   6.729
 2166SOL    HW1 7397   6.102   2.265   6.676
 2166SOL    HW2 7398   6.256   2.211   6.669
 2167SOL     OW 7399   2.680   0.581   1.824
 2167SOL    HW1 7400   2.619   0.506   1.798
 2167SOL    HW2 7401   2.699   0.576   1.922
 2168SOL     OW 7402   5.984   5.640   4.624
 2168SOL    HW1 7403   5.936   5.705   4.683
 2168SOL    HW2 7404   5.917   5.586   4.573
 2169SOL     OW 7405   5.488   2.099   4.969
 2169SOL    HW1 7406   5.433   2.108   4.886
 2169SOL    HW2 7407   5.559   2.170   4.970
 2170SOL     OW 7408   5.506   4.832   4.436
 2170SOL    HW1 7409   5.434   4.861   4.372
 2170SOL    HW2 7410   5.533   4.910   4.493
 2171SOL     OW 7411   6.860   2.155   0.427
 2171SOL    HW1 7412   6.861   2.064   0.470
 2171SOL    HW2 7413   6.904   2.149   0.337
 2172SOL     OW 7414   2.523   0.495   0.883
 2172SOL    HW1 7415   2.571   0.440   0.951
 2172SOL    HW2 7416   2.481   0.434   0.815
 2173SOL     OW 7417   5.084   1.705   5.117
 2173SOL    HW1 7418   5.170   1.739   5.078
 2173SOL    HW2 7419   5.103   1.645   5.194
 2174SOL     OW 7420   1.252   5.211   4.647
 2174SOL    HW1 7421   1.238   5.177   4.740
 2174SOL    HW2 7422   1.299   5.299   4.650
 2175SOL     OW 7423   2.037   6.506   5.115
 2175SOL    HW1 7424   2.079   6.474   5.030
 2175SOL    HW2 7425   2.070   6.597   5.136
 2176SOL     OW 7426   2.013   2.402   1.984
 2176SOL    HW1 7427   1.915   2.386   1.991
 2176SOL    HW2 7428   2.061   2.347   2.053
 2177SOL     OW 7429   6.593   1.234   2.169
 2177SOL    HW1 7430   6.689   1.203   2.169
 2177SOL    HW2 7431   6.585   1.318   2.116
 2178SOL     OW 7432   0.837   5.211   0.553
 2178SOL    HW1 7433   0.934   5.200   0.572
 2178SOL    HW2 7434   0.803   5.128   0.508
 2179SOL     OW 7435   0.828   4.815   3.899
 2179SOL    HW1 7436   0.746   4.866   3.872
 2179SOL    HW2 7437   0.910   4.869   3.879
 2180SOL     OW 7438   4.167   3.210   2.028
 2180SOL    HW1 7439   4.203   3.301   2.011
 2180SOL    HW2 7440   4.228   3.161   2.091
 2181SOL     OW 7441   4.529   6.457   0.419
 2181SOL    HW1 7442   4.566   6.365   0.414
 2181SOL    HW2 7443   4.429   6.453   0.407
 2182SOL     OW 7444   5.927   1.933   0.425
 2182SOL    HW1 7445   5.850   1.976   0.473
 2182SOL    HW2 7446   5.913   1.834   0.422
 2183SOL     OW 7447   2.812   2.697   1.076
 2183SOL    HW1 7448   2.839   2.604   1.053
 2183SOL    HW2 7449   2.892   2.749   1.105
 2184SOL     OW 7450   4.249   3.164   6.232
 2184SOL    HW1 7451   4.305   3.131   6.157
 2184SOL    HW2 7452   4.153   3.140   6.215
 2185SOL     OW 7453   1.330   0.774   1.134
 2185SOL    HW1 7454   1.246   0.721   1.138
 2185SOL    HW2 7455   1.319   0.859   1.185
 2186SOL     OW 7456   0.143   4.887   2.786
 2186SOL    HW1 7457   0.055   4.886   2.834
 2186SOL    HW2 7458   0.128   4.869   2.689
 2187SOL     OW 7459   0.637   1.548   6.566
 2187SOL    HW1 7460   0.634   1.637   6.610
 2187SOL    HW2 7461   0.718   1.542   6.507
 2188SOL     OW 7462   5.031   0.765   3.443
 2188SOL    HW1 7463   4.957   0.785   3.378
 2188SOL    HW2 7464   5.063   0.849   3.485
 2189SOL     OW 7465   2.756   0.315   6.871
 2189SOL    HW1 7466   2.849   0.343   6.893
 2189SOL    HW2 7467   2.758   0.224   6.828
 2190SOL     OW 7468   5.082   1.913   1.362
 2190SOL    HW1 7469   5.020   1.849   1.407
 2190SOL    HW2 7470   5.045   1.939   1.273
 2191SOL     OW 7471   2.761   1.576   7.016
 2191SOL    HW1 7472   2.758   1.529   6.927
 2191SOL    HW2 7473   2.686   1.543   0.052
 2192SOL     OW 7474   3.978   5.264   3.618
 2192SOL    HW1 7475   4.034   5.236   3.696
 2192SOL    HW2 7476   3.990   5.362   3.602
 2193SOL     OW 7477   0.573   5.137   6.012
 2193SOL    HW1 7478   0.523   5.189   5.943
 2193SOL    HW2 7479   0.575   5.040   5.985
 2194SOL     OW 7480   3.432   0.123   1.238
 2194SOL    HW1 7481   3.461   0.102   1.331
 2194SOL    HW2 7482   3.345   0.077   1.219
 2195SOL     OW 7483   1.556   4.957   2.387
 2195SOL    HW1 7484   1.551   4.866   2.348
 2195SOL    HW2 7485   1.470   5.005   2.373
 2196SOL     OW 7486   4.148   2.991   6.967
 2196SOL    HW1 7487   4.125   2.978   6.871
 2196SOL    HW2 7488   4.116   3.081   6.998
 2197SOL     OW 7489   4.416   4.486   0.605
 2197SOL    HW1 7490   4.421   4.402   0.659
 2197SOL    HW2 7491   4.381   4.465   0.514
 2198SOL     OW 7492   6.094   4.463   0.388
 2198SOL    HW1 7493   6.148   4.494   0.310
 2198SOL    HW2 7494   6.029   4.394   0.358
 2199SOL     OW 7495   4.437   0.640   2.181
 2199SOL    HW1 7496   4.502   0.582   2.132
 2199SOL    HW2 7497   4.388   0.585   2.248
 2200SOL     OW 7498   2.367   6.816   4.385
 2200SOL    HW1 7499   2.290   6.781   4.332
 2200SOL    HW2 7500   2.382   6.912   4.363
 2201SOL     OW 7501   4.898   4.122   2.620
 2201SOL    HW1 7502   4.818   4.167   2.580
 2201SOL    HW2 7503   4.980   4.176   2.600
 2202SOL     OW 7504   4.774   5.684   3.784
 2202SOL    HW1 7505   4.748   5.589   3.765
 2202SOL    HW2 7506   4.834   5.686   3.864
 2203SOL     OW 7507   3.220   2.144   2.845
 2203SOL    HW1 7508   3.250   2.122   2.752
 2203SOL    HW2 7509   3.286   2.107   2.910
 2204SOL     OW 7510   2.888   2.443   1.359
 2204SOL    HW1 7511   2.850   2.404   1.275
 2204SOL    HW2 7512   2.851   2.395   1.438
 2205SOL     OW 7513   2.397   0.292   1.255
 2205SOL    HW1 7514   2.327   0.244   1.202
 2205SOL    HW2 7515   2.365   0.385   1.276
 2206SOL     OW 7516   1.980   3.117   0.049
 2206SOL    HW1 7517   1.902   3.150   0.102
 2206SOL    HW2 7518   1.956   3.114   6.974
 2207SOL     OW 7519   0.673   4.617   4.532
 2207SOL    HW1 7520   0.744   4.552   4.559
 2207SOL    HW2 7521   0.663   4.685   4.604
 2208SOL     OW 7522   6.934   4.715   2.032
 2208SOL    HW1 7523   6.925   4.691   1.936
 2208SOL    HW2 7524   6.978   4.804   2.041
 2209SOL     OW 7525   0.982   6.269   1.288
 2209SOL    HW1 7526   0.988   6.363   1.254
 2209SOL    HW2 7527   0.892   6.232   1.268
 2210SOL     OW 7528   1.112   5.826   3.831
 2210SOL    HW1 7529   1.211   5.834   3.845
 2210SOL    HW2 7530   1.086   5.881   3.751
 2211SOL     OW 7531   0.342   1.461   5.647
 2211SOL    HW1 7532   0.384   1.510   5.571
 2211SOL    HW2 7533   0.330   1.524   5.724
 2212SOL     OW 7534   2.029   6.939   6.616
 2212SOL    HW1 7535   2.063   6.870   6.679
 2212SOL    HW2 7536   1.934   6.918   6.592
 2213SOL     OW 7537   3.261   1.308   3.415
 2213SOL    HW1 7538   3.346   1.277   3.458
 2213SOL    HW2 7539   3.183   1.275   3.468
 2214SOL     OW 7540   4.179   0.322   5.287
 2214SOL    HW1 7541   4.264   0.280   5.320
 2214SOL    HW2 7542   4.113   0.327   5.362
 2215SOL     OW 7543   5.999   2.974   4.681
 2215SOL    HW1 7544   5.958   3.014   4.763
 2215SOL    HW2 7545   6.056   3.042   4.636
 2216SOL     OW 7546   2.192   0.540   1.887
 2216SOL    HW1 7547   2.149   0.612   1.832
 2216SOL    HW2 7548   2.254   0.581   1.954
 2217SOL     OW 7549   4.596   0.999   2.096
 2217SOL    HW1 7550   4.620   1.095   2.105
 2217SOL    HW2 7551   4.648   0.945   2.162
 2218SOL     OW 7552   1.161   6.775   2.664
 2218SOL    HW1 7553   1.176   6.738   2.756
 2218SOL    HW2 7554   1.167   6.701   2.597
 2219SOL     OW 7555   1.765   2.285   2.816
 2219SOL    HW1 7556   1.841   2.301   2.879
 2219SOL    HW2 7557   1.780   2.336   2.732
 2220SOL     OW 7558   0.975   0.474   1.366
 2220SOL    HW1 7559   1.023   0.427   1.439
 2220SOL    HW2 7560   0.915   0.410   1.318
 2221SOL     OW 7561   0.040   1.396   0.144
 2221SOL    HW1 7562   6.963   1.389   0.131
 2221SOL    HW2 7563   0.063   1.371   0.238
 2222SOL     OW 7564   5.782   5.881   2.962
 2222SOL    HW1 7565   5.780   5.980   2.970
 2222SOL    HW2 7566   5.818   5.841   3.047
 2223SOL     OW 7567   6.225   5.090   1.351
 2223SOL    HW1 7568   6.296   5.149   1.314
 2223SOL    HW2 7569   6.148   5.147   1.381
 2224SOL     OW 7570   0.767   4.897   2.269
 2224SOL    HW1 7571   0.856   4.893   2.225
 2224SOL    HW2 7572   0.728   4.988   2.258
 2225SOL     OW 7573   0.284   4.490   1.034
 2225SOL    HW1 7574   0.206   4.535   1.076
 2225SOL    HW2 7575   0.281   4.392   1.054
 2226SOL     OW 7576   4.192   3.789   1.439
 2226SOL    HW1 7577   4.190   3.834   1.529
 2226SOL    HW2 7578   4.257   3.838   1.380
 2227SOL     OW 7579   0.938   3.031   4.472
 2227SOL    HW1 7580   0.959   3.123   4.438
 2227SOL    HW2 7581   0.929   3.033   4.571
 2228SOL     OW 7582   2.894   5.061   4.665
 2228SOL    HW1 7583   2.809   5.011   4.681
 2228SOL    HW2 7584   2.910   5.070   4.567
 2229SOL     OW 7585   5.425   6.944   2.850
 2229SOL    HW1 7586   5.454   6.870   2.911
 2229SOL    HW2 7587   5.330   6.929   2.823
 2230SOL     OW 7588   2.908   5.314   1.161
 2230SOL    HW1 7589   2.831   5.371   1.133
 2230SOL    HW2 7590   2.989   5.372   1.173
 2231SOL     OW 7591   2.647   5.836   1.241
 2231SOL    HW1 7592   2.700   5.826   1.325
 2231SOL    HW2 7593   2.669   5.761   1.179
 2232SOL     OW 7594   6.327   2.845   3.647
 2232SOL    HW1 7595   6.365   2.766   3.694
 2232SOL    HW2 7596   6.327   2.828   3.548
 2233SOL     OW 7597   3.032   1.772   6.714
 2233SOL    HW1 7598   2.972   1.780   6.635
 2233SOL    HW2 7599   3.040   1.861   6.760
 2234SOL     OW 7600   3.243   2.049   1.411
 2234SOL    HW1 7601   3.280   2.123   1.467
 2234SOL    HW2 7602   3.318   1.990   1.381
 2235SOL     OW 7603   2.026   0.534   1.350
 2235SOL    HW1 7604   1.932   0.568   1.347
 2235SOL    HW2 7605   2.028   0.439   1.320
 2236SOL     OW 7606   6.745   3.749   6.372
 2236SOL    HW1 7607   6.797   3.811   6.313
 2236SOL    HW2 7608   6.655   3.788   6.390
 2237SOL     OW 7609   6.393   2.969   4.127
 2237SOL    HW1 7610   6.326   2.954   4.200
 2237SOL    HW2 7611   6.354   3.031   4.059
 2238SOL     OW 7612   6.956   6.222   2.030
 2238SOL    HW1 7613   6.937   6.132   1.990
 2238SOL    HW2 7614   6.874   6.278   2.024
 2239SOL     OW 7615   5.697   5.590   2.906
 2239SOL    HW1 7616   5.637   5.562   2.832
 2239SOL    HW2 7617   5.690   5.689   2.920
 2240SOL     OW 7618   5.913   3.638   1.888
 2240SOL    HW1 7619   5.889   3.549   1.849
 2240SOL    HW2 7620   5.833   3.678   1.931
 2241SOL     OW 7621   0.984   6.917   2.011
 2241SOL    HW1 7622   0.902   6.974   2.019
 2241SOL    HW2 7623   0.957   6.821   1.998
 2242SOL     OW 7624   4.879   2.000   2.600
 2242SOL    HW1 7625   4.862   2.061   2.677
 2242SOL    HW2 7626   4.796   1.947   2.581
 2243SOL     OW 7627   2.743   6.179   5.478
 2243SOL    HW1 7628   2.750   6.219   5.569
 2243SOL    HW2 7629   2.822   6.121   5.460
 2244SOL     OW 7630   2.561   0.862   5.357
 2244SOL    HW1 7631   2.553   0.793   5.285
 2244SOL    HW2 7632   2.524   0.949   5.324
 2245SOL     OW 7633   0.283   1.848   2.243
 2245SOL    HW1 7634   0.208   1.792   2.279
 2245SOL    HW2 7635   0.268   1.944   2.267
 2246SOL     OW 7636   1.521   4.553   4.478
 2246SOL    HW1 7637   1.607   4.581   4.437
 2246SOL    HW2 7638   1.505   4.607   4.561
 2247SOL     OW 7639   1.830   1.359   5.661
 2247SOL    HW1 7640   1.913   1.303   5.656
 2247SOL    HW2 7641   1.856   1.456   5.656
 2248SOL     OW 7642   4.511   4.279   5.242
 2248SOL    HW1 7643   4.429   4.332   5.222
 2248SOL    HW2 7644   4.572   4.281   5.163
 2249SOL     OW 7645   4.461   5.303   4.865
 2249SOL    HW1 7646   4.505   5.284   4.777
 2249SOL    HW2 7647   4.374   5.255   4.869
 2250SOL     OW 7648   5.420   5.323   0.680
 2250SOL    HW1 7649   5.322   5.345   0.675
 2250SOL    HW2 7650   5.471   5.389   0.625
 2251SOL     OW 7651   0.102   0.525   6.308
 2251SOL    HW1 7652   0.078   0.510   6.212
 2251SOL    HW2 7653   0.118   0.623   6.323
 2252SOL     OW 7654   3.723   1.542   5.607
 2252SOL    HW1 7655   3.773   1.629   5.600
 2252SOL    HW2 7656   3.675   1.538   5.694
 2253SOL     OW 7657   1.384   2.500   6.009
 2253SOL    HW1 7658   1.313   2.496   6.080
 2253SOL    HW2 7659   1.466   2.545   6.047
 2254SOL     OW 7660   1.763   3.700   5.500
 2254SOL    HW1 7661   1.863   3.694   5.505
 2254SOL    HW2 7662   1.725   3.690   5.592
 2255SOL     OW 7663   5.322   3.155   0.763
 2255SOL    HW1 7664   5.315   3.098   0.681
 2255SOL    HW2 7665   5.256   3.123   0.831
 2256SOL     OW 7666   3.294   4.877   2.091
 2256SOL    HW1 7667   3.309   4.965   2.047
 2256SOL    HW2 7668   3.360   4.810   2.055
 2257SOL     OW 7669   2.030   3.594   3.942
 2257SOL    HW1 7670   1.975   3.516   3.974
 2257SOL    HW2 7671   2.074   3.638   4.020
 2258SOL     OW 7672   2.215   5.415   5.296
 2258SOL    HW1 7673   2.186   5.322   5.319
 2258SOL    HW2 7674   2.285   5.445   5.361
 2259SOL     OW 7675   6.330   3.298   6.302
 2259SOL    HW1 7676   6.396   3.226   6.282
 2259SOL    HW2 7677   6.379   3.380   6.332
 2260SOL     OW 7678   4.660   4.137   0.804
 2260SOL    HW1 7679   4.745   4.111   0.850
 2260SOL    HW2 7680   4.599   4.058   0.800
 2261SOL     OW 7681   3.785   6.846   4.999
 2261SOL    HW1 7682   3.759   6.756   5.033
 2261SOL    HW2 7683   3.881   6.864   5.023
 2262SOL     OW 7684   3.096   1.695   3.424
 2262SOL    HW1 7685   3.162   1.641   3.476
 2262SOL    HW2 7686   3.062   1.770   3.480
 2263SOL     OW 7687   0.320   4.142   5.876
 2263SOL    HW1 7688   0.366   4.080   5.940
 2263SOL    HW2 7689   0.300   4.093   5.791
 2264SOL     OW 7690   3.969   3.955   3.901
 2264SOL    HW1 7691   3.987   3.969   3.998
 2264SOL    HW2 7692   3.872   3.969   3.883
 2265SOL     OW 7693   0.193   6.928   2.655
 2265SOL    HW1 7694   0.270   6.991   2.651
 2265SOL    HW2 7695   0.117   6.964   2.601
 2266SOL     OW 7696   5.854   0.077   0.074
 2266SOL    HW1 7697   5.771   0.051   0.024
 2266SOL    HW2 7698   5.830   0.110   0.165
 2267SOL     OW 7699   5.324   1.849   5.417
 2267SOL    HW1 7700   5.324   1.922   5.348
 2267SOL    HW2 7701   5.387   1.874   5.491
 2268SOL     OW 7702   6.081   5.149   6.863
 2268SOL    HW1 7703   6.073   5.220   6.793
 2268SOL    HW2 7704   6.134   5.184   6.940
 2269SOL     OW 7705   0.596   5.765   4.240
 2269SOL    HW1 7706   0.541   5.690   4.277
 2269SOL    HW2 7707   0.548   5.851   4.254
 2270SOL     OW 7708   4.155   3.428   2.660
 2270SOL    HW1 7709   4.187   3.353   2.602
 2270SOL    HW2 7710   4.130   3.506   2.603
 2271SOL     OW 7711   0.339   4.242   3.023
 2271SOL    HW1 7712   0.347   4.341   3.034
 2271SOL    HW2 7713   0.406   4.196   3.082
 2272SOL     OW 7714   4.722   2.083   6.228
 2272SOL    HW1 7715   4.693   2.169   6.187
 2272SOL    HW2 7716   4.713   2.009   6.162
 2273SOL     OW 7717   0.502   1.066   3.943
 2273SOL    HW1 7718   0.504   1.116   3.857
 2273SOL    HW2 7719   0.475   1.127   4.017
 2274SOL     OW 7720   1.191   3.717   2.789
 2274SOL    HW1 7721   1.166   3.768   2.871
 2274SOL    HW2 7722   1.150   3.762   2.709
 2275SOL     OW 7723   4.828   6.133   3.446
 2275SOL    HW1 7724   4.863   6.125   3.353
 2275SOL    HW2 7725   4.771   6.054   3.467
 2276SOL     OW 7726   3.505   5.380   1.655
 2276SOL    HW1 7727   3.525   5.417   1.564
 2276SOL    HW2 7728   3.437   5.437   1.700
 2277SOL     OW 7729   3.625   3.246   0.912
 2277SOL    HW1 7730   3.594   3.339   0.889
 2277SOL    HW2 7731   3.572   3.211   0.989
 2278SOL     OW 7732   5.193   6.627   0.996
 2278SOL    HW1 7733   5.134   6.560   1.041
 2278SOL    HW2 7734   5.149   6.660   0.912
 2279SOL     OW 7735   5.054   4.130   5.324
 2279SOL    HW1 7736   5.042   4.098   5.230
 2279SOL    HW2 7737   5.152   4.133   5.345
 2280SOL     OW 7738   5.669   6.940   6.253
 2280SOL    HW1 7739   5.728   6.889   6.190
 2280SOL    HW2 7740   5.576   6.903   6.248
 2281SOL     OW 7741   3.246   2.710   0.536
 2281SOL    HW1 7742   3.193   2.733   0.455
 2281SOL    HW2 7743   3.331   2.763   0.537
 2282SOL     OW 7744   4.090   5.709   2.179
 2282SOL    HW1 7745   4.009   5.653   2.165
 2282SOL    HW2 7746   4.172   5.657   2.155
 2283SOL     OW 7747   6.847   3.860   1.929
 2283SOL    HW1 7748   6.866   3.786   1.993
 2283SOL    HW2 7749   6.897   3.845   1.844
 2284SOL     OW 7750   2.617   2.383   2.164
 2284SOL    HW1 7751   2.612   2.405   2.262
 2284SOL    HW2 7752   2.713   2.368   2.139
 2285SOL     OW 7753   1.790   3.797   6.306
 2285SOL    HW1 7754   1.798   3.770   6.210
 2285SOL    HW2 7755   1.853   3.743   6.362
 2286SOL     OW 7756   5.361   6.908   4.404
 2286SOL    HW1 7757   5.459   6.922   4.390
 2286SOL    HW2 7758   5.338   6.933   4.498
 2287SOL     OW 7759   2.091   2.777   1.382
 2287SOL    HW1 7760   2.069   2.874   1.372
 2287SOL    HW2 7761   2.171   2.755   1.326
 2288SOL     OW 7762   1.933   5.909   4.387
 2288SOL    HW1 7763   1.845   5.947   4.359
 2288SOL    HW2 7764   1.922   5.858   4.472
 2289SOL     OW 7765   4.570   1.929   0.450
 2289SOL    HW1 7766   4.476   1.924   0.482
 2289SOL    HW2 7767   4.571   1.934   0.350
 2290SOL     OW 7768   3.384   3.327   3.223
 2290SOL    HW1 7769   3.398   3.293   3.131
 2290SOL    HW2 7770   3.467   3.313   3.278
 2291SOL     OW 7771   0.861   2.752   6.329
 2291SOL    HW1 7772   0.811   2.830   6.291
 2291SOL    HW2 7773   0.853   2.675   6.267
 2292SOL     OW 7774   5.314   1.672   2.698
 2292SOL    HW1 7775   5.354   1.754   2.659
 2292SOL    HW2 7776   5.268   1.620   2.627
 2293SOL     OW 7777   0.454   0.265   0.559
 2293SOL    HW1 7778   0.449   0.359   0.524
 2293SOL    HW2 7779   0.367   0.219   0.545
 2294SOL     OW 7780   6.519   1.002   5.513
 2294SOL    HW1 7781   6.583   0.963   5.446
 2294SOL    HW2 7782   6.476   0.928   5.565
 2295SOL     OW 7783   5.919   5.983   1.231
 2295SOL    HW1 7784   5.909   5.928   1.149
 2295SOL    HW2 7785   5.930   6.079   1.206
 2296SOL     OW 7786   3.553   4.893   4.145
 2296SOL    HW1 7787   3.627   4.825   4.146
 2296SOL    HW2 7788   3.587   4.977   4.103
 2297SOL     OW 7789   4.914   3.847   5.639
 2297SOL    HW1 7790   4.913   3.929   5.582
 2297SOL    HW2 7791   4.832   3.792   5.622
 2298SOL     OW 7792   3.572   3.915   4.571
 2298SOL    HW1 7793   3.642   3.852   4.538
 2298SOL    HW2 7794   3.614   3.981   4.634
 2299SOL     OW 7795   5.700   2.889   4.649
 2299SOL    HW1 7796   5.637   2.956   4.688
 2299SOL    HW2 7797   5.763   2.857   4.719
 2300SOL     OW 7798   4.757   6.691   2.237
 2300SOL    HW1 7799   4.841   6.648   2.271
 2300SOL    HW2 7800   4.694   6.621   2.205
 2301SOL     OW 7801   3.979   3.152   4.925
 2301SOL    HW1 7802   4.005   3.134   5.020
 2301SOL    HW2 7803   4.059   3.186   4.875
 2302SOL     OW 7804   6.245   2.690   5.935
 2302SOL    HW1 7805   6.194   2.605   5.922
 2302SOL    HW2 7806   6.321   2.694   5.870
 2303SOL     OW 7807   2.901   2.630   0.026
 2303SOL    HW1 7808   2.932   2.724   0.038
 2303SOL    HW2 7809   2.866   2.594   0.113
 2304SOL     OW 7810   6.733   6.400   2.791
 2304SOL    HW1 7811   6.667   6.325   2.781
 2304SOL    HW2 7812   6.769   6.424   2.701
 2305SOL     OW 7813   2.845   0.282   4.728
 2305SOL    HW1 7814   2.821   0.307   4.822
 2305SOL    HW2 7815   2.827   0.359   4.667
 2306SOL     OW 7816   1.512   4.933   4.646
 2306SOL    HW1 7817   1.455   4.890   4.716
 2306SOL    HW2 7818   1.461   4.940   4.561
 2307SOL     OW 7819   6.354   3.231   5.332
 2307SOL    HW1 7820   6.452   3.247   5.342
 2307SOL    HW2 7821   6.339   3.137   5.301
 2308SOL     OW 7822   1.633   5.054   1.775
 2308SOL    HW1 7823   1.721   5.016   1.745
 2308SOL    HW2 7824   1.647   5.111   1.856
 2309SOL     OW 7825   1.713   0.369   5.019
 2309SOL    HW1 7826   1.803   0.325   5.009
 2309SOL    HW2 7827   1.645   0.299   5.042
 2310SOL     OW 7828   4.273   0.294   1.074
 2310SOL    HW1 7829   4.331   0.366   1.114
 2310SOL    HW2 7830   4.331   0.218   1.044
 2311SOL     OW 7831   2.778   5.222   1.363
 2311SOL    HW1 7832   2.824   5.235   1.276
 2311SOL    HW2 7833   2.734   5.132   1.365
 2312SOL     OW 7834   3.324   5.104   1.913
 2312SOL    HW1 7835   3.408   5.058   1.884
 2312SOL    HW2 7836   3.254   5.094   1.842
 2313SOL     OW 7837   5.316   5.752   1.230
 2313SOL    HW1 7838   5.312   5.849   1.203
 2313SOL    HW2 7839   5.304   5.695   1.149
 2314SOL     OW 7840   1.672   4.806   4.359
 2314SOL    HW1 7841   1.728   4.723   4.362
 2314SOL    HW2 7842   1.728   4.883   4.329
 2315SOL     OW 7843   4.461   2.764   6.377
 2315SOL    HW1 7844   4.410   2.703   6.438
 2315SOL    HW2 7845   4.536   2.806   6.428
 2316SOL     OW 7846   6.013   3.884   2.098
 2316SOL    HW1 7847   6.093   3.873   2.039
 2316SOL    HW2 7848   5.934   3.911   2.043
 2317SOL     OW 7849   0.284   5.855   3.667
 2317SOL    HW1 7850   0.290   5.843   3.567
 2317SOL    HW2 7851   0.339   5.785   3.712
 2318SOL     OW 7852   6.355   1.000   4.228
 2318SOL    HW1 7853   6.289   0.987   4.302
 2318SOL    HW2 7854   6.383   1.096   4.225
 2319SOL     OW 7855   0.797   5.132   2.884
 2319SOL    HW1 7856   0.821   5.070   2.959
 2319SOL    HW2 7857   0.714   5.099   2.839
 2320SOL     OW 7858   6.749   5.142   5.275
 2320SOL    HW1 7859   6.719   5.216   5.215
 2320SOL    HW2 7860   6.739   5.170   5.370
 2321SOL     OW 7861   3.811   5.024   5.011
 2321SOL    HW1 7862   3.824   5.097   4.945
 2321SOL    HW2 7863   3.713   5.014   5.031
 2322SOL     OW 7864   3.236   1.165   5.733
 2322SOL    HW1 7865   3.224   1.127   5.641
 2322SOL    HW2 7866   3.297   1.244   5.730
 2323SOL     OW 7867   5.151   3.920   1.972
 2323SOL    HW1 7868   5.208   3.915   2.055
 2323SOL    HW2 7869   5.173   3.844   1.912
 2324SOL     OW 7870   6.899   5.066   3.256
 2324SOL    HW1 7871   6.810   5.102   3.285
 2324SOL    HW2 7872   6.962   5.067   3.334
 2325SOL     OW 7873   0.501   2.210   0.735
 2325SOL    HW1 7874   0.517   2.112   0.734
 2325SOL    HW2 7875   0.412   2.230   0.695
 2326SOL     OW 7876   1.606   4.102   6.795
 2326SOL    HW1 7877   1.509   4.088   6.780
 2326SOL    HW2 7878   1.622   4.129   6.890
 2327SOL     OW 7879   5.379   1.924   3.898
 2327SOL    HW1 7880   5.418   1.834   3.917
 2327SOL    HW2 7881   5.430   1.967   3.823
 2328SOL     OW 7882   6.090   6.650   4.012
 2328SOL    HW1 7883   6.015   6.584   4.022
 2328SOL    HW2 7884   6.061   6.724   3.952
 2329SOL     OW 7885   6.529   5.879   3.169
 2329SOL    HW1 7886   6.468   5.832   3.105
 2329SOL    HW2 7887   6.494   5.869   3.262
 2330SOL     OW 7888   0.416   3.537   1.734
 2330SOL    HW1 7889   0.350   3.466   1.708
 2330SOL    HW2 7890   0.367   3.620   1.759
 2331SOL     OW 7891   0.830   5.236   5.955
 2331SOL    HW1 7892   0.759   5.274   6.013
 2331SOL    HW2 7893   0.817   5.137   5.948
 2332SOL     OW 7894   5.367   2.703   4.614
 2332SOL    HW1 7895   5.395   2.748   4.530
 2332SOL    HW2 7896   5.326   2.771   4.676
 2333SOL     OW 7897   2.600   4.582   3.351
 2333SOL    HW1 7898   2.583   4.573   3.449
 2333SOL    HW2 7899   2.559   4.505   3.302
 2334SOL     OW 7900   3.224   0.298   0.583
 2334SOL    HW1 7901   3.294   0.227   0.577
 2334SOL    HW2 7902   3.220   0.333   0.677
 2335SOL     OW 7903   4.829   5.191   4.413
 2335SOL    HW1 7904   4.810   5.288   4.430
 2335SOL    HW2 7905   4.762   5.154   4.348
 2336SOL     OW 7906   4.144   2.560   5.682
 2336SOL    HW1 7907   4.093   2.604   5.756
 2336SOL    HW2 7908   4.105   2.470   5.663
 2337SOL     OW 7909   5.889   0.443   4.335
 2337SOL    HW1 7910   5.876   0.346   4.315
 2337SOL    HW2 7911   5.945   0.454   4.417
 2338SOL     OW 7912   1.786   0.129   6.812
 2338SOL    HW1 7913   1.874   0.137   6.765
 2338SOL    HW2 7914   1.712   0.160   6.751
 2339SOL     OW 7915   4.361   4.137   6.359
 2339SOL    HW1 7916   4.347   4.221   6.411
 2339SOL    HW2 7917   4.421   4.075   6.411
 2340SOL     OW 7918   3.677   5.495   3.974
 2340SOL    HW1 7919   3.677   5.466   3.879
 2340SOL    HW2 7920   3.709   5.590   3.981
 2341SOL     OW 7921   6.083   5.038   6.222
 2341SOL    HW1 7922   6.096   4.974   6.146
 2341SOL    HW2 7923   5.989   5.072   6.221
 2342SOL     OW 7924   6.481   0.260   5.202
 2342SOL    HW1 7925   6.549   0.243   5.273
 2342SOL    HW2 7926   6.419   0.333   5.231
 2343SOL     OW 7927   1.143   0.124   0.398
 2343SOL    HW1 7928   1.104   0.104   0.309
 2343SOL    HW2 7929   1.186   0.215   0.396
 2344SOL     OW 7930   2.166   1.318   3.294
 2344SOL    HW1 7931   2.155   1.368   3.380
 2344SOL    HW2 7932   2.196   1.225   3.313
 2345SOL     OW 7933   1.525   1.442   3.394
 2345SOL    HW1 7934   1.446   1.467   3.451
 2345SOL    HW2 7935   1.514   1.348   3.361
 2346SOL     OW 7936   5.273   3.500   5.586
 2346SOL    HW1 7937   5.359   3.481   5.634
 2346SOL    HW2 7938   5.223   3.571   5.636
 2347SOL     OW 7939   1.056   3.603   0.836
 2347SOL    HW1 7940   1.012   3.659   0.766
 2347SOL    HW2 7941   1.089   3.662   0.910
 2348SOL     OW 7942   2.782   5.834   1.844
 2348SOL    HW1 7943   2.872   5.863   1.874
 2348SOL    HW2 7944   2.789   5.747   1.794
 2349SOL     OW 7945   4.365   4.734   5.847
 2349SOL    HW1 7946   4.326   4.643   5.859
 2349SOL    HW2 7947   4.438   4.747   5.914
 2350SOL     OW 7948   1.965   5.882   5.405
 2350SOL    HW1 7949   2.013   5.818   5.465
 2350SOL    HW2 7950   2.022   5.903   5.326
 2351SOL     OW 7951   2.229   5.707   3.489
 2351SOL    HW1 7952   2.321   5.683   3.456
 2351SOL    HW2 7953   2.161   5.673   3.424
 2352SOL     OW 7954   6.086   4.017   1.734
 2352SOL    HW1 7955   6.174   4.059   1.757
 2352SOL    HW2 7956   6.066   4.033   1.637
 2353SOL     OW 7957   3.079   3.576   6.608
 2353SOL    HW1 7958   2.990   3.572   6.653
 2353SOL    HW2 7959   3.105   3.672   6.595
 2354SOL     OW 7960   3.979   2.467   1.702
 2354SOL    HW1 7961   3.880   2.484   1.701
 2354SOL    HW2 7962   3.998   2.384   1.755
 2355SOL     OW 7963   6.585   1.065   1.207
 2355SOL    HW1 7964   6.537   1.134   1.262
 2355SOL    HW2 7965   6.678   1.097   1.187
 2356SOL     OW 7966   2.733   5.046   3.812
 2356SOL    HW1 7967   2.695   4.955   3.825
 2356SOL    HW2 7968   2.815   5.056   3.869
 2357SOL     OW 7969   6.375   4.248   0.726
 2357SOL    HW1 7970   6.312   4.231   0.650
 2357SOL    HW2 7971   6.326   4.238   0.812
 2358SOL     OW 7972   3.765   2.084   5.055
 2358SOL    HW1 7973   3.802   2.021   4.988
 2358SOL    HW2 7974   3.670   2.105   5.033
 2359SOL     OW 7975   1.702   1.912   5.808
 2359SOL    HW1 7976   1.787   1.939   5.853
 2359SOL    HW2 7977   1.709   1.927   5.709
 2360SOL     OW 7978   3.450   4.882   6.626
 2360SOL    HW1 7979   3.446   4.922   6.535
 2360SOL    HW2 7980   3.525   4.924   6.678
 2361SOL     OW 7981   4.258   5.618   1.878
 2361SOL    HW1 7982   4.307   5.585   1.959
 2361SOL    HW2 7983   4.300   5.704   1.847
 2362SOL     OW 7984   4.123   5.179   3.825
 2362SOL    HW1 7985   4.205   5.128   3.801
 2362SOL    HW2 7986   4.094   5.155   3.917
 2363SOL     OW 7987   1.839   4.267   0.476
 2363SOL    HW1 7988   1.782   4.222   0.544
 2363SOL    HW2 7989   1.781   4.310   0.407
 2364SOL     OW 7990   3.570   1.254   2.852
 2364SOL    HW1 7991   3.562   1.194   2.932
 2364SOL    HW2 7992   3.479   1.273   2.816
 2365SOL     OW 7993   4.697   4.318   3.433
 2365SOL    HW1 7994   4.755   4.275   3.365
 2365SOL    HW2 7995   4.655   4.400   3.395
 2366SOL     OW 7996   3.039   4.828   5.042
 2366SOL    HW1 7997   3.057   4.863   4.950
 2366SOL    HW2 7998   2.957   4.771   5.041
 2367SOL     OW 7999   5.886   5.426   6.128
 2367SOL    HW1 8000   5.873   5.523   6.147
 2367SOL    HW2 8001   5.888   5.411   6.029
 2368SOL     OW 8002   6.080   0.012   4.718
 2368SOL    HW1 8003   6.042   0.103   4.734
 2368SOL    HW2 8004   6.138   7.008   4.795
 2369SOL     OW 8005   3.210   2.189   4.264
 2369SOL    HW1 8006   3.303   2.157   4.278
 2369SOL    HW2 8007   3.172   2.222   4.350
 2370SOL     OW 8008   6.013   2.297   1.646
 2370SOL    HW1 8009   5.943   2.367   1.629
 2370SOL    HW2 8010   6.101   2.342   1.663
 2371SOL     OW 8011   0.678   6.163   3.029
 2371SOL    HW1 8012   0.776   6.146   3.017
 2371SOL    HW2 8013   0.661   6.261   3.034
 2372SOL     OW 8014   6.059   6.320   6.948
 2372SOL    HW1 8015   6.074   6.241   6.888
 2372SOL    HW2 8016   6.041   6.401   6.893
 2373SOL     OW 8017   6.465   5.156   6.085
 2373SOL    HW1 8018   6.453   5.222   6.010
 2373SOL    HW2 8019   6.447   5.202   6.172
 2374SOL     OW 8020   6.588   6.196   2.690
 2374SOL    HW1 8021   6.495   6.228   2.675
 2374SOL    HW2 8022   6.588   6.123   2.758
 2375SOL     OW 8023   1.672   0.629   4.099
 2375SOL    HW1 8024   1.663   0.665   4.006
 2375SOL    HW2 8025   1.680   0.530   4.097
 2376SOL     OW 8026   5.520   1.997   3.365
 2376SOL    HW1 8027   5.475   2.049   3.293
 2376SOL    HW2 8028   5.499   1.900   3.354
 2377SOL     OW 8029   4.483   4.080   5.867
 2377SOL    HW1 8030   4.514   4.167   5.828
 2377SOL    HW2 8031   4.385   4.069   5.849
 2378SOL     OW 8032   6.863   1.052   0.057
 2378SOL    HW1 8033   6.778   1.093   0.024
 2378SOL    HW2 8034   6.849   0.955   0.074
 2379SOL     OW 8035   6.618   5.141   1.906
 2379SOL    HW1 8036   6.567   5.149   1.820
 2379SOL    HW2 8037   6.611   5.227   1.957
 2380SOL     OW 8038   4.917   6.117   5.911
 2380SOL    HW1 8039   5.015   6.128   5.925
 2380SOL    HW2 8040   4.874   6.086   5.996
 2381SOL     OW 8041   2.269   4.735   4.138
 2381SOL    HW1 8042   2.236   4.747   4.045
 2381SOL    HW2 8043   2.218   4.661   4.183
 2382SOL     OW 8044   6.941   5.683   2.615
 2382SOL    HW1 8045   6.905   5.592   2.632
 2382SOL    HW2 8046   6.939   5.702   2.516
 2383SOL     OW 8047   5.360   4.776   6.073
 2383SOL    HW1 8048   5.330   4.855   6.020
 2383SOL    HW2 8049   5.339   4.790   6.170
 2384SOL     OW 8050   0.282   2.079   3.089
 2384SOL    HW1 8051   0.205   2.018   3.108
 2384SOL    HW2 8052   0.325   2.053   3.003
 2385SOL     OW 8053   0.521   1.118   0.551
 2385SOL    HW1 8054   0.616   1.093   0.574
 2385SOL    HW2 8055   0.468   1.127   0.636
 2386SOL     OW 8056   6.124   5.987   4.318
 2386SOL    HW1 8057   6.177   5.997   4.403
 2386SOL    HW2 8058   6.028   5.968   4.341
 2387SOL     OW 8059   1.269   1.493   3.552
 2387SOL    HW1 8060   1.271   1.476   3.651
 2387SOL    HW2 8061   1.275   1.591   3.535
 2388SOL     OW 8062   0.147   2.583   5.464
 2388SOL    HW1 8063   0.179   2.673   5.433
 2388SOL    HW2 8064   0.155   2.517   5.390
 2389SOL     OW 8065   4.217   4.789   3.878
 2389SOL    HW1 8066   4.233   4.697   3.915
 2389SOL    HW2 8067   4.278   4.806   3.801
 2390SOL     OW 8068   4.757   2.961   5.895
 2390SOL    HW1 8069   4.723   2.875   5.934
 2390SOL    HW2 8070   4.684   3.004   5.841
 2391SOL     OW 8071   3.154   3.899   5.611
 2391SOL    HW1 8072   3.097   3.829   5.653
 2391SOL    HW2 8073   3.100   3.949   5.543
 2392SOL     OW 8074   4.633   4.288   5.481
 2392SOL    HW1 8075   4.593   4.272   5.391
 2392SOL    HW2 8076   4.722   4.243   5.487
 2393SOL     OW 8077   4.191   4.436   1.224
 2393SOL    HW1 8078   4.138   4.469   1.302
 2393SOL    HW2 8079   4.263   4.502   1.201
 2394SOL     OW 8080   0.464   2.488   3.850
 2394SOL    HW1 8081   0.421   2.573   3.881
 2394SOL    HW2 8082   0.496   2.436   3.930
 2395SOL     OW 8083   1.104   2.412   4.622
 2395SOL    HW1 8084   1.059   2.336   4.575
 2395SOL    HW2 8085   1.199   2.385   4.643
 2396SOL     OW 8086   0.466   0.547   5.503
 2396SOL    HW1 8087   0.431   0.632   5.541
 2396SOL    HW2 8088   0.565   0.543   5.514
 2397SOL     OW 8089   0.216   3.902   5.285
 2397SOL    HW1 8090   0.135   3.847   5.263
 2397SOL    HW2 8091   0.272   3.911   5.203
 2398SOL     OW 8092   3.609   6.412   4.380
 2398SOL    HW1 8093   3.546   6.418   4.303
 2398SOL    HW2 8094   3.601   6.495   4.436
 2399SOL     OW 8095   3.075   1.895   3.586
 2399SOL    HW1 8096   3.113   1.870   3.674
 2399SOL    HW2 8097   3.142   1.951   3.536
 2400SOL     OW 8098   1.658   4.105   0.621
 2400SOL    HW1 8099   1.644   4.099   0.720
 2400SOL    HW2 8100   1.598   4.040   0.574
 2401SOL     OW 8101   1.779   0.037   6.305
 2401SOL    HW1 8102   1.715   0.046   6.229
 2401SOL    HW2 8103   1.813   0.127   6.332
 2402SOL     OW 8104   1.463   4.222   1.542
 2402SOL    HW1 8105   1.368   4.190   1.535
 2402SOL    HW2 8106   1.497   4.204   1.634
 2403SOL     OW 8107   4.124   3.280   3.638
 2403SOL    HW1 8108   4.216   3.243   3.652
 2403SOL    HW2 8109   4.060   3.236   3.701
 2404SOL     OW 8110   6.078   0.956   0.950
 2404SOL    HW1 8111   6.012   1.019   0.991
 2404SOL    HW2 8112   6.169   0.974   0.987
 2405SOL     OW 8113   1.985   3.079   0.587
 2405SOL    HW1 8114   1.916   3.152   0.584
 2405SOL    HW2 8115   1.944   2.997   0.626
 2406SOL     OW 8116   2.632   6.034   4.500
 2406SOL    HW1 8117   2.640   6.115   4.441
 2406SOL    HW2 8118   2.708   6.033   4.565
 2407SOL     OW 8119   2.511   0.879   3.534
 2407SOL    HW1 8120   2.446   0.951   3.509
 2407SOL    HW2 8121   2.538   0.830   3.451
 2408SOL     OW 8122   3.669   6.347   5.367
 2408SOL    HW1 8123   3.703   6.268   5.315
 2408SOL    HW2 8124   3.731   6.425   5.353
 2409SOL     OW 8125   1.233   3.408   0.395
 2409SOL    HW1 8126   1.260   3.336   0.331
 2409SOL    HW2 8127   1.315   3.446   0.438
 2410SOL     OW 8128   0.707   2.772   4.686
 2410SOL    HW1 8129   0.724   2.674   4.694
 2410SOL    HW2 8130   0.652   2.803   4.764
 2411SOL     OW 8131   3.292   2.388   0.238
 2411SOL    HW1 8132   3.285   2.380   0.337
 2411SOL    HW2 8133   3.286   2.297   0.196
 2412SOL     OW 8134   3.708   2.118   6.375
 2412SOL    HW1 8135   3.704   2.171   6.290
 2412SOL    HW2 8136   3.627   2.138   6.430
 2413SOL     OW 8137   0.412   3.545   0.014
 2413SOL    HW1 8138   0.400   3.576   6.941
 2413SOL    HW2 8139   0.372   3.454   0.025
 2414SOL     OW 8140   5.952   2.050   4.915
 2414SOL    HW1 8141   5.958   2.007   4.825
 2414SOL    HW2 8142   5.975   1.983   4.985
 2415SOL     OW 8143   2.682   5.570   6.746
 2415SOL    HW1 8144   2.689   5.531   6.654
 2415SOL    HW2 8145   2.668   5.668   6.739
 2416SOL     OW 8146   0.259   3.260   2.244
 2416SOL    HW1 8147   0.288   3.268   2.339
 2416SOL    HW2 8148   0.211   3.174   2.231
 2417SOL     OW 8149   3.018   2.601   1.752
 2417SOL    HW1 8150   3.085   2.673   1.767
 2417SOL    HW2 8151   3.015   2.541   1.832
 2418SOL     OW 8152   4.693   4.132   6.718
 2418SOL    HW1 8153   4.758   4.107   6.646
 2418SOL    HW2 8154   4.739   4.127   6.807
 2419SOL     OW 8155   3.141   6.858   3.167
 2419SOL    HW1 8156   3.056   6.839   3.118
 2419SOL    HW2 8157   3.131   6.943   3.220
 2420SOL     OW 8158   1.531   4.050   2.436
 2420SOL    HW1 8159   1.529   4.042   2.336
 2420SOL    HW2 8160   1.610   4.000   2.471
 2421SOL     OW 8161   3.116   6.727   3.499
 2421SOL    HW1 8162   3.106   6.709   3.401
 2421SOL    HW2 8163   3.032   6.703   3.546
 2422SOL     OW 8164   4.254   5.395   1.064
 2422SOL    HW1 8165   4.300   5.332   1.127
 2422SOL    HW2 8166   4.301   5.483   1.065
 2423SOL     OW 8167   2.460   5.733   2.768
 2423SOL    HW1 8168   2.540   5.701   2.717
 2423SOL    HW2 8169   2.475   5.827   2.798
 2424SOL     OW 8170   5.203   6.967   6.187
 2424SOL    HW1 8171   5.303   6.968   6.181
 2424SOL    HW2 8172   5.174   6.898   6.253
 2425SOL     OW 8173   5.399   5.536   4.897
 2425SOL    HW1 8174   5.300   5.546   4.896
 2425SOL    HW2 8175   5.430   5.502   4.808
 2426SOL     OW 8176   2.216   3.276   5.551
 2426SOL    HW1 8177   2.267   3.241   5.629
 2426SOL    HW2 8178   2.257   3.242   5.466
 2427SOL     OW 8179   5.562   0.438   0.069
 2427SOL    HW1 8180   5.584   0.514   0.008
 2427SOL    HW2 8181   5.513   0.473   0.149
 2428SOL     OW 8182   0.790   0.782   3.037
 2428SOL    HW1 8183   0.803   0.881   3.046
 2428SOL    HW2 8184   0.718   0.764   2.970
 2429SOL     OW 8185   5.490   4.672   1.291
 2429SOL    HW1 8186   5.483   4.763   1.251
 2429SOL    HW2 8187   5.404   4.648   1.336
 2430SOL     OW 8188   5.990   0.687   6.297
 2430SOL    HW1 8189   5.977   0.764   6.235
 2430SOL    HW2 8190   5.945   0.706   6.384
 2431SOL     OW 8191   0.591   2.983   2.049
 2431SOL    HW1 8192   0.526   3.018   1.982
 2431SOL    HW2 8193   0.571   3.022   2.139
 2432SOL     OW 8194   2.690   5.377   1.945
 2432SOL    HW1 8195   2.626   5.450   1.969
 2432SOL    HW2 8196   2.695   5.368   1.845
 2433SOL     OW 8197   6.880   4.078   5.392
 2433SOL    HW1 8198   6.976   4.107   5.386
 2433SOL    HW2 8199   6.875   3.983   5.422
 2434SOL     OW 8200   4.317   0.843   2.588
 2434SOL    HW1 8201   4.265   0.779   2.532
 2434SOL    HW2 8202   4.330   0.928   2.538
 2435SOL     OW 8203   6.280   6.778   0.034
 2435SOL    HW1 8204   6.373   6.748   0.056
 2435SOL    HW2 8205   6.219   6.698   0.034
 2436SOL     OW 8206   1.415   2.009   1.545
 2436SOL    HW1 8207   1.465   2.049   1.468
 2436SOL    HW2 8208   1.464   2.029   1.630
 2437SOL     OW 8209   0.319   4.183   2.758
 2437SOL    HW1 8210   0.229   4.169   2.717
 2437SOL    HW2 8211   0.308   4.200   2.856
 2438SOL     OW 8212   3.102   1.460   4.640
 2438SOL    HW1 8213   3.064   1.544   4.681
 2438SOL    HW2 8214   3.044   1.382   4.665
 2439SOL     OW 8215   1.776   6.314   1.041
 2439SOL    HW1 8216   1.696   6.281   0.992
 2439SOL    HW2 8217   1.856   6.311   0.980
 2440SOL     OW 8218   5.465   1.436   5.405
 2440SOL    HW1 8219   5.419   1.392   5.482
 2440SOL    HW2 8220   5.398   1.490   5.353
 2441SOL     OW 8221   6.067   0.264   0.456
 2441SOL    HW1 8222   6.121   0.293   0.535
 2441SOL    HW2 8223   5.970   0.259   0.482
 2442SOL     OW 8224   5.064   2.900   1.643
 2442SOL    HW1 8225   4.972   2.867   1.663
 2442SOL    HW2 8226   5.061   2.999   1.629
 2443SOL     OW 8227   1.021   3.194   1.959
 2443SOL    HW1 8228   0.991   3.223   2.050
 2443SOL    HW2 8229   1.106   3.243   1.936
 2444SOL     OW 8230   3.454   5.609   2.100
 2444SOL    HW1 8231   3.461   5.680   2.030
 2444SOL    HW2 8232   3.476   5.648   2.190
 2445SOL     OW 8233   0.647   2.820   1.165
 2445SOL    HW1 8234   0.657   2.811   1.264
 2445SOL    HW2 8235   0.733   2.793   1.121
 2446SOL     OW 8236   1.369   5.417   1.455
 2446SOL    HW1 8237   1.436   5.474   1.408
 2446SOL    HW2 8238   1.416   5.341   1.500
 2447SOL     OW 8239   2.489   6.810   7.008
 2447SOL    HW1 8240   2.459   6.774   6.920
 2447SOL    HW2 8241   2.438   6.894   0.007
 2448SOL     OW 8242   6.051   1.621   4.390
 2448SOL    HW1 8243   6.126   1.557   4.375
 2448SOL    HW2 8244   6.082   1.696   4.448
 2449SOL     OW 8245   1.592   4.147   1.788
 2449SOL    HW1 8246   1.670   4.207   1.808
 2449SOL    HW2 8247   1.620   4.052   1.797
 2450SOL     OW 8248   1.237   0.044   5.815
 2450SOL    HW1 8249   1.151   0.021   5.861
 2450SOL    HW2 8250   1.270   6.986   5.765
 2451SOL     OW 8251   0.639   6.281   4.663
 2451SOL    HW1 8252   0.731   6.288   4.700
 2451SOL    HW2 8253   0.633   6.199   4.605
 2452SOL     OW 8254   2.203   2.109   3.349
 2452SOL    HW1 8255   2.106   2.095   3.329
 2452SOL    HW2 8256   2.241   2.025   3.388
 2453SOL     OW 8257   0.318   0.828   6.293
 2453SOL    HW1 8258   0.392   0.790   6.237
 2453SOL    HW2 8259   0.355   0.865   6.378
 2454SOL     OW 8260   3.413   5.567   1.001
 2454SOL    HW1 8261   3.324   5.574   0.956
 2454SOL    HW2 8262   3.443   5.471   1.000
 2455SOL     OW 8263   4.199   2.638   0.653
 2455SOL    HW1 8264   4.211   2.605   0.560
 2455SOL    HW2 8265   4.103   2.656   0.670
 2456SOL     OW 8266   0.668   4.516   6.149
 2456SOL    HW1 8267   0.672   4.580   6.226
 2456SOL    HW2 8268   0.718   4.432   6.173
 2457SOL     OW 8269   4.666   2.139   5.164
 2457SOL    HW1 8270   4.738   2.180   5.107
 2457SOL    HW2 8271   4.679   2.168   5.259
 2458SOL     OW 8272   0.808   0.677   1.971
 2458SOL    HW1 8273   0.712   0.701   1.988
 2458SOL    HW2 8274   0.866   0.721   2.039
 2459SOL     OW 8275   2.640   0.367   0.540
 2459SOL    HW1 8276   2.646   0.429   0.618
 2459SOL    HW2 8277   2.545   0.358   0.511
 2460SOL     OW 8278   1.386   0.936   4.770
 2460SOL    HW1 8279   1.329   0.869   4.817
 2460SOL    HW2 8280   1.361   0.938   4.673
 2461SOL     OW 8281   4.693   6.936   3.259
 2461SOL    HW1 8282   4.709   0.013   3.254
 2461SOL    HW2 8283   4.661   6.903   3.170
 2462SOL     OW 8284   0.293   3.980   0.471
 2462SOL    HW1 8285   0.224   4.012   0.406
 2462SOL    HW2 8286   0.376   3.953   0.421
 2463SOL     OW 8287   6.836   0.529   0.154
 2463SOL    HW1 8288   6.840   0.556   0.250
 2463SOL    HW2 8289   6.747   0.490   0.133
 2464SOL     OW 8290   0.710   2.774   3.174
 2464SOL    HW1 8291   0.613   2.799   3.180
 2464SOL    HW2 8292   0.761   2.822   3.245
 2465SOL     OW 8293   0.081   5.971   5.484
 2465SOL    HW1 8294   0.159   5.934   5.433
 2465SOL    HW2 8295   7.021   5.920   5.462
 2466SOL     OW 8296   0.561   2.369   2.102
 2466SOL    HW1 8297   0.559   2.444   2.168
 2466SOL    HW2 8298   0.470   2.329   2.095
 2467SOL     OW 8299   6.017   1.876   5.102
 2467SOL    HW1 8300   5.985   1.862   5.195
 2467SOL    HW2 8301   5.964   1.820   5.039
 2468SOL     OW 8302   3.152   6.944   5.571
 2468SOL    HW1 8303   3.132   6.987   5.659
 2468SOL    HW2 8304   3.251   6.927   5.565
 2469SOL     OW 8305   3.551   2.556   5.818
 2469SOL    HW1 8306   3.491   2.624   5.861
 2469SOL    HW2 8307   3.529   2.549   5.721
 2470SOL     OW 8308   3.069   4.348   5.954
 2470SOL    HW1 8309   3.053   4.250   5.959
 2470SOL    HW2 8310   2.989   4.393   5.913
 2471SOL     OW 8311   3.239   5.753   1.751
 2471SOL    HW1 8312   3.231   5.657   1.725
 2471SOL    HW2 8313   3.334   5.773   1.777
 2472SOL     OW 8314   4.369   1.752   4.235
 2472SOL    HW1 8315   4.343   1.846   4.215
 2472SOL    HW2 8316   4.395   1.705   4.150
 2473SOL     OW 8317   0.554   4.342   5.003
 2473SOL    HW1 8318   0.557   4.308   4.909
 2473SOL    HW2 8319   0.492   4.420   5.008
 2474SOL     OW 8320   1.321   5.835   1.765
 2474SOL    HW1 8321   1.405   5.790   1.738
 2474SOL    HW2 8322   1.257   5.836   1.688
 2475SOL     OW 8323   4.904   0.990   0.783
 2475SOL    HW1 8324   4.971   0.926   0.821
 2475SOL    HW2 8325   4.817   0.943   0.770
 2476SOL     OW 8326   5.762   0.611   6.524
 2476SOL    HW1 8327   5.788   0.542   6.592
 2476SOL    HW2 8328   5.696   0.572   6.460
 2477SOL     OW 8329   3.784   0.318   3.333
 2477SOL    HW1 8330   3.866   0.353   3.287
 2477SOL    HW2 8331   3.783   0.350   3.428
 2478SOL     OW 8332   4.698   0.089   3.839
 2478SOL    HW1 8333   4.695   0.165   3.774
 2478SOL    HW2 8334   4.783   0.039   3.828
 2479SOL     OW 8335   0.151   3.748   6.972
 2479SOL    HW1 8336   0.242   3.766   7.010
 2479SOL    HW2 8337   0.142   3.650   6.952
 2480SOL     OW 8338   3.228   2.463   1.545
 2480SOL    HW1 8339   3.281   2.385   1.578
 2480SOL    HW2 8340   3.157   2.484   1.612
 2481SOL     OW 8341   3.458   0.022   0.961
 2481SOL    HW1 8342   3.432   0.057   1.051
 2481SOL    HW2 8343   3.472   6.945   0.967
 2482SOL     OW 8344   5.806   3.268   6.552
 2482SOL    HW1 8345   5.876   3.238   6.487
 2482SOL    HW2 8346   5.816   3.366   6.570
 2483SOL     OW 8347   1.015   2.425   0.755
 2483SOL    HW1 8348   1.073   2.486   0.809
 2483SOL    HW2 8349   0.926   2.414   0.801
 2484SOL     OW 8350   5.569   1.409   1.499
 2484SOL    HW1 8351   5.611   1.328   1.540
 2484SOL    HW2 8352   5.536   1.470   1.571
 2485SOL     OW 8353   6.107   2.113   6.170
 2485SOL    HW1 8354   6.023   2.164   6.155
 2485SOL    HW2 8355   6.085   2.022   6.206
 2486SOL     OW 8356   0.856   4.122   5.376
 2486SOL    HW1 8357   0.811   4.113   5.288
 2486SOL    HW2 8358   0.874   4.219   5.395
 2487SOL     OW 8359   4.525   5.919   0.285
 2487SOL    HW1 8360   4.589   5.843   0.295
 2487SOL    HW2 8361   4.528   5.976   0.367
 2488SOL     OW 8362   6.757   3.755   1.199
 2488SOL    HW1 8363   6.818   3.833   1.208
 2488SOL    HW2 8364   6.795   3.677   1.249
 2489SOL     OW 8365   0.312   6.775   4.388
 2489SOL    HW1 8366   0.388   6.782   4.453
 2489SOL    HW2 8367   0.342   6.805   4.298
 2490SOL     OW 8368   2.848   6.289   2.196
 2490SOL    HW1 8369   2.909   6.334   2.260
 2490SOL    HW2 8370   2.852   6.190   2.208
 2491SOL     OW 8371   3.964   4.699   1.415
 2491SOL    HW1 8372   4.010   4.769   1.470
 2491SOL    HW2 8373   3.995   4.705   1.320
 2492SOL     OW 8374   6.563   4.465   0.989
 2492SOL    HW1 8375   6.579   4.531   1.062
 2492SOL    HW2 8376   6.585   4.506   0.900
 2493SOL     OW 8377   6.749   6.349   1.603
 2493SOL    HW1 8378   6.737   6.296   1.687
 2493SOL    HW2 8379   6.675   6.326   1.539
 2494SOL     OW 8380   6.121   3.435   1.986
 2494SOL    HW1 8381   6.121   3.535   1.984
 2494SOL    HW2 8382   6.148   3.399   1.897
 2495SOL     OW 8383   6.644   4.787   3.884
 2495SOL    HW1 8384   6.709   4.711   3.886
 2495SOL    HW2 8385   6.580   4.775   3.809
 2496SOL     OW 8386   6.269   5.031   6.427
 2496SOL    HW1 8387   6.206   4.989   6.491
 2496SOL    HW2 8388   6.228   5.034   6.336
 2497SOL     OW 8389   0.467   0.029   1.871
 2497SOL    HW1 8390   0.503   0.083   1.795
 2497SOL    HW2 8391   0.434   0.090   1.943
 2498SOL     OW 8392   2.210   3.191   6.029
 2498SOL    HW1 8393   2.244   3.279   6.063
 2498SOL    HW2 8394   2.117   3.177   6.063
 2499SOL     OW 8395   6.570   3.574   1.148
 2499SOL    HW1 8396   6.650   3.633   1.159
 2499SOL    HW2 8397   6.516   3.575   1.233
 2500SOL     OW 8398   3.480   4.207   6.991
 2500SOL    HW1 8399   3.474   4.180   6.895
 2500SOL    HW2 8400   3.575   4.207   7.020
 2501SOL     OW 8401   6.164   5.546   0.562
 2501SOL    HW1 8402   6.174   5.464   0.506
 2501SOL    HW2 8403   6.167   5.520   0.659
 2502SOL     OW 8404   2.830   5.762   4.563
 2502SOL    HW1 8405   2.789   5.763   4.654
 2502SOL    HW2 8406   2.782   5.828   4.505
 2503SOL     OW 8407   2.561   6.799   5.688
 2503SOL    HW1 8408   2.617   6.860   5.632
 2503SOL    HW2 8409   2.468   6.795   5.651
 2504SOL     OW 8410   3.280   5.563   2.465
 2504SOL    HW1 8411   3.219   5.516   2.401
 2504SOL    HW2 8412   3.241   5.562   2.557
 2505SOL     OW 8413   0.187   6.016   2.830
 2505SOL    HW1 8414   0.128   6.015   2.912
 2505SOL    HW2 8415   0.236   5.929   2.823
 2506SOL     OW 8416   5.335   5.208   5.649
 2506SOL    HW1 8417   5.335   5.217   5.549
 2506SOL    HW2 8418   5.429   5.197   5.681
 2507SOL     OW 8419   0.141   3.412   0.578
 2507SOL    HW1 8420   0.127   3.329   0.631
 2507SOL    HW2 8421   0.061   3.471   0.586
 2508SOL     OW 8422   4.074   1.877   3.788
 2508SOL    HW1 8423   4.114   1.861   3.878
 2508SOL    HW2 8424   3.990   1.825   3.779
 2509SOL     OW 8425   6.937   3.682   5.738
 2509SOL    HW1 8426   7.005   3.659   5.668
 2509SOL    HW2 8427   6.896   3.597   5.773
 2510SOL     OW 8428   3.095   4.061   1.955
 2510SOL    HW1 8429   3.108   3.968   1.921
 2510SOL    HW2 8430   3.030   4.109   1.896
 2511SOL     OW 8431   2.099   0.921   5.139
 2511SOL    HW1 8432   2.160   0.917   5.060
 2511SOL    HW2 8433   2.154   0.920   5.223
 2512SOL     OW 8434   3.853   4.879   4.546
 2512SOL    HW1 8435   3.864   4.780   4.535
 2512SOL    HW2 8436   3.766   4.898   4.591
 2513SOL     OW 8437   2.381   6.220   6.096
 2513SOL    HW1 8438   2.382   6.218   6.196
 2513SOL    HW2 8439   2.287   6.208   6.063
 2514SOL     OW 8440   1.149   2.981   3.423
 2514SOL    HW1 8441   1.143   2.887   3.458
 2514SOL    HW2 8442   1.219   2.985   3.351
 2515SOL     OW 8443   1.770   1.478   1.367
 2515SOL    HW1 8444   1.864   1.444   1.375
 2515SOL    HW2 8445   1.707   1.401   1.360
 2516SOL     OW 8446   5.612   1.730   3.553
 2516SOL    HW1 8447   5.694   1.674   3.567
 2516SOL    HW2 8448   5.581   1.721   3.458
 2517SOL     OW 8449   1.012   0.685   4.308
 2517SOL    HW1 8450   0.944   0.748   4.270
 2517SOL    HW2 8451   0.971   0.595   4.319
 2518SOL     OW 8452   2.643   4.747   1.202
 2518SOL    HW1 8453   2.582   4.809   1.251
 2518SOL    HW2 8454   2.590   4.678   1.154
 2519SOL     OW 8455   2.027   1.150   0.720
 2519SOL    HW1 8456   2.008   1.234   0.669
 2519SOL    HW2 8457   2.112   1.161   0.772
 2520SOL     OW 8458   3.572   2.504   1.476
 2520SOL    HW1 8459   3.490   2.551   1.511
 2520SOL    HW2 8460   3.600   2.434   1.541
 2521SOL     OW 8461   4.557   1.373   5.043
 2521SOL    HW1 8462   4.617   1.405   5.116
 2521SOL    HW2 8463   4.522   1.451   4.991
 2522SOL     OW 8464   0.429   1.596   5.423
 2522SOL    HW1 8465   0.380   1.682   5.439
 2522SOL    HW2 8466   0.411   1.564   5.330
 2523SOL     OW 8467   2.182   4.704   6.941
 2523SOL    HW1 8468   2.126   4.707   0.003
 2523SOL    HW2 8469   2.152   4.628   6.884
 2524SOL     OW 8470   1.361   6.702   4.058
 2524SOL    HW1 8471   1.433   6.675   4.122
 2524SOL    HW2 8472   1.396   6.775   3.998
 2525SOL     OW 8473   0.308   2.646   4.428
 2525SOL    HW1 8474   0.319   2.741   4.400
 2525SOL    HW2 8475   0.394   2.612   4.467
 2526SOL     OW 8476   0.712   5.890   0.439
 2526SOL    HW1 8477   0.709   5.966   0.374
 2526SOL    HW2 8478   0.741   5.807   0.392
 2527SOL     OW 8479   5.038   5.101   6.658
 2527SOL    HW1 8480   5.077   5.110   6.566
 2527SOL    HW2 8481   5.111   5.111   6.726
 2528SOL     OW 8482   4.641   5.007   6.297
 2528SOL    HW1 8483   4.736   5.032   6.316
 2528SOL    HW2 8484   4.591   5.088   6.266
 2529SOL     OW 8485   0.272   6.787   6.005
 2529SOL    HW1 8486   0.339   6.798   5.931
 2529SOL    HW2 8487   0.216   6.869   6.011
 2530SOL     OW 8488   2.651   5.793   5.452
 2530SOL    HW1 8489   2.596   5.711   5.460
 2530SOL    HW2 8490   2.595   5.874   5.470
 2531SOL     OW 8491   6.460   5.608   5.894
 2531SOL    HW1 8492   6.534   5.643   5.951
 2531SOL    HW2 8493   6.379   5.591   5.950
 2532SOL     OW 8494   0.732   6.608   1.043
 2532SOL    HW1 8495   0.763   6.649   0.957
 2532SOL    HW2 8496   0.696   6.680   1.103
 2533SOL     OW 8497   5.354   0.563   3.066
 2533SOL    HW1 8498   5.425   0.494   3.067
 2533SOL    HW2 8499   5.328   0.586   3.160
 2534SOL     OW 8500   5.028   2.040   1.984
 2534SOL    HW1 8501   5.086   2.097   1.926
 2534SOL    HW2 8502   5.008   1.954   1.938
 2535SOL     OW 8503   3.524   2.899   6.135
 2535SOL    HW1 8504   3.465   2.888   6.055
 2535SOL    HW2 8505   3.613   2.933   6.106
 2536SOL     OW 8506   1.506   1.114   6.597
 2536SOL    HW1 8507   1.471   1.143   6.508
 2536SOL    HW2 8508   1.549   1.192   6.643
 2537SOL     OW 8509   4.251   1.151   0.190
 2537SOL    HW1 8510   4.196   1.209   0.129
 2537SOL    HW2 8511   4.323   1.106   0.138
 2538SOL     OW 8512   6.771   3.902   3.758
 2538SOL    HW1 8513   6.702   3.915   3.829
 2538SOL    HW2 8514   6.737   3.938   3.671
 2539SOL     OW 8515   5.699   1.380   4.442
 2539SOL    HW1 8516   5.658   1.337   4.523
 2539SOL    HW2 8517   5.673   1.328   4.360
 2540SOL     OW 8518   3.659   1.860   2.833
 2540SOL    HW1 8519   3.733   1.802   2.799
 2540SOL    HW2 8520   3.676   1.955   2.807
 2541SOL     OW 8521   3.222   6.837   5.339
 2541SOL    HW1 8522   3.162   6.881   5.406
 2541SOL    HW2 8523   3.296   6.791   5.386
 2542SOL     OW 8524   1.337   4.650   6.885
 2542SOL    HW1 8525   1.283   4.711   6.943
 2542SOL    HW2 8526   1.434   4.667   6.900
 2543SOL     OW 8527   0.988   2.161   4.528
 2543SOL    HW1 8528   1.052   2.099   4.574
 2543SOL    HW2 8529   0.914   2.108   4.488
 2544SOL     OW 8530   1.262   5.303   0.513
 2544SOL    HW1 8531   1.211   5.303   0.428
 2544SOL    HW2 8532   1.355   5.335   0.497
 2545SOL     OW 8533   1.923   6.378   3.078
 2545SOL    HW1 8534   1.836   6.329   3.065
 2545SOL    HW2 8535   1.938   6.440   3.001
 2546SOL     OW 8536   6.155   1.408   0.801
 2546SOL    HW1 8537   6.232   1.382   0.858
 2546SOL    HW2 8538   6.102   1.479   0.846
 2547SOL     OW 8539   6.794   3.863   5.555
 2547SOL    HW1 8540   6.856   3.792   5.591
 2547SOL    HW2 8541   6.733   3.822   5.486
 2548SOL     OW 8542   0.095   6.618   4.122
 2548SOL    HW1 8543   0.168   6.649   4.061
 2548SOL    HW2 8544   0.022   6.576   4.069
 2549SOL     OW 8545   0.533   0.536   1.728
 2549SOL    HW1 8546   0.510   0.520   1.632
 2549SOL    HW2 8547   0.469   0.487   1.787
 2550SOL     OW 8548   5.982   6.276   0.479
 2550SOL    HW1 8549   6.052   6.265   0.548
 2550SOL    HW2 8550   6.024   6.301   0.392
 2551SOL     OW 8551   2.189   4.220   6.797
 2551SOL    HW1 8552   2.258   4.148   6.800
 2551SOL    HW2 8553   2.226   4.299   6.748
 2552SOL     OW 8554   2.988   5.099   3.660
 2552SOL    HW1 8555   2.895   5.136   3.659
 2552SOL    HW2 8556   3.024   5.100   3.753
 2553SOL     OW 8557   4.394   3.514   5.942
 2553SOL    HW1 8558   4.374   3.482   5.849
 2553SOL    HW2 8559   4.455   3.450   5.987
 2554SOL     OW 8560   1.562   1.851   0.764
 2554SOL    HW1 8561   1.524   1.811   0.848
 2554SOL    HW2 8562   1.639   1.911   0.788
 2555SOL     OW 8563   5.119   2.553   5.188
 2555SOL    HW1 8564   5.052   2.543   5.262
 2555SOL    HW2 8565   5.126   2.467   5.138
 2556SOL     OW 8566   3.887   5.747   0.959
 2556SOL    HW1 8567   3.834   5.811   1.014
 2556SOL    HW2 8568   3.944   5.691   1.019
 2557SOL     OW 8569   2.203   4.244   6.163
 2557SOL    HW1 8570   2.107   4.229   6.187
 2557SOL    HW2 8571   2.218   4.214   6.069
 2558SOL     OW 8572   4.672   1.209   5.659
 2558SOL    HW1 8573   4.595   1.216   5.596
 2558SOL    HW2 8574   4.701   1.301   5.686
 2559SOL     OW 8575   0.470   5.254   5.554
 2559SOL    HW1 8576   0.503   5.290   5.467
 2559SOL    HW2 8577   0.545   5.211   5.603
 2560SOL     OW 8578   5.946   1.681   5.848
 2560SOL    HW1 8579   5.987   1.773   5.845
 2560SOL    HW2 8580   5.887   1.673   5.928
 2561SOL     OW 8581   2.645   5.456   4.834
 2561SOL    HW1 8582   2.616   5.453   4.930
 2561SOL    HW2 8583   2.723   5.394   4.821
 2562SOL     OW 8584   2.006   3.557   0.204
 2562SOL    HW1 8585   1.981   3.652   0.189
 2562SOL    HW2 8586   2.053   3.549   0.292
 2563SOL     OW 8587   2.326   1.403   0.104
 2563SOL    HW1 8588   2.312   1.316   0.057
 2563SOL    HW2 8589   2.241   1.454   0.108
 2564SOL     OW 8590   2.170   5.054   1.588
 2564SOL    HW1 8591   2.202   5.127   1.649
 2564SOL    HW2 8592   2.232   4.976   1.595
 2565SOL     OW 8593   1.268   0.802   1.523
 2565SOL    HW1 8594   1.263   0.741   1.602
 2565SOL    HW2 8595   1.352   0.855   1.528
 2566SOL     OW 8596   2.295   6.558   6.827
 2566SOL    HW1 8597   2.258   6.504   6.903
 2566SOL    HW2 8598   2.364   6.504   6.779
 2567SOL     OW 8599   1.966   6.687   0.516
 2567SOL    HW1 8600   1.916   6.644   0.592
 2567SOL    HW2 8601   1.920   6.666   0.430
 2568SOL     OW 8602   4.246   2.076   0.210
 2568SOL    HW1 8603   4.285   2.167   0.222
 2568SOL    HW2 8604   4.177   2.077   0.138
 2569SOL     OW 8605   3.740   0.352   3.595
 2569SOL    HW1 8606   3.696   0.442   3.598
 2569SOL    HW2 8607   3.671   0.281   3.609
 2570SOL     OW 8608   5.770   1.745   6.096
 2570SOL    HW1 8609   5.771   1.844   6.104
 2570SOL    HW2 8610   5.686   1.715   6.051
 2571SOL     OW 8611   1.586   4.752   3.708
 2571SOL    HW1 8612   1.505   4.806   3.731
 2571SOL    HW2 8613   1.602   4.683   3.778
 2572SOL     OW 8614   2.865   5.060   3.227
 2572SOL    HW1 8615   2.848   5.142   3.282
 2572SOL    HW2 8616   2.789   4.996   3.238
 2573SOL     OW 8617   0.005   0.682   1.346
 2573SOL    HW1 8618   6.951   0.739   1.312
 2573SOL    HW2 8619   0.091   0.717   1.309
 2574SOL     OW 8620   5.833   3.561   0.725
 2574SOL    HW1 8621   5.765   3.518   0.666
 2574SOL    HW2 8622   5.895   3.492   0.761
 2575SOL     OW 8623   6.916   5.880   6.710
 2575SOL    HW1 8624   6.851   5.954   6.697
 2575SOL    HW2 8625   7.005   5.918   6.736
 2576SOL     OW 8626   5.314   5.886   3.794
 2576SOL    HW1 8627   5.288   5.809   3.850
 2576SOL    HW2 8628   5.240   5.953   3.792
 2577SOL     OW 8629   2.788   4.743   2.399
 2577SOL    HW1 8630   2.803   4.742   2.300
 2577SOL    HW2 8631   2.877   4.743   2.446
 2578SOL     OW 8632   3.849   1.646   3.590
 2578SOL    HW1 8633   3.839   1.744   3.574
 2578SOL    HW2 8634   3.791   1.596   3.526
 2579SOL     OW 8635   0.513   6.889   3.568
 2579SOL    HW1 8636   0.498   6.875   3.666
 2579SOL    HW2 8637   0.437   6.943   3.530
 2580SOL     OW 8638   2.458   2.953   6.907
 2580SOL    HW1 8639   2.473   2.943   6.809
 2580SOL    HW2 8640   2.526   2.900   6.957
 2581SOL     OW 8641   2.553   0.160   5.665
 2581SOL    HW1 8642   2.537   0.198   5.756
 2581SOL    HW2 8643   2.474   0.178   5.607
 2582SOL     OW 8644   6.855   3.539   1.348
 2582SOL    HW1 8645   6.914   3.590   1.410
 2582SOL    HW2 8646   6.910   3.485   1.284
 2583SOL     OW 8647   6.134   6.642   1.054
 2583SOL    HW1 8648   6.121   6.702   1.132
 2583SOL    HW2 8649   6.074   6.671   0.979
 2584SOL     OW 8650   4.618   4.551   5.229
 2584SOL    HW1 8651   4.661   4.554   5.138
 2584SOL    HW2 8652   4.687   4.533   5.298
 2585SOL     OW 8653   3.164   5.231   6.624
 2585SOL    HW1 8654   3.122   5.142   6.608
 2585SOL    HW2 8655   3.164   5.251   6.722
 2586SOL     OW 8656   1.515   0.654   5.047
 2586SOL    HW1 8657   1.502   0.588   5.121
 2586SOL    HW2 8658   1.612   0.656   5.021
 2587SOL     OW 8659   6.736   1.817   3.162
 2587SOL    HW1 8660   6.689   1.730   3.150
 2587SOL    HW2 8661   6.785   1.816   3.249
 2588SOL     OW 8662   4.431   1.530   4.833
 2588SOL    HW1 8663   4.392   1.519   4.742
 2588SOL    HW2 8664   4.369   1.584   4.890
 2589SOL     OW 8665   1.434   6.965   0.323
 2589SOL    HW1 8666   1.529   6.940   0.310
 2589SOL    HW2 8667   1.376   6.884   0.314
 2590SOL     OW 8668   2.541   5.472   0.093
 2590SOL    HW1 8669   2.626   5.498   0.048
 2590SOL    HW2 8670   2.467   5.532   0.061
 2591SOL     OW 8671   5.967   5.265   4.453
 2591SOL    HW1 8672   5.961   5.221   4.364
 2591SOL    HW2 8673   5.935   5.203   4.525
 2592SOL     OW 8674   3.010   4.515   6.544
 2592SOL    HW1 8675   2.979   4.456   6.470
 2592SOL    HW2 8676   3.032   4.605   6.507
 2593SOL     OW 8677   2.608   4.651   0.855
 2593SOL    HW1 8678   2.572   4.744   0.848
 2593SOL    HW2 8679   2.570   4.607   0.936
 2594SOL     OW 8680   1.964   4.276   4.211
 2594SOL    HW1 8681   2.053   4.230   4.212
 2594SOL    HW2 8682   1.934   4.291   4.305
 2595SOL     OW 8683   1.870   0.373   3.614
 2595SOL    HW1 8684   1.773   0.392   3.634
 2595SOL    HW2 8685   1.882   0.276   3.596
 2596SOL     OW 8686   1.010   2.104   0.420
 2596SOL    HW1 8687   1.014   2.136   0.325
 2596SOL    HW2 8688   0.914   2.101   0.450
 2597SOL     OW 8689   0.490   6.120   6.314
 2597SOL    HW1 8690   0.513   6.171   6.397
 2597SOL    HW2 8691   0.445   6.035   6.339
 2598SOL     OW 8692   5.757   2.350   2.662
 2598SOL    HW1 8693   5.776   2.387   2.572
 2598SOL    HW2 8694   5.718   2.258   2.653
 2599SOL     OW 8695   2.824   0.164   2.272
 2599SOL    HW1 8696   2.868   0.074   2.271
 2599SOL    HW2 8697   2.783   0.182   2.183
 2600SOL     OW 8698   6.299   3.822   4.310
 2600SOL    HW1 8699   6.319   3.883   4.386
 2600SOL    HW2 8700   6.286   3.875   4.226
 2601SOL     OW 8701   0.793   2.090   2.862
 2601SOL    HW1 8702   0.873   2.033   2.842
 2601SOL    HW2 8703   0.710   2.035   2.854
 2602SOL     OW 8704   2.177   5.401   4.044
 2602SOL    HW1 8705   2.230   5.435   3.966
 2602SOL    HW2 8706   2.194   5.459   4.123
 2603SOL     OW 8707   3.028   0.838   2.916
 2603SOL    HW1 8708   3.117   0.883   2.926
 2603SOL    HW2 8709   3.038   0.756   2.860
 2604SOL     OW 8710   4.854   2.198   2.868
 2604SOL    HW1 8711   4.912   2.170   2.944
 2604SOL    HW2 8712   4.884   2.287   2.833
 2605SOL     OW 8713   1.211   3.768   2.022
 2605SOL    HW1 8714   1.125   3.808   2.057
 2605SOL    HW2 8715   1.191   3.710   1.943
 2606SOL     OW 8716   4.051   4.050   0.952
 2606SOL    HW1 8717   4.056   4.145   0.981
 2606SOL    HW2 8718   4.116   3.995   1.004
 2607SOL     OW 8719   2.646   2.082   1.103
 2607SOL    HW1 8720   2.723   2.029   1.069
 2607SOL    HW2 8721   2.563   2.055   1.055
 2608SOL     OW 8722   2.676   5.468   6.474
 2608SOL    HW1 8723   2.667   5.556   6.427
 2608SOL    HW2 8724   2.732   5.407   6.418
 2609SOL     OW 8725   6.998   0.453   1.164
 2609SOL    HW1 8726   7.010   0.532   1.224
 2609SOL    HW2 8727   6.901   0.437   1.149
 2610SOL     OW 8728   1.413   4.874   4.381
 2610SOL    HW1 8729   1.352   4.812   4.333
 2610SOL    HW2 8730   1.508   4.845   4.368
 2611SOL     OW 8731   5.008   6.525   6.363
 2611SOL    HW1 8732   4.995   6.432   6.327
 2611SOL    HW2 8733   4.928   6.551   6.418
 2612SOL     OW 8734   6.036   0.245   5.676
 2612SOL    HW1 8735   6.062   0.289   5.590
 2612SOL    HW2 8736   6.020   0.316   5.745
 2613SOL     OW 8737   1.300   5.681   6.872
 2613SOL    HW1 8738   1.248   5.731   6.802
 2613SOL    HW2 8739   1.394   5.714   6.874
 2614SOL     OW 8740   0.141   1.341   6.909
 2614SOL    HW1 8741   0.074   1.366   6.978
 2614SOL    HW2 8742   0.107   1.366   6.818
 2615SOL     OW 8743   0.967   2.916   0.035
 2615SOL    HW1 8744   1.018   2.997   0.008
 2615SOL    HW2 8745   0.942   2.923   0.132
 2616SOL     OW 8746   1.405   0.574   5.651
 2616SOL    HW1 8747   1.320   0.524   5.669
 2616SOL    HW2 8748   1.466   0.518   5.596
 2617SOL     OW 8749   5.327   0.189   0.816
 2617SOL    HW1 8750   5.370   0.107   0.855
 2617SOL    HW2 8751   5.230   0.190   0.839
 2618SOL     OW 8752   2.199   6.506   6.306
 2618SOL    HW1 8753   2.156   6.591   6.338
 2618SOL    HW2 8754   2.245   6.523   6.218
 2619SOL     OW 8755   4.830   1.156   2.525
 2619SOL    HW1 8756   4.898   1.221   2.559
 2619SOL    HW2 8757   4.869   1.105   2.448
 2620SOL     OW 8758   6.453   6.784   1.165
 2620SOL    HW1 8759   6.447   6.687   1.187
 2620SOL    HW2 8760   6.384   6.807   1.096
 2621SOL     OW 8761   1.949   5.870   2.231
 2621SOL    HW1 8762   1.932   5.965   2.258
 2621SOL    HW2 8763   1.931   5.810   2.309
 2622SOL     OW 8764   3.744   3.265   6.241
 2622SOL    HW1 8765   3.686   3.344   6.222
 2622SOL    HW2 8766   3.688   3.183   6.250
 2623SOL     OW 8767   0.766   6.834   3.623
 2623SOL    HW1 8768   0.781   6.891   3.704
 2623SOL    HW2 8769   0.680   6.862   3.579
 2624SOL     OW 8770   0.045   2.380   4.288
 2624SOL    HW1 8771   0.001   2.317   4.223
 2624SOL    HW2 8772   0.142   2.357   4.296
 2625SOL     OW 8773   1.557   5.255   5.593
 2625SOL    HW1 8774   1.482   5.236   5.657
 2625SOL    HW2 8775   1.644   5.243   5.641
 2626SOL     OW 8776   6.962   5.447   6.344
 2626SOL    HW1 8777   6.887   5.407   6.397
 2626SOL    HW2 8778   6.931   5.532   6.302
 2627SOL     OW 8779   1.586   6.753   5.731
 2627SOL    HW1 8780   1.642   6.835   5.716
 2627SOL    HW2 8781   1.631   6.674   5.690
 2628SOL     OW 8782   0.818   4.538   1.881
 2628SOL    HW1 8783   0.763   4.522   1.799
 2628SOL    HW2 8784   0.836   4.636   1.890
 2629SOL     OW 8785   3.030   3.935   3.564
 2629SOL    HW1 8786   3.103   3.890   3.512
 2629SOL    HW2 8787   2.950   3.875   3.567
 2630SOL     OW 8788   3.824   0.775   3.749
 2630SOL    HW1 8789   3.911   0.726   3.739
 2630SOL    HW2 8790   3.787   0.758   3.840
 2631SOL     OW 8791   5.926   0.740   0.708
 2631SOL    HW1 8792   5.985   0.701   0.637
 2631SOL    HW2 8793   5.948   0.837   0.720
 2632SOL     OW 8794   5.584   4.246   2.246
 2632SOL    HW1 8795   5.680   4.274   2.238
 2632SOL    HW2 8796   5.539   4.300   2.317
 2633SOL     OW 8797   0.244   2.913   6.024
 2633SOL    HW1 8798   0.202   2.883   6.109
 2633SOL    HW2 8799   0.179   2.970   5.973
 2634SOL     OW 8800   6.450   0.824   5.734
 2634SOL    HW1 8801   6.512   0.839   5.811
 2634SOL    HW2 8802   6.421   0.729   5.733
 2635SOL     OW 8803   5.447   5.109   3.750
 2635SOL    HW1 8804   5.452   5.123   3.849
 2635SOL    HW2 8805   5.535   5.135   3.709
 2636SOL     OW 8806   4.016   6.681   5.407
 2636SOL    HW1 8807   3.996   6.727   5.493
 2636SOL    HW2 8808   4.065   6.744   5.346
 2637SOL     OW 8809   1.100   1.764   3.257
 2637SOL    HW1 8810   1.091   1.861   3.238
 2637SOL    HW2 8811   1.076   1.711   3.175
 2638SOL     OW 8812   0.880   6.627   4.475
 2638SOL    HW1 8813   0.836   6.706   4.432
 2638SOL    HW2 8814   0.966   6.607   4.429
 2639SOL     OW 8815   4.251   4.761   5.306
 2639SOL    HW1 8816   4.157   4.730   5.293
 2639SOL    HW2 8817   4.263   4.794   5.399
 2640SOL     OW 8818   1.024   6.604   4.751
 2640SOL    HW1 8819   0.981   6.614   4.661
 2640SOL    HW2 8820   1.075   6.687   4.772
 2641SOL     OW 8821   5.590   2.978   6.558
 2641SOL    HW1 8822   5.655   3.034   6.507
 2641SOL    HW2 8823   5.510   2.961   6.502
 2642SOL     OW 8824   6.385   1.291   3.802
 2642SOL    HW1 8825   6.303   1.240   3.827
 2642SOL    HW2 8826   6.397   1.369   3.864
 2643SOL     OW 8827   2.021   4.631   3.365
 2643SOL    HW1 8828   2.056   4.545   3.327
 2643SOL    HW2 8829   1.928   4.646   3.333
 2644SOL     OW 8830   5.052   5.010   4.461
 2644SOL    HW1 8831   4.994   4.929   4.452
 2644SOL    HW2 8832   4.995   5.092   4.461
 2645SOL     OW 8833   5.069   5.474   2.640
 2645SOL    HW1 8834   5.035   5.416   2.567
 2645SOL    HW2 8835   4.997   5.488   2.708
 2646SOL     OW 8836   0.358   2.975   6.758
 2646SOL    HW1 8837   0.389   3.039   6.688
 2646SOL    HW2 8838   0.336   2.887   6.717
 2647SOL     OW 8839   5.142   0.814   1.669
 2647SOL    HW1 8840   5.178   0.897   1.710
 2647SOL    HW2 8841   5.055   0.790   1.712
 2648SOL     OW 8842   1.097   0.166   6.297
 2648SOL    HW1 8843   1.005   0.158   6.337
 2648SOL    HW2 8844   1.119   0.083   6.246
 2649SOL     OW 8845   5.221   2.172   1.853
 2649SOL    HW1 8846   5.271   2.183   1.939
 2649SOL    HW2 8847   5.205   2.261   1.812
 2650SOL     OW 8848   3.091   6.317   4.397
 2650SOL    HW1 8849   2.998   6.353   4.398
 2650SOL    HW2 8850   3.115   6.283   4.488
 2651SOL     OW 8851   4.041   2.202   4.627
 2651SOL    HW1 8852   4.117   2.236   4.683
 2651SOL    HW2 8853   3.956   2.207   4.679
 2652SOL     OW 8854   4.647   4.828   5.619
 2652SOL    HW1 8855   4.655   4.729   5.610
 2652SOL    HW2 8856   4.621   4.851   5.712
 2653SOL     OW 8857   2.615   5.801   0.150
 2653SOL    HW1 8858   2.668   5.847   0.222
 2653SOL    HW2 8859   2.673   5.734   0.105
 2654SOL     OW 8860   6.620   0.683   0.446
 2654SOL    HW1 8861   6.718   0.666   0.436
 2654SOL    HW2 8862   6.605   0.781   0.458
 2655SOL     OW 8863   4.921   6.124   2.438
 2655SOL    HW1 8864   5.002   6.068   2.456
 2655SOL    HW2 8865   4.933   6.214   2.478
 2656SOL     OW 8866   3.890   5.997   3.072
 2656SOL    HW1 8867   3.810   6.005   3.012
 2656SOL    HW2 8868   3.973   6.002   3.018
 2657SOL     OW 8869   1.471   4.053   0.071
 2657SOL    HW1 8870   1.471   3.954   0.056
 2657SOL    HW2 8871   1.481   4.071   0.169
 2658SOL     OW 8872   4.125   5.370   6.810
 2658SOL    HW1 8873   4.194   5.340   6.744
 2658SOL    HW2 8874   4.119   5.470   6.808
 2659SOL     OW 8875   0.007   2.197   4.543
 2659SOL    HW1 8876   6.976   2.123   4.502
 2659SOL    HW2 8877   7.016   2.281   4.490
 2660SOL     OW 8878   0.852   2.204   2.308
 2660SOL    HW1 8879   0.848   2.192   2.209
 2660SOL    HW2 8880   0.800   2.285   2.334
 2661SOL     OW 8881   1.604   0.963   0.641
 2661SOL    HW1 8882   1.689   1.013   0.623
 2661SOL    HW2 8883   1.596   0.886   0.579
 2662SOL     OW 8884   2.171   0.760   2.142
 2662SOL    HW1 8885   2.130   0.805   2.063
 2662SOL    HW2 8886   2.256   0.716   2.114
 2663SOL     OW 8887   4.328   6.446   0.717
 2663SOL    HW1 8888   4.425   6.473   0.711
 2663SOL    HW2 8889   4.273   6.505   0.659
 2664SOL     OW 8890   4.351   3.420   5.688
 2664SOL    HW1 8891   4.442   3.440   5.653
 2664SOL    HW2 8892   4.299   3.368   5.620
 2665SOL     OW 8893   2.019   3.916   4.468
 2665SOL    HW1 8894   1.950   3.886   4.402
 2665SOL    HW2 8895   2.011   3.862   4.552
 2666SOL     OW 8896   1.628   3.517   1.856
 2666SOL    HW1 8897   1.587   3.565   1.934
 2666SOL    HW2 8898   1.704   3.572   1.820
 2667SOL     OW 8899   6.574   3.517   4.617
 2667SOL    HW1 8900   6.651   3.459   4.646
 2667SOL    HW2 8901   6.607   3.611   4.605
 2668SOL     OW 8902   6.184   0.783   3.767
 2668SOL    HW1 8903   6.158   0.871   3.728
 2668SOL    HW2 8904   6.176   0.787   3.867
 2669SOL     OW 8905   2.611   0.440   0.057
 2669SOL    HW1 8906   2.651   0.430   0.148
 2669SOL    HW2 8907   2.671   0.398   7.011
 2670SOL     OW 8908   6.991   6.979   6.590
 2670SOL    HW1 8909   6.951   6.913   6.526
 2670SOL    HW2 8910   7.019   6.931   6.673
 2671SOL     OW 8911   4.882   4.565   6.201
 2671SOL    HW1 8912   4.815   4.497   6.232
 2671SOL    HW2 8913   4.969   4.551   6.249
 2672SOL     OW 8914   3.566   0.572   1.664
 2672SOL    HW1 8915   3.469   0.565   1.687
 2672SOL    HW2 8916   3.590   0.504   1.595
 2673SOL     OW 8917   4.310   0.306   2.780
 2673SOL    HW1 8918   4.394   0.359   2.766
 2673SOL    HW2 8919   4.280   0.314   2.875
 2674SOL     OW 8920   0.212   4.779   1.958
 2674SOL    HW1 8921   0.195   4.692   2.005
 2674SOL    HW2 8922   0.299   4.817   1.990
 2675SOL     OW 8923   5.567   6.918   4.177
 2675SOL    HW1 8924   5.651   6.868   4.195
 2675SOL    HW2 8925   5.580   7.015   4.200
 2676SOL     OW 8926   3.718   4.058   2.830
 2676SOL    HW1 8927   3.622   4.084   2.841
 2676SOL    HW2 8928   3.746   4.000   2.907
 2677SOL     OW 8929   2.433   4.791   1.419
 2677SOL    HW1 8930   2.378   4.795   1.335
 2677SOL    HW2 8931   2.372   4.794   1.498
 2678SOL     OW 8932   4.571   2.178   2.850
 2678SOL    HW1 8933   4.671   2.177   2.839
 2678SOL    HW2 8934   4.528   2.178   2.760
 2679SOL     OW 8935   2.189   4.019   3.074
 2679SOL    HW1 8936   2.259   4.090   3.062
 2679SOL    HW2 8937   2.103   4.051   3.033
 2680SOL     OW 8938   6.431   1.187   0.550
 2680SOL    HW1 8939   6.496   1.240   0.495
 2680SOL    HW2 8940   6.463   1.181   0.644
 2681SOL     OW 8941   1.885   1.948   4.976
 2681SOL    HW1 8942   1.905   1.876   4.909
 2681SOL    HW2 8943   1.902   2.038   4.936
 2682SOL     OW 8944   4.119   3.958   1.674
 2682SOL    HW1 8945   4.057   4.036   1.683
 2682SOL    HW2 8946   4.106   3.895   1.751
 2683SOL     OW 8947   2.483   4.648   2.152
 2683SOL    HW1 8948   2.481   4.569   2.214
 2683SOL    HW2 8949   2.427   4.721   2.191
 2684SOL     OW 8950   6.407   6.690   3.697
 2684SOL    HW1 8951   6.316   6.648   3.695
 2684SOL    HW2 8952   6.410   6.765   3.631
 2685SOL     OW 8953   1.457   5.732   5.942
 2685SOL    HW1 8954   1.518   5.659   5.912
 2685SOL    HW2 8955   1.367   5.694   5.963
 2686SOL     OW 8956   0.726   1.455   5.046
 2686SOL    HW1 8957   0.806   1.450   5.105
 2686SOL    HW2 8958   0.697   1.550   5.038
 2687SOL     OW 8959   3.946   1.831   1.556
 2687SOL    HW1 8960   3.864   1.788   1.592
 2687SOL    HW2 8961   3.982   1.777   1.479
 2688SOL     OW 8962   3.803   2.970   6.053
 2688SOL    HW1 8963   3.857   3.053   6.063
 2688SOL    HW2 8964   3.795   2.946   5.956
 2689SOL     OW 8965   0.823   3.835   3.341
 2689SOL    HW1 8966   0.848   3.853   3.246
 2689SOL    HW2 8967   0.902   3.854   3.400
 2690SOL     OW 8968   4.070   1.657   5.966
 2690SOL    HW1 8969   4.131   1.681   6.042
 2690SOL    HW2 8970   4.114   1.681   5.879
 2691SOL     OW 8971   6.811   4.195   3.853
 2691SOL    HW1 8972   6.846   4.114   3.805
 2691SOL    HW2 8973   6.849   4.277   3.810
 2692SOL     OW 8974   2.949   5.589   2.206
 2692SOL    HW1 8975   3.033   5.538   2.186
 2692SOL    HW2 8976   2.969   5.664   2.269
 2693SOL     OW 8977   2.030   5.578   2.996
 2693SOL    HW1 8978   2.016   5.667   3.040
 2693SOL    HW2 8979   2.008   5.586   2.898
 2694SOL     OW 8980   3.252   0.145   2.909
 2694SOL    HW1 8981   3.251   0.235   2.952
 2694SOL    HW2 8982   3.342   0.103   2.921
 2695SOL     OW 8983   0.090   5.674   2.978
 2695SOL    HW1 8984   0.180   5.713   2.997
 2695SOL    HW2 8985   0.022   5.716   3.038
 2696SOL     OW 8986   5.401   4.533   6.324
 2696SOL    HW1 8987   5.400   4.434   6.317
 2696SOL    HW2 8988   5.423   4.573   6.235
 2697SOL     OW 8989   4.296   2.375   6.969
 2697SOL    HW1 8990   4.393   2.354   6.985
 2697SOL    HW2 8991   4.258   2.420   0.028
 2698SOL     OW 8992   1.703   4.297   6.159
 2698SOL    HW1 8993   1.648   4.338   6.233
 2698SOL    HW2 8994   1.687   4.198   6.158
 2699SOL     OW 8995   2.954   6.552   2.062
 2699SOL    HW1 8996   2.904   6.621   2.009
 2699SOL    HW2 8997   2.895   6.472   2.075
 2700SOL     OW 8998   3.739   1.675   1.904
 2700SOL    HW1 8999   3.733   1.769   1.936
 2700SOL    HW2 9000   3.741   1.674   1.804
 2701SOL     OW 9001   5.229   2.830   5.004
 2701SOL    HW1 9002   5.282   2.869   4.929
 2701SOL    HW2 9003   5.224   2.731   4.993
 2702SOL     OW 9004   2.611   0.974   4.820
 2702SOL    HW1 9005   2.657   1.022   4.894
 2702SOL    HW2 9006   2.666   0.981   4.736
 2703SOL     OW 9007   1.441   6.555   2.746
 2703SOL    HW1 9008   1.354   6.535   2.791
 2703SOL    HW2 9009   1.432   6.534   2.648
 2704SOL     OW 9010   5.077   0.306   4.160
 2704SOL    HW1 9011   5.143   0.243   4.202
 2704SOL    HW2 9012   5.088   0.304   4.060
 2705SOL     OW 9013   7.015   0.487   5.373
 2705SOL    HW1 9014   0.036   0.576   5.389
 2705SOL    HW2 9015   0.052   0.415   5.410
 2706SOL     OW 9016   0.036   3.571   3.415
 2706SOL    HW1 9017   6.968   3.591   3.454
 2706SOL    HW2 9018   0.073   3.654   3.373
 2707SOL     OW 9019   4.013   0.842   3.066
 2707SOL    HW1 9020   3.942   0.902   3.029
 2707SOL    HW2 9021   4.011   0.754   3.018
 2708SOL     OW 9022   6.163   3.166   6.668
 2708SOL    HW1 9023   6.091   3.130   6.728
 2708SOL    HW2 9024   6.129   3.173   6.575
 2709SOL     OW 9025   4.834   1.310   4.788
 2709SOL    HW1 9026   4.737   1.303   4.767
 2709SOL    HW2 9027   4.849   1.384   4.853
 2710SOL     OW 9028   1.181   2.746   4.226
 2710SOL    HW1 9029   1.132   2.788   4.150
 2710SOL    HW2 9030   1.278   2.772   4.222
 2711SOL     OW 9031   3.356   1.379   1.781
 2711SOL    HW1 9032   3.382   1.472   1.806
 2711SOL    HW2 9033   3.438   1.321   1.780
 2712SOL     OW 9034   3.828   5.648   1.934
 2712SOL    HW1 9035   3.809   5.634   1.837
 2712SOL    HW2 9036   3.818   5.745   1.956
 2713SOL     OW 9037   3.910   4.804   6.384
 2713SOL    HW1 9038   3.855   4.887   6.387
 2713SOL    HW2 9039   3.853   4.726   6.357
 2714SOL     OW 9040   2.526   4.754   6.217
 2714SOL    HW1 9041   2.479   4.839   6.193
 2714SOL    HW2 9042   2.460   4.679   6.221
 2715SOL     OW 9043   4.113   1.034   6.842
 2715SOL    HW1 9044   4.101   0.983   6.928
 2715SOL    HW2 9045   4.180   0.988   6.785
 2716SOL     OW 9046   3.494   1.331   3.159
 2716SOL    HW1 9047   3.487   1.296   3.253
 2716SOL    HW2 9048   3.571   1.394   3.153
 2717SOL     OW 9049   0.875   1.037   2.763
 2717SOL    HW1 9050   0.799   0.973   2.774
 2717SOL    HW2 9051   0.960   0.993   2.790
 2718SOL     OW 9052   6.882   0.808   5.597
 2718SOL    HW1 9053   6.877   0.862   5.513
 2718SOL    HW2 9054   6.857   0.866   5.675
 2719SOL     OW 9055   2.052   4.328   2.097
 2719SOL    HW1 9056   2.119   4.285   2.156
 2719SOL    HW2 9057   2.019   4.262   2.030
 2720SOL     OW 9058   2.644   6.774   6.728
 2720SOL    HW1 9059   2.653   6.745   6.632
 2720SOL    HW2 9060   2.708   6.723   6.785
 2721SOL     OW 9061   3.225   5.992   1.586
 2721SOL    HW1 9062   3.143   6.050   1.586
 2721SOL    HW2 9063   3.208   5.910   1.641
 2722SOL     OW 9064   4.177   6.626   0.546
 2722SOL    HW1 9065   4.106   6.667   0.603
 2722SOL    HW2 9066   4.186   6.678   0.461
 2723SOL     OW 9067   3.437   6.186   6.313
 2723SOL    HW1 9068   3.459   6.113   6.378
 2723SOL    HW2 9069   3.485   6.168   6.226
 2724SOL     OW 9070   0.958   6.430   0.906
 2724SOL    HW1 9071   0.953   6.490   0.826
 2724SOL    HW2 9072   1.024   6.466   0.971
 2725SOL     OW 9073   6.127   4.067   5.070
 2725SOL    HW1 9074   6.065   4.145   5.061
 2725SOL    HW2 9075   6.076   3.988   5.105
 2726SOL     OW 9076   6.804   2.015   2.064
 2726SOL    HW1 9077   6.829   2.047   2.155
 2726SOL    HW2 9078   6.716   2.054   2.037
 2727SOL     OW 9079   2.112   5.048   3.830
 2727SOL    HW1 9080   2.119   5.099   3.915
 2727SOL    HW2 9081   2.108   4.950   3.850
 2728SOL     OW 9082   5.085   5.079   5.791
 2728SOL    HW1 9083   5.014   5.131   5.744
 2728SOL    HW2 9084   5.176   5.110   5.761
 2729SOL     OW 9085   5.291   6.556   6.289
 2729SOL    HW1 9086   5.352   6.549   6.368
 2729SOL    HW2 9087   5.197   6.535   6.318
 2730SOL     OW 9088   0.898   6.373   1.938
 2730SOL    HW1 9089   0.903   6.320   2.023
 2730SOL    HW2 9090   0.803   6.376   1.906
 2731SOL     OW 9091   3.577   3.667   3.994
 2731SOL    HW1 9092   3.487   3.696   3.962
 2731SOL    HW2 9093   3.590   3.695   4.089
 2732SOL     OW 9094   5.828   0.849   1.802
 2732SOL    HW1 9095   5.876   0.876   1.719
 2732SOL    HW2 9096   5.729   0.861   1.789
 2733SOL     OW 9097   1.308   6.615   6.974
 2733SOL    HW1 9098   1.340   6.522   6.958
 2733SOL    HW2 9099   1.386   6.675   6.991
 2734SOL     OW 9100   3.580   6.183   1.805
 2734SOL    HW1 9101   3.513   6.234   1.751
 2734SOL    HW2 9102   3.664   6.170   1.752
 2735SOL     OW 9103   1.048   1.559   1.833
 2735SOL    HW1 9104   1.147   1.570   1.845
 2735SOL    HW2 9105   1.021   1.598   1.745
 2736SOL     OW 9106   5.577   4.479   3.018
 2736SOL    HW1 9107   5.497   4.438   2.975
 2736SOL    HW2 9108   5.584   4.447   3.113
 2737SOL     OW 9109   2.235   1.437   5.469
 2737SOL    HW1 9110   2.304   1.471   5.534
 2737SOL    HW2 9111   2.273   1.437   5.377
 2738SOL     OW 9112   5.331   6.648   1.940
 2738SOL    HW1 9113   5.270   6.659   1.862
 2738SOL    HW2 9114   5.360   6.738   1.972
 2739SOL     OW 9115   6.641   5.731   1.561
 2739SOL    HW1 9116   6.733   5.729   1.522
 2739SOL    HW2 9117   6.635   5.807   1.627
 2740SOL     OW 9118   6.627   5.658   3.720
 2740SOL    HW1 9119   6.613   5.675   3.622
 2740SOL    HW2 9120   6.628   5.559   3.736
 2741SOL     OW 9121   1.191   1.393   5.235
 2741SOL    HW1 9122   1.236   1.407   5.323
 2741SOL    HW2 9123   1.235   1.450   5.166
 2742SOL     OW 9124   3.250   5.690   1.428
 2742SOL    HW1 9125   3.181   5.762   1.426
 2742SOL    HW2 9126   3.210   5.606   1.464
 2743SOL     OW 9127   5.552   3.365   2.905
 2743SOL    HW1 9128   5.473   3.391   2.961
 2743SOL    HW2 9129   5.550   3.266   2.889
 2744SOL     OW 9130   3.224   3.702   2.973
 2744SOL    HW1 9131   3.208   3.801   2.969
 2744SOL    HW2 9132   3.213   3.663   2.882
 2745SOL     OW 9133   0.704   6.847   6.934
 2745SOL    HW1 9134   0.689   6.930   6.879
 2745SOL    HW2 9135   0.702   6.870   0.009
 2746SOL     OW 9136   1.844   1.230   3.413
 2746SOL    HW1 9137   1.865   1.316   3.367
 2746SOL    HW2 9138   1.751   1.202   3.391
 2747SOL     OW 9139   3.750   5.274   0.624
 2747SOL    HW1 9140   3.830   5.319   0.584
 2747SOL    HW2 9141   3.772   5.178   0.645
 2748SOL     OW 9142   4.446   6.607   1.301
 2748SOL    HW1 9143   4.528   6.661   1.288
 2748SOL    HW2 9144   4.417   6.612   1.397
 2749SOL     OW 9145   3.180   3.231   0.163
 2749SOL    HW1 9146   3.224   3.199   0.079
 2749SOL    HW2 9147   3.218   3.182   0.242
 2750SOL     OW 9148   2.410   6.058   2.063
 2750SOL    HW1 9149   2.360   6.004   2.130
 2750SOL    HW2 9150   2.411   6.010   1.975
 2751SOL     OW 9151   5.969   3.783   0.600
 2751SOL    HW1 9152   5.896   3.828   0.548
 2751SOL    HW2 9153   5.930   3.711   0.658
 2752SOL     OW 9154   3.933   5.208   6.959
 2752SOL    HW1 9155   4.014   5.265   6.945
 2752SOL    HW2 9156   3.957   5.112   6.944
 2753SOL     OW 9157   6.319   6.073   5.374
 2753SOL    HW1 9158   6.312   6.173   5.365
 2753SOL    HW2 9159   6.317   6.032   5.283
 2754SOL     OW 9160   0.903   0.022   6.065
 2754SOL    HW1 9161   0.986   7.004   6.104
 2754SOL    HW2 9162   0.829   6.977   6.068
 2755SOL     OW 9163   2.579   0.515   2.461
 2755SOL    HW1 9164   2.513   0.478   2.396
 2755SOL    HW2 9165   2.672   0.487   2.434
 2756SOL     OW 9166   4.521   6.034   0.551
 2756SOL    HW1 9167   4.618   6.045   0.572
 2756SOL    HW2 9168   4.482   5.963   0.609
 2757SOL     OW 9169   0.689   5.247   1.148
 2757SOL    HW1 9170   0.731   5.234   1.058
 2757SOL    HW2 9171   0.702   5.342   1.178
 2758SOL     OW 9172   4.567   0.752   5.537
 2758SOL    HW1 9173   4.522   0.817   5.597
 2758SOL    HW2 9174   4.656   0.789   5.509
 2759SOL     OW 9175   5.878   5.813   4.804
 2759SOL    HW1 9176   5.974   5.836   4.821
 2759SOL    HW2 9177   5.819   5.876   4.856
 2760SOL     OW 9178   2.725   5.478   3.105
 2760SOL    HW1 9179   2.719   5.397   3.163
 2760SOL    HW2 9180   2.690   5.456   3.014
 2761SOL     OW 9181   2.275   5.868   3.205
 2761SOL    HW1 9182   2.369   5.902   3.204
 2761SOL    HW2 9183   2.274   5.773   3.235
 2762SOL     OW 9184   0.500   6.647   5.055
 2762SOL    HW1 9185   0.458   6.717   5.114
 2762SOL    HW2 9186   0.588   6.679   5.022
 2763SOL     OW 9187   5.840   1.667   2.393
 2763SOL    HW1 9188   5.743   1.662   2.420
 2763SOL    HW2 9189   5.882   1.748   2.434
 2764SOL     OW 9190   6.345   1.193   2.229
 2764SOL    HW1 9191   6.306   1.203   2.321
 2764SOL    HW2 9192   6.445   1.202   2.235
 2765SOL     OW 9193   6.049   1.244   1.700
 2765SOL    HW1 9194   6.053   1.217   1.797
 2765SOL    HW2 9195   6.014   1.337   1.692
 2766SOL     OW 9196   6.065   0.748   2.424
 2766SOL    HW1 9197   6.162   0.744   2.399
 2766SOL    HW2 9198   6.016   0.676   2.375
 2767SOL     OW 9199   5.737   4.234   6.211
 2767SOL    HW1 9200   5.786   4.210   6.295
 2767SOL    HW2 9201   5.644   4.261   6.234
 2768SOL     OW 9202   5.687   1.034   6.713
 2768SOL    HW1 9203   5.654   1.128   6.724
 2768SOL    HW2 9204   5.727   1.002   6.798
 2769SOL     OW 9205   0.581   3.690   1.547
 2769SOL    HW1 9206   0.568   3.788   1.566
 2769SOL    HW2 9207   0.527   3.636   1.611
 2770SOL     OW 9208   0.501   5.588   1.555
 2770SOL    HW1 9209   0.572   5.558   1.618
 2770SOL    HW2 9210   0.431   5.639   1.604
 2771SOL     OW 9211   4.668   1.135   1.617
 2771SOL    HW1 9212   4.757   1.089   1.619
 2771SOL    HW2 9213   4.636   1.142   1.523
 2772SOL     OW 9214   3.110   2.477   6.320
 2772SOL    HW1 9215   3.121   2.513   6.227
 2772SOL    HW2 9216   3.164   2.393   6.329
 2773SOL     OW 9217   4.043   4.045   6.598
 2773SOL    HW1 9218   3.959   3.990   6.596
 2773SOL    HW2 9219   4.019   4.141   6.608
 2774SOL     OW 9220   5.732   3.622   2.501
 2774SOL    HW1 9221   5.828   3.603   2.518
 2774SOL    HW2 9222   5.678   3.540   2.517
 2775SOL     OW 9223   7.012   6.214   1.603
 2775SOL    HW1 9224   0.006   6.140   1.668
 2775SOL    HW2 9225   6.914   6.237   1.602
 2776SOL     OW 9226   2.823   6.334   6.124
 2776SOL    HW1 9227   2.741   6.309   6.072
 2776SOL    HW2 9228   2.814   6.300   6.218
 2777SOL     OW 9229   3.317   1.357   2.762
 2777SOL    HW1 9230   3.305   1.422   2.687
 2777SOL    HW2 9231   3.326   1.406   2.848
 2778SOL     OW 9232   2.157   2.148   5.678
 2778SOL    HW1 9233   2.198   2.108   5.760
 2778SOL    HW2 9234   2.228   2.182   5.618
 2779SOL     OW 9235   5.628   0.677   6.929
 2779SOL    HW1 9236   5.583   0.737   6.862
 2779SOL    HW2 9237   5.671   0.733   7.000
 2780SOL     OW 9238   4.800   5.221   6.747
 2780SOL    HW1 9239   4.739   5.254   6.676
 2780SOL    HW2 9240   4.868   5.159   6.708
 2781SOL     OW 9241   5.376   4.616   0.623
 2781SOL    HW1 9242   5.412   4.694   0.675
 2781SOL    HW2 9243   5.446   4.584   0.559
 2782SOL     OW 9244   2.499   2.490   5.852
 2782SOL    HW1 9245   2.462   2.510   5.761
 2782SOL    HW2 9246   2.559   2.565   5.880
 2783SOL     OW 9247   0.051   4.866   5.305
 2783SOL    HW1 9248   7.005   4.896   5.238
 2783SOL    HW2 9249   0.136   4.841   5.258
 2784SOL     OW 9250   1.825   1.609   1.635
 2784SOL    HW1 9251   1.808   1.579   1.541
 2784SOL    HW2 9252   1.747   1.585   1.692
 2785SOL     OW 9253   6.565   0.736   0.987
 2785SOL    HW1 9254   6.508   0.782   0.918
 2785SOL    HW2 9255   6.525   0.749   1.077
 2786SOL     OW 9256   4.172   6.549   1.206
 2786SOL    HW1 9257   4.270   6.567   1.220
 2786SOL    HW2 9258   4.119   6.606   1.269
 2787SOL     OW 9259   2.465   2.994   5.570
 2787SOL    HW1 9260   2.524   2.931   5.520
 2787SOL    HW2 9261   2.427   3.062   5.507
 2788SOL     OW 9262   1.144   3.685   0.450
 2788SOL    HW1 9263   1.216   3.736   0.403
 2788SOL    HW2 9264   1.156   3.587   0.432
 2789SOL     OW 9265   0.494   2.337   4.074
 2789SOL    HW1 9266   0.581   2.310   4.116
 2789SOL    HW2 9267   0.434   2.374   4.145
 2790SOL     OW 9268   3.913   5.738   2.928
 2790SOL    HW1 9269   3.959   5.685   3.000
 2790SOL    HW2 9270   3.814   5.732   2.941
 2791SOL     OW 9271   1.709   3.453   4.701
 2791SOL    HW1 9272   1.652   3.395   4.758
 2791SOL    HW2 9273   1.708   3.419   4.607
 2792SOL     OW 9274   0.903   2.043   5.324
 2792SOL    HW1 9275   0.836   2.009   5.390
 2792SOL    HW2 9276   0.971   2.099   5.371
 2793SOL     OW 9277   4.663   1.187   3.657
 2793SOL    HW1 9278   4.664   1.091   3.687
 2793SOL    HW2 9279   4.755   1.214   3.631
 2794SOL     OW 9280   0.842   0.703   0.974
 2794SOL    HW1 9281   0.857   0.610   0.939
 2794SOL    HW2 9282   0.881   0.711   1.066
 2795SOL     OW 9283   2.671   3.987   1.142
 2795SOL    HW1 9284   2.762   4.000   1.104
 2795SOL    HW2 9285   2.631   3.902   1.106
 2796SOL     OW 9286   5.445   3.977   2.533
 2796SOL    HW1 9287   5.419   3.891   2.488
 2796SOL    HW2 9288   5.544   3.985   2.536
 2797SOL     OW 9289   4.891   4.845   4.824
 2797SOL    HW1 9290   4.989   4.837   4.837
 2797SOL    HW2 9291   4.866   4.811   4.733
 2798SOL     OW 9292   0.871   3.657   4.125
 2798SOL    HW1 9293   0.924   3.578   4.096
 2798SOL    HW2 9294   0.841   3.708   4.044
 2799SOL     OW 9295   6.509   4.683   5.920
 2799SOL    HW1 9296   6.506   4.765   5.976
 2799SOL    HW2 9297   6.595   4.681   5.868
 2800SOL     OW 9298   3.186   4.499   6.789
 2800SOL    HW1 9299   3.176   4.451   6.876
 2800SOL    HW2 9300   3.097   4.506   6.744
 2801SOL     OW 9301   5.665   5.623   1.920
 2801SOL    HW1 9302   5.748   5.595   1.872
 2801SOL    HW2 9303   5.624   5.544   1.965
 2802SOL     OW 9304   4.503   1.684   6.023
 2802SOL    HW1 9305   4.436   1.693   6.096
 2802SOL    HW2 9306   4.467   1.624   5.952
 2803SOL     OW 9307   3.159   6.301   6.565
 2803SOL    HW1 9308   3.176   6.289   6.467
 2803SOL    HW2 9309   3.188   6.392   6.593
 2804SOL     OW 9310   6.933   4.247   3.286
 2804SOL    HW1 9311   6.938   4.151   3.314
 2804SOL    HW2 9312   7.021   4.275   3.247
 2805SOL     OW 9313   5.691   3.343   0.293
 2805SOL    HW1 9314   5.602   3.312   0.262
 2805SOL    HW2 9315   5.753   3.351   0.215
 2806SOL     OW 9316   6.344   5.486   3.162
 2806SOL    HW1 9317   6.396   5.513   3.243
 2806SOL    HW2 9318   6.407   5.467   3.087
 2807SOL     OW 9319   4.518   4.981   3.231
 2807SOL    HW1 9320   4.612   5.014   3.226
 2807SOL    HW2 9321   4.514   4.886   3.201
 2808SOL     OW 9322   5.548   0.746   4.156
 2808SOL    HW1 9323   5.456   0.743   4.118
 2808SOL    HW2 9324   5.552   0.689   4.239
 2809SOL     OW 9325   5.159   2.401   1.095
 2809SOL    HW1 9326   5.168   2.309   1.134
 2809SOL    HW2 9327   5.072   2.408   1.046
 2810SOL     OW 9328   2.174   6.776   5.187
 2810SOL    HW1 9329   2.082   6.814   5.175
 2810SOL    HW2 9330   2.232   6.805   5.111
 2811SOL     OW 9331   6.866   1.843   3.415
 2811SOL    HW1 9332   6.936   1.779   3.445
 2811SOL    HW2 9333   6.909   1.931   3.393
 2812SOL     OW 9334   4.885   3.775   2.272
 2812SOL    HW1 9335   4.822   3.832   2.219
 2812SOL    HW2 9336   4.883   3.804   2.368
 2813SOL     OW 9337   5.943   0.796   6.622
 2813SOL    HW1 9338   5.940   0.771   6.718
 2813SOL    HW2 9339   5.866   0.753   6.574
 2814SOL     OW 9340   4.700   3.900   5.435
 2814SOL    HW1 9341   4.649   3.852   5.507
 2814SOL    HW2 9342   4.733   3.987   5.471
 2815SOL     OW 9343   0.227   1.143   5.157
 2815SOL    HW1 9344   0.196   1.059   5.112
 2815SOL    HW2 9345   0.158   1.214   5.147
 2816SOL     OW 9346   5.393   6.549   3.563
 2816SOL    HW1 9347   5.448   6.501   3.494
 2816SOL    HW2 9348   5.298   6.556   3.530
 2817SOL     OW 9349   0.984   1.678   1.582
 2817SOL    HW1 9350   0.899   1.706   1.539
 2817SOL    HW2 9351   1.041   1.759   1.600
 2818SOL     OW 9352   6.902   4.563   5.299
 2818SOL    HW1 9353   6.846   4.517   5.231
 2818SOL    HW2 9354   6.951   4.639   5.256
 2819SOL     OW 9355   0.259   2.854   1.429
 2819SOL    HW1 9356   0.354   2.882   1.442
 2819SOL    HW2 9357   0.234   2.864   1.333
 2820SOL     OW 9358   6.822   3.147   3.877
 2820SOL    HW1 9359   6.919   3.171   3.879
 2820SOL    HW2 9360   6.804   3.076   3.945
 2821SOL     OW 9361   1.388   4.061   4.619
 2821SOL    HW1 9362   1.416   4.097   4.530
 2821SOL    HW2 9363   1.411   3.964   4.623
 2822SOL     OW 9364   4.823   1.994   6.902
 2822SOL    HW1 9365   4.765   2.034   6.974
 2822SOL    HW2 9366   4.865   2.068   6.849
 2823SOL     OW 9367   1.917   6.386   3.332
 2823SOL    HW1 9368   1.907   6.382   3.233
 2823SOL    HW2 9369   1.862   6.462   3.367
 2824SOL     OW 9370   2.944   1.540   5.327
 2824SOL    HW1 9371   2.972   1.616   5.270
 2824SOL    HW2 9372   2.989   1.546   5.416
 2825SOL     OW 9373   6.451   6.119   1.460
 2825SOL    HW1 9374   6.533   6.154   1.416
 2825SOL    HW2 9375   6.421   6.182   1.531
 2826SOL     OW 9376   4.642   1.614   4.562
 2826SOL    HW1 9377   4.574   1.687   4.562
 2826SOL    HW2 9378   4.733   1.654   4.560
 2827SOL     OW 9379   5.594   1.007   5.148
 2827SOL    HW1 9380   5.599   1.105   5.164
 2827SOL    HW2 9381   5.506   0.972   5.180
 2828SOL     OW 9382   3.948   1.323   5.466
 2828SOL    HW1 9383   3.963   1.410   5.418
 2828SOL    HW2 9384   3.857   1.322   5.506
 2829SOL     OW 9385   2.484   6.958   6.157
 2829SOL    HW1 9386   2.551   6.966   6.231
 2829SOL    HW2 9387   2.527   6.917   6.077
 2830SOL     OW 9388   4.277   3.300   6.838
 2830SOL    HW1 9389   4.277   3.389   6.883
 2830SOL    HW2 9390   4.349   3.243   6.878
 2831SOL     OW 9391   5.670   6.130   4.415
 2831SOL    HW1 9392   5.686   6.223   4.383
 2831SOL    HW2 9393   5.573   6.107   4.403
 2832SOL     OW 9394   0.403   1.047   2.330
 2832SOL    HW1 9395   0.325   1.077   2.384
 2832SOL    HW2 9396   0.476   1.017   2.392
 2833SOL     OW 9397   6.183   2.949   2.095
 2833SOL    HW1 9398   6.100   3.003   2.107
 2833SOL    HW2 9399   6.161   2.852   2.098
 2834SOL     OW 9400   4.056   1.383   5.117
 2834SOL    HW1 9401   3.979   1.320   5.111
 2834SOL    HW2 9402   4.132   1.338   5.162
 2835SOL     OW 9403   0.187   6.741   2.434
 2835SOL    HW1 9404   0.187   6.761   2.532
 2835SOL    HW2 9405   0.243   6.660   2.416
 2836SOL     OW 9406   6.665   0.594   1.389
 2836SOL    HW1 9407   6.640   0.581   1.485
 2836SOL    HW2 9408   6.650   0.690   1.363
 2837SOL     OW 9409   4.979   4.151   3.982
 2837SOL    HW1 9410   5.077   4.151   3.960
 2837SOL    HW2 9411   4.956   4.235   4.031
 2838SOL     OW 9412   3.134   4.854   2.851
 2838SOL    HW1 9413   3.186   4.857   2.765
 2838SOL    HW2 9414   3.187   4.899   2.923
 2839SOL     OW 9415   5.505   2.181   1.473
 2839SOL    HW1 9416   5.420   2.128   1.468
 2839SOL    HW2 9417   5.577   2.125   1.513
 2840SOL     OW 9418   6.504   1.463   5.372
 2840SOL    HW1 9419   6.479   1.519   5.293
 2840SOL    HW2 9420   6.547   1.378   5.340
 2841SOL     OW 9421   0.770   6.203   1.150
 2841SOL    HW1 9422   0.708   6.281   1.161
 2841SOL    HW2 9423   0.809   6.204   1.058
 2842SOL     OW 9424   0.004   3.711   3.044
 2842SOL    HW1 9425   0.046   3.708   3.135
 2842SOL    HW2 9426   6.935   3.669   3.047
 2843SOL     OW 9427   3.996   0.901   4.072
 2843SOL    HW1 9428   4.021   0.985   4.025
 2843SOL    HW2 9429   3.974   0.921   4.168
 2844SOL     OW 9430   0.561   3.915   6.524
 2844SOL    HW1 9431   0.579   3.825   6.483
 2844SOL    HW2 9432   0.579   3.911   6.622
 2845SOL     OW 9433   6.998   4.749   5.755
 2845SOL    HW1 9434   7.004   4.658   5.714
 2845SOL    HW2 9435   0.066   4.793   5.752
 2846SOL     OW 9436   4.822   1.905   6.413
 2846SOL    HW1 9437   4.751   1.969   6.384
 2846SOL    HW2 9438   4.883   1.950   6.478
 2847SOL     OW 9439   5.830   4.488   4.333
 2847SOL    HW1 9440   5.821   4.587   4.322
 2847SOL    HW2 9441   5.894   4.468   4.407
 2848SOL     OW 9442   1.355   5.150   4.410
 2848SOL    HW1 9443   1.375   5.055   4.387
 2848SOL    HW2 9444   1.312   5.154   4.500
 2849SOL     OW 9445   2.836   2.019   1.363
 2849SOL    HW1 9446   2.849   2.071   1.279
 2849SOL    HW2 9447   2.897   1.940   1.364
 2850SOL     OW 9448   3.870   0.895   0.374
 2850SOL    HW1 9449   3.834   0.905   0.282
 2850SOL    HW2 9450   3.809   0.938   0.440
 2851SOL     OW 9451   1.180   4.322   5.527
 2851SOL    HW1 9452   1.148   4.258   5.596
 2851SOL    HW2 9453   1.188   4.413   5.567
 2852SOL     OW 9454   6.941   3.300   6.727
 2852SOL    HW1 9455   6.871   3.293   6.798
 2852SOL    HW2 9456   6.898   3.296   6.637
 2853SOL     OW 9457   3.566   3.524   0.814
 2853SOL    HW1 9458   3.499   3.539   0.741
 2853SOL    HW2 9459   3.552   3.593   0.885
 2854SOL     OW 9460   2.618   1.027   3.763
 2854SOL    HW1 9461   2.588   1.023   3.667
 2854SOL    HW2 9462   2.636   0.934   3.796
 2855SOL     OW 9463   1.833   0.818   5.135
 2855SOL    HW1 9464   1.759   0.882   5.154
 2855SOL    HW2 9465   1.921   0.865   5.140
 2856SOL     OW 9466   2.398   2.777   5.249
 2856SOL    HW1 9467   2.476   2.736   5.297
 2856SOL    HW2 9468   2.432   2.837   5.177
 2857SOL     OW 9469   3.291   3.221   2.008
 2857SOL    HW1 9470   3.362   3.200   2.074
 2857SOL    HW2 9471   3.204   3.180   2.038
 2858SOL     OW 9472   6.851   3.745   2.533
 2858SOL    HW1 9473   6.915   3.668   2.530
 2858SOL    HW2 9474   6.845   3.779   2.627
 2859SOL     OW 9475   5.639   0.259   0.983
 2859SOL    HW1 9476   5.735   0.256   0.957
 2859SOL    HW2 9477   5.622   0.341   1.038
 2860SOL     OW 9478   4.054   1.486   2.093
 2860SOL    HW1 9479   3.975   1.502   2.153
 2860SOL    HW2 9480   4.028   1.421   2.021
 2861SOL     OW 9481   3.709   5.539   5.706
 2861SOL    HW1 9482   3.636   5.604   5.726
 2861SOL    HW2 9483   3.687   5.450   5.745
 2862SOL     OW 9484   6.072   1.021   4.024
 2862SOL    HW1 9485   6.114   0.931   4.042
 2862SOL    HW2 9486   5.976   1.018   4.052
 2863SOL     OW 9487   6.854   1.914   6.829
 2863SOL    HW1 9488   6.850   1.987   6.896
 2863SOL    HW2 9489   6.938   1.861   6.842
 2864SOL     OW 9490   3.795   1.233   0.471
 2864SOL    HW1 9491   3.880   1.191   0.502
 2864SOL    HW2 9492   3.782   1.215   0.374
 2865SOL     OW 9493   4.993   4.474   5.020
 2865SOL    HW1 9494   4.933   4.554   5.018
 2865SOL    HW2 9495   4.952   4.400   4.966
 2866SOL     OW 9496   0.528   6.295   6.515
 2866SOL    HW1 9497   0.593   6.234   6.561
 2866SOL    HW2 9498   0.565   6.388   6.514
 2867SOL     OW 9499   6.479   4.217   3.773
 2867SOL    HW1 9500   6.538   4.248   3.698
 2867SOL    HW2 9501   6.437   4.296   3.816
 2868SOL     OW 9502   1.498   3.952   5.242
 2868SOL    HW1 9503   1.501   4.003   5.157
 2868SOL    HW2 9504   1.590   3.919   5.264
 2869SOL     OW 9505   6.150   0.889   1.972
 2869SOL    HW1 9506   6.206   0.835   2.035
 2869SOL    HW2 9507   6.108   0.828   1.904
 2870SOL     OW 9508   5.632   2.118   2.988
 2870SOL    HW1 9509   5.584   2.172   3.057
 2870SOL    HW2 9510   5.722   2.091   3.023
 2871SOL     OW 9511   1.646   2.127   5.996
 2871SOL    HW1 9512   1.642   2.075   5.911
 2871SOL    HW2 9513   1.738   2.164   6.008
 2872SOL     OW 9514   2.549   0.543   3.594
 2872SOL    HW1 9515   2.600   0.552   3.509
 2872SOL    HW2 9516   2.506   0.453   3.597
 2873SOL     OW 9517   0.631   5.750   2.113
 2873SOL    HW1 9518   0.710   5.696   2.084
 2873SOL    HW2 9519   0.556   5.738   2.048
 2874SOL     OW 9520   6.038   2.608   2.576
 2874SOL    HW1 9521   6.011   2.621   2.480
 2874SOL    HW2 9522   5.963   2.636   2.636
 2875SOL     OW 9523   3.536   5.475   6.553
 2875SOL    HW1 9524   3.528   5.379   6.580
 2875SOL    HW2 9525   3.522   5.533   6.634
 2876SOL     OW 9526   0.155   1.017   1.667
 2876SOL    HW1 9527   0.164   1.104   1.716
 2876SOL    HW2 9528   0.230   1.008   1.601
 2877SOL     OW 9529   3.244   2.774   5.536
 2877SOL    HW1 9530   3.265   2.765   5.439
 2877SOL    HW2 9531   3.327   2.755   5.590
 2878SOL     OW 9532   2.574   4.472   5.387
 2878SOL    HW1 9533   2.633   4.403   5.344
 2878SOL    HW2 9534   2.478   4.449   5.371
 2879SOL     OW 9535   4.996   4.414   0.500
 2879SOL    HW1 9536   4.901   4.403   0.472
 2879SOL    HW2 9537   5.002   4.411   0.600
 2880SOL     OW 9538   1.307   6.250   1.595
 2880SOL    HW1 9539   1.211   6.239   1.620
 2880SOL    HW2 9540   1.313   6.304   1.510
 2881SOL     OW 9541   6.908   6.363   0.561
 2881SOL    HW1 9542   6.883   6.456   0.537
 2881SOL    HW2 9543   6.919   6.309   0.477
 2882SOL     OW 9544   0.374   3.028   3.489
 2882SOL    HW1 9545   0.421   3.107   3.448
 2882SOL    HW2 9546   0.396   3.024   3.586
 2883SOL     OW 9547   3.697   0.219   2.138
 2883SOL    HW1 9548   3.708   0.317   2.121
 2883SOL    HW2 9549   3.761   0.190   2.208
 2884SOL     OW 9550   0.755   5.743   3.461
 2884SOL    HW1 9551   0.757   5.839   3.431
 2884SOL    HW2 9552   0.807   5.734   3.546
 2885SOL     OW 9553   1.072   2.714   3.145
 2885SOL    HW1 9554   0.992   2.679   3.096
 2885SOL    HW2 9555   1.067   2.814   3.148
 2886SOL     OW 9556   2.459   2.081   6.324
 2886SOL    HW1 9557   2.557   2.060   6.319
 2886SOL    HW2 9558   2.446   2.179   6.314
 2887SOL     OW 9559   1.419   0.439   4.817
 2887SOL    HW1 9560   1.355   0.480   4.882
 2887SOL    HW2 9561   1.509   0.479   4.829
 2888SOL     OW 9562   5.935   4.911   6.952
 2888SOL    HW1 9563   5.959   4.969   6.874
 2888SOL    HW2 9564   5.860   4.953   7.002
 2889SOL     OW 9565   0.276   0.184   1.534
 2889SOL    HW1 9566   0.256   0.259   1.470
 2889SOL    HW2 9567   0.204   0.178   1.603
 2890SOL     OW 9568   4.039   0.652   2.029
 2890SOL    HW1 9569   4.015   0.712   1.952
 2890SOL    HW2 9570   4.062   0.709   2.108
 2891SOL     OW 9571   2.582   4.608   3.942
 2891SOL    HW1 9572   2.513   4.542   3.912
 2891SOL    HW2 9573   2.608   4.589   4.036
 2892SOL     OW 9574   4.447   3.704   6.364
 2892SOL    HW1 9575   4.456   3.633   6.434
 2892SOL    HW2 9576   4.427   3.662   6.276
 2893SOL     OW 9577   2.343   0.294   4.962
 2893SOL    HW1 9578   2.284   0.305   5.042
 2893SOL    HW2 9579   2.325   0.369   4.897
 2894SOL     OW 9580   3.515   2.641   0.242
 2894SOL    HW1 9581   3.454   2.562   0.236
 2894SOL    HW2 9582   3.555   2.659   0.152
 2895SOL     OW 9583   3.681   3.529   6.349
 2895SOL    HW1 9584   3.726   3.614   6.375
 2895SOL    HW2 9585   3.730   3.452   6.388
 2896SOL     OW 9586   2.259   4.972   0.961
 2896SOL    HW1 9587   2.350   4.967   0.921
 2896SOL    HW2 9588   2.190   4.967   0.889
 2897SOL     OW 9589   2.243   6.078   3.940
 2897SOL    HW1 9590   2.185   6.086   3.859
 2897SOL    HW2 9591   2.224   5.992   3.986
 2898SOL     OW 9592   3.750   5.297   1.755
 2898SOL    HW1 9593   3.767   5.248   1.841
 2898SOL    HW2 9594   3.652   5.300   1.738
 2899SOL     OW 9595   6.625   0.106   0.208
 2899SOL    HW1 9596   6.622   0.205   0.195
 2899SOL    HW2 9597   6.559   0.063   0.147
 2900SOL     OW 9598   1.277   5.012   6.014
 2900SOL    HW1 9599   1.352   4.949   6.035
 2900SOL    HW2 9600   1.310   5.106   6.020
 2901SOL     OW 9601   2.945   0.470   1.812
 2901SOL    HW1 9602   2.854   0.485   1.851
 2901SOL    HW2 9603   2.942   0.396   1.745
 2902SOL     OW 9604   5.413   6.147   1.023
 2902SOL    HW1 9605   5.467   6.093   0.958
 2902SOL    HW2 9606   5.442   6.127   1.116
 2903SOL     OW 9607   2.433   1.129   1.988
 2903SOL    HW1 9608   2.478   1.196   1.930
 2903SOL    HW2 9609   2.421   1.043   1.938
 2904SOL     OW 9610   2.178   2.679   5.082
 2904SOL    HW1 9611   2.174   2.779   5.080
 2904SOL    HW2 9612   2.262   2.650   5.128
 2905SOL     OW 9613   1.632   1.903   1.880
 2905SOL    HW1 9614   1.651   1.881   1.975
 2905SOL    HW2 9615   1.588   1.992   1.874
 2906SOL     OW 9616   5.626   5.429   2.149
 2906SOL    HW1 9617   5.526   5.422   2.149
 2906SOL    HW2 9618   5.664   5.369   2.079
 2907SOL     OW 9619   6.867   1.672   4.362
 2907SOL    HW1 9620   6.962   1.642   4.364
 2907SOL    HW2 9621   6.807   1.594   4.381
 2908SOL     OW 9622   3.489   6.068   4.326
 2908SOL    HW1 9623   3.516   6.079   4.231
 2908SOL    HW2 9624   3.547   5.999   4.370
 2909SOL     OW 9625   1.210   5.530   4.466
 2909SOL    HW1 9626   1.310   5.540   4.470
 2909SOL    HW2 9627   1.188   5.442   4.424
 2910SOL     OW 9628   4.420   6.265   6.153
 2910SOL    HW1 9629   4.366   6.349   6.158
 2910SOL    HW2 9630   4.468   6.251   6.240
 2911SOL     OW 9631   1.766   4.731   3.292
 2911SOL    HW1 9632   1.721   4.770   3.211
 2911SOL    HW2 9633   1.698   4.715   3.363
 2912SOL     OW 9634   2.714   6.228   0.399
 2912SOL    HW1 9635   2.629   6.268   0.366
 2912SOL    HW2 9636   2.792   6.269   0.351
 2913SOL     OW 9637   1.754   3.531   2.560
 2913SOL    HW1 9638   1.663   3.519   2.520
 2913SOL    HW2 9639   1.814   3.576   2.493
 2914SOL     OW 9640   5.152   5.712   5.858
 2914SOL    HW1 9641   5.198   5.624   5.844
 2914SOL    HW2 9642   5.107   5.739   5.773
 2915SOL     OW 9643   4.539   1.874   3.586
 2915SOL    HW1 9644   4.480   1.881   3.506
 2915SOL    HW2 9645   4.547   1.964   3.630
 2916SOL     OW 9646   5.750   5.768   5.166
 2916SOL    HW1 9647   5.670   5.718   5.200
 2916SOL    HW2 9648   5.789   5.822   5.240
 2917SOL     OW 9649   4.621   0.447   2.064
 2917SOL    HW1 9650   4.606   0.355   2.030
 2917SOL    HW2 9651   4.629   0.511   1.988
 2918SOL     OW 9652   0.426   3.767   3.791
 2918SOL    HW1 9653   0.339   3.756   3.744
 2918SOL    HW2 9654   0.498   3.716   3.743
 2919SOL     OW 9655   6.002   5.892   0.526
 2919SOL    HW1 9656   5.924   5.953   0.514
 2919SOL    HW2 9657   5.973   5.808   0.572
 2920SOL     OW 9658   4.191   2.309   2.760
 2920SOL    HW1 9659   4.108   2.365   2.752
 2920SOL    HW2 9660   4.253   2.350   2.827
 2921SOL     OW 9661   0.085   0.855   2.507
 2921SOL    HW1 9662   0.052   0.928   2.447
 2921SOL    HW2 9663   0.007   0.814   2.555
 2922SOL     OW 9664   4.436   0.143   5.344
 2922SOL    HW1 9665   4.482   0.158   5.257
 2922SOL    HW2 9666   4.393   0.052   5.344
 2923SOL     OW 9667   6.297   4.733   2.194
 2923SOL    HW1 9668   6.201   4.746   2.167
 2923SOL    HW2 9669   6.304   4.738   2.293
 2924SOL     OW 9670   0.313   1.570   5.138
 2924SOL    HW1 9671   0.350   1.661   5.117
 2924SOL    HW2 9672   0.371   1.500   5.098
 2925SOL     OW 9673   5.376   3.103   1.676
 2925SOL    HW1 9674   5.346   3.013   1.706
 2925SOL    HW2 9675   5.395   3.161   1.755
 2926SOL     OW 9676   6.845   2.023   4.803
 2926SOL    HW1 9677   6.839   1.945   4.740
 2926SOL    HW2 9678   6.935   2.024   4.847
 2927SOL     OW 9679   0.900   2.702   2.527
 2927SOL    HW1 9680   0.950   2.640   2.467
 2927SOL    HW2 9681   0.813   2.726   2.485
 2928SOL     OW 9682   5.763   0.043   0.708
 2928SOL    HW1 9683   5.684   7.009   0.681
 2928SOL    HW2 9684   5.768   0.047   0.807
 2929SOL     OW 9685   0.069   6.998   5.904
 2929SOL    HW1 9686   7.021   6.928   5.919
 2929SOL    HW2 9687   0.061   0.012   5.811
 2930SOL     OW 9688   4.037   6.671   4.321
 2930SOL    HW1 9689   4.086   6.741   4.268
 2930SOL    HW2 9690   3.945   6.704   4.342
 2931SOL     OW 9691   4.237   6.869   6.509
 2931SOL    HW1 9692   4.267   6.962   6.487
 2931SOL    HW2 9693   4.287   6.837   6.589
 2932SOL     OW 9694   1.133   3.770   1.061
 2932SOL    HW1 9695   1.194   3.848   1.070
 2932SOL    HW2 9696   1.059   3.777   1.128
 2933SOL     OW 9697   5.214   2.125   3.438
 2933SOL    HW1 9698   5.215   2.224   3.450
 2933SOL    HW2 9699   5.171   2.082   3.517
 2934SOL     OW 9700   2.524   0.696   0.057
 2934SOL    HW1 9701   2.608   0.748   0.039
 2934SOL    HW2 9702   2.539   0.600   0.035
 2935SOL     OW 9703   5.906   2.545   1.304
 2935SOL    HW1 9704   5.871   2.624   1.355
 2935SOL    HW2 9705   5.913   2.569   1.207
 2936SOL     OW 9706   4.804   5.903   0.048
 2936SOL    HW1 9707   4.719   5.910   7.018
 2936SOL    HW2 9708   4.785   5.863   0.138
 2937SOL     OW 9709   3.337   5.605   6.821
 2937SOL    HW1 9710   3.343   5.701   6.848
 2937SOL    HW2 9711   3.429   5.568   6.807
 2938SOL     OW 9712   4.773   5.789   5.222
 2938SOL    HW1 9713   4.751   5.773   5.319
 2938SOL    HW2 9714   4.801   5.884   5.210
 2939SOL     OW 9715   6.528   6.511   5.578
 2939SOL    HW1 9716   6.528   6.419   5.616
 2939SOL    HW2 9717   6.479   6.573   5.641
 2940SOL     OW 9718   4.857   6.911   5.203
 2940SOL    HW1 9719   4.944   6.939   5.242
 2940SOL    HW2 9720   4.821   6.983   5.144
 2941SOL     OW 9721   1.395   1.847   5.487
 2941SOL    HW1 9722   1.460   1.912   5.446
 2941SOL    HW2 9723   1.384   1.868   5.584
 2942SOL     OW 9724   3.310   6.396   2.573
 2942SOL    HW1 9725   3.243   6.403   2.647
 2942SOL    HW2 9726   3.363   6.480   2.567
 2943SOL     OW 9727   6.092   3.932   3.437
 2943SOL    HW1 9728   6.173   3.874   3.434
 2943SOL    HW2 9729   6.011   3.880   3.410
 2944SOL     OW 9730   4.201   5.756   5.411
 2944SOL    HW1 9731   4.213   5.772   5.313
 2944SOL    HW2 9732   4.210   5.659   5.430
 2945SOL     OW 9733   3.190   3.320   3.421
 2945SOL    HW1 9734   3.265   3.307   3.356
 2945SOL    HW2 9735   3.125   3.385   3.384
 2946SOL     OW 9736   0.111   6.109   6.462
 2946SOL    HW1 9737   0.117   6.189   6.521
 2946SOL    HW2 9738   0.022   6.065   6.474
 2947SOL     OW 9739   6.426   4.478   0.361
 2947SOL    HW1 9740   6.411   4.493   0.264
 2947SOL    HW2 9741   6.523   4.481   0.381
 2948SOL     OW 9742   5.752   4.044   4.421
 2948SOL    HW1 9743   5.720   4.130   4.462
 2948SOL    HW2 9744   5.675   3.994   4.383
 2949SOL     OW 9745   1.123   6.692   0.591
 2949SOL    HW1 9746   1.027   6.665   0.594
 2949SOL    HW2 9747   1.158   6.680   0.498
 2950SOL     OW 9748   5.207   3.311   4.193
 2950SOL    HW1 9749   5.259   3.345   4.115
 2950SOL    HW2 9750   5.254   3.335   4.278
 2951SOL     OW 9751   0.698   1.554   1.487
 2951SOL    HW1 9752   0.724   1.477   1.545
 2951SOL    HW2 9753   0.764   1.562   1.411
 2952SOL     OW 9754   1.775   3.956   2.556
 2952SOL    HW1 9755   1.793   3.877   2.614
 2952SOL    HW2 9756   1.763   4.037   2.613
 2953SOL     OW 9757   4.522   2.503   2.067
 2953SOL    HW1 9758   4.621   2.499   2.061
 2953SOL    HW2 9759   4.495   2.573   2.133
 2954SOL     OW 9760   6.580   6.830   3.046
 2954SOL    HW1 9761   6.567   6.731   3.042
 2954SOL    HW2 9762   6.661   6.851   3.100
 2955SOL     OW 9763   0.597   2.811   0.542
 2955SOL    HW1 9764   0.652   2.888   0.508
 2955SOL    HW2 9765   0.554   2.837   0.629
 2956SOL     OW 9766   6.831   4.949   2.803
 2956SOL    HW1 9767   6.814   5.039   2.762
 2956SOL    HW2 9768   6.882   4.960   2.888
 2957SOL     OW 9769   0.806   3.662   1.974
 2957SOL    HW1 9770   0.788   3.577   2.023
 2957SOL    HW2 9771   0.857   3.642   1.890
 2958SOL     OW 9772   1.746   4.665   6.171
 2958SOL    HW1 9773   1.769   4.630   6.261
 2958SOL    HW2 9774   1.652   4.700   6.171
 2959SOL     OW 9775   4.467   5.723   6.607
 2959SOL    HW1 9776   4.508   5.646   6.655
 2959SOL    HW2 9777   4.369   5.709   6.599
 2960SOL     OW 9778   1.811   1.311   0.144
 2960SOL    HW1 9779   1.781   1.246   0.074
 2960SOL    HW2 9780   1.732   1.343   0.196
 2961SOL     OW 9781   5.478   3.804   3.931
 2961SOL    HW1 9782   5.400   3.806   3.869
 2961SOL    HW2 9783   5.528   3.719   3.918
 2962SOL     OW 9784   4.465   0.630   3.449
 2962SOL    HW1 9785   4.500   0.597   3.362
 2962SOL    HW2 9786   4.415   0.557   3.495
 2963SOL     OW 9787   2.093   1.705   5.222
 2963SOL    HW1 9788   1.997   1.692   5.249
 2963SOL    HW2 9789   2.126   1.793   5.255
 2964SOL     OW 9790   3.148   6.133   0.529
 2964SOL    HW1 9791   3.137   6.038   0.558
 2964SOL    HW2 9792   3.192   6.185   0.602
 2965SOL     OW 9793   0.180   1.637   6.162
 2965SOL    HW1 9794   0.144   1.731   6.161
 2965SOL    HW2 9795   0.272   1.636   6.123
 2966SOL     OW 9796   5.114   4.652   4.195
 2966SOL    HW1 9797   5.173   4.613   4.265
 2966SOL    HW2 9798   5.093   4.747   4.219
 2967SOL     OW 9799   6.182   2.889   3.970
 2967SOL    HW1 9800   6.281   2.875   3.965
 2967SOL    HW2 9801   6.136   2.800   3.966
 2968SOL     OW 9802   0.551   4.044   3.675
 2968SOL    HW1 9803   0.624   3.999   3.726
 2968SOL    HW2 9804   0.471   3.984   3.671
 2969SOL     OW 9805   4.841   2.209   4.658
 2969SOL    HW1 9806   4.912   2.176   4.596
 2969SOL    HW2 9807   4.764   2.145   4.656
 2970SOL     OW 9808   0.828   4.340   6.292
 2970SOL    HW1 9809   0.816   4.283   6.373
 2970SOL    HW2 9810   0.897   4.410   6.310
 2971SOL     OW 9811   5.279   2.085   2.944
 2971SOL    HW1 9812   5.263   2.144   2.865
 2971SOL    HW2 9813   5.221   2.004   2.937
 2972SOL     OW 9814   6.717   3.541   5.617
 2972SOL    HW1 9815   6.622   3.533   5.586
 2972SOL    HW2 9816   6.766   3.456   5.597
 2973SOL     OW 9817   4.807   6.154   4.004
 2973SOL    HW1 9818   4.842   6.243   4.034
 2973SOL    HW2 9819   4.729   6.168   3.943
 2974SOL     OW 9820   6.779   4.323   2.920
 2974SOL    HW1 9821   6.740   4.358   3.005
 2974SOL    HW2 9822   6.878   4.336   2.920
 2975SOL     OW 9823   0.083   0.719   5.459
 2975SOL    HW1 9824   0.170   0.727   5.508
 2975SOL    HW2 9825   0.007   0.743   5.520
 2976SOL     OW 9826   3.640   0.954   2.526
 2976SOL    HW1 9827   3.632   1.026   2.457
 2976SOL    HW2 9828   3.633   0.865   2.481
 2977SOL     OW 9829   3.213   6.567   4.017
 2977SOL    HW1 9830   3.123   6.597   4.047
 2977SOL    HW2 9831   3.213   6.467   4.008
 2978SOL     OW 9832   5.656   4.734   6.952
 2978SOL    HW1 9833   5.556   4.732   6.951
 2978SOL    HW2 9834   5.689   4.777   6.868
 2979SOL     OW 9835   3.640   0.549   3.186
 2979SOL    HW1 9836   3.694   0.474   3.224
 2979SOL    HW2 9837   3.600   0.521   3.099
 2980SOL     OW 9838   0.298   6.012   4.466
 2980SOL    HW1 9839   0.394   6.020   4.438
 2980SOL    HW2 9840   0.268   5.917   4.456
 2981SOL     OW 9841   2.229   1.146   5.817
 2981SOL    HW1 9842   2.205   1.165   5.722
 2981SOL    HW2 9843   2.256   1.050   5.826
 2982SOL     OW 9844   4.619   6.105   2.146
 2982SOL    HW1 9845   4.622   6.089   2.048
 2982SOL    HW2 9846   4.712   6.121   2.180
 2983SOL     OW 9847   6.642   1.068   3.928
 2983SOL    HW1 9848   6.555   1.018   3.932
 2983SOL    HW2 9849   6.717   1.003   3.936
 2984SOL     OW 9850   5.781   5.282   1.631
 2984SOL    HW1 9851   5.711   5.214   1.609
 2984SOL    HW2 9852   5.778   5.356   1.564
 2985SOL     OW 9853   6.515   2.230   3.113
 2985SOL    HW1 9854   6.518   2.141   3.066
 2985SOL    HW2 9855   6.567   2.297   3.060
 2986SOL     OW 9856   1.577   3.158   5.544
 2986SOL    HW1 9857   1.658   3.100   5.533
 2986SOL    HW2 9858   1.604   3.254   5.538
 2987SOL     OW 9859   4.437   2.271   4.586
 2987SOL    HW1 9860   4.402   2.222   4.506
 2987SOL    HW2 9861   4.420   2.217   4.668
 2988SOL     OW 9862   1.389   0.193   1.656
 2988SOL    HW1 9863   1.331   0.112   1.645
 2988SOL    HW2 9864   1.332   0.274   1.672
 2989SOL     OW 9865   6.987   5.010   1.130
 2989SOL    HW1 9866   0.042   5.061   1.170
 2989SOL    HW2 9867   7.018   4.965   1.046
 2990SOL     OW 9868   3.882   1.471   1.493
 2990SOL    HW1 9869   3.907   1.509   1.404
 2990SOL    HW2 9870   3.964   1.458   1.548
 2991SOL     OW 9871   6.999   3.714   0.372
 2991SOL    HW1 9872   6.966   3.648   0.305
 2991SOL    HW2 9873   7.004   3.670   0.462
 2992SOL     OW 9874   3.395   5.229   6.292
 2992SOL    HW1 9875   3.428   5.190   6.378
 2992SOL    HW2 9876   3.306   5.271   6.307
 2993SOL     OW 9877   1.336   5.644   1.154
 2993SOL    HW1 9878   1.351   5.568   1.090
 2993SOL    HW2 9879   1.408   5.643   1.223
 2994SOL     OW 9880   4.860   6.635   7.002
 2994SOL    HW1 9881   4.888   6.544   6.970
 2994SOL    HW2 9882   4.940   6.683   0.016
 2995SOL     OW 9883   1.720   1.599   6.353
 2995SOL    HW1 9884   1.794   1.606   6.420
 2995SOL    HW2 9885   1.666   1.683   6.354
 2996SOL     OW 9886   3.950   5.174   5.786
 2996SOL    HW1 9887   4.023   5.238   5.810
 2996SOL    HW2 9888   3.980   5.115   5.711
 2997SOL     OW 9889   5.767   6.615   1.168
 2997SOL    HW1 9890   5.804   6.703   1.137
 2997SOL    HW2 9891   5.684   6.630   1.221
 2998SOL     OW 9892   6.189   5.589   4.186
 2998SOL    HW1 9893   6.128   5.593   4.107
 2998SOL    HW2 9894   6.135   5.572   4.268
 2999SOL     OW 9895   3.415   6.872   3.075
 2999SOL    HW1 9896   3.433   6.844   2.981
 2999SOL    HW2 9897   3.317   6.873   3.092
 3000SOL     OW 9898   1.089   2.940   5.681
 3000SOL    HW1 9899   1.181   2.973   5.660
 3000SOL    HW2 9900   1.094   2.853   5.730
 3001SOL     OW 9901   4.902   6.996   5.754
 3001SOL    HW1 9902   4.959   6.960   5.680
 3001SOL    HW2 9903   4.889   0.072   5.742
 3002SOL     OW 9904   3.739   0.298   5.724
 3002SOL    HW1 9905   3.651   0.258   5.748
 3002SOL    HW2 9906   3.774   0.350   5.802
 3003SOL     OW 9907   3.029   6.678   5.598
 3003SOL    HW1 9908   2.939   6.635   5.587
 3003SOL    HW2 9909   3.023   6.775   5.575
 3004SOL     OW 9910   5.913   3.231   4.343
 3004SOL    HW1 9911   5.814   3.217   4.341
 3004SOL    HW2 9912   5.950   3.202   4.432
 3005SOL     OW 9913   4.083   2.884   1.159
 3005SOL    HW1 9914   4.115   2.890   1.253
 3005SOL    HW2 9915   4.108   2.967   1.110
 3006SOL     OW 9916   5.535   0.685   1.287
 3006SOL    HW1 9917   5.533   0.785   1.276
 3006SOL    HW2 9918   5.516   0.661   1.382
 3007SOL     OW 9919   5.970   4.809   3.102
 3007SOL    HW1 9920   6.019   4.762   3.028
 3007SOL    HW2 9921   5.960   4.906   3.078
 3008SOL     OW 9922   3.261   6.588   5.670
 3008SOL    HW1 9923   3.174   6.616   5.629
 3008SOL    HW2 9924   3.265   6.621   5.764
 3009SOL     OW 9925   1.147   6.981   3.208
 3009SOL    HW1 9926   1.115   0.001   3.293
 3009SOL    HW2 9927   1.216   6.911   3.230
 3010SOL     OW 9928   3.858   6.105   2.699
 3010SOL    HW1 9929   3.805   6.180   2.660
 3010SOL    HW2 9930   3.818   6.076   2.786
 3011SOL     OW 9931   5.274   6.976   0.151
 3011SOL    HW1 9932   5.332   6.901   0.181
 3011SOL    HW2 9933   5.320   0.041   0.167
 3012SOL     OW 9934   0.397   4.073   3.344
 3012SOL    HW1 9935   0.355   4.011   3.411
 3012SOL    HW2 9936   0.407   4.026   3.257
 3013SOL     OW 9937   6.031   5.257   2.017
 3013SOL    HW1 9938   6.073   5.308   2.092
 3013SOL    HW2 9939   5.933   5.273   2.016
 3014SOL     OW 9940   4.642   0.743   4.032
 3014SOL    HW1 9941   4.647   0.676   3.958
 3014SOL    HW2 9942   4.695   0.711   4.110
 3015SOL     OW 9943   3.159   2.254   0.758
 3015SOL    HW1 9944   3.211   2.326   0.712
 3015SOL    HW2 9945   3.143   2.178   0.696
 3016SOL     OW 9946   3.904   0.059   3.317
 3016SOL    HW1 9947   3.861   0.142   3.352
 3016SOL    HW2 9948   3.868   0.038   3.226
 3017SOL     OW 9949   0.715   5.895   1.352
 3017SOL    HW1 9950   0.718   5.994   1.367
 3017SOL    HW2 9951   0.643   5.874   1.285
 3018SOL     OW 9952   4.168   6.498   0.164
 3018SOL    HW1 9953   4.225   6.416   0.159
 3018SOL    HW2 9954   4.074   6.473   0.186
 3019SOL     OW 9955   3.878   6.846   1.335
 3019SOL    HW1 9956   3.948   6.914   1.313
 3019SOL    HW2 9957   3.901   6.801   1.421
 3020SOL     OW 9958   2.908   3.412   1.371
 3020SOL    HW1 9959   2.884   3.498   1.326
 3020SOL    HW2 9960   2.825   3.369   1.408
 3021SOL     OW 9961   2.194   2.226   0.367
 3021SOL    HW1 9962   2.267   2.161   0.346
 3021SOL    HW2 9963   2.214   2.313   0.321
 3022SOL     OW 9964   4.903   6.717   2.832
 3022SOL    HW1 9965   4.820   6.744   2.882
 3022SOL    HW2 9966   4.963   6.665   2.893
 3023SOL     OW 9967   4.838   5.784   2.674
 3023SOL    HW1 9968   4.799   5.725   2.744
 3023SOL    HW2 9969   4.785   5.776   2.589
 3024SOL     OW 9970   3.273   0.365   7.000
 3024SOL    HW1 9971   3.284   0.459   6.967
 3024SOL    HW2 9972   3.363   0.321   7.002
 3025SOL     OW 9973   2.534   2.768   0.976
 3025SOL    HW1 9974   2.499   2.743   1.067
 3025SOL    HW2 9975   2.621   2.817   0.987
 3026SOL     OW 9976   2.018   3.838   0.910
 3026SOL    HW1 9977   2.107   3.793   0.908
 3026SOL    HW2 9978   2.006   3.893   0.828
 3027SOL     OW 9979   1.905   2.006   3.328
 3027SOL    HW1 9980   1.911   1.917   3.372
 3027SOL    HW2 9981   1.941   1.999   3.235
 3028SOL     OW 9982   1.329   6.007   5.727
 3028SOL    HW1 9983   1.341   6.080   5.660
 3028SOL    HW2 9984   1.399   5.937   5.713
 3029SOL     OW 9985   6.265   5.726   5.261
 3029SOL    HW1 9986   6.189   5.781   5.226
 3029SOL    HW2 9987   6.245   5.697   5.355
 3030SOL     OW 9988   1.324   1.560   5.449
 3030SOL    HW1 9989   1.357   1.655   5.449
 3030SOL    HW2 9990   1.395   1.500   5.486
 3031SOL     OW 9991   0.500   4.362   5.790
 3031SOL    HW1 9992   0.425   4.316   5.837
 3031SOL    HW2 9993   0.521   4.314   5.704
 3032SOL     OW 9994   5.107   0.517   5.813
 3032SOL    HW1 9995   5.017   0.551   5.842
 3032SOL    HW2 9996   5.148   0.463   5.885
 3033SOL     OW 9997   0.558   3.819   6.790
 3033SOL    HW1 9998   0.478   3.831   6.849
 3033SOL    HW2 9999   0.564   3.724   6.760
 3034SOL     OW10000   2.842   6.088   4.684
 3034SOL    HW110001   2.808   6.033   4.760
 3034SOL    HW210002   2.856   6.182   4.715
 3035SOL     OW10003   5.569   1.133   0.031
 3035SOL    HW110004   5.577   1.102   0.126
 3035SOL    HW210005   5.642   1.198   0.011
 3036SOL     OW10006   1.174   4.192   6.881
 3036SOL    HW110007   1.227   4.258   6.827
 3036SOL    HW210008   1.198   4.201   6.977
 3037SOL     OW10009   6.727   6.373   5.236
 3037SOL    HW110010   6.792   6.297   5.238
 3037SOL    HW210011   6.634   6.338   5.244
 3038SOL     OW10012   5.432   6.780   6.192
 3038SOL    HW110013   5.402   6.795   6.098
 3038SOL    HW210014   5.379   6.705   6.232
 3039SOL     OW10015   0.626   4.448   1.660
 3039SOL    HW110016   0.649   4.520   1.594
 3039SOL    HW210017   0.709   4.398   1.685
 3040SOL     OW10018   2.861   3.458   6.852
 3040SOL    HW110019   2.892   3.394   6.922
 3040SOL    HW210020   2.762   3.468   6.856
 3041SOL     OW10021   2.021   2.245   6.001
 3041SOL    HW110022   2.108   2.216   5.959
 3041SOL    HW210023   1.976   2.312   5.942
 3042SOL     OW10024   4.303   0.435   1.829
 3042SOL    HW110025   4.311   0.534   1.838
 3042SOL    HW210026   4.252   0.413   1.745
 3043SOL     OW10027   0.624   5.655   0.617
 3043SOL    HW110028   0.683   5.577   0.595
 3043SOL    HW210029   0.656   5.736   0.567
 3044SOL     OW10030   3.289   4.482   6.112
 3044SOL    HW110031   3.221   4.441   6.051
 3044SOL    HW210032   3.374   4.498   6.061
 3045SOL     OW10033   5.583   1.877   2.874
 3045SOL    HW110034   5.620   1.968   2.895
 3045SOL    HW210035   5.484   1.879   2.888
 3046SOL     OW10036   1.657   2.550   5.478
 3046SOL    HW110037   1.750   2.530   5.510
 3046SOL    HW210038   1.623   2.632   5.525
 3047SOL     OW10039   6.159   5.332   2.547
 3047SOL    HW110040   6.238   5.319   2.607
 3047SOL    HW210041   6.112   5.417   2.572
 3048SOL     OW10042   3.401   3.152   1.558
 3048SOL    HW110043   3.414   3.092   1.479
 3048SOL    HW210044   3.412   3.247   1.530
 3049SOL     OW10045   0.844   0.358   1.933
 3049SOL    HW110046   0.821   0.366   1.836
 3049SOL    HW210047   0.804   0.435   1.983
 3050SOL     OW10048   4.455   5.627   3.817
 3050SOL    HW110049   4.528   5.559   3.812
 3050SOL    HW210050   4.490   5.710   3.860
 3051SOL     OW10051   2.926   5.046   0.075
 3051SOL    HW110052   3.025   5.041   0.060
 3051SOL    HW210053   2.889   4.953   0.084
 3052SOL     OW10054   3.843   6.734   3.024
 3052SOL    HW110055   3.827   6.765   3.118
 3052SOL    HW210056   3.923   6.780   2.987
 3053SOL     OW10057   5.727   6.241   0.134
 3053SOL    HW110058   5.639   6.244   0.181
 3053SOL    HW210059   5.764   6.148   0.138
 3054SOL     OW10060   0.627   3.289   0.057
 3054SOL    HW110061   0.568   3.228   0.005
 3054SOL    HW210062   0.645   3.372   0.003
 3055SOL     OW10063   5.619   6.083   3.563
 3055SOL    HW110064   5.561   6.141   3.505
 3055SOL    HW210065   5.698   6.052   3.509
 3056SOL     OW10066   6.788   0.490   0.914
 3056SOL    HW110067   6.888   0.482   0.916
 3056SOL    HW210068   6.752   0.483   1.007
 3057SOL     OW10069   5.930   5.120   2.457
 3057SOL    HW110070   6.004   5.185   2.439
 3057SOL    HW210071   5.926   5.100   2.555
 3058SOL     OW10072   6.756   5.341   1.226
 3058SOL    HW110073   6.710   5.402   1.291
 3058SOL    HW210074   6.743   5.374   1.133
 3059SOL     OW10075   1.457   2.489   4.836
 3059SOL    HW110076   1.432   2.518   4.744
 3059SOL    HW210077   1.557   2.488   4.845
 3060SOL     OW10078   6.549   6.614   1.520
 3060SOL    HW110079   6.510   6.605   1.429
 3060SOL    HW210080   6.644   6.645   1.513
 3061SOL     OW10081   0.315   0.316   5.468
 3061SOL    HW110082   0.231   0.338   5.519
 3061SOL    HW210083   0.380   0.391   5.479
 3062SOL     OW10084   2.844   6.160   0.689
 3062SOL    HW110085   2.777   6.088   0.673
 3062SOL    HW210086   2.858   6.212   0.605
 3063SOL     OW10087   1.788   5.171   1.223
 3063SOL    HW110088   1.765   5.163   1.126
 3063SOL    HW210089   1.884   5.147   1.236
 3064SOL     OW10090   6.107   4.133   3.037
 3064SOL    HW110091   6.193   4.100   2.996
 3064SOL    HW210092   6.042   4.154   2.964
 3065SOL     OW10093   1.496   0.863   7.011
 3065SOL    HW110094   1.559   0.908   0.052
 3065SOL    HW210095   1.423   0.927   6.986
 3066SOL     OW10096   6.436   4.754   1.549
 3066SOL    HW110097   6.383   4.676   1.584
 3066SOL    HW210098   6.382   4.838   1.559
 3067SOL     OW10099   4.598   6.927   4.214
 3067SOL    HW110100   4.687   6.969   4.192
 3067SOL    HW210101   4.561   6.883   4.133
 3068SOL     OW10102   5.748   5.030   0.969
 3068SOL    HW110103   5.789   5.007   0.880
 3068SOL    HW210104   5.812   5.087   1.021
 3069SOL     OW10105   0.697   6.023   2.182
 3069SOL    HW110106   0.644   6.052   2.261
 3069SOL    HW210107   0.673   5.929   2.158
 3070SOL     OW10108   3.029   1.300   4.137
 3070SOL    HW110109   3.054   1.346   4.052
 3070SOL    HW210110   2.977   1.217   4.115
 3071SOL     OW10111   5.666   6.954   3.632
 3071SOL    HW110112   5.656   6.909   3.721
 3071SOL    HW210113   5.703   6.889   3.565
 3072SOL     OW10114   0.657   6.844   2.071
 3072SOL    HW110115   0.564   6.857   2.105
 3072SOL    HW210116   0.664   6.755   2.025
 3073SOL     OW10117   1.322   3.524   5.218
 3073SOL    HW110118   1.403   3.570   5.255
 3073SOL    HW210119   1.240   3.575   5.244
 3074SOL     OW10120   4.357   3.000   5.841
 3074SOL    HW110121   4.371   2.976   5.938
 3074SOL    HW210122   4.433   3.057   5.810
 3075SOL     OW10123   1.490   5.833   0.841
 3075SOL    HW110124   1.523   5.926   0.829
 3075SOL    HW210125   1.406   5.834   0.895
 3076SOL     OW10126   6.488   0.524   5.034
 3076SOL    HW110127   6.570   0.467   5.044
 3076SOL    HW210128   6.516   0.618   5.012
 3077SOL     OW10129   5.563   4.612   4.574
 3077SOL    HW110130   5.629   4.565   4.515
 3077SOL    HW210131   5.545   4.703   4.537
 3078SOL     OW10132   1.664   3.889   1.799
 3078SOL    HW110133   1.730   3.822   1.833
 3078SOL    HW210134   1.620   3.854   1.716
 3079SOL     OW10135   6.661   2.297   5.371
 3079SOL    HW110136   6.629   2.388   5.345
 3079SOL    HW210137   6.617   2.228   5.315
 3080SOL     OW10138   6.614   5.079   0.671
 3080SOL    HW110139   6.517   5.101   0.659
 3080SOL    HW210140   6.627   5.024   0.753
 3081SOL     OW10141   0.386   4.462   5.369
 3081SOL    HW110142   0.373   4.556   5.340
 3081SOL    HW210143   0.481   4.448   5.399
 3082SOL     OW10144   3.228   0.094   2.448
 3082SOL    HW110145   3.279   0.177   2.426
 3082SOL    HW210146   3.270   0.049   2.527
 3083SOL     OW10147   3.385   0.720   1.953
 3083SOL    HW110148   3.330   0.652   1.904
 3083SOL    HW210149   3.348   0.733   2.045
 3084SOL     OW10150   5.624   5.805   4.697
 3084SOL    HW110151   5.571   5.815   4.781
 3084SOL    HW210152   5.721   5.803   4.719
 3085SOL     OW10153   0.382   5.581   2.569
 3085SOL    HW110154   0.315   5.655   2.569
 3085SOL    HW210155   0.448   5.597   2.496
 3086SOL     OW10156   4.700   1.252   3.912
 3086SOL    HW110157   4.614   1.267   3.960
 3086SOL    HW210158   4.688   1.270   3.814
 3087SOL     OW10159   6.351   4.001   2.890
 3087SOL    HW110160   6.331   4.022   2.794
 3087SOL    HW210161   6.351   3.901   2.903
 3088SOL     OW10162   2.572   4.610   5.636
 3088SOL    HW110163   2.598   4.705   5.652
 3088SOL    HW210164   2.603   4.582   5.546
 3089SOL     OW10165   1.434   2.766   6.913
 3089SOL    HW110166   1.364   2.835   6.896
 3089SOL    HW210167   1.519   2.810   6.942
 3090SOL     OW10168   1.075   1.798   0.994
 3090SOL    HW110169   1.156   1.740   0.989
 3090SOL    HW210170   1.012   1.776   0.920
 3091SOL     OW10171   2.875   0.102   0.753
 3091SOL    HW110172   2.847   0.157   0.675
 3091SOL    HW210173   2.975   0.101   0.759
 3092SOL     OW10174   5.665   6.956   1.339
 3092SOL    HW110175   5.747   7.005   1.310
 3092SOL    HW210176   5.692   6.872   1.387
 3093SOL     OW10177   6.000   5.431   5.580
 3093SOL    HW110178   5.975   5.345   5.536
 3093SOL    HW210179   5.922   5.494   5.577
 3094SOL     OW10180   2.966   6.025   5.455
 3094SOL    HW110181   3.056   6.068   5.467
 3094SOL    HW210182   2.954   6.002   5.359
 3095SOL     OW10183   2.740   4.787   4.657
 3095SOL    HW110184   2.731   4.772   4.755
 3095SOL    HW210185   2.672   4.732   4.608
 3096SOL     OW10186   0.387   0.997   5.372
 3096SOL    HW110187   0.359   1.014   5.278
 3096SOL    HW210188   0.352   0.907   5.402
 3097SOL     OW10189   1.074   2.678   6.949
 3097SOL    HW110190   1.166   2.652   6.977
 3097SOL    HW210191   1.041   2.753   7.006
 3098SOL     OW10192   2.594   3.052   0.558
 3098SOL    HW110193   2.624   3.053   0.463
 3098SOL    HW210194   2.495   3.068   0.562
 3099SOL     OW10195   0.852   5.851   5.550
 3099SOL    HW110196   0.950   5.870   5.554
 3099SOL    HW210197   0.803   5.935   5.527
 3100SOL     OW10198   6.668   6.703   6.529
 3100SOL    HW110199   6.624   6.792   6.540
 3100SOL    HW210200   6.768   6.716   6.525
 3101SOL     OW10201   4.984   0.171   6.505
 3101SOL    HW110202   4.913   0.109   6.475
 3101SOL    HW210203   5.057   0.120   6.551
 3102SOL     OW10204   1.920   4.387   0.913
 3102SOL    HW110205   1.999   4.384   0.852
 3102SOL    HW210206   1.848   4.444   0.872
 3103SOL     OW10207   4.053   2.841   1.763
 3103SOL    HW110208   3.959   2.813   1.782
 3103SOL    HW210209   4.112   2.760   1.759
 3104SOL     OW10210   5.765   6.018   4.168
 3104SOL    HW110211   5.834   6.054   4.105
 3104SOL    HW210212   5.757   6.080   4.246
 3105SOL     OW10213   5.544   6.537   4.470
 3105SOL    HW110214   5.640   6.543   4.497
 3105SOL    HW210215   5.486   6.542   4.552
 3106SOL     OW10216   0.026   2.690   3.043
 3106SOL    HW110217   0.046   2.593   3.057
 3106SOL    HW210218   6.951   2.701   3.019
 3107SOL     OW10219   2.505   0.409   4.066
 3107SOL    HW110220   2.557   0.361   3.995
 3107SOL    HW210221   2.558   0.487   4.098
 3108SOL     OW10222   2.512   1.207   3.485
 3108SOL    HW110223   2.416   1.180   3.493
 3108SOL    HW210224   2.550   1.169   3.401
 3109SOL     OW10225   5.018   5.717   3.085
 3109SOL    HW110226   5.113   5.696   3.108
 3109SOL    HW210227   4.986   5.652   3.016
 3110SOL     OW10228   1.387   3.034   2.605
 3110SOL    HW110229   1.328   3.004   2.680
 3110SOL    HW210230   1.444   3.110   2.637
 3111SOL     OW10231   0.517   5.192   3.630
 3111SOL    HW110232   0.593   5.252   3.603
 3111SOL    HW210233   0.463   5.169   3.550
 3112SOL     OW10234   4.730   3.845   6.817
 3112SOL    HW110235   4.821   3.874   6.846
 3112SOL    HW210236   4.717   3.869   6.721
 3113SOL     OW10237   2.839   6.683   3.288
 3113SOL    HW110238   2.869   6.712   3.197
 3113SOL    HW210239   2.913   6.632   3.333
 3114SOL     OW10240   6.415   4.888   1.011
 3114SOL    HW110241   6.407   4.815   1.080
 3114SOL    HW210242   6.496   4.871   0.954
 3115SOL     OW10243   3.443   4.003   0.950
 3115SOL    HW110244   3.534   4.038   0.929
 3115SOL    HW210245   3.376   4.075   0.939
 3116SOL     OW10246   6.606   2.260   0.403
 3116SOL    HW110247   6.698   2.233   0.430
 3116SOL    HW210248   6.540   2.191   0.435
 3117SOL     OW10249   4.006   3.117   5.189
 3117SOL    HW110250   4.028   3.056   5.265
 3117SOL    HW210251   3.927   3.173   5.213
 3118SOL     OW10252   6.304   3.995   0.879
 3118SOL    HW110253   6.399   3.983   0.849
 3118SOL    HW210254   6.242   3.978   0.803
 3119SOL     OW10255   2.094   4.291   5.512
 3119SOL    HW110256   2.123   4.268   5.605
 3119SOL    HW210257   2.091   4.208   5.457
 3120SOL     OW10258   3.011   5.588   5.072
 3120SOL    HW110259   3.081   5.538   5.122
 3120SOL    HW210260   2.921   5.565   5.110
 3121SOL     OW10261   6.470   0.428   2.445
 3121SOL    HW110262   6.511   0.370   2.374
 3121SOL    HW210263   6.499   0.396   2.535
 3122SOL     OW10264   2.920   5.785   6.717
 3122SOL    HW110265   2.822   5.805   6.728
 3122SOL    HW210266   2.934   5.735   6.631
 3123SOL     OW10267   3.334   6.314   3.847
 3123SOL    HW110268   3.261   6.285   3.909
 3123SOL    HW210269   3.413   6.345   3.901
 3124SOL     OW10270   4.235   1.039   5.657
 3124SOL    HW110271   4.172   1.114   5.676
 3124SOL    HW210272   4.205   0.989   5.576
 3125SOL     OW10273   6.819   1.493   5.890
 3125SOL    HW110274   6.881   1.477   5.967
 3125SOL    HW210275   6.785   1.587   5.894
 3126SOL     OW10276   4.358   6.286   0.178
 3126SOL    HW110277   4.457   6.280   0.182
 3126SOL    HW210278   4.321   6.299   0.270
 3127SOL     OW10279   0.872   1.752   4.147
 3127SOL    HW110280   0.900   1.736   4.242
 3127SOL    HW210281   0.886   1.848   4.124
 3128SOL     OW10282   1.583   1.080   1.028
 3128SOL    HW110283   1.523   1.055   0.952
 3128SOL    HW210284   1.678   1.087   0.995
 3129SOL     OW10285   7.017   3.753   5.241
 3129SOL    HW110286   6.959   3.689   5.290
 3129SOL    HW210287   7.001   3.743   5.142
 3130SOL     OW10288   1.840   4.504   1.993
 3130SOL    HW110289   1.936   4.477   1.990
 3130SOL    HW210290   1.831   4.587   2.048
 3131SOL     OW10291   0.028   3.310   2.984
 3131SOL    HW110292   0.045   3.388   2.923
 3131SOL    HW210293   7.007   3.236   2.932
 3132SOL     OW10294   5.343   6.123   5.453
 3132SOL    HW110295   5.280   6.048   5.431
 3132SOL    HW210296   5.412   6.130   5.381
 3133SOL     OW10297   2.787   1.775   3.318
 3133SOL    HW110298   2.867   1.816   3.275
 3133SOL    HW210299   2.799   1.675   3.321
 3134SOL     OW10300   4.892   3.328   2.093
 3134SOL    HW110301   4.866   3.375   2.178
 3134SOL    HW210302   4.864   3.232   2.099
 3135SOL     OW10303   3.587   1.946   3.388
 3135SOL    HW110304   3.598   1.993   3.301
 3135SOL    HW210305   3.499   1.970   3.429
 3136SOL     OW10306   5.896   6.142   5.261
 3136SOL    HW110307   5.957   6.197   5.318
 3136SOL    HW210308   5.895   6.180   5.168
 3137SOL     OW10309   5.788   1.920   3.688
 3137SOL    HW110310   5.690   1.900   3.697
 3137SOL    HW210311   5.839   1.870   3.757
 3138SOL     OW10312   5.686   1.527   4.806
 3138SOL    HW110313   5.668   1.497   4.712
 3138SOL    HW210314   5.715   1.448   4.860
 3139SOL     OW10315   4.567   6.304   5.248
 3139SOL    HW110316   4.591   6.367   5.322
 3139SOL    HW210317   4.639   6.305   5.179
 3140SOL     OW10318   6.795   6.271   6.766
 3140SOL    HW110319   6.829   6.203   6.831
 3140SOL    HW210320   6.824   6.363   6.796
 3141SOL     OW10321   1.186   5.366   0.260
 3141SOL    HW110322   1.185   5.306   0.180
 3141SOL    HW210323   1.268   5.424   0.257
 3142SOL     OW10324   4.556   6.583   6.256
 3142SOL    HW110325   4.577   6.618   6.165
 3142SOL    HW210326   4.470   6.624   6.288
 3143SOL     OW10327   6.725   1.531   0.301
 3143SOL    HW110328   6.790   1.567   0.368
 3143SOL    HW210329   6.724   1.591   0.221
 3144SOL     OW10330   1.855   3.045   6.519
 3144SOL    HW110331   1.759   3.073   6.523
 3144SOL    HW210332   1.861   2.947   6.500
 3145SOL     OW10333   3.360   5.955   2.666
 3145SOL    HW110334   3.359   5.937   2.567
 3145SOL    HW210335   3.419   6.033   2.684
 3146SOL     OW10336   0.941   0.316   3.349
 3146SOL    HW110337   0.874   0.389   3.355
 3146SOL    HW210338   0.908   0.236   3.399
 3147SOL     OW10339   4.959   3.956   0.143
 3147SOL    HW110340   4.979   3.888   0.073
 3147SOL    HW210341   5.040   4.011   0.161
 3148SOL     OW10342   3.589   5.248   4.717
 3148SOL    HW110343   3.572   5.250   4.618
 3148SOL    HW210344   3.505   5.273   4.765
 3149SOL     OW10345   3.462   0.449   5.672
 3149SOL    HW110346   3.420   0.403   5.751
 3149SOL    HW210347   3.486   0.380   5.603
 3150SOL     OW10348   5.694   6.554   4.843
 3150SOL    HW110349   5.776   6.609   4.860
 3150SOL    HW210350   5.664   6.567   4.749
 3151SOL     OW10351   4.505   1.406   6.225
 3151SOL    HW110352   4.569   1.447   6.160
 3151SOL    HW210353   4.546   1.324   6.264
 3152SOL     OW10354   1.150   5.629   0.836
 3152SOL    HW110355   1.181   5.692   0.906
 3152SOL    HW210356   1.158   5.673   0.746
 3153SOL     OW10357   6.835   4.445   2.442
 3153SOL    HW110358   6.921   4.395   2.456
 3153SOL    HW210359   6.766   4.382   2.407
 3154SOL     OW10360   5.426   2.369   5.895
 3154SOL    HW110361   5.467   2.458   5.915
 3154SOL    HW210362   5.426   2.314   5.978
 3155SOL     OW10363   5.704   5.370   1.212
 3155SOL    HW110364   5.709   5.290   1.271
 3155SOL    HW210365   5.744   5.449   1.258
 3156SOL     OW10366   3.352   3.563   3.541
 3156SOL    HW110367   3.362   3.497   3.466
 3156SOL    HW210368   3.321   3.515   3.623
 3157SOL     OW10369   2.159   4.141   4.385
 3157SOL    HW110370   2.200   4.192   4.461
 3157SOL    HW210371   2.093   4.075   4.420
 3158SOL     OW10372   4.728   6.321   1.062
 3158SOL    HW110373   4.785   6.241   1.046
 3158SOL    HW210374   4.637   6.291   1.093
 3159SOL     OW10375   5.167   5.316   0.275
 3159SOL    HW110376   5.140   5.257   0.351
 3159SOL    HW210377   5.095   5.383   0.258
 3160SOL     OW10378   5.005   4.316   6.860
 3160SOL    HW110379   4.942   4.242   6.888
 3160SOL    HW210380   5.065   4.338   6.937
 3161SOL     OW10381   1.007   1.874   2.899
 3161SOL    HW110382   0.995   1.836   2.807
 3161SOL    HW210383   0.944   1.829   2.962
 3162SOL     OW10384   0.493   5.382   6.393
 3162SOL    HW110385   0.467   5.478   6.380
 3162SOL    HW210386   0.411   5.326   6.404
 3163SOL     OW10387   3.099   3.873   5.971
 3163SOL    HW110388   3.187   3.920   5.962
 3163SOL    HW210389   3.106   3.804   6.043
 3164SOL     OW10390   5.132   4.885   6.917
 3164SOL    HW110391   5.042   4.861   6.880
 3164SOL    HW210392   5.120   4.931   7.006
 3165SOL     OW10393   0.381   1.527   1.620
 3165SOL    HW110394   0.394   1.428   1.618
 3165SOL    HW210395   0.470   1.573   1.618
 3166SOL     OW10396   5.568   3.256   6.140
 3166SOL    HW110397   5.519   3.342   6.155
 3166SOL    HW210398   5.598   3.219   6.228
 3167SOL     OW10399   1.139   5.325   1.627
 3167SOL    HW110400   1.105   5.419   1.628
 3167SOL    HW210401   1.238   5.325   1.614
 3168SOL     OW10402   5.545   3.419   1.385
 3168SOL    HW110403   5.447   3.431   1.369
 3168SOL    HW210404   5.595   3.441   1.301
 3169SOL     OW10405   1.224   2.139   5.695
 3169SOL    HW110406   1.128   2.110   5.696
 3169SOL    HW210407   1.283   2.061   5.713
 3170SOL     OW10408   4.044   0.748   0.012
 3170SOL    HW110409   4.128   0.780   0.056
 3170SOL    HW210410   4.068   0.692   6.954
 3171SOL     OW10411   5.979   6.483   3.400
 3171SOL    HW110412   6.075   6.464   3.379
 3171SOL    HW210413   5.947   6.559   3.343
 3172SOL     OW10414   6.157   0.345   4.770
 3172SOL    HW110415   6.225   0.290   4.820
 3172SOL    HW210416   6.119   0.414   4.831
 3173SOL     OW10417   2.079   0.447   1.626
 3173SOL    HW110418   2.052   0.471   1.533
 3173SOL    HW210419   2.067   0.526   1.686
 3174SOL     OW10420   2.215   2.772   5.982
 3174SOL    HW110421   2.122   2.809   5.972
 3174SOL    HW210422   2.266   2.828   6.048
 3175SOL     OW10423   0.574   6.540   0.645
 3175SOL    HW110424   0.508   6.530   0.570
 3175SOL    HW210425   0.596   6.449   0.681
 3176SOL     OW10426   0.596   4.848   6.822
 3176SOL    HW110427   0.686   4.808   6.809
 3176SOL    HW210428   0.542   4.838   6.738
 3177SOL     OW10429   5.918   6.181   6.087
 3177SOL    HW110430   5.844   6.154   6.148
 3177SOL    HW210431   5.956   6.101   6.042
 3178SOL     OW10432   1.120   3.025   1.318
 3178SOL    HW110433   1.206   3.063   1.285
 3178SOL    HW210434   1.044   3.065   1.266
 3179SOL     OW10435   1.861   1.355   2.695
 3179SOL    HW110436   1.911   1.395   2.618
 3179SOL    HW210437   1.822   1.427   2.751
 3180SOL     OW10438   5.526   0.875   6.236
 3180SOL    HW110439   5.555   0.893   6.330
 3180SOL    HW210440   5.578   0.797   6.200
 3181SOL     OW10441   0.752   1.343   3.087
 3181SOL    HW110442   0.774   1.249   3.114
 3181SOL    HW210443   0.834   1.386   3.047
 3182SOL     OW10444   1.905   4.924   5.177
 3182SOL    HW110445   1.940   4.945   5.268
 3182SOL    HW210446   1.976   4.879   5.124
 3183SOL     OW10447   3.419   3.499   1.591
 3183SOL    HW110448   3.383   3.481   1.682
 3183SOL    HW210449   3.358   3.459   1.523
 3184SOL     OW10450   2.324   1.662   2.326
 3184SOL    HW110451   2.334   1.759   2.306
 3184SOL    HW210452   2.323   1.648   2.425
 3185SOL     OW10453   6.760   6.868   5.588
 3185SOL    HW110454   6.683   6.867   5.652
 3185SOL    HW210455   6.822   6.793   5.611
 3186SOL     OW10456   2.807   0.937   2.043
 3186SOL    HW110457   2.735   0.922   2.111
 3186SOL    HW210458   2.826   1.035   2.035
 3187SOL     OW10459   3.139   4.691   0.190
 3187SOL    HW110460   3.202   4.727   0.121
 3187SOL    HW210461   3.171   4.716   0.281
 3188SOL     OW10462   4.204   6.162   3.188
 3188SOL    HW110463   4.204   6.119   3.098
 3188SOL    HW210464   4.295   6.151   3.230
 3189SOL     OW10465   0.933   6.489   2.323
 3189SOL    HW110466   0.918   6.570   2.266
 3189SOL    HW210467   0.959   6.412   2.265
 3190SOL     OW10468   0.588   6.092   1.946
 3190SOL    HW110469   0.637   6.070   2.030
 3190SOL    HW210470   0.491   6.070   1.957
 3191SOL     OW10471   3.835   0.933   0.961
 3191SOL    HW110472   3.777   0.864   0.918
 3191SOL    HW210473   3.848   1.009   0.897
 3192SOL     OW10474   0.136   2.991   2.892
 3192SOL    HW110475   0.143   2.951   2.983
 3192SOL    HW210476   0.195   2.940   2.829
 3193SOL     OW10477   4.994   3.498   6.528
 3193SOL    HW110478   4.983   3.403   6.499
 3193SOL    HW210479   4.917   3.523   6.587
 3194SOL     OW10480   0.492   3.120   6.084
 3194SOL    HW110481   0.515   3.023   6.092
 3194SOL    HW210482   0.489   3.161   6.176
 3195SOL     OW10483   0.735   3.181   3.413
 3195SOL    HW110484   0.812   3.243   3.401
 3195SOL    HW210485   0.768   3.088   3.428
 3196SOL     OW10486   6.577   0.072   5.953
 3196SOL    HW110487   6.581   0.099   5.856
 3196SOL    HW210488   6.482   0.071   5.983
 3197SOL     OW10489   1.122   4.215   4.079
 3197SOL    HW110490   1.187   4.237   4.007
 3197SOL    HW210491   1.031   4.244   4.052
 3198SOL     OW10492   6.816   1.525   6.966
 3198SOL    HW110493   6.898   1.557   7.013
 3198SOL    HW210494   6.746   1.596   6.968
 3199SOL     OW10495   4.068   1.902   2.575
 3199SOL    HW110496   4.068   1.839   2.498
 3199SOL    HW210497   4.158   1.901   2.619
 3200SOL     OW10498   6.958   2.096   1.228
 3200SOL    HW110499   6.940   2.195   1.226
 3200SOL    HW210500   0.026   2.079   1.187
 3201SOL     OW10501   4.538   4.396   2.768
 3201SOL    HW110502   4.576   4.471   2.714
 3201SOL    HW210503   4.531   4.314   2.710
 3202SOL     OW10504   1.940   5.517   1.791
 3202SOL    HW110505   1.956   5.614   1.774
 3202SOL    HW210506   1.937   5.500   1.889
 3203SOL     OW10507   6.378   6.925   1.412
 3203SOL    HW110508   6.461   6.972   1.445
 3203SOL    HW210509   6.390   6.899   1.317
 3204SOL     OW10510   6.578   5.580   1.822
 3204SOL    HW110511   6.559   5.657   1.762
 3204SOL    HW210512   6.658   5.530   1.788
 3205SOL     OW10513   0.711   3.673   3.532
 3205SOL    HW110514   0.795   3.675   3.478
 3205SOL    HW210515   0.632   3.666   3.471
 3206SOL     OW10516   1.063   0.179   6.673
 3206SOL    HW110517   1.132   0.251   6.675
 3206SOL    HW210518   1.022   0.173   6.582
 3207SOL     OW10519   7.015   1.074   4.156
 3207SOL    HW110520   0.035   1.078   4.066
 3207SOL    HW210521   6.923   1.113   4.151
 3208SOL     OW10522   5.891   6.884   5.080
 3208SOL    HW110523   5.820   6.953   5.093
 3208SOL    HW210524   5.975   6.913   5.125
 3209SOL     OW10525   2.365   0.636   3.322
 3209SOL    HW110526   2.464   0.649   3.319
 3209SOL    HW210527   2.319   0.725   3.322
 3210SOL     OW10528   0.364   4.734   3.157
 3210SOL    HW110529   0.341   4.809   3.094
 3210SOL    HW210530   0.413   4.772   3.237
 3211SOL     OW10531   1.438   4.524   1.890
 3211SOL    HW110532   1.466   4.620   1.898
 3211SOL    HW210533   1.494   4.468   1.951
 3212SOL     OW10534   4.651   2.036   5.925
 3212SOL    HW110535   4.745   2.068   5.931
 3212SOL    HW210536   4.644   1.967   5.853
 3213SOL     OW10537   6.410   6.496   2.053
 3213SOL    HW110538   6.458   6.437   2.117
 3213SOL    HW210539   6.452   6.587   2.053
 3214SOL     OW10540   4.135   5.296   6.258
 3214SOL    HW110541   4.178   5.384   6.279
 3214SOL    HW210542   4.036   5.306   6.264
 3215SOL     OW10543   5.980   0.750   6.900
 3215SOL    HW110544   5.988   0.730   6.998
 3215SOL    HW210545   6.066   0.790   6.867
 3216SOL     OW10546   5.658   6.891   4.520
 3216SOL    HW110547   5.571   6.850   4.550
 3216SOL    HW210548   5.699   6.834   4.449
 3217SOL     OW10549   0.057   4.033   1.508
 3217SOL    HW110550   6.987   4.060   1.537
 3217SOL    HW210551   0.125   4.074   1.569
 3218SOL     OW10552   2.821   0.780   2.329
 3218SOL    HW110553   2.841   0.822   2.417
 3218SOL    HW210554   2.727   0.802   2.302
 3219SOL     OW10555   6.405   0.215   3.894
 3219SOL    HW110556   6.413   0.194   3.992
 3219SOL    HW210557   6.497   0.225   3.855
 3220SOL     OW10558   6.303   3.018   5.177
 3220SOL    HW110559   6.255   3.092   5.129
 3220SOL    HW210560   6.242   2.940   5.189
 3221SOL     OW10561   3.578   0.089   2.981
 3221SOL    HW110562   3.676   0.100   2.998
 3221SOL    HW210563   3.537   0.037   3.055
 3222SOL     OW10564   5.645   2.656   2.887
 3222SOL    HW110565   5.676   2.600   2.964
 3222SOL    HW210566   5.577   2.722   2.918
 3223SOL     OW10567   2.616   5.099   5.283
 3223SOL    HW110568   2.579   5.109   5.375
 3223SOL    HW210569   2.701   5.047   5.286
 3224SOL     OW10570   4.212   5.417   0.406
 3224SOL    HW110571   4.287   5.394   0.468
 3224SOL    HW210572   4.241   5.490   0.344
 3225SOL     OW10573   2.501   3.371   0.538
 3225SOL    HW110574   2.443   3.289   0.533
 3225SOL    HW210575   2.580   3.353   0.597
 3226SOL     OW10576   0.709   0.121   3.717
 3226SOL    HW110577   0.659   0.082   3.794
 3226SOL    HW210578   0.799   0.151   3.747
 3227SOL     OW10579   2.391   1.421   6.065
 3227SOL    HW110580   2.432   1.356   6.002
 3227SOL    HW210581   2.365   1.374   6.150
 3228SOL     OW10582   4.941   2.764   5.046
 3228SOL    HW110583   5.020   2.736   5.101
 3228SOL    HW210584   4.937   2.864   5.041
 3229SOL     OW10585   4.117   1.997   4.902
 3229SOL    HW110586   4.132   1.942   4.984
 3229SOL    HW210587   4.173   1.962   4.827
 3230SOL     OW10588   0.709   0.475   3.359
 3230SOL    HW110589   0.633   0.540   3.349
 3230SOL    HW210590   0.671   0.384   3.375
 3231SOL     OW10591   6.355   5.514   1.080
 3231SOL    HW110592   6.397   5.602   1.104
 3231SOL    HW210593   6.257   5.518   1.101
 3232SOL     OW10594   2.430   4.789   3.277
 3232SOL    HW110595   2.382   4.750   3.198
 3232SOL    HW210596   2.494   4.722   3.314
 3233SOL     OW10597   0.879   4.282   1.737
 3233SOL    HW110598   0.962   4.245   1.777
 3233SOL    HW210599   0.806   4.214   1.743
 3234SOL     OW10600   6.797   1.641   5.100
 3234SOL    HW110601   6.801   1.541   5.095
 3234SOL    HW210602   6.873   1.680   5.049
 3235SOL     OW10603   5.584   0.339   2.818
 3235SOL    HW110604   5.603   0.400   2.742
 3235SOL    HW210605   5.612   0.246   2.794
 3236SOL     OW10606   0.854   2.993   1.972
 3236SOL    HW110607   0.893   3.085   1.973
 3236SOL    HW210608   0.766   2.993   2.020
 3237SOL     OW10609   3.394   6.994   4.610
 3237SOL    HW110610   3.441   7.011   4.524
 3237SOL    HW210611   3.304   6.955   4.592
 3238SOL     OW10612   6.478   6.669   6.735
 3238SOL    HW110613   6.526   6.624   6.660
 3238SOL    HW210614   6.539   6.736   6.778
 3239SOL     OW10615   0.195   6.636   5.539
 3239SOL    HW110616   0.235   6.545   5.552
 3239SOL    HW210617   0.165   6.646   5.444
 3240SOL     OW10618   0.805   1.045   4.390
 3240SOL    HW110619   0.844   1.100   4.463
 3240SOL    HW210620   0.759   1.105   4.324
 3241SOL     OW10621   5.318   0.876   4.308
 3241SOL    HW110622   5.314   0.975   4.295
 3241SOL    HW210623   5.402   0.853   4.356
 3242SOL     OW10624   3.472   6.405   0.209
 3242SOL    HW110625   3.412   6.419   0.287
 3242SOL    HW210626   3.479   6.490   0.156
 3243SOL     OW10627   3.381   5.775   0.462
 3243SOL    HW110628   3.471   5.733   0.466
 3243SOL    HW210629   3.311   5.704   0.456
 3244SOL     OW10630   2.783   6.284   5.761
 3244SOL    HW110631   2.735   6.260   5.845
 3244SOL    HW210632   2.817   6.378   5.767
 3245SOL     OW10633   3.490   2.463   6.152
 3245SOL    HW110634   3.468   2.412   6.235
 3245SOL    HW210635   3.405   2.495   6.109
 3246SOL     OW10636   5.246   6.197   3.562
 3246SOL    HW110637   5.179   6.264   3.530
 3246SOL    HW210638   5.211   6.152   3.644
 3247SOL     OW10639   0.167   1.843   4.372
 3247SOL    HW110640   0.227   1.848   4.453
 3247SOL    HW210641   0.154   1.748   4.346
 3248SOL     OW10642   6.054   4.039   2.309
 3248SOL    HW110643   6.143   4.083   2.313
 3248SOL    HW210644   6.044   3.991   2.222
 3249SOL     OW10645   2.767   4.285   5.288
 3249SOL    HW110646   2.804   4.364   5.240
 3249SOL    HW210647   2.819   4.203   5.262
 3250SOL     OW10648   3.920   6.292   1.824
 3250SOL    HW110649   3.874   6.291   1.913
 3250SOL    HW210650   4.004   6.238   1.830
 3251SOL     OW10651   3.037   1.220   3.538
 3251SOL    HW110652   2.966   1.177   3.483
 3251SOL    HW210653   2.996   1.284   3.603
 3252SOL     OW10654   3.189   2.045   3.346
 3252SOL    HW110655   3.091   2.047   3.323
 3252SOL    HW210656   3.218   2.136   3.375
 3253SOL     OW10657   4.728   3.526   0.673
 3253SOL    HW110658   4.639   3.480   0.668
 3253SOL    HW210659   4.732   3.583   0.755
 3254SOL     OW10660   5.631   5.254   2.432
 3254SOL    HW110661   5.693   5.230   2.357
 3254SOL    HW210662   5.679   5.312   2.497
 3255SOL     OW10663   3.797   4.692   0.465
 3255SOL    HW110664   3.873   4.680   0.530
 3255SOL    HW210665   3.711   4.698   0.516
 3256SOL     OW10666   6.285   6.124   5.060
 3256SOL    HW110667   6.222   6.151   4.988
 3256SOL    HW210668   6.371   6.093   5.019
 3257SOL     OW10669   2.299   1.948   1.230
 3257SOL    HW110670   2.327   2.024   1.289
 3257SOL    HW210671   2.215   1.973   1.181
 3258SOL     OW10672   5.210   6.761   1.322
 3258SOL    HW110673   5.267   6.815   1.385
 3258SOL    HW210674   5.208   6.807   1.233
 3259SOL     OW10675   6.037   6.144   3.114
 3259SOL    HW110676   6.052   6.201   3.194
 3259SOL    HW210677   5.952   6.171   3.069
 3260SOL     OW10678   1.092   2.841   6.700
 3260SOL    HW110679   1.045   2.929   6.715
 3260SOL    HW210680   1.087   2.786   6.783
 3261SOL     OW10681   4.357   0.124   3.131
 3261SOL    HW110682   4.303   0.199   3.094
 3261SOL    HW210683   4.349   0.123   3.230
 3262SOL     OW10684   3.327   1.588   3.553
 3262SOL    HW110685   3.350   1.536   3.471
 3262SOL    HW210686   3.358   1.537   3.634
 3263SOL     OW10687   3.171   5.317   1.941
 3263SOL    HW110688   3.223   5.233   1.956
 3263SOL    HW210689   3.073   5.295   1.938
 3264SOL     OW10690   5.504   5.057   6.224
 3264SOL    HW110691   5.534   5.132   6.166
 3264SOL    HW210692   5.431   5.006   6.177
 3265SOL     OW10693   4.319   0.573   6.879
 3265SOL    HW110694   4.244   0.605   6.821
 3265SOL    HW210695   4.406   0.586   6.831
 3266SOL     OW10696   0.407   1.716   6.016
 3266SOL    HW110697   0.484   1.652   6.025
 3266SOL    HW210698   0.441   1.810   6.023
 3267SOL     OW10699   4.464   2.366   1.405
 3267SOL    HW110700   4.435   2.422   1.483
 3267SOL    HW210701   4.554   2.326   1.425
 3268SOL     OW10702   0.895   4.767   6.504
 3268SOL    HW110703   0.993   4.758   6.523
 3268SOL    HW210704   0.843   4.753   6.589
 3269SOL     OW10705   4.723   3.088   0.512
 3269SOL    HW110706   4.670   3.012   0.549
 3269SOL    HW210707   4.820   3.071   0.529
 3270SOL     OW10708   0.751   5.741   4.588
 3270SOL    HW110709   0.815   5.759   4.662
 3270SOL    HW210710   0.665   5.706   4.626
 3271SOL     OW10711   6.137   1.999   1.109
 3271SOL    HW110712   6.081   1.956   1.180
 3271SOL    HW210713   6.155   1.932   1.036
 3272SOL     OW10714   5.116   6.649   0.091
 3272SOL    HW110715   5.190   6.691   0.038
 3272SOL    HW210716   5.145   6.637   0.185
 3273SOL     OW10717   6.991   7.004   2.535
 3273SOL    HW110718   6.892   7.002   2.548
 3273SOL    HW210719   7.011   6.994   2.437
 3274SOL     OW10720   3.933   1.687   6.672
 3274SOL    HW110721   3.890   1.771   6.640
 3274SOL    HW210722   4.023   1.708   6.710
 3275SOL     OW10723   3.313   0.666   6.925
 3275SOL    HW110724   3.301   0.632   6.831
 3275SOL    HW210725   3.232   0.717   6.953
 3276SOL     OW10726   2.963   6.830   0.312
 3276SOL    HW110727   2.907   6.861   0.389
 3276SOL    HW210728   3.048   6.789   0.346
 3277SOL     OW10729   0.101   6.357   5.360
 3277SOL    HW110730   0.194   6.389   5.376
 3277SOL    HW210731   0.101   6.294   5.283
 3278SOL     OW10732   1.313   1.030   0.197
 3278SOL    HW110733   1.253   1.102   0.162
 3278SOL    HW210734   1.400   1.070   0.225
 3279SOL     OW10735   2.237   0.261   1.014
 3279SOL    HW110736   2.157   0.317   1.035
 3279SOL    HW210737   2.272   0.286   0.924
 3280SOL     OW10738   1.782   5.229   5.731
 3280SOL    HW110739   1.867   5.181   5.712
 3280SOL    HW210740   1.786   5.269   5.823
 3281SOL     OW10741   2.974   5.882   0.230
 3281SOL    HW110742   3.068   5.913   0.245
 3281SOL    HW210743   2.959   5.866   0.132
 3282SOL     OW10744   1.739   5.364   2.654
 3282SOL    HW110745   1.799   5.437   2.686
 3282SOL    HW210746   1.777   5.276   2.680
 3283SOL     OW10747   2.165   0.084   3.662
 3283SOL    HW110748   2.106   0.096   3.582
 3283SOL    HW210749   2.258   0.113   3.640
 3284SOL     OW10750   0.033   3.966   6.506
 3284SOL    HW110751   0.115   4.001   6.550
 3284SOL    HW210752   0.054   3.883   6.455
 3285SOL     OW10753   6.539   2.481   4.360
 3285SOL    HW110754   6.607   2.456   4.429
 3285SOL    HW210755   6.529   2.581   4.356
 3286SOL     OW10756   3.639   4.609   5.593
 3286SOL    HW110757   3.566   4.661   5.637
 3286SOL    HW210758   3.711   4.588   5.660
 3287SOL     OW10759   0.830   5.515   1.339
 3287SOL    HW110760   0.925   5.487   1.330
 3287SOL    HW210761   0.807   5.582   1.268
 3288SOL     OW10762   1.192   6.362   0.131
 3288SOL    HW110763   1.129   6.415   0.188
 3288SOL    HW210764   1.286   6.393   0.149
 3289SOL     OW10765   1.103   5.583   4.731
 3289SOL    HW110766   1.184   5.627   4.770
 3289SOL    HW210767   1.128   5.538   4.645
 3290SOL     OW10768   6.913   5.616   1.926
 3290SOL    HW110769   6.878   5.558   1.853
 3290SOL    HW210770   6.838   5.662   1.971
 3291SOL     OW10771   1.836   6.912   1.387
 3291SOL    HW110772   1.820   7.004   1.353
 3291SOL    HW210773   1.914   6.913   1.450
 3292SOL     OW10774   0.649   5.737   5.230
 3292SOL    HW110775   0.674   5.832   5.243
 3292SOL    HW210776   0.624   5.696   5.318
 3293SOL     OW10777   6.599   0.455   3.156
 3293SOL    HW110778   6.501   0.462   3.135
 3293SOL    HW210779   6.635   0.370   3.118
 3294SOL     OW10780   0.640   0.066   6.835
 3294SOL    HW110781   0.566   0.100   6.778
 3294SOL    HW210782   0.712   0.135   6.840
 3295SOL     OW10783   1.393   2.533   6.421
 3295SOL    HW110784   1.379   2.621   6.376
 3295SOL    HW210785   1.352   2.536   6.512
 3296SOL     OW10786   0.378   6.570   1.825
 3296SOL    HW110787   0.392   6.652   1.769
 3296SOL    HW210788   0.347   6.597   1.916
 3297SOL     OW10789   3.153   2.378   5.926
 3297SOL    HW110790   3.237   2.343   5.885
 3297SOL    HW210791   3.076   2.362   5.864
 3298SOL     OW10792   5.906   3.705   3.422
 3298SOL    HW110793   5.976   3.659   3.368
 3298SOL    HW210794   5.820   3.706   3.372
 3299SOL     OW10795   1.292   0.297   4.613
 3299SOL    HW110796   1.235   0.367   4.571
 3299SOL    HW210797   1.343   0.336   4.690
 3300SOL     OW10798   6.521   0.229   4.509
 3300SOL    HW110799   6.522   0.132   4.532
 3300SOL    HW210800   6.593   0.277   4.560
 3301SOL     OW10801   0.685   4.057   2.889
 3301SOL    HW110802   0.654   4.131   2.949
 3301SOL    HW210803   0.729   4.095   2.808
 3302SOL     OW10804   0.886   5.044   3.704
 3302SOL    HW110805   0.845   5.135   3.703
 3302SOL    HW210806   0.985   5.052   3.703
 3303SOL     OW10807   3.555   4.025   3.576
 3303SOL    HW110808   3.648   4.060   3.586
 3303SOL    HW210809   3.543   3.945   3.635
 3304SOL     OW10810   0.854   6.735   4.060
 3304SOL    HW110811   0.945   6.729   4.102
 3304SOL    HW210812   0.791   6.676   4.109
 3305SOL     OW10813   1.075   1.072   1.799
 3305SOL    HW110814   1.113   0.980   1.799
 3305SOL    HW210815   1.075   1.108   1.892
 3306SOL     OW10816   1.188   3.692   2.460
 3306SOL    HW110817   1.131   3.760   2.506
 3306SOL    HW210818   1.179   3.604   2.506
 3307SOL     OW10819   0.279   6.098   0.323
 3307SOL    HW110820   0.268   6.000   0.335
 3307SOL    HW210821   0.351   6.131   0.384
 3308SOL     OW10822   4.830   6.048   0.380
 3308SOL    HW110823   4.914   6.045   0.327
 3308SOL    HW210824   4.825   5.967   0.440
 3309SOL     OW10825   0.909   5.845   2.695
 3309SOL    HW110826   0.856   5.833   2.780
 3309SOL    HW210827   0.990   5.787   2.699
 3310SOL     OW10828   1.244   6.766   1.450
 3310SOL    HW110829   1.185   6.756   1.370
 3310SOL    HW210830   1.270   6.862   1.461
 3311SOL     OW10831   3.865   6.122   0.560
 3311SOL    HW110832   3.837   6.083   0.647
 3311SOL    HW210833   3.919   6.205   0.576
 3312SOL     OW10834   2.233   3.295   0.059
 3312SOL    HW110835   2.151   3.237   0.052
 3312SOL    HW210836   2.206   3.386   0.090
 3313SOL     OW10837   6.946   5.849   4.703
 3313SOL    HW110838   6.904   5.856   4.612
 3313SOL    HW210839   6.922   5.761   4.744
 3314SOL     OW10840   0.856   3.354   6.412
 3314SOL    HW110841   0.864   3.364   6.511
 3314SOL    HW210842   0.942   3.319   6.375
 3315SOL     OW10843   6.643   2.995   3.006
 3315SOL    HW110844   6.622   3.085   3.043
 3315SOL    HW210845   6.558   2.946   2.987
 3316SOL     OW10846   4.314   0.605   0.412
 3316SOL    HW110847   4.327   0.537   0.485
 3316SOL    HW210848   4.217   0.624   0.401
 3317SOL     OW10849   4.748   2.247   1.756
 3317SOL    HW110850   4.777   2.215   1.846
 3317SOL    HW210851   4.665   2.301   1.765
 3318SOL     OW10852   2.381   5.370   5.043
 3318SOL    HW110853   2.334   5.344   5.127
 3318SOL    HW210854   2.473   5.331   5.042
 3319SOL     OW10855   0.268   5.560   5.931
 3319SOL    HW110856   0.180   5.580   5.973
 3319SOL    HW210857   0.319   5.496   5.988
 3320SOL     OW10858   6.948   2.019   5.678
 3320SOL    HW110859   6.878   2.077   5.636
 3320SOL    HW210860   6.981   1.952   5.612
 3321SOL     OW10861   3.093   3.905   3.889
 3321SOL    HW110862   3.038   3.834   3.933
 3321SOL    HW210863   3.056   3.923   3.798
 3322SOL     OW10864   4.702   1.916   1.486
 3322SOL    HW110865   4.765   1.933   1.561
 3322SOL    HW210866   4.638   1.993   1.478
 3323SOL     OW10867   2.834   5.240   0.233
 3323SOL    HW110868   2.873   5.324   0.195
 3323SOL    HW210869   2.856   5.164   0.172
 3324SOL     OW10870   0.435   2.688   0.352
 3324SOL    HW110871   0.404   2.605   0.399
 3324SOL    HW210872   0.487   2.744   0.416
 3325SOL     OW10873   1.801   3.152   0.285
 3325SOL    HW110874   1.738   3.074   0.289
 3325SOL    HW210875   1.809   3.193   0.376
 3326SOL     OW10876   6.476   0.428   1.834
 3326SOL    HW110877   6.550   0.372   1.796
 3326SOL    HW210878   6.499   0.452   1.928
 3327SOL     OW10879   2.884   6.928   1.821
 3327SOL    HW110880   2.907   7.014   1.865
 3327SOL    HW210881   2.962   6.866   1.823
 3328SOL     OW10882   4.323   1.155   3.008
 3328SOL    HW110883   4.359   1.176   2.917
 3328SOL    HW210884   4.384   1.192   3.077
 3329SOL     OW10885   5.134   1.178   5.606
 3329SOL    HW110886   5.138   1.273   5.636
 3329SOL    HW210887   5.060   1.168   5.539
 3330SOL     OW10888   6.720   5.489   3.342
 3330SOL    HW110889   6.632   5.536   3.351
 3330SOL    HW210890   6.751   5.494   3.247
 3331SOL     OW10891   2.124   3.375   2.928
 3331SOL    HW110892   2.055   3.350   2.997
 3331SOL    HW210893   2.086   3.445   2.868
 3332SOL     OW10894   3.292   4.902   1.049
 3332SOL    HW110895   3.357   4.967   1.089
 3332SOL    HW210896   3.274   4.927   0.954
 3333SOL     OW10897   2.526   3.128   1.698
 3333SOL    HW110898   2.572   3.142   1.611
 3333SOL    HW210899   2.483   3.037   1.699
 3334SOL     OW10900   2.153   2.405   1.724
 3334SOL    HW110901   2.089   2.341   1.680
 3334SOL    HW210902   2.110   2.446   1.804
 3335SOL     OW10903   3.667   4.326   5.510
 3335SOL    HW110904   3.709   4.321   5.601
 3335SOL    HW210905   3.622   4.414   5.499
 3336SOL     OW10906   5.228   5.282   4.235
 3336SOL    HW110907   5.293   5.358   4.223
 3336SOL    HW210908   5.240   5.241   4.325
 3337SOL     OW10909   3.338   3.024   2.696
 3337SOL    HW110910   3.262   2.990   2.750
 3337SOL    HW210911   3.350   2.967   2.615
 3338SOL     OW10912   2.843   2.800   1.616
 3338SOL    HW110913   2.754   2.784   1.573
 3338SOL    HW210914   2.884   2.713   1.641
 3339SOL     OW10915   2.093   0.033   6.377
 3339SOL    HW110916   2.069   0.007   6.471
 3339SOL    HW210917   2.050   6.990   6.313
 3340SOL     OW10918   3.714   0.814   3.998
 3340SOL    HW110919   3.646   0.784   4.065
 3340SOL    HW210920   3.793   0.852   4.046
 3341SOL     OW10921   1.098   4.316   2.422
 3341SOL    HW110922   1.173   4.303   2.486
 3341SOL    HW210923   1.134   4.328   2.329
 3342SOL     OW10924   6.783   0.863   2.569
 3342SOL    HW110925   6.737   0.804   2.503
 3342SOL    HW210926   6.828   0.808   2.639
 3343SOL     OW10927   4.730   5.271   0.442
 3343SOL    HW110928   4.660   5.215   0.488
 3343SOL    HW210929   4.698   5.294   0.350
 3344SOL     OW10930   0.947   3.301   2.193
 3344SOL    HW110931   0.978   3.383   2.240
 3344SOL    HW210932   0.943   3.224   2.257
 3345SOL     OW10933   5.874   5.534   6.735
 3345SOL    HW110934   5.858   5.479   6.817
 3345SOL    HW210935   5.965   5.513   6.698
 3346SOL     OW10936   1.668   1.014   0.151
 3346SOL    HW110937   1.711   1.065   0.077
 3346SOL    HW210938   1.684   1.061   0.238
 3347SOL     OW10939   0.226   3.709   5.934
 3347SOL    HW110940   0.134   3.673   5.917
 3347SOL    HW210941   0.222   3.775   6.009
 3348SOL     OW10942   3.349   4.153   5.970
 3348SOL    HW110943   3.436   4.197   5.988
 3348SOL    HW210944   3.348   4.116   5.877
 3349SOL     OW10945   1.797   5.425   3.351
 3349SOL    HW110946   1.827   5.355   3.416
 3349SOL    HW210947   1.867   5.437   3.280
 3350SOL     OW10948   2.021   4.910   4.428
 3350SOL    HW110949   2.044   4.813   4.421
 3350SOL    HW210950   2.103   4.961   4.456
 3351SOL     OW10951   5.450   1.105   1.792
 3351SOL    HW110952   5.464   1.029   1.728
 3351SOL    HW210953   5.538   1.140   1.823
 3352SOL     OW10954   5.755   1.188   0.321
 3352SOL    HW110955   5.780   1.195   0.224
 3352SOL    HW210956   5.818   1.126   0.367
 3353SOL     OW10957   4.036   0.447   1.044
 3353SOL    HW110958   3.989   0.359   1.053
 3353SOL    HW210959   4.135   0.432   1.051
 3354SOL     OW10960   3.288   4.015   6.225
 3354SOL    HW110961   3.310   4.072   6.146
 3354SOL    HW210962   3.200   4.042   6.262
 3355SOL     OW10963   1.575   0.136   5.061
 3355SOL    HW110964   1.486   0.101   5.032
 3355SOL    HW210965   1.647   0.089   5.011
 3356SOL     OW10966   1.897   0.648   6.068
 3356SOL    HW110967   1.831   0.587   6.110
 3356SOL    HW210968   1.978   0.656   6.127
 3357SOL     OW10969   3.407   2.859   2.509
 3357SOL    HW110970   3.427   2.885   2.414
 3357SOL    HW210971   3.403   2.760   2.516
 3358SOL     OW10972   6.951   1.286   1.697
 3358SOL    HW110973   6.895   1.221   1.749
 3358SOL    HW210974   6.959   1.254   1.603
 3359SOL     OW10975   0.536   0.147   4.859
 3359SOL    HW110976   0.465   0.203   4.816
 3359SOL    HW210977   0.516   0.050   4.844
 3360SOL     OW10978   1.759   4.262   4.051
 3360SOL    HW110979   1.845   4.271   4.102
 3360SOL    HW210980   1.779   4.228   3.959
 3361SOL     OW10981   6.201   6.791   5.219
 3361SOL    HW110982   6.123   6.854   5.216
 3361SOL    HW210983   6.282   6.838   5.183
 3362SOL     OW10984   3.476   0.723   3.854
 3362SOL    HW110985   3.549   0.786   3.877
 3362SOL    HW210986   3.443   0.742   3.761
 3363SOL     OW10987   5.642   3.812   0.290
 3363SOL    HW110988   5.634   3.769   0.380
 3363SOL    HW210989   5.596   3.901   0.292
 3364SOL     OW10990   1.790   3.594   3.481
 3364SOL    HW110991   1.878   3.550   3.463
 3364SOL    HW210992   1.748   3.622   3.395
 3365SOL     OW10993   1.427   3.668   3.308
 3365SOL    HW110994   1.512   3.641   3.262
 3365SOL    HW210995   1.442   3.677   3.406
 3366SOL     OW10996   5.609   3.394   4.827
 3366SOL    HW110997   5.562   3.469   4.780
 3366SOL    HW210998   5.679   3.432   4.888
 3367SOL     OW10999   3.227   4.092   3.677
 3367SOL    HW111000   3.274   4.119   3.593
 3367SOL    HW211001   3.139   4.050   3.655
 3368SOL     OW11002   1.958   0.570   2.214
 3368SOL    HW111003   2.019   0.639   2.176
 3368SOL    HW211004   1.897   0.612   2.281
 3369SOL     OW11005   5.227   2.117   1.440
 3369SOL    HW111006   5.181   2.202   1.417
 3369SOL    HW211007   5.167   2.040   1.419
 3370SOL     OW11008   0.628   5.663   2.733
 3370SOL    HW111009   0.552   5.638   2.672
 3370SOL    HW211010   0.713   5.627   2.696
 3371SOL     OW11011   2.283   2.788   2.035
 3371SOL    HW111012   2.232   2.864   2.076
 3371SOL    HW211013   2.272   2.706   2.092
 3372SOL     OW11014   6.701   4.032   2.666
 3372SOL    HW111015   6.717   4.106   2.600
 3372SOL    HW211016   6.782   4.022   2.724
 3373SOL     OW11017   0.225   3.310   1.788
 3373SOL    HW111018   0.143   3.339   1.837
 3373SOL    HW211019   0.200   3.274   1.698
 3374SOL     OW11020   0.327   6.665   3.990
 3374SOL    HW111021   0.369   6.748   4.029
 3374SOL    HW211022   0.398   6.596   3.976
 3375SOL     OW11023   0.622   5.486   5.685
 3375SOL    HW111024   0.718   5.460   5.671
 3375SOL    HW211025   0.567   5.404   5.698
 3376SOL     OW11026   3.205   3.048   4.473
 3376SOL    HW111027   3.212   3.006   4.564
 3376SOL    HW211028   3.109   3.067   4.453
 3377SOL     OW11029   6.802   5.038   3.815
 3377SOL    HW111030   6.822   5.106   3.884
 3377SOL    HW211031   6.717   4.990   3.837
 3378SOL     OW11032   1.305   6.745   0.287
 3378SOL    HW111033   1.230   6.770   0.225
 3378SOL    HW211034   1.345   6.658   0.259
 3379SOL     OW11035   6.601   4.447   3.587
 3379SOL    HW111036   6.578   4.409   3.497
 3379SOL    HW211037   6.570   4.542   3.591
 3380SOL     OW11038   2.798   4.747   0.449
 3380SOL    HW111039   2.703   4.759   0.477
 3380SOL    HW211040   2.841   4.678   0.507
 3381SOL     OW11041   2.169   3.943   5.973
 3381SOL    HW111042   2.201   3.849   5.962
 3381SOL    HW211043   2.237   4.006   5.935
 3382SOL     OW11044   6.688   3.605   0.488
 3382SOL    HW111045   6.656   3.690   0.531
 3382SOL    HW211046   6.708   3.623   0.392
 3383SOL     OW11047   4.210   5.152   0.282
 3383SOL    HW111048   4.283   5.138   0.215
 3383SOL    HW211049   4.204   5.250   0.305
 3384SOL     OW11050   2.800   3.738   6.665
 3384SOL    HW111051   2.826   3.672   6.595
 3384SOL    HW211052   2.797   3.693   6.754
 3385SOL     OW11053   6.811   2.475   3.959
 3385SOL    HW111054   6.781   2.529   3.880
 3385SOL    HW211055   6.901   2.436   3.941
 3386SOL     OW11056   0.198   5.302   4.871
 3386SOL    HW111057   0.173   5.264   4.782
 3386SOL    HW211058   0.247   5.389   4.857
 3387SOL     OW11059   6.316   1.074   3.311
 3387SOL    HW111060   6.256   1.003   3.347
 3387SOL    HW211061   6.337   1.055   3.215
 3388SOL     OW11062   6.917   3.758   0.883
 3388SOL    HW111063   7.008   3.719   0.895
 3388SOL    HW211064   6.870   3.765   0.971
 3389SOL     OW11065   5.487   5.839   6.744
 3389SOL    HW111066   5.478   5.845   6.843
 3389SOL    HW211067   5.563   5.896   6.713
 3390SOL     OW11068   3.080   5.962   6.486
 3390SOL    HW111069   3.082   6.045   6.542
 3390SOL    HW211070   3.025   5.892   6.532
 3391SOL     OW11071   5.593   4.046   4.005
 3391SOL    HW111072   5.533   3.967   4.009
 3391SOL    HW211073   5.678   4.022   3.958
 3392SOL     OW11074   4.859   0.300   6.136
 3392SOL    HW111075   4.919   0.240   6.084
 3392SOL    HW211076   4.814   0.248   6.209
 3393SOL     OW11077   4.029   6.347   0.660
 3393SOL    HW111078   4.093   6.277   0.691
 3393SOL    HW211079   4.045   6.432   0.711
 3394SOL     OW11080   2.700   5.331   1.664
 3394SOL    HW111081   2.741   5.240   1.656
 3394SOL    HW211082   2.650   5.352   1.580
 3395SOL     OW11083   2.558   6.735   3.313
 3395SOL    HW111084   2.492   6.661   3.328
 3395SOL    HW211085   2.651   6.700   3.329
 3396SOL     OW11086   4.429   0.598   3.791
 3396SOL    HW111087   4.527   0.574   3.795
 3396SOL    HW211088   4.411   0.676   3.850
 3397SOL     OW11089   2.218   5.646   6.581
 3397SOL    HW111090   2.264   5.558   6.570
 3397SOL    HW211091   2.153   5.640   6.657
 3398SOL     OW11092   6.376   2.188   4.628
 3398SOL    HW111093   6.336   2.280   4.618
 3398SOL    HW211094   6.475   2.194   4.621
 3399SOL     OW11095   6.752   6.417   2.014
 3399SOL    HW111096   6.694   6.425   1.933
 3399SOL    HW211097   6.710   6.468   2.089
 3400SOL     OW11098   4.166   2.928   5.657
 3400SOL    HW111099   4.235   2.971   5.715
 3400SOL    HW211100   4.161   2.830   5.678
 3401SOL     OW11101   6.349   3.875   5.537
 3401SOL    HW111102   6.295   3.936   5.478
 3401SOL    HW211103   6.421   3.927   5.581
 3402SOL     OW11104   6.941   3.534   0.606
 3402SOL    HW111105   6.928   3.552   0.704
 3402SOL    HW211106   6.854   3.543   0.558
 3403SOL     OW11107   5.126   6.930   6.874
 3403SOL    HW111108   5.144   6.962   6.781
 3403SOL    HW211109   5.208   6.941   6.930
 3404SOL     OW11110   5.111   4.175   4.585
 3404SOL    HW111111   5.042   4.240   4.553
 3404SOL    HW211112   5.200   4.220   4.592
 3405SOL     OW11113   4.599   6.215   0.282
 3405SOL    HW111114   4.617   6.207   0.184
 3405SOL    HW211115   4.659   6.151   0.331
 3406SOL     OW11116   2.743   5.598   1.696
 3406SOL    HW111117   2.656   5.642   1.716
 3406SOL    HW211118   2.731   5.498   1.700
 3407SOL     OW11119   1.082   4.019   6.536
 3407SOL    HW111120   1.004   4.081   6.538
 3407SOL    HW211121   1.139   4.034   6.616
 3408SOL     OW11122   5.067   0.451   3.688
 3408SOL    HW111123   5.074   0.400   3.774
 3408SOL    HW211124   5.148   0.510   3.678
 3409SOL     OW11125   4.328   0.922   0.690
 3409SOL    HW111126   4.396   0.851   0.711
 3409SOL    HW211127   4.238   0.880   0.678
 3410SOL     OW11128   5.921   0.111   3.344
 3410SOL    HW111129   5.841   0.068   3.301
 3410SOL    HW211130   5.928   0.206   3.314
 3411SOL     OW11131   6.396   3.060   6.017
 3411SOL    HW111132   6.398   3.160   6.008
 3411SOL    HW211133   6.387   3.035   6.113
 3412SOL     OW11134   5.872   3.425   2.219
 3412SOL    HW111135   5.858   3.523   2.228
 3412SOL    HW211136   5.946   3.408   2.154
 3413SOL     OW11137   0.114   1.113   0.255
 3413SOL    HW111138   0.130   1.015   0.252
 3413SOL    HW211139   0.024   1.133   0.215
 3414SOL     OW11140   3.519   3.656   1.258
 3414SOL    HW111141   3.584   3.597   1.210
 3414SOL    HW211142   3.562   3.694   1.340
 3415SOL     OW11143   2.319   1.590   5.821
 3415SOL    HW111144   2.367   1.678   5.819
 3415SOL    HW211145   2.315   1.556   5.914
 3416SOL     OW11146   6.522   6.971   6.567
 3416SOL    HW111147   6.555   0.003   6.644
 3416SOL    HW211148   6.562   7.005   6.483
 3417SOL     OW11149   6.190   6.281   3.391
 3417SOL    HW111150   6.287   6.302   3.375
 3417SOL    HW211151   6.165   6.307   3.484
 3418SOL     OW11152   3.777   5.005   0.773
 3418SOL    HW111153   3.694   4.987   0.720
 3418SOL    HW211154   3.767   4.967   0.865
 3419SOL     OW11155   2.767   5.496   5.192
 3419SOL    HW111156   2.706   5.425   5.156
 3419SOL    HW211157   2.748   5.512   5.289
 3420SOL     OW11158   4.796   1.825   2.122
 3420SOL    HW111159   4.789   1.922   2.148
 3420SOL    HW211160   4.846   1.818   2.036
 3421SOL     OW11161   0.043   2.149   5.018
 3421SOL    HW111162   0.130   2.161   4.971
 3421SOL    HW211163   0.017   2.235   5.064
 3422SOL     OW11164   2.013   6.221   0.856
 3422SOL    HW111165   1.983   6.291   0.791
 3422SOL    HW211166   2.112   6.227   0.869
 3423SOL     OW11167   2.025   4.820   5.415
 3423SOL    HW111168   1.982   4.877   5.486
 3423SOL    HW211169   2.124   4.835   5.416
 3424SOL     OW11170   5.499   1.402   2.099
 3424SOL    HW111171   5.460   1.370   2.013
 3424SOL    HW211172   5.437   1.467   2.143
 3425SOL     OW11173   6.637   3.280   6.257
 3425SOL    HW111174   6.567   3.209   6.256
 3425SOL    HW211175   6.648   3.317   6.165
 3426SOL     OW11176   6.616   3.124   6.745
 3426SOL    HW111177   6.600   3.223   6.752
 3426SOL    HW211178   6.685   3.097   6.812
 3427SOL     OW11179   1.223   1.967   0.479
 3427SOL    HW111180   1.135   2.008   0.456
 3427SOL    HW211181   1.295   2.008   0.423
 3428SOL     OW11182   4.306   6.582   4.706
 3428SOL    HW111183   4.234   6.530   4.660
 3428SOL    HW211184   4.365   6.519   4.757
 3429SOL     OW11185   4.744   6.618   1.278
 3429SOL    HW111186   4.839   6.597   1.303
 3429SOL    HW211187   4.729   6.594   1.182
 3430SOL     OW11188   2.800   4.150   5.744
 3430SOL    HW111189   2.794   4.250   5.739
 3430SOL    HW211190   2.769   4.111   5.657
 3431SOL     OW11191   0.343   4.974   2.436
 3431SOL    HW111192   0.415   4.910   2.409
 3431SOL    HW211193   0.259   4.924   2.453
 3432SOL     OW11194   0.554   4.477   0.129
 3432SOL    HW111195   0.508   4.391   0.151
 3432SOL    HW211196   0.535   4.502   0.034
 3433SOL     OW11197   2.551   1.077   6.705
 3433SOL    HW111198   2.552   0.984   6.742
 3433SOL    HW211199   2.457   1.102   6.683
 3434SOL     OW11200   3.709   2.550   1.758
 3434SOL    HW111201   3.617   2.565   1.724
 3434SOL    HW211202   3.713   2.463   1.808
 3435SOL     OW11203   1.374   1.673   1.286
 3435SOL    HW111204   1.449   1.709   1.341
 3435SOL    HW211205   1.300   1.641   1.346
 3436SOL     OW11206   3.602   6.647   6.268
 3436SOL    HW111207   3.593   6.548   6.277
 3436SOL    HW211208   3.562   6.692   6.348
 3437SOL     OW11209   1.363   0.226   6.428
 3437SOL    HW111210   1.408   0.237   6.340
 3437SOL    HW211211   1.272   0.186   6.415
 3438SOL     OW11212   2.291   3.769   0.883
 3438SOL    HW111213   2.274   3.692   0.821
 3438SOL    HW211214   2.390   3.785   0.890
 3439SOL     OW11215   2.425   5.665   1.457
 3439SOL    HW111216   2.504   5.609   1.433
 3439SOL    HW211217   2.359   5.662   1.382
 3440SOL     OW11218   3.880   4.047   5.452
 3440SOL    HW111219   3.818   4.000   5.515
 3440SOL    HW211220   3.827   4.108   5.393
 3441SOL     OW11221   5.843   4.729   5.822
 3441SOL    HW111222   5.833   4.752   5.919
 3441SOL    HW211223   5.810   4.636   5.806
 3442SOL     OW11224   2.475   3.345   1.164
 3442SOL    HW111225   2.399   3.384   1.112
 3442SOL    HW211226   2.503   3.258   1.122
 3443SOL     OW11227   0.288   6.127   2.373
 3443SOL    HW111228   0.347   6.104   2.450
 3443SOL    HW211229   0.344   6.151   2.294
 3444SOL     OW11230   6.609   4.049   5.643
 3444SOL    HW111231   6.674   3.979   5.613
 3444SOL    HW211232   6.649   4.140   5.630
 3445SOL     OW11233   6.584   4.612   4.162
 3445SOL    HW111234   6.648   4.571   4.226
 3445SOL    HW211235   6.621   4.606   4.069
 3446SOL     OW11236   4.478   0.939   1.802
 3446SOL    HW111237   4.573   0.947   1.771
 3446SOL    HW211238   4.473   0.965   1.899
 3447SOL     OW11239   5.186   0.733   6.177
 3447SOL    HW111240   5.221   0.798   6.109
 3447SOL    HW211241   5.236   0.647   6.169
 3448SOL     OW11242   1.731   4.359   5.515
 3448SOL    HW111243   1.639   4.377   5.551
 3448SOL    HW211244   1.750   4.422   5.440
 3449SOL     OW11245   0.757   4.503   5.621
 3449SOL    HW111246   0.685   4.477   5.685
 3449SOL    HW211247   0.716   4.538   5.537
 3450SOL     OW11248   2.272   6.783   1.295
 3450SOL    HW111249   2.261   6.850   1.369
 3450SOL    HW211250   2.294   6.830   1.210
 3451SOL     OW11251   1.710   1.918   1.624
 3451SOL    HW111252   1.738   2.010   1.600
 3451SOL    HW211253   1.707   1.908   1.723
 3452SOL     OW11254   4.789   1.008   4.764
 3452SOL    HW111255   4.755   0.915   4.778
 3452SOL    HW211256   4.718   1.074   4.790
 3453SOL     OW11257   4.304   6.249   6.930
 3453SOL    HW111258   4.323   6.221   0.002
 3453SOL    HW211259   4.263   6.341   6.930
 3454SOL     OW11260   0.144   3.022   1.625
 3454SOL    HW111261   0.167   2.950   1.559
 3454SOL    HW211262   0.126   3.107   1.576
 3455SOL     OW11263   0.509   3.437   5.993
 3455SOL    HW111264   0.453   3.406   5.916
 3455SOL    HW211265   0.581   3.369   6.011
 3456SOL     OW11266   4.872   5.265   3.556
 3456SOL    HW111267   4.896   5.172   3.586
 3456SOL    HW211268   4.896   5.276   3.460
 3457SOL     OW11269   3.624   4.294   6.321
 3457SOL    HW111270   3.631   4.221   6.389
 3457SOL    HW211271   3.629   4.255   6.229
 3458SOL     OW11272   4.509   1.382   2.240
 3458SOL    HW111273   4.471   1.323   2.168
 3458SOL    HW211274   4.506   1.333   2.327
 3459SOL     OW11275   5.559   5.864   2.085
 3459SOL    HW111276   5.509   5.821   2.010
 3459SOL    HW211277   5.652   5.826   2.089
 3460SOL     OW11278   3.416   2.062   4.557
 3460SOL    HW111279   3.471   2.095   4.633
 3460SOL    HW211280   3.344   2.002   4.592
 3461SOL     OW11281   5.577   4.882   4.937
 3461SOL    HW111282   5.629   4.956   4.980
 3461SOL    HW211283   5.541   4.913   4.849
 3462SOL     OW11284   1.179   3.417   6.541
 3462SOL    HW111285   1.113   3.465   6.599
 3462SOL    HW211286   1.130   3.361   6.474
 3463SOL     OW11287   5.543   4.030   0.223
 3463SOL    HW111288   5.600   4.063   0.148
 3463SOL    HW211289   5.519   4.106   0.283
 3464SOL     OW11290   0.438   4.461   4.702
 3464SOL    HW111291   0.379   4.511   4.766
 3464SOL    HW211292   0.488   4.526   4.645
 3465SOL     OW11293   0.998   1.587   2.519
 3465SOL    HW111294   0.924   1.560   2.457
 3465SOL    HW211295   0.989   1.537   2.605
 3466SOL     OW11296   7.016   3.448   4.915
 3466SOL    HW111297   7.003   3.411   5.007
 3466SOL    HW211298   0.069   3.401   4.870
 3467SOL     OW11299   1.924   2.696   5.931
 3467SOL    HW111300   1.887   2.773   5.878
 3467SOL    HW211301   1.869   2.615   5.912
 3468SOL     OW11302   4.203   6.532   2.468
 3468SOL    HW111303   4.261   6.585   2.530
 3468SOL    HW211304   4.160   6.456   2.517
 3469SOL     OW11305   5.262   3.536   1.218
 3469SOL    HW111306   5.240   3.613   1.158
 3469SOL    HW211307   5.253   3.564   1.313
 3470SOL     OW11308   0.117   5.242   0.735
 3470SOL    HW111309   0.048   5.313   0.719
 3470SOL    HW211310   0.194   5.282   0.785
 3471SOL     OW11311   4.354   0.331   4.422
 3471SOL    HW111312   4.368   0.260   4.491
 3471SOL    HW211313   4.267   0.317   4.376
 3472SOL     OW11314   4.388   1.126   5.052
 3472SOL    HW111315   4.444   1.042   5.054
 3472SOL    HW211316   4.448   1.206   5.047
 3473SOL     OW11317   4.608   6.561   4.127
 3473SOL    HW111318   4.534   6.605   4.177
 3473SOL    HW211319   4.604   6.462   4.141
 3474SOL     OW11320   5.554   4.227   1.037
 3474SOL    HW111321   5.497   4.308   1.050
 3474SOL    HW211322   5.622   4.222   1.110
 3475SOL     OW11323   1.697   6.256   4.867
 3475SOL    HW111324   1.741   6.254   4.957
 3475SOL    HW211325   1.758   6.299   4.801
 3476SOL     OW11326   4.966   1.162   4.605
 3476SOL    HW111327   4.912   1.192   4.683
 3476SOL    HW211328   4.979   1.063   4.608
 3477SOL     OW11329   4.363   5.870   1.762
 3477SOL    HW111330   4.436   5.937   1.775
 3477SOL    HW211331   4.291   5.885   1.829
 3478SOL     OW11332   4.127   4.994   6.867
 3478SOL    HW111333   4.127   4.904   6.910
 3478SOL    HW211334   4.219   5.013   6.832
 3479SOL     OW11335   1.222   6.982   1.617
 3479SOL    HW111336   1.226   6.893   1.664
 3479SOL    HW211337   1.128   7.016   1.619
 3480SOL     OW11338   1.180   0.626   4.106
 3480SOL    HW111339   1.113   0.662   4.171
 3480SOL    HW211340   1.272   0.645   4.139
 3481SOL     OW11341   2.507   0.032   6.677
 3481SOL    HW111342   2.501   0.080   6.765
 3481SOL    HW211343   2.535   6.959   6.691
 3482SOL     OW11344   0.808   1.852   1.460
 3482SOL    HW111345   0.858   1.934   1.487
 3482SOL    HW211346   0.820   1.835   1.363
 3483SOL     OW11347   4.371   1.611   0.764
 3483SOL    HW111348   4.405   1.704   0.779
 3483SOL    HW211349   4.373   1.590   0.667
 3484SOL     OW11350   2.999   3.174   4.096
 3484SOL    HW111351   2.979   3.253   4.039
 3484SOL    HW211352   2.981   3.090   4.045
 3485SOL     OW11353   6.857   1.847   4.593
 3485SOL    HW111354   6.798   1.903   4.535
 3485SOL    HW211355   6.870   1.757   4.551
 3486SOL     OW11356   4.991   1.104   3.318
 3486SOL    HW111357   4.924   1.030   3.308
 3486SOL    HW211358   5.018   1.136   3.228
 3487SOL     OW11359   0.455   0.530   0.504
 3487SOL    HW111360   0.420   0.611   0.456
 3487SOL    HW211361   0.549   0.547   0.534
 3488SOL     OW11362   6.022   3.532   3.768
 3488SOL    HW111363   6.095   3.494   3.710
 3488SOL    HW211364   5.948   3.566   3.710
 3489SOL     OW11365   2.156   6.471   0.034
 3489SOL    HW111366   2.138   6.455   0.131
 3489SOL    HW211367   2.077   6.514   7.014
 3490SOL     OW11368   4.335   2.788   1.554
 3490SOL    HW111369   4.267   2.755   1.489
 3490SOL    HW211370   4.311   2.758   1.646
 3491SOL     OW11371   0.039   2.886   5.235
 3491SOL    HW111372   0.013   2.814   5.170
 3491SOL    HW211373   0.114   2.855   5.292
 3492SOL     OW11374   5.110   5.085   6.370
 3492SOL    HW111375   5.020   5.127   6.357
 3492SOL    HW211376   5.104   4.987   6.350
 3493SOL     OW11377   0.353   4.818   0.825
 3493SOL    HW111378   0.357   4.918   0.822
 3493SOL    HW211379   0.362   4.787   0.919
 3494SOL     OW11380   3.167   6.210   1.025
 3494SOL    HW111381   3.265   6.216   1.044
 3494SOL    HW211382   3.153   6.152   0.945
 3495SOL     OW11383   5.183   4.166   0.491
 3495SOL    HW111384   5.164   4.073   0.524
 3495SOL    HW211385   5.107   4.226   0.518
 3496SOL     OW11386   0.868   4.757   0.376
 3496SOL    HW111387   0.849   4.663   0.405
 3496SOL    HW211388   0.886   4.758   0.278
 3497SOL     OW11389   4.370   6.467   3.883
 3497SOL    HW111390   4.342   6.373   3.901
 3497SOL    HW211391   4.470   6.471   3.879
 3498SOL     OW11392   1.458   1.776   1.017
 3498SOL    HW111393   1.538   1.825   1.052
 3498SOL    HW211394   1.387   1.775   1.087
 3499SOL     OW11395   6.535   3.834   4.105
 3499SOL    HW111396   6.483   3.749   4.095
 3499SOL    HW211397   6.531   3.886   4.020
 3500SOL     OW11398   6.727   3.190   0.753
 3500SOL    HW111399   6.656   3.237   0.701
 3500SOL    HW211400   6.710   3.091   0.752
 3501SOL     OW11401   0.906   4.534   3.918
 3501SOL    HW111402   0.856   4.478   3.852
 3501SOL    HW211403   0.866   4.626   3.921
 3502SOL     OW11404   1.033   4.016   1.752
 3502SOL    HW111405   1.072   3.924   1.749
 3502SOL    HW211406   0.937   4.013   1.725
 3503SOL     OW11407   3.780   6.606   4.005
 3503SOL    HW111408   3.766   6.701   3.975
 3503SOL    HW211409   3.859   6.567   3.957
 3504SOL     OW11410   2.074   3.377   2.437
 3504SOL    HW111411   2.089   3.312   2.362
 3504SOL    HW211412   2.162   3.407   2.473
 3505SOL     OW11413   4.183   6.117   4.960
 3505SOL    HW111414   4.099   6.159   4.926
 3505SOL    HW211415   4.237   6.186   5.008
 3506SOL     OW11416   5.646   4.741   2.405
 3506SOL    HW111417   5.614   4.701   2.491
 3506SOL    HW211418   5.729   4.794   2.423
 3507SOL     OW11419   0.404   0.453   6.425
 3507SOL    HW111420   0.306   0.445   6.407
 3507SOL    HW211421   0.452   0.472   6.339
 3508SOL     OW11422   6.049   3.609   0.323
 3508SOL    HW111423   6.140   3.616   0.365
 3508SOL    HW211424   5.984   3.663   0.376
 3509SOL     OW11425   6.647   0.353   0.739
 3509SOL    HW111426   6.718   0.314   0.679
 3509SOL    HW211427   6.691   0.406   0.812
 3510SOL     OW11428   1.757   2.404   2.368
 3510SOL    HW111429   1.818   2.325   2.363
 3510SOL    HW211430   1.801   2.483   2.325
 3511SOL     OW11431   1.123   0.550   5.051
 3511SOL    HW111432   1.114   0.451   5.036
 3511SOL    HW211433   1.066   0.578   5.128
 3512SOL     OW11434   2.705   3.024   0.804
 3512SOL    HW111435   2.682   3.028   0.707
 3512SOL    HW211436   2.773   2.953   0.819
 3513SOL     OW11437   5.796   4.284   1.348
 3513SOL    HW111438   5.788   4.383   1.338
 3513SOL    HW211439   5.744   4.255   1.429
 3514SOL     OW11440   1.696   6.394   2.142
 3514SOL    HW111441   1.758   6.395   2.064
 3514SOL    HW211442   1.708   6.309   2.193
 3515SOL     OW11443   3.682   5.801   3.290
 3515SOL    HW111444   3.742   5.864   3.242
 3515SOL    HW211445   3.629   5.850   3.359
 3516SOL     OW11446   2.933   1.156   0.915
 3516SOL    HW111447   2.864   1.219   0.881
 3516SOL    HW211448   2.947   1.083   0.848
 3517SOL     OW11449   0.802   0.479   6.354
 3517SOL    HW111450   0.820   0.391   6.312
 3517SOL    HW211451   0.889   0.523   6.379
 3518SOL     OW11452   4.853   3.115   5.615
 3518SOL    HW111453   4.902   3.115   5.528
 3518SOL    HW211454   4.862   3.026   5.659
 3519SOL     OW11455   2.880   6.447   0.505
 3519SOL    HW111456   2.873   6.461   0.406
 3519SOL    HW211457   2.975   6.423   0.528
 3520SOL     OW11458   3.900   5.284   1.226
 3520SOL    HW111459   3.805   5.312   1.236
 3520SOL    HW211460   3.960   5.354   1.264
 3521SOL     OW11461   5.641   1.971   6.352
 3521SOL    HW111462   5.618   2.046   6.415
 3521SOL    HW211463   5.674   1.893   6.405
 3522SOL     OW11464   3.031   5.846   1.359
 3522SOL    HW111465   3.015   5.934   1.313
 3522SOL    HW211466   3.021   5.772   1.293
 3523SOL     OW11467   2.213   5.148   5.286
 3523SOL    HW111468   2.206   5.057   5.326
 3523SOL    HW211469   2.272   5.145   5.205
 3524SOL     OW11470   2.250   6.971   1.502
 3524SOL    HW111471   2.303   0.017   1.553
 3524SOL    HW211472   2.162   6.958   1.548
 3525SOL     OW11473   1.870   3.413   2.813
 3525SOL    HW111474   1.818   3.449   2.735
 3525SOL    HW211475   1.913   3.326   2.787
 3526SOL     OW11476   3.337   0.330   3.102
 3526SOL    HW111477   3.293   0.419   3.110
 3526SOL    HW211478   3.413   0.324   3.166
 3527SOL     OW11479   5.566   3.137   5.569
 3527SOL    HW111480   5.567   3.226   5.614
 3527SOL    HW211481   5.526   3.069   5.632
 3528SOL     OW11482   1.143   0.123   4.031
 3528SOL    HW111483   1.199   0.082   4.103
 3528SOL    HW211484   1.142   0.222   4.041
 3529SOL     OW11485   3.544   6.029   6.726
 3529SOL    HW111486   3.639   6.062   6.730
 3529SOL    HW211487   3.482   6.108   6.728
 3530SOL     OW11488   1.485   5.989   3.207
 3530SOL    HW111489   1.407   6.022   3.153
 3530SOL    HW211490   1.471   5.893   3.231
 3531SOL     OW11491   4.988   4.105   6.652
 3531SOL    HW111492   5.060   4.053   6.699
 3531SOL    HW211493   4.981   4.197   6.693
 3532SOL     OW11494   1.988   6.732   0.014
 3532SOL    HW111495   2.003   6.830   0.029
 3532SOL    HW211496   1.934   6.718   6.953
 3533SOL     OW11497   1.126   1.076   4.165
 3533SOL    HW111498   1.115   1.125   4.252
 3533SOL    HW211499   1.037   1.064   4.122
 3534SOL     OW11500   4.801   0.602   4.967
 3534SOL    HW111501   4.852   0.521   4.995
 3534SOL    HW211502   4.756   0.642   5.047
 3535SOL     OW11503   4.319   6.227   6.652
 3535SOL    HW111504   4.287   6.145   6.604
 3535SOL    HW211505   4.305   6.216   6.750
 3536SOL     OW11506   1.109   4.135   2.707
 3536SOL    HW111507   1.203   4.143   2.672
 3536SOL    HW211508   1.071   4.227   2.720
 3537SOL     OW11509   2.500   4.536   1.086
 3537SOL    HW111510   2.406   4.550   1.119
 3537SOL    HW211511   2.542   4.461   1.136
 3538SOL     OW11512   3.208   1.389   3.889
 3538SOL    HW111513   3.284   1.324   3.887
 3538SOL    HW211514   3.241   1.478   3.919
 3539SOL     OW11515   5.210   6.258   6.587
 3539SOL    HW111516   5.131   6.263   6.525
 3539SOL    HW211517   5.213   6.168   6.630
 3540SOL     OW11518   2.927   4.119   5.981
 3540SOL    HW111519   2.881   4.129   5.892
 3540SOL    HW211520   2.976   4.032   5.984
 3541SOL     OW11521   1.796   3.104   1.354
 3541SOL    HW111522   1.783   3.100   1.453
 3541SOL    HW211523   1.738   3.175   1.316
 3542SOL     OW11524   5.846   1.176   0.046
 3542SOL    HW111525   5.918   1.245   0.036
 3542SOL    HW211526   5.857   1.107   6.997
 3543SOL     OW11527   0.850   2.339   3.891
 3543SOL    HW111528   0.898   2.267   3.842
 3543SOL    HW211529   0.763   2.304   3.926
 3544SOL     OW11530   3.362   3.943   6.875
 3544SOL    HW111531   3.282   3.922   6.818
 3544SOL    HW211532   3.425   4.002   6.824
 3545SOL     OW11533   3.866   0.202   1.034
 3545SOL    HW111534   3.775   0.201   0.993
 3545SOL    HW211535   3.858   0.195   1.134
 3546SOL     OW11536   6.308   4.136   2.302
 3546SOL    HW111537   6.336   4.119   2.208
 3546SOL    HW211538   6.382   4.183   2.351
 3547SOL     OW11539   1.482   3.804   4.663
 3547SOL    HW111540   1.563   3.761   4.703
 3547SOL    HW211541   1.400   3.759   4.696
 3548SOL     OW11542   5.386   0.569   5.803
 3548SOL    HW111543   5.287   0.582   5.806
 3548SOL    HW211544   5.407   0.483   5.757
 3549SOL     OW11545   2.855   6.650   6.874
 3549SOL    HW111546   2.908   6.648   6.958
 3549SOL    HW211547   2.898   6.713   6.809
 3550SOL     OW11548   5.067   1.093   5.195
 3550SOL    HW111549   5.012   1.012   5.179
 3550SOL    HW211550   5.014   1.161   5.246
 3551SOL     OW11551   4.948   2.103   4.367
 3551SOL    HW111552   4.939   2.003   4.373
 3551SOL    HW211553   5.009   2.126   4.292
 3552SOL     OW11554   5.764   6.804   3.417
 3552SOL    HW111555   5.750   6.877   3.350
 3552SOL    HW211556   5.858   6.809   3.452
 3553SOL     OW11557   5.884   5.832   6.662
 3553SOL    HW111558   5.937   5.831   6.747
 3553SOL    HW211559   5.849   5.740   6.644
 3554SOL     OW11560   5.652   4.134   7.013
 3554SOL    HW111561   5.637   4.082   6.929
 3554SOL    HW211562   5.579   4.202   0.001
 3555SOL     OW11563   3.012   1.796   5.254
 3555SOL    HW111564   3.035   1.818   5.159
 3555SOL    HW211565   3.097   1.782   5.306
 3556SOL     OW11566   5.672   0.748   0.544
 3556SOL    HW111567   5.607   0.680   0.577
 3556SOL    HW211568   5.762   0.730   0.584
 3557SOL     OW11569   5.902   0.286   1.230
 3557SOL    HW111570   5.879   0.305   1.135
 3557SOL    HW211571   6.002   0.290   1.242
 3558SOL     OW11572   4.075   5.403   2.711
 3558SOL    HW111573   4.141   5.331   2.685
 3558SOL    HW211574   3.996   5.398   2.650
 3559SOL     OW11575   4.646   0.029   6.579
 3559SOL    HW111576   4.705   0.018   6.660
 3559SOL    HW211577   4.559   0.071   6.607
 3560SOL     OW11578   1.574   5.532   4.075
 3560SOL    HW111579   1.529   5.539   4.164
 3560SOL    HW211580   1.613   5.620   4.050
 3561SOL     OW11581   4.432   3.632   5.323
 3561SOL    HW111582   4.435   3.581   5.410
 3561SOL    HW211583   4.515   3.613   5.271
 3562SOL     OW11584   2.655   1.949   0.100
 3562SOL    HW111585   2.584   1.911   0.158
 3562SOL    HW211586   2.641   1.921   0.006
 3563SOL     OW11587   6.141   2.443   5.906
 3563SOL    HW111588   6.046   2.420   5.886
 3563SOL    HW211589   6.198   2.360   5.896
 3564SOL     OW11590   6.308   3.335   2.165
 3564SOL    HW111591   6.247   3.350   2.087
 3564SOL    HW211592   6.254   3.315   2.246
 3565SOL     OW11593   4.201   5.882   5.112
 3565SOL    HW111594   4.296   5.853   5.097
 3565SOL    HW211595   4.182   5.962   5.055
 3566SOL     OW11596   0.818   0.139   4.869
 3566SOL    HW111597   0.733   0.095   4.843
 3566SOL    HW211598   0.828   0.135   4.969
 3567SOL     OW11599   0.263   2.999   6.470
 3567SOL    HW111600   0.226   2.947   6.393
 3567SOL    HW211601   0.204   2.988   6.550
 3568SOL     OW11602   5.693   3.825   6.041
 3568SOL    HW111603   5.655   3.827   5.949
 3568SOL    HW211604   5.697   3.730   6.074
 3569SOL     OW11605   1.169   0.465   3.630
 3569SOL    HW111606   1.188   0.521   3.711
 3569SOL    HW211607   1.234   0.488   3.558
 3570SOL     OW11608   5.436   1.637   3.825
 3570SOL    HW111609   5.337   1.626   3.827
 3570SOL    HW211610   5.468   1.640   3.730
 3571SOL     OW11611   6.311   6.882   5.491
 3571SOL    HW111612   6.263   6.943   5.428
 3571SOL    HW211613   6.355   6.809   5.439
 3572SOL     OW11614   6.159   6.194   4.811
 3572SOL    HW111615   6.075   6.180   4.760
 3572SOL    HW211616   6.197   6.284   4.790
 3573SOL     OW11617   0.956   1.949   2.324
 3573SOL    HW111618   0.910   2.037   2.312
 3573SOL    HW211619   0.911   1.879   2.268
 3574SOL     OW11620   6.020   3.682   0.076
 3574SOL    HW111621   6.031   3.653   0.172
 3574SOL    HW211622   5.929   3.721   0.063
 3575SOL     OW11623   6.221   6.188   1.792
 3575SOL    HW111624   6.207   6.263   1.857
 3575SOL    HW211625   6.167   6.206   1.709
 3576SOL     OW11626   0.425   1.613   6.402
 3576SOL    HW111627   0.396   1.520   6.378
 3576SOL    HW211628   0.487   1.609   6.481
 3577SOL     OW11629   1.667   2.930   7.016
 3577SOL    HW111630   1.626   2.963   0.079
 3577SOL    HW211631   1.749   2.878   0.014
 3578SOL     OW11632   3.473   4.697   1.240
 3578SOL    HW111633   3.519   4.763   1.299
 3578SOL    HW211634   3.463   4.610   1.288
 3579SOL     OW11635   0.792   4.488   5.183
 3579SOL    HW111636   0.713   4.437   5.149
 3579SOL    HW211637   0.849   4.429   5.239
 3580SOL     OW11638   6.838   1.905   1.689
 3580SOL    HW111639   6.880   1.990   1.719
 3580SOL    HW211640   6.753   1.925   1.640
 3581SOL     OW11641   6.157   0.532   3.636
 3581SOL    HW111642   6.062   0.518   3.608
 3581SOL    HW211643   6.166   0.622   3.679
 3582SOL     OW11644   6.878   0.593   5.811
 3582SOL    HW111645   6.919   0.617   5.723
 3582SOL    HW211646   6.947   0.596   5.882
 3583SOL     OW11647   2.192   5.597   0.691
 3583SOL    HW111648   2.144   5.516   0.660
 3583SOL    HW211649   2.268   5.616   0.630
 3584SOL     OW11650   5.327   6.757   5.940
 3584SOL    HW111651   5.227   6.765   5.943
 3584SOL    HW211652   5.352   6.675   5.890
 3585SOL     OW11653   2.963   5.122   3.950
 3585SOL    HW111654   3.013   5.088   4.030
 3585SOL    HW211655   2.946   5.220   3.960
 3586SOL     OW11656   6.948   1.843   6.127
 3586SOL    HW111657   6.951   1.773   6.199
 3586SOL    HW211658   6.877   1.820   6.061
 3587SOL     OW11659   3.649   0.067   6.660
 3587SOL    HW111660   3.628   6.991   6.671
 3587SOL    HW211661   3.736   0.087   6.704
 3588SOL     OW11662   1.885   1.164   5.298
 3588SOL    HW111663   1.828   1.233   5.342
 3588SOL    HW211664   1.947   1.209   5.233
 3589SOL     OW11665   3.028   0.581   5.209
 3589SOL    HW111666   2.962   0.611   5.141
 3589SOL    HW211667   3.036   0.481   5.207
 3590SOL     OW11668   1.596   4.788   6.968
 3590SOL    HW111669   1.638   4.837   6.892
 3590SOL    HW211670   1.552   4.854   0.008
 3591SOL     OW11671   4.924   2.109   5.926
 3591SOL    HW111672   4.992   2.060   5.981
 3591SOL    HW211673   4.961   2.123   5.834
 3592SOL     OW11674   4.823   2.858   1.784
 3592SOL    HW111675   4.846   2.802   1.864
 3592SOL    HW211676   4.759   2.930   1.811
 3593SOL     OW11677   1.067   4.809   3.275
 3593SOL    HW111678   1.005   4.875   3.317
 3593SOL    HW211679   1.154   4.854   3.255
 3594SOL     OW11680   3.120   0.619   4.218
 3594SOL    HW111681   3.077   0.702   4.253
 3594SOL    HW211682   3.204   0.642   4.169
 3595SOL     OW11683   2.358   6.396   5.454
 3595SOL    HW111684   2.388   6.462   5.386
 3595SOL    HW211685   2.288   6.336   5.415
 3596SOL     OW11686   6.947   3.139   3.474
 3596SOL    HW111687   7.002   3.200   3.532
 3596SOL    HW211688   6.856   3.128   3.514
 3597SOL     OW11689   3.665   6.089   2.893
 3597SOL    HW111690   3.597   6.019   2.914
 3597SOL    HW211691   3.628   6.179   2.914
 3598SOL     OW11692   1.174   0.394   0.295
 3598SOL    HW111693   1.145   0.377   0.201
 3598SOL    HW211694   1.254   0.454   0.295
 3599SOL     OW11695   0.368   1.852   4.147
 3599SOL    HW111696   0.286   1.863   4.203
 3599SOL    HW211697   0.343   1.852   4.050
 3600SOL     OW11698   6.235   0.750   1.084
 3600SOL    HW111699   6.150   0.774   1.038
 3600SOL    HW211700   6.251   0.651   1.074
 3601SOL     OW11701   6.033   3.800   5.154
 3601SOL    HW111702   6.097   3.784   5.229
 3601SOL    HW211703   5.961   3.731   5.157
 3602SOL     OW11704   1.923   1.903   0.562
 3602SOL    HW111705   1.871   1.894   0.477
 3602SOL    HW211706   2.021   1.908   0.541
 3603SOL     OW11707   4.183   4.747   4.675
 3603SOL    HW111708   4.182   4.838   4.717
 3603SOL    HW211709   4.200   4.679   4.746
 3604SOL     OW11710   0.459   3.244   3.353
 3604SOL    HW111711   0.415   3.323   3.310
 3604SOL    HW211712   0.553   3.268   3.379
 3605SOL     OW11713   6.350   2.991   6.578
 3605SOL    HW111714   6.411   2.932   6.631
 3605SOL    HW211715   6.307   3.058   6.640
 3606SOL     OW11716   1.351   4.214   4.862
 3606SOL    HW111717   1.328   4.308   4.834
 3606SOL    HW211718   1.378   4.161   4.782
 3607SOL     OW11719   4.379   6.869   0.034
 3607SOL    HW111720   4.477   6.866   0.012
 3607SOL    HW211721   4.368   6.892   0.131
 3608SOL     OW11722   1.055   2.501   2.411
 3608SOL    HW111723   1.049   2.412   2.455
 3608SOL    HW211724   1.017   2.495   2.318
 3609SOL     OW11725   6.602   6.997   4.884
 3609SOL    HW111726   6.686   7.021   4.933
 3609SOL    HW211727   6.597   0.028   4.799
 3610SOL     OW11728   1.576   5.793   4.780
 3610SOL    HW111729   1.654   5.855   4.769
 3610SOL    HW211730   1.605   5.713   4.832
 3611SOL     OW11731   3.835   5.288   4.824
 3611SOL    HW111732   3.888   5.232   4.761
 3611SOL    HW211733   3.738   5.285   4.798
 3612SOL     OW11734   1.540   6.897   1.529
 3612SOL    HW111735   1.484   6.815   1.540
 3612SOL    HW211736   1.628   6.872   1.488
 3613SOL     OW11737   5.044   5.784   6.996
 3613SOL    HW111738   4.951   5.811   0.000
 3613SOL    HW211739   5.040   5.704   6.936
 3614SOL     OW11740   3.747   2.975   3.649
 3614SOL    HW111741   3.651   3.001   3.637
 3614SOL    HW211742   3.786   2.951   3.560
 3615SOL     OW11743   6.619   6.501   6.341
 3615SOL    HW111744   6.618   6.581   6.401
 3615SOL    HW211745   6.640   6.531   6.248
 3616SOL     OW11746   6.644   1.206   4.447
 3616SOL    HW111747   6.557   1.159   4.462
 3616SOL    HW211748   6.686   1.228   4.536
 3617SOL     OW11749   6.638   0.500   6.844
 3617SOL    HW111750   6.715   0.547   6.799
 3617SOL    HW211751   6.562   0.493   6.779
 3618SOL     OW11752   2.556   1.187   5.956
 3618SOL    HW111753   2.641   1.156   5.998
 3618SOL    HW211754   2.479   1.141   6.000
 3619SOL     OW11755   5.565   2.812   3.872
 3619SOL    HW111756   5.506   2.869   3.929
 3619SOL    HW211757   5.510   2.766   3.802
 3620SOL     OW11758   6.162   1.039   4.494
 3620SOL    HW111759   6.100   1.117   4.482
 3620SOL    HW211760   6.112   0.954   4.478
 3621SOL     OW11761   2.010   3.580   5.885
 3621SOL    HW111762   1.966   3.506   5.833
 3621SOL    HW211763   2.108   3.577   5.870
 3622SOL     OW11764   0.598   2.504   1.073
 3622SOL    HW111765   0.585   2.597   1.107
 3622SOL    HW211766   0.616   2.442   1.149
 3623SOL     OW11767   6.831   5.327   4.344
 3623SOL    HW111768   6.916   5.291   4.305
 3623SOL    HW211769   6.777   5.370   4.272
 3624SOL     OW11770   2.412   0.439   1.696
 3624SOL    HW111771   2.401   0.500   1.617
 3624SOL    HW211772   2.345   0.465   1.767
 3625SOL     OW11773   0.394   3.300   4.367
 3625SOL    HW111774   0.408   3.205   4.396
 3625SOL    HW211775   0.338   3.348   4.435
 3626SOL     OW11776   2.588   3.793   5.311
 3626SOL    HW111777   2.526   3.860   5.271
 3626SOL    HW211778   2.557   3.701   5.288
 3627SOL     OW11779   2.915   3.770   4.060
 3627SOL    HW111780   2.941   3.786   4.155
 3627SOL    HW211781   2.835   3.709   4.058
 3628SOL     OW11782   3.269   5.136   2.748
 3628SOL    HW111783   3.170   5.126   2.753
 3628SOL    HW211784   3.309   5.058   2.700
 3629SOL     OW11785   6.388   2.444   5.322
 3629SOL    HW111786   6.338   2.509   5.380
 3629SOL    HW211787   6.451   2.494   5.263
 3630SOL     OW11788   6.251   1.888   4.193
 3630SOL    HW111789   6.303   1.961   4.237
 3630SOL    HW211790   6.153   1.909   4.198
 3631SOL     OW11791   2.182   1.151   4.301
 3631SOL    HW111792   2.177   1.057   4.267
 3631SOL    HW211793   2.161   1.152   4.399
 3632SOL     OW11794   4.395   0.517   6.598
 3632SOL    HW111795   4.495   0.510   6.595
 3632SOL    HW211796   4.360   0.526   6.505
 3633SOL     OW11797   2.333   2.959   6.165
 3633SOL    HW111798   2.300   3.036   6.110
 3633SOL    HW211799   2.422   2.930   6.130
 3634SOL     OW11800   2.068   5.905   5.158
 3634SOL    HW111801   2.087   5.807   5.150
 3634SOL    HW211802   1.988   5.928   5.103
 3635SOL     OW11803   2.358   1.438   5.194
 3635SOL    HW111804   2.358   1.482   5.104
 3635SOL    HW211805   2.433   1.473   5.249
 3636SOL     OW11806   1.084   5.652   5.881
 3636SOL    HW111807   0.989   5.667   5.853
 3636SOL    HW211808   1.126   5.585   5.820
 3637SOL     OW11809   5.726   1.475   1.985
 3637SOL    HW111810   5.647   1.444   2.037
 3637SOL    HW211811   5.810   1.447   2.032
 3638SOL     OW11812   6.741   4.933   4.089
 3638SOL    HW111813   6.684   4.882   4.024
 3638SOL    HW211814   6.683   4.992   4.145
 3639SOL     OW11815   2.261   5.150   0.026
 3639SOL    HW111816   2.162   5.152   0.033
 3639SOL    HW211817   2.293   5.236   7.008
 3640SOL     OW11818   3.413   6.024   0.706
 3640SOL    HW111819   3.478   5.996   0.636
 3640SOL    HW211820   3.439   5.984   0.794
 3641SOL     OW11821   2.050   0.528   5.399
 3641SOL    HW111822   1.952   0.541   5.386
 3641SOL    HW211823   2.088   0.607   5.447
 3642SOL     OW11824   5.382   6.941   3.938
 3642SOL    HW111825   5.418   6.964   4.029
 3642SOL    HW211826   5.377   6.842   3.929
 3643SOL     OW11827   2.648   4.723   4.927
 3643SOL    HW111828   2.719   4.680   4.984
 3643SOL    HW211829   2.570   4.662   4.920
 3644SOL     OW11830   0.276   1.396   0.700
 3644SOL    HW111831   0.239   1.373   0.611
 3644SOL    HW211832   0.345   1.329   0.727
 3645SOL     OW11833   3.365   0.902   3.218
 3645SOL    HW111834   3.282   0.882   3.270
 3645SOL    HW211835   3.444   0.863   3.266
 3646SOL     OW11836   0.323   4.987   5.387
 3646SOL    HW111837   0.362   5.055   5.324
 3646SOL    HW211838   0.223   4.989   5.381
 3647SOL     OW11839   2.573   3.106   1.055
 3647SOL    HW111840   2.617   3.081   0.969
 3647SOL    HW211841   2.606   3.046   1.129
 3648SOL     OW11842   2.985   6.379   2.630
 3648SOL    HW111843   3.030   6.385   2.540
 3648SOL    HW211844   3.055   6.381   2.702
 3649SOL     OW11845   3.231   3.680   1.316
 3649SOL    HW111846   3.308   3.686   1.252
 3649SOL    HW211847   3.228   3.589   1.357
 3650SOL     OW11848   0.083   6.839   1.281
 3650SOL    HW111849   0.098   6.862   1.377
 3650SOL    HW211850   0.128   6.752   1.261
 3651SOL     OW11851   1.749   5.804   2.631
 3651SOL    HW111852   1.804   5.769   2.555
 3651SOL    HW211853   1.808   5.851   2.696
 3652SOL     OW11854   4.828   5.322   3.087
 3652SOL    HW111855   4.872   5.353   3.171
 3652SOL    HW211856   4.742   5.372   3.073
 3653SOL     OW11857   6.787   2.816   3.532
 3653SOL    HW111858   6.777   2.915   3.530
 3653SOL    HW211859   6.839   2.789   3.614
 3654SOL     OW11860   1.827   6.627   1.423
 3654SOL    HW111861   1.821   6.723   1.395
 3654SOL    HW211862   1.842   6.570   1.342
 3655SOL     OW11863   1.545   0.249   4.432
 3655SOL    HW111864   1.469   0.282   4.489
 3655SOL    HW211865   1.629   0.248   4.486
 3656SOL     OW11866   2.214   2.775   1.772
 3656SOL    HW111867   2.153   2.705   1.736
 3656SOL    HW211868   2.226   2.760   1.871
 3657SOL     OW11869   4.215   6.085   1.465
 3657SOL    HW111870   4.242   6.177   1.493
 3657SOL    HW211871   4.137   6.054   1.520
 3658SOL     OW11872   1.656   6.002   6.089
 3658SOL    HW111873   1.659   5.946   6.171
 3658SOL    HW211874   1.561   6.022   6.066
 3659SOL     OW11875   2.589   4.572   0.064
 3659SOL    HW111876   2.621   4.632   0.138
 3659SOL    HW211877   2.631   4.601   7.000
 3660SOL     OW11878   5.079   5.199   1.894
 3660SOL    HW111879   5.085   5.101   1.874
 3660SOL    HW211880   5.048   5.212   1.988
 3661SOL     OW11881   4.459   0.846   0.412
 3661SOL    HW111882   4.427   0.895   0.494
 3661SOL    HW211883   4.424   0.753   0.413
 3662SOL     OW11884   3.060   0.161   5.462
 3662SOL    HW111885   2.974   0.175   5.413
 3662SOL    HW211886   3.067   0.066   5.492
 3663SOL     OW11887   1.233   2.548   6.634
 3663SOL    HW111888   1.287   2.533   6.717
 3663SOL    HW211889   1.190   2.639   6.638
 3664SOL     OW11890   4.739   1.357   0.860
 3664SOL    HW111891   4.732   1.364   0.760
 3664SOL    HW211892   4.770   1.265   0.885
 3665SOL     OW11893   0.878   0.018   5.790
 3665SOL    HW111894   0.780   0.023   5.772
 3665SOL    HW211895   0.896   0.035   5.887
 3666SOL     OW11896   1.417   5.152   3.799
 3666SOL    HW111897   1.457   5.243   3.809
 3666SOL    HW211898   1.322   5.161   3.768
 3667SOL     OW11899   6.568   1.498   6.505
 3667SOL    HW111900   6.636   1.458   6.567
 3667SOL    HW211901   6.605   1.500   6.412
 3668SOL     OW11902   1.129   6.130   2.271
 3668SOL    HW111903   1.210   6.189   2.272
 3668SOL    HW211904   1.123   6.081   2.358
 3669SOL     OW11905   6.805   2.782   2.957
 3669SOL    HW111906   6.741   2.852   2.989
 3669SOL    HW211907   6.777   2.752   2.866
 3670SOL     OW11908   1.770   5.884   5.881
 3670SOL    HW111909   1.744   5.925   5.968
 3670SOL    HW211910   1.737   5.790   5.878
 3671SOL     OW11911   0.946   0.328   3.006
 3671SOL    HW111912   0.980   0.375   3.087
 3671SOL    HW211913   0.990   0.366   2.924
 3672SOL     OW11914   6.798   1.078   0.941
 3672SOL    HW111915   6.866   1.106   0.873
 3672SOL    HW211916   6.832   1.100   1.033
 3673SOL     OW11917   5.103   0.432   6.898
 3673SOL    HW111918   5.192   0.466   6.869
 3673SOL    HW211919   5.090   0.338   6.866
 3674SOL     OW11920   1.314   6.154   0.967
 3674SOL    HW111921   1.251   6.109   1.031
 3674SOL    HW211922   1.281   6.246   0.947
 3675SOL     OW11923   1.724   2.432   4.880
 3675SOL    HW111924   1.760   2.404   4.968
 3675SOL    HW211925   1.796   2.477   4.826
 3676SOL     OW11926   2.489   5.862   3.732
 3676SOL    HW111927   2.532   5.796   3.671
 3676SOL    HW211928   2.407   5.898   3.689
 3677SOL     OW11929   6.585   6.980   4.577
 3677SOL    HW111930   6.618   6.952   4.487
 3677SOL    HW211931   6.513   6.917   4.607
 3678SOL     OW11932   1.008   1.717   3.647
 3678SOL    HW111933   1.105   1.726   3.622
 3678SOL    HW211934   0.954   1.785   3.598
 3679SOL     OW11935   0.161   0.931   1.926
 3679SOL    HW111936   0.121   0.945   1.835
 3679SOL    HW211937   0.109   0.860   1.974
 3680SOL     OW11938   6.571   3.197   4.167
 3680SOL    HW111939   6.511   3.252   4.109
 3680SOL    HW211940   6.535   3.104   4.175
 3681SOL     OW11941   6.723   6.217   5.576
 3681SOL    HW111942   6.647   6.255   5.630
 3681SOL    HW211943   6.791   6.288   5.561
 3682SOL     OW11944   0.061   2.009   6.290
 3682SOL    HW111945   0.020   1.952   6.219
 3682SOL    HW211946   0.026   1.982   6.379
 3683SOL     OW11947   5.391   6.568   4.727
 3683SOL    HW111948   5.396   6.590   4.824
 3683SOL    HW211949   5.295   6.553   4.701
 3684SOL     OW11950   1.046   3.344   0.876
 3684SOL    HW111951   1.049   3.438   0.844
 3684SOL    HW211952   1.040   3.342   0.976
 3685SOL     OW11953   6.509   6.246   6.327
 3685SOL    HW111954   6.531   6.339   6.355
 3685SOL    HW211955   6.445   6.248   6.250
 3686SOL     OW11956   6.080   4.285   1.400
 3686SOL    HW111957   5.982   4.304   1.391
 3686SOL    HW211958   6.095   4.186   1.392
 3687SOL     OW11959   3.373   0.877   0.249
 3687SOL    HW111960   3.335   0.921   0.167
 3687SOL    HW211961   3.308   0.809   0.282
 3688SOL     OW11962   1.749   3.572   0.402
 3688SOL    HW111963   1.775   3.645   0.465
 3688SOL    HW211964   1.792   3.589   0.313
 3689SOL     OW11965   2.131   0.394   3.656
 3689SOL    HW111966   2.135   0.473   3.718
 3689SOL    HW211967   2.036   0.362   3.650
 3690SOL     OW11968   6.208   0.091   5.836
 3690SOL    HW111969   6.276   0.054   5.773
 3690SOL    HW211970   6.144   0.149   5.785
 3691SOL     OW11971   3.428   2.913   6.993
 3691SOL    HW111972   3.459   3.005   6.970
 3691SOL    HW211973   3.422   2.858   6.910
 3692SOL     OW11974   1.658   7.021   5.725
 3692SOL    HW111975   1.579   0.061   5.728
 3692SOL    HW211976   1.728   0.036   5.665
 3693SOL     OW11977   2.975   2.156   3.169
 3693SOL    HW111978   3.004   2.204   3.086
 3693SOL    HW211979   2.902   2.208   3.214
 3694SOL     OW11980   1.914   5.946   3.321
 3694SOL    HW111981   1.947   6.029   3.366
 3694SOL    HW211982   1.881   5.882   3.390
 3695SOL     OW11983   1.734   2.346   1.964
 3695SOL    HW111984   1.696   2.254   1.971
 3695SOL    HW211985   1.667   2.413   1.995
 3696SOL     OW11986   3.910   6.869   6.259
 3696SOL    HW111987   3.857   6.940   6.306
 3696SOL    HW211988   4.005   6.873   6.289
 3697SOL     OW11989   6.357   0.590   4.018
 3697SOL    HW111990   6.434   0.526   4.012
 3697SOL    HW211991   6.277   0.550   3.974
 3698SOL     OW11992   3.032   0.672   5.650
 3698SOL    HW111993   3.017   0.770   5.664
 3698SOL    HW211994   3.087   0.636   5.726
 3699SOL     OW11995   0.503   4.355   2.612
 3699SOL    HW111996   0.470   4.358   2.517
 3699SOL    HW211997   0.445   4.294   2.665
 3700SOL     OW11998   0.142   0.120   4.071
 3700SOL    HW111999   0.228   0.158   4.036
 3700SOL    HW212000   0.134   0.024   4.043
 3701SOL     OW12001   6.350   0.719   4.642
 3701SOL    HW112002   6.332   0.726   4.544
 3701SOL    HW212003   6.386   0.628   4.663
 3702SOL     OW12004   3.123   1.022   0.178
 3702SOL    HW112005   3.189   1.075   0.232
 3702SOL    HW212006   3.035   1.019   0.226
 3703SOL     OW12007   4.338   4.453   6.495
 3703SOL    HW112008   4.331   4.514   6.574
 3703SOL    HW212009   4.379   4.502   6.419
 3704SOL     OW12010   2.282   0.070   2.758
 3704SOL    HW112011   2.241   0.147   2.710
 3704SOL    HW212012   2.363   0.101   2.807
 3705SOL     OW12013   5.630   0.427   3.741
 3705SOL    HW112014   5.723   0.464   3.743
 3705SOL    HW212015   5.623   0.358   3.669
 3706SOL     OW12016   2.102   2.468   3.902
 3706SOL    HW112017   2.120   2.515   3.988
 3706SOL    HW212018   2.078   2.534   3.832
 3707SOL     OW12019   4.313   2.709   5.314
 3707SOL    HW112020   4.401   2.720   5.267
 3707SOL    HW212021   4.252   2.652   5.258
 3708SOL     OW12022   5.571   0.481   6.359
 3708SOL    HW112023   5.544   0.402   6.414
 3708SOL    HW212024   5.491   0.539   6.342
 3709SOL     OW12025   3.776   0.516   6.540
 3709SOL    HW112026   3.847   0.506   6.610
 3709SOL    HW212027   3.817   0.511   6.449
 3710SOL     OW12028   0.229   4.698   0.610
 3710SOL    HW112029   0.285   4.701   0.527
 3710SOL    HW212030   0.276   4.744   0.684
 3711SOL     OW12031   6.343   5.052   2.439
 3711SOL    HW112032   6.377   5.123   2.501
 3711SOL    HW212033   6.327   5.092   2.349
 3712SOL     OW12034   2.012   7.004   0.428
 3712SOL    HW112035   1.953   6.926   0.449
 3712SOL    HW212036   2.087   7.008   0.494
 3713SOL     OW12037   3.643   5.914   5.379
 3713SOL    HW112038   3.702   5.913   5.459
 3713SOL    HW212039   3.680   5.977   5.311
 3714SOL     OW12040   3.687   0.273   4.557
 3714SOL    HW112041   3.602   0.248   4.602
 3714SOL    HW212042   3.764   0.230   4.605
 3715SOL     OW12043   5.331   3.981   4.974
 3715SOL    HW112044   5.400   3.935   5.031
 3715SOL    HW212045   5.334   4.079   4.990
 3716SOL     OW12046   0.155   0.518   4.255
 3716SOL    HW112047   0.082   0.450   4.254
 3716SOL    HW212048   0.137   0.587   4.184
 3717SOL     OW12049   5.901   6.646   0.866
 3717SOL    HW112050   5.868   6.571   0.924
 3717SOL    HW212051   5.892   6.733   0.915
 3718SOL     OW12052   1.142   5.254   7.011
 3718SOL    HW112053   1.214   5.216   6.953
 3718SOL    HW212054   1.112   5.342   6.974
 3719SOL     OW12055   3.325   4.925   5.732
 3719SOL    HW112056   3.235   4.949   5.695
 3719SOL    HW212057   3.396   4.964   5.673
 3720SOL     OW12058   6.287   1.611   6.063
 3720SOL    HW112059   6.261   1.599   5.967
 3720SOL    HW212060   6.205   1.613   6.120
 3721SOL     OW12061   4.964   3.973   0.564
 3721SOL    HW112062   5.045   3.916   0.549
 3721SOL    HW212063   4.900   3.960   0.487
 3722SOL     OW12064   6.630   6.164   2.420
 3722SOL    HW112065   6.575   6.148   2.502
 3722SOL    HW212066   6.722   6.194   2.447
 3723SOL     OW12067   4.805   0.602   1.016
 3723SOL    HW112068   4.743   0.678   1.036
 3723SOL    HW212069   4.828   0.603   0.918
 3724SOL     OW12070   1.294   5.879   6.357
 3724SOL    HW112071   1.237   5.890   6.275
 3724SOL    HW212072   1.369   5.816   6.336
 3725SOL     OW12073   0.436   5.929   6.841
 3725SOL    HW112074   0.444   5.864   6.766
 3725SOL    HW212075   0.363   5.900   6.903
 3726SOL     OW12076   5.425   3.920   1.558
 3726SOL    HW112077   5.392   3.929   1.463
 3726SOL    HW212078   5.401   4.002   1.609
 3727SOL     OW12079   2.249   3.688   5.779
 3727SOL    HW112080   2.259   3.772   5.726
 3727SOL    HW212081   2.299   3.614   5.735
 3728SOL     OW12082   1.571   3.136   6.539
 3728SOL    HW112083   1.494   3.174   6.590
 3728SOL    HW212084   1.563   3.161   6.443
 3729SOL     OW12085   0.660   1.925   3.377
 3729SOL    HW112086   0.578   1.888   3.420
 3729SOL    HW212087   0.635   1.994   3.309
 3730SOL     OW12088   2.900   1.081   0.370
 3730SOL    HW112089   2.859   1.010   0.428
 3730SOL    HW212090   2.946   1.148   0.429
 3731SOL     OW12091   3.990   6.731   0.119
 3731SOL    HW112092   4.049   6.651   0.102
 3731SOL    HW212093   3.930   6.712   0.196
 3732SOL     OW12094   2.240   3.731   5.229
 3732SOL    HW112095   2.147   3.767   5.240
 3732SOL    HW212096   2.298   3.799   5.186
 3733SOL     OW12097   2.650   3.631   1.338
 3733SOL    HW112098   2.574   3.691   1.362
 3733SOL    HW212099   2.647   3.611   1.240
 3734SOL     OW12100   5.437   0.954   2.258
 3734SOL    HW112101   5.463   1.049   2.239
 3734SOL    HW212102   5.369   0.923   2.193
 3735SOL     OW12103   3.384   1.576   2.466
 3735SOL    HW112104   3.312   1.560   2.399
 3735SOL    HW212105   3.411   1.673   2.463
 3736SOL     OW12106   5.682   2.367   0.172
 3736SOL    HW112107   5.702   2.431   0.097
 3736SOL    HW212108   5.753   2.297   0.176
 3737SOL     OW12109   4.797   6.592   3.464
 3737SOL    HW112110   4.768   6.572   3.370
 3737SOL    HW212111   4.745   6.669   3.499
 3738SOL     OW12112   6.973   0.155   3.682
 3738SOL    HW112113   6.922   0.230   3.640
 3738SOL    HW212114   6.946   0.146   3.777
 3739SOL     OW12115   0.668   4.590   2.535
 3739SOL    HW112116   0.721   4.546   2.463
 3739SOL    HW212117   0.606   4.523   2.576
 3740SOL     OW12118   5.552   1.151   0.483
 3740SOL    HW112119   5.631   1.190   0.435
 3740SOL    HW212120   5.490   1.110   0.416
 3741SOL     OW12121   4.048   2.617   6.613
 3741SOL    HW112122   3.979   2.597   6.543
 3741SOL    HW212123   4.007   2.673   6.685
 3742SOL     OW12124   3.253   3.094   5.562
 3742SOL    HW112125   3.169   3.149   5.564
 3742SOL    HW212126   3.229   2.997   5.554
 3743SOL     OW12127   0.185   5.231   6.702
 3743SOL    HW112128   0.172   5.324   6.735
 3743SOL    HW212129   0.110   5.207   6.640
 3744SOL     OW12130   0.017   5.707   3.444
 3744SOL    HW112131   0.111   5.734   3.422
 3744SOL    HW212132   0.002   5.717   3.542
 3745SOL     OW12133   4.555   5.852   2.596
 3745SOL    HW112134   4.615   5.927   2.570
 3745SOL    HW212135   4.543   5.790   2.518
 3746SOL     OW12136   4.517   1.748   2.154
 3746SOL    HW112137   4.613   1.742   2.127
 3746SOL    HW212138   4.468   1.667   2.123
 3747SOL     OW12139   2.993   0.253   0.189
 3747SOL    HW112140   3.060   0.303   0.135
 3747SOL    HW212141   2.977   0.163   0.149
 3748SOL     OW12142   5.769   1.026   2.570
 3748SOL    HW112143   5.862   1.037   2.537
 3748SOL    HW212144   5.764   1.053   2.666
 3749SOL     OW12145   1.275   0.240   5.047
 3749SOL    HW112146   1.179   0.254   5.073
 3749SOL    HW212147   1.284   0.150   5.005
 3750SOL     OW12148   0.101   4.446   0.073
 3750SOL    HW112149   0.035   4.443   0.148
 3750SOL    HW212150   0.073   4.382   0.001
 3751SOL     OW12151   0.856   4.160   2.423
 3751SOL    HW112152   0.946   4.200   2.440
 3751SOL    HW212153   0.866   4.062   2.406
 3752SOL     OW12154   5.947   0.278   6.485
 3752SOL    HW112155   5.913   0.196   6.439
 3752SOL    HW212156   5.989   0.339   6.417
 3753SOL     OW12157   6.488   0.182   4.187
 3753SOL    HW112158   6.417   0.252   4.198
 3753SOL    HW212159   6.508   0.141   4.276
 3754SOL     OW12160   2.097   1.790   0.968
 3754SOL    HW112161   2.098   1.742   1.056
 3754SOL    HW212162   2.098   1.888   0.983
 3755SOL     OW12163   3.155   4.904   3.808
 3755SOL    HW112164   3.058   4.887   3.825
 3755SOL    HW212165   3.171   4.908   3.709
 3756SOL     OW12166   2.749   6.452   6.655
 3756SOL    HW112167   2.657   6.432   6.687
 3756SOL    HW212168   2.793   6.517   6.717
 3757SOL     OW12169   0.038   4.804   1.409
 3757SOL    HW112170   0.058   4.706   1.405
 3757SOL    HW212171   0.030   4.833   1.504
 3758SOL     OW12172   2.067   6.938   4.224
 3758SOL    HW112173   2.077   6.984   4.312
 3758SOL    HW212174   1.974   6.904   4.214
 3759SOL     OW12175   5.301   7.008   4.662
 3759SOL    HW112176   5.259   6.937   4.718
 3759SOL    HW212177   5.360   0.043   4.719
 3760SOL     OW12178   0.048   1.301   3.025
 3760SOL    HW112179   6.980   1.344   3.039
 3760SOL    HW212180   0.087   1.334   2.939
 3761SOL     OW12181   5.785   0.746   3.991
 3761SOL    HW112182   5.691   0.748   4.023
 3761SOL    HW212183   5.794   0.801   3.908
 3762SOL     OW12184   6.938   2.470   3.153
 3762SOL    HW112185   6.993   2.391   3.183
 3762SOL    HW212186   6.897   2.514   3.233
 3763SOL     OW12187   0.569   4.498   0.963
 3763SOL    HW112188   0.545   4.531   0.871
 3763SOL    HW212189   0.486   4.478   1.014
 3764SOL     OW12190   2.468   0.511   3.073
 3764SOL    HW112191   2.529   0.584   3.103
 3764SOL    HW212192   2.502   0.423   3.106
 3765SOL     OW12193   5.529   2.861   2.532
 3765SOL    HW112194   5.484   2.855   2.622
 3765SOL    HW212195   5.616   2.909   2.541
 3766SOL     OW12196   1.157   3.710   3.360
 3766SOL    HW112197   1.128   3.798   3.397
 3766SOL    HW212198   1.247   3.719   3.318
 3767SOL     OW12199   1.191   5.128   6.293
 3767SOL    HW112200   1.137   5.190   6.236
 3767SOL    HW212201   1.288   5.151   6.283
 3768SOL     OW12202   0.682   6.674   3.413
 3768SOL    HW112203   0.681   6.749   3.347
 3768SOL    HW212204   0.740   6.698   3.491
 3769SOL     OW12205   6.055   5.008   5.222
 3769SOL    HW112206   6.147   5.014   5.262
 3769SOL    HW212207   5.993   4.965   5.288
 3770SOL     OW12208   1.745   1.003   1.296
 3770SOL    HW112209   1.695   0.918   1.282
 3770SOL    HW212210   1.807   1.019   1.219
 3771SOL     OW12211   6.427   5.248   6.377
 3771SOL    HW112212   6.523   5.226   6.394
 3771SOL    HW212213   6.371   5.169   6.399
 3772SOL     OW12214   1.480   6.102   0.585
 3772SOL    HW112215   1.407   6.169   0.581
 3772SOL    HW212216   1.460   6.027   0.523
 3773SOL     OW12217   5.282   4.805   6.356
 3773SOL    HW112218   5.289   4.710   6.385
 3773SOL    HW212219   5.328   4.864   6.423
 3774SOL     OW12220   6.861   5.051   1.863
 3774SOL    HW112221   6.876   5.051   1.764
 3774SOL    HW212222   6.771   5.090   1.883
 3775SOL     OW12223   4.778   5.102   4.693
 3775SOL    HW112224   4.830   5.158   4.628
 3775SOL    HW212225   4.841   5.044   4.745
 3776SOL     OW12226   3.358   2.711   5.912
 3776SOL    HW112227   3.293   2.684   5.983
 3776SOL    HW212228   3.313   2.769   5.845
 3777SOL     OW12229   2.371   6.113   4.415
 3777SOL    HW112230   2.457   6.072   4.446
 3777SOL    HW212231   2.374   6.212   4.429
 3778SOL     OW12232   3.568   5.798   5.733
 3778SOL    HW112233   3.537   5.794   5.638
 3778SOL    HW212234   3.643   5.864   5.741
 3779SOL     OW12235   6.734   4.933   6.933
 3779SOL    HW112236   6.820   4.914   6.980
 3779SOL    HW212237   6.751   4.942   6.835
 3780SOL     OW12238   5.654   3.856   1.711
 3780SOL    HW112239   5.672   3.764   1.675
 3780SOL    HW212240   5.562   3.885   1.681
 3781SOL     OW12241   2.760   6.368   4.697
 3781SOL    HW112242   2.742   6.368   4.795
 3781SOL    HW212243   2.844   6.420   4.679
 3782SOL     OW12244   4.663   6.041   1.492
 3782SOL    HW112245   4.607   6.097   1.431
 3782SOL    HW212246   4.660   5.945   1.462
 3783SOL     OW12247   5.216   5.621   4.390
 3783SOL    HW112248   5.264   5.592   4.307
 3783SOL    HW212249   5.236   5.557   4.464
 3784SOL     OW12250   6.335   1.890   3.936
 3784SOL    HW112251   6.309   1.877   4.031
 3784SOL    HW212252   6.411   1.955   3.930
 3785SOL     OW12253   1.861   3.429   4.103
 3785SOL    HW112254   1.783   3.390   4.151
 3785SOL    HW212255   1.923   3.473   4.168
 3786SOL     OW12256   2.414   2.604   4.681
 3786SOL    HW112257   2.389   2.637   4.772
 3786SOL    HW212258   2.447   2.510   4.686
 3787SOL     OW12259   4.516   6.904   3.628
 3787SOL    HW112260   4.485   6.997   3.608
 3787SOL    HW212261   4.442   6.852   3.670
 3788SOL     OW12262   6.115   3.225   5.064
 3788SOL    HW112263   6.071   3.315   5.065
 3788SOL    HW212264   6.169   3.216   4.981
 3789SOL     OW12265   1.397   2.844   2.428
 3789SOL    HW112266   1.451   2.886   2.355
 3789SOL    HW212267   1.380   2.912   2.500
 3790SOL     OW12268   0.393   6.748   1.263
 3790SOL    HW112269   0.363   6.807   1.338
 3790SOL    HW212270   0.427   6.662   1.301
 3791SOL     OW12271   4.956   1.492   5.532
 3791SOL    HW112272   4.928   1.559   5.600
 3791SOL    HW212273   4.877   1.468   5.475
 3792SOL     OW12274   6.721   0.903   4.401
 3792SOL    HW112275   6.810   0.860   4.415
 3792SOL    HW212276   6.731   1.002   4.411
 3793SOL     OW12277   4.952   5.002   0.695
 3793SOL    HW112278   5.022   4.993   0.625
 3793SOL    HW212279   4.949   5.096   0.728
 3794SOL     OW12280   0.832   4.159   6.495
 3794SOL    HW112281   0.862   4.227   6.562
 3794SOL    HW212282   0.732   4.152   6.498
 3795SOL     OW12283   2.239   6.242   1.745
 3795SOL    HW112284   2.324   6.267   1.700
 3795SOL    HW212285   2.194   6.324   1.780
 3796SOL     OW12286   5.004   1.223   6.843
 3796SOL    HW112287   4.942   1.300   6.826
 3796SOL    HW212288   5.096   1.249   6.815
 3797SOL     OW12289   1.285   4.558   2.239
 3797SOL    HW112290   1.200   4.589   2.196
 3797SOL    HW212291   1.305   4.464   2.211
 3798SOL     OW12292   1.723   6.285   3.535
 3798SOL    HW112293   1.687   6.255   3.624
 3798SOL    HW212294   1.721   6.208   3.471
 3799SOL     OW12295   6.878   1.188   3.286
 3799SOL    HW112296   6.814   1.199   3.362
 3799SOL    HW212297   6.963   1.146   3.320
 3800SOL     OW12298   5.104   2.558   3.069
 3800SOL    HW112299   5.176   2.530   3.006
 3800SOL    HW212300   5.134   2.543   3.163
 3801SOL     OW12301   5.688   1.173   1.582
 3801SOL    HW112302   5.699   1.195   1.679
 3801SOL    HW212303   5.774   1.140   1.545
 3802SOL     OW12304   6.391   2.924   2.266
 3802SOL    HW112305   6.308   2.955   2.219
 3802SOL    HW212306   6.463   2.907   2.199
 3803SOL     OW12307   3.281   3.322   4.404
 3803SOL    HW112308   3.370   3.278   4.396
 3803SOL    HW212309   3.211   3.254   4.426
 3804SOL     OW12310   4.289   5.844   3.316
 3804SOL    HW112311   4.360   5.909   3.344
 3804SOL    HW212312   4.308   5.811   3.224
 3805SOL     OW12313   2.643   2.712   6.950
 3805SOL    HW112314   2.621   2.680   6.858
 3805SOL    HW212315   2.734   2.679   6.976
 3806SOL     OW12316   3.164   4.554   1.592
 3806SOL    HW112317   3.076   4.529   1.551
 3806SOL    HW212318   3.150   4.632   1.653
 3807SOL     OW12319   1.797   4.579   4.360
 3807SOL    HW112320   1.807   4.503   4.424
 3807SOL    HW212321   1.753   4.546   4.276
 3808SOL     OW12322   3.388   6.884   6.337
 3808SOL    HW112323   3.434   6.839   6.414
 3808SOL    HW212324   3.455   6.935   6.283
 3809SOL     OW12325   5.392   2.417   1.634
 3809SOL    HW112326   5.421   2.330   1.672
 3809SOL    HW212327   5.401   2.415   1.534
 3810SOL     OW12328   6.034   2.173   2.210
 3810SOL    HW112329   6.064   2.225   2.130
 3810SOL    HW212330   6.092   2.196   2.289
 3811SOL     OW12331   0.212   5.526   5.650
 3811SOL    HW112332   0.251   5.587   5.581
 3811SOL    HW212333   0.277   5.516   5.726
 3812SOL     OW12334   4.800   5.913   1.028
 3812SOL    HW112335   4.836   6.006   1.018
 3812SOL    HW212336   4.831   5.874   1.114
 3813SOL     OW12337   6.178   4.147   6.863
 3813SOL    HW112338   6.236   4.203   6.804
 3813SOL    HW212339   6.205   4.051   6.855
 3814SOL     OW12340   6.764   0.437   4.974
 3814SOL    HW112341   6.800   0.373   5.042
 3814SOL    HW212342   6.753   0.391   4.886
 3815SOL     OW12343   6.637   3.718   5.844
 3815SOL    HW112344   6.652   3.668   5.758
 3815SOL    HW212345   6.704   3.688   5.911
 3816SOL     OW12346   0.269   5.932   0.022
 3816SOL    HW112347   0.339   5.906   0.089
 3816SOL    HW212348   0.256   6.031   0.024
 3817SOL     OW12349   4.865   3.980   2.073
 3817SOL    HW112350   4.960   3.977   2.042
 3817SOL    HW212351   4.853   4.055   2.138
 3818SOL     OW12352   6.070   6.568   2.743
 3818SOL    HW112353   6.096   6.614   2.828
 3818SOL    HW212354   5.979   6.599   2.715
 3819SOL     OW12355   6.861   4.634   3.857
 3819SOL    HW112356   6.910   4.624   3.944
 3819SOL    HW212357   6.927   4.624   3.782
 3820SOL     OW12358   4.305   0.136   4.722
 3820SOL    HW112359   4.376   0.204   4.702
 3820SOL    HW212360   4.264   0.156   4.811
 3821SOL     OW12361   1.843   0.155   0.326
 3821SOL    HW112362   1.904   0.081   0.357
 3821SOL    HW212363   1.772   0.169   0.395
 3822SOL     OW12364   4.613   0.646   1.873
 3822SOL    HW112365   4.670   0.670   1.795
 3822SOL    HW212366   4.519   0.676   1.856
 3823SOL     OW12367   4.580   5.936   6.934
 3823SOL    HW112368   4.576   5.956   6.836
 3823SOL    HW212369   4.492   5.958   6.975
 3824SOL     OW12370   2.252   2.878   0.123
 3824SOL    HW112371   2.252   2.930   0.038
 3824SOL    HW212372   2.224   2.938   0.198
 3825SOL     OW12373   1.403   3.751   5.701
 3825SOL    HW112374   1.376   3.764   5.796
 3825SOL    HW212375   1.350   3.813   5.643
 3826SOL     OW12376   5.998   4.077   3.749
 3826SOL    HW112377   5.944   4.132   3.686
 3826SOL    HW212378   6.072   4.032   3.698
 3827SOL     OW12379   0.831   1.354   1.611
 3827SOL    HW112380   0.835   1.338   1.710
 3827SOL    HW212381   0.862   1.272   1.563
 3828SOL     OW12382   3.445   4.099   3.926
 3828SOL    HW112383   3.407   4.013   3.894
 3828SOL    HW212384   3.384   4.174   3.899
 3829SOL     OW12385   0.913   3.911   2.376
 3829SOL    HW112386   1.001   3.907   2.423
 3829SOL    HW212387   0.852   3.841   2.414
 3830SOL     OW12388   6.650   1.488   4.361
 3830SOL    HW112389   6.608   1.491   4.271
 3830SOL    HW212390   6.669   1.393   4.386
 3831SOL     OW12391   4.659   1.634   3.412
 3831SOL    HW112392   4.655   1.734   3.421
 3831SOL    HW212393   4.592   1.604   3.345
 3832SOL     OW12394   6.434   0.789   3.660
 3832SOL    HW112395   6.511   0.758   3.717
 3832SOL    HW212396   6.354   0.805   3.718
 3833SOL     OW12397   0.652   1.964   5.742
 3833SOL    HW112398   0.713   1.900   5.789
 3833SOL    HW212399   0.678   2.057   5.765
 3834SOL     OW12400   4.652   4.083   0.518
 3834SOL    HW112401   4.685   4.087   0.612
 3834SOL    HW212402   4.705   4.016   0.466
 3835SOL     OW12403   4.141   5.348   4.710
 3835SOL    HW112404   4.092   5.433   4.728
 3835SOL    HW212405   4.075   5.277   4.683
 3836SOL     OW12406   0.285   6.154   5.577
 3836SOL    HW112407   0.217   6.084   5.555
 3836SOL    HW212408   0.314   6.143   5.672
 3837SOL     OW12409   4.540   4.890   5.222
 3837SOL    HW112410   4.609   4.898   5.151
 3837SOL    HW212411   4.564   4.948   5.300
 3838SOL     OW12412   0.811   1.102   3.716
 3838SOL    HW112413   0.724   1.150   3.699
 3838SOL    HW212414   0.880   1.135   3.652
 3839SOL     OW12415   4.038   0.786   3.482
 3839SOL    HW112416   4.134   0.805   3.459
 3839SOL    HW212417   4.034   0.735   3.568
 3840SOL     OW12418   2.299   1.190   6.953
 3840SOL    HW112419   2.309   1.176   6.855
 3840SOL    HW212420   2.236   1.121   6.990
 3841SOL     OW12421   6.061   4.473   4.515
 3841SOL    HW112422   6.130   4.458   4.444
 3841SOL    HW212423   6.054   4.571   4.533
 3842SOL     OW12424   2.077   3.338   5.080
 3842SOL    HW112425   2.093   3.242   5.103
 3842SOL    HW212426   1.985   3.365   5.111
 3843SOL     OW12427   5.455   2.937   6.812
 3843SOL    HW112428   5.526   2.958   6.745
 3843SOL    HW212429   5.415   2.847   6.792
 3844SOL     OW12430   0.819   6.258   0.529
 3844SOL    HW112431   0.727   6.269   0.565
 3844SOL    HW212432   0.815   6.244   0.430
 3845SOL     OW12433   1.852   5.918   0.674
 3845SOL    HW112434   1.818   5.963   0.756
 3845SOL    HW212435   1.940   5.873   0.694
 3846SOL     OW12436   1.251   2.660   3.529
 3846SOL    HW112437   1.326   2.653   3.463
 3846SOL    HW212438   1.283   2.708   3.611
 3847SOL     OW12439   6.973   1.276   6.641
 3847SOL    HW112440   6.994   1.373   6.632
 3847SOL    HW212441   0.018   1.223   6.589
 3848SOL     OW12442   5.474   3.666   2.609
 3848SOL    HW112443   5.572   3.654   2.617
 3848SOL    HW212444   5.427   3.584   2.644
 3849SOL     OW12445   6.564   5.437   6.796
 3849SOL    HW112446   6.566   5.418   6.894
 3849SOL    HW212447   6.650   5.408   6.754
 3850SOL     OW12448   2.567   2.276   1.493
 3850SOL    HW112449   2.663   2.255   1.512
 3850SOL    HW212450   2.527   2.325   1.570
 3851SOL     OW12451   0.415   5.869   2.826
 3851SOL    HW112452   0.404   5.771   2.810
 3851SOL    HW212453   0.493   5.885   2.887
 3852SOL     OW12454   3.017   6.118   5.768
 3852SOL    HW112455   3.054   6.081   5.683
 3852SOL    HW212456   2.927   6.158   5.751
 3853SOL     OW12457   2.302   0.740   3.632
 3853SOL    HW112458   2.390   0.767   3.593
 3853SOL    HW212459   2.277   0.649   3.600
 3854SOL     OW12460   1.935   2.640   2.782
 3854SOL    HW112461   2.002   2.693   2.835
 3854SOL    HW212462   1.854   2.623   2.838
 3855SOL     OW12463   4.141   0.217   0.288
 3855SOL    HW112464   4.068   0.279   0.260
 3855SOL    HW212465   4.143   0.137   0.228
 3856SOL     OW12466   0.689   1.386   6.775
 3856SOL    HW112467   0.650   1.441   6.702
 3856SOL    HW212468   0.789   1.386   6.767
 3857SOL     OW12469   1.890   0.952   5.496
 3857SOL    HW112470   1.809   0.897   5.516
 3857SOL    HW212471   1.874   1.007   5.414
 3858SOL     OW12472   4.166   0.997   4.633
 3858SOL    HW112473   4.245   0.946   4.598
 3858SOL    HW212474   4.199   1.075   4.687
 3859SOL     OW12475   5.413   0.414   1.604
 3859SOL    HW112476   5.377   0.491   1.551
 3859SOL    HW212477   5.463   0.352   1.544
 3860SOL     OW12478   1.500   0.002   4.342
 3860SOL    HW112479   1.507   0.101   4.354
 3860SOL    HW212480   1.414   7.001   4.298
 3861SOL     OW12481   4.216   5.901   1.986
 3861SOL    HW112482   4.260   5.955   2.058
 3861SOL    HW212483   4.151   5.837   2.027
 3862SOL     OW12484   1.244   6.936   3.707
 3862SOL    HW112485   1.164   6.914   3.764
 3862SOL    HW212486   1.259   0.013   3.709
 3863SOL     OW12487   4.380   0.713   0.992
 3863SOL    HW112488   4.403   0.805   1.023
 3863SOL    HW212489   4.287   0.711   0.956
 3864SOL     OW12490   2.602   0.194   4.466
 3864SOL    HW112491   2.512   0.238   4.472
 3864SOL    HW212492   2.604   0.113   4.525
 3865SOL     OW12493   3.467   0.628   0.135
 3865SOL    HW112494   3.475   0.713   0.188
 3865SOL    HW212495   3.415   0.646   0.052
 3866SOL     OW12496   2.535   2.582   6.727
 3866SOL    HW112497   2.440   2.598   6.755
 3866SOL    HW212498   2.542   2.590   6.628
 3867SOL     OW12499   0.470   3.704   2.379
 3867SOL    HW112500   0.370   3.712   2.385
 3867SOL    HW212501   0.495   3.608   2.367
 3868SOL     OW12502   3.944   1.182   6.713
 3868SOL    HW112503   3.859   1.193   6.765
 3868SOL    HW212504   3.997   1.106   6.751
 3869SOL     OW12505   6.403   3.335   3.383
 3869SOL    HW112506   6.334   3.300   3.320
 3869SOL    HW212507   6.439   3.259   3.438
 3870SOL     OW12508   6.450   0.601   3.431
 3870SOL    HW112509   6.433   0.510   3.469
 3870SOL    HW212510   6.433   0.670   3.501
 3871SOL     OW12511   3.579   5.703   4.174
 3871SOL    HW112512   3.512   5.689   4.101
 3871SOL    HW212513   3.532   5.705   4.262
 3872SOL     OW12514   3.574   3.817   4.243
 3872SOL    HW112515   3.482   3.852   4.258
 3872SOL    HW212516   3.637   3.859   4.308
 3873SOL     OW12517   4.327   2.385   0.964
 3873SOL    HW112518   4.372   2.425   1.045
 3873SOL    HW212519   4.367   2.424   0.881
 3874SOL     OW12520   3.180   0.716   0.318
 3874SOL    HW112521   3.097   0.700   0.265
 3874SOL    HW212522   3.178   0.662   0.402
 3875SOL     OW12523   1.206   1.971   5.168
 3875SOL    HW112524   1.273   2.044   5.156
 3875SOL    HW212525   1.200   1.946   5.265
 3876SOL     OW12526   4.250   5.835   1.239
 3876SOL    HW112527   4.182   5.896   1.281
 3876SOL    HW212528   4.322   5.891   1.196
 3877SOL     OW12529   0.091   2.425   0.353
 3877SOL    HW112530   0.094   2.428   0.453
 3877SOL    HW212531   0.178   2.390   0.319
 3878SOL     OW12532   3.939   6.476   4.171
 3878SOL    HW112533   3.868   6.516   4.113
 3878SOL    HW212534   3.973   6.546   4.235
 3879SOL     OW12535   4.811   5.030   6.953
 3879SOL    HW112536   4.832   4.942   6.910
 3879SOL    HW212537   4.805   5.101   6.882
 3880SOL     OW12538   4.708   4.266   4.297
 3880SOL    HW112539   4.699   4.211   4.214
 3880SOL    HW212540   4.748   4.210   4.370
 3881SOL     OW12541   1.287   4.248   0.107
 3881SOL    HW112542   1.366   4.190   0.086
 3881SOL    HW212543   1.224   4.197   0.167
 3882SOL     OW12544   0.791   1.175   0.634
 3882SOL    HW112545   0.853   1.164   0.712
 3882SOL    HW212546   0.760   1.269   0.629
 3883SOL     OW12547   4.407   5.851   3.613
 3883SOL    HW112548   4.322   5.863   3.560
 3883SOL    HW212549   4.402   5.766   3.665
 3884SOL     OW12550   1.087   5.787   3.344
 3884SOL    HW112551   1.035   5.842   3.279
 3884SOL    HW212552   1.172   5.834   3.368
 3885SOL     OW12553   5.606   0.091   2.728
 3885SOL    HW112554   5.610   0.077   2.629
 3885SOL    HW212555   5.573   0.007   2.772
 3886SOL     OW12556   4.079   6.635   6.021
 3886SOL    HW112557   4.003   6.682   5.975
 3886SOL    HW212558   4.073   6.537   6.004
 3887SOL     OW12559   0.238   6.567   1.499
 3887SOL    HW112560   0.330   6.528   1.500
 3887SOL    HW212561   0.182   6.522   1.569
 3888SOL     OW12562   5.929   6.318   4.630
 3888SOL    HW112563   5.879   6.260   4.695
 3888SOL    HW212564   5.884   6.407   4.623
 3889SOL     OW12565   6.195   3.668   6.876
 3889SOL    HW112566   6.151   3.678   6.965
 3889SOL    HW212567   6.203   3.571   6.854
 3890SOL     OW12568   5.428   4.006   4.712
 3890SOL    HW112569   5.458   3.911   4.701
 3890SOL    HW212570   5.399   4.020   4.807
 3891SOL     OW12571   5.819   4.712   4.023
 3891SOL    HW112572   5.839   4.801   4.063
 3891SOL    HW212573   5.731   4.679   4.057
 3892SOL     OW12574   6.845   2.330   1.648
 3892SOL    HW112575   6.754   2.334   1.606
 3892SOL    HW212576   6.910   2.292   1.582
 3893SOL     OW12577   4.655   3.173   1.128
 3893SOL    HW112578   4.570   3.208   1.169
 3893SOL    HW212579   4.690   3.098   1.184
 3894SOL     OW12580   5.013   0.200   6.814
 3894SOL    HW112581   4.924   0.161   6.837
 3894SOL    HW212582   5.029   0.193   6.716
 3895SOL     OW12583   1.320   6.580   4.898
 3895SOL    HW112584   1.287   6.567   4.991
 3895SOL    HW212585   1.288   6.669   4.863
 3896SOL     OW12586   0.986   0.844   0.094
 3896SOL    HW112587   1.083   0.821   0.094
 3896SOL    HW212588   0.933   0.765   0.127
 3897SOL     OW12589   4.747   5.600   2.183
 3897SOL    HW112590   4.734   5.534   2.109
 3897SOL    HW212591   4.661   5.648   2.200
 3898SOL     OW12592   3.742   2.565   6.179
 3898SOL    HW112593   3.643   2.549   6.179
 3898SOL    HW212594   3.777   2.557   6.086
 3899SOL     OW12595   4.379   0.187   6.151
 3899SOL    HW112596   4.425   0.099   6.167
 3899SOL    HW212597   4.446   0.253   6.116
 3900SOL     OW12598   5.277   3.602   3.671
 3900SOL    HW112599   5.236   3.688   3.702
 3900SOL    HW212600   5.342   3.622   3.598
 3901SOL     OW12601   2.757   0.884   6.541
 3901SOL    HW112602   2.833   0.949   6.546
 3901SOL    HW212603   2.724   0.878   6.447
 3902SOL     OW12604   5.979   3.360   2.766
 3902SOL    HW112605   5.946   3.310   2.686
 3902SOL    HW212606   6.037   3.435   2.737
 3903SOL     OW12607   3.440   5.856   6.919
 3903SOL    HW112608   3.456   5.897   6.829
 3903SOL    HW212609   3.508   5.890   6.984
 3904SOL     OW12610   0.868   0.166   6.461
 3904SOL    HW112611   0.838   0.070   6.453
 3904SOL    HW212612   0.794   0.220   6.500
 3905SOL     OW12613   7.020   6.201   6.114
 3905SOL    HW112614   6.923   6.216   6.093
 3905SOL    HW212615   0.019   6.237   6.204
 3906SOL     OW12616   5.614   6.076   5.274
 3906SOL    HW112617   5.567   6.100   5.189
 3906SOL    HW212618   5.707   6.110   5.272
 3907SOL     OW12619   6.024   2.100   3.691
 3907SOL    HW112620   6.044   2.144   3.604
 3907SOL    HW212621   5.945   2.040   3.681
 3908SOL     OW12622   0.484   2.224   6.660
 3908SOL    HW112623   0.516   2.318   6.656
 3908SOL    HW212624   0.396   2.216   6.614
 3909SOL     OW12625   5.259   5.486   4.609
 3909SOL    HW112626   5.162   5.470   4.628
 3909SOL    HW212627   5.306   5.398   4.601
 3910SOL     OW12628   3.193   3.611   2.715
 3910SOL    HW112629   3.140   3.689   2.682
 3910SOL    HW212630   3.143   3.526   2.699
 3911SOL     OW12631   5.767   1.652   4.438
 3911SOL    HW112632   5.728   1.561   4.453
 3911SOL    HW212633   5.864   1.650   4.463
 3912SOL     OW12634   5.516   1.902   5.619
 3912SOL    HW112635   5.495   1.986   5.669
 3912SOL    HW212636   5.606   1.869   5.646
 3913SOL     OW12637   1.265   6.728   6.719
 3913SOL    HW112638   1.211   6.805   6.753
 3913SOL    HW212639   1.282   6.664   6.794
 3914SOL     OW12640   3.121   0.048   6.938
 3914SOL    HW112641   3.049   0.009   6.996
 3914SOL    HW212642   3.101   0.144   6.920
 3915SOL     OW12643   4.993   5.386   1.244
 3915SOL    HW112644   5.007   5.416   1.339
 3915SOL    HW212645   5.067   5.325   1.217
 3916SOL     OW12646   0.984   0.121   2.614
 3916SOL    HW112647   1.063   0.158   2.661
 3916SOL    HW212648   0.940   0.051   2.671
 3917SOL     OW12649   1.747   0.066   0.047
 3917SOL    HW112650   1.770   0.087   6.973
 3917SOL    HW212651   1.725   0.151   0.095
 3918SOL     OW12652   5.347   4.132   1.710
 3918SOL    HW112653   5.368   4.230   1.717
 3918SOL    HW212654   5.249   4.118   1.725
 3919SOL     OW12655   3.734   6.846   0.804
 3919SOL    HW112656   3.801   6.919   0.810
 3919SOL    HW212657   3.675   6.847   0.885
 3920SOL     OW12658   1.924   2.835   0.106
 3920SOL    HW112659   1.979   2.914   0.077
 3920SOL    HW212660   1.962   2.797   0.190
 3921SOL     OW12661   0.758   4.028   1.699
 3921SOL    HW112662   0.754   4.013   1.600
 3921SOL    HW212663   0.697   3.963   1.745
 3922SOL     OW12664   0.198   3.699   1.802
 3922SOL    HW112665   0.128   3.664   1.864
 3922SOL    HW212666   0.227   3.789   1.833
 3923SOL     OW12667   0.732   0.519   0.575
 3923SOL    HW112668   0.702   0.485   0.664
 3923SOL    HW212669   0.804   0.459   0.539
 3924SOL     OW12670   6.496   5.032   4.607
 3924SOL    HW112671   6.578   5.042   4.550
 3924SOL    HW212672   6.456   4.941   4.592
 3925SOL     OW12673   1.593   5.045   2.116
 3925SOL    HW112674   1.631   5.135   2.091
 3925SOL    HW212675   1.599   5.034   2.215
 3926SOL     OW12676   4.485   4.599   2.304
 3926SOL    HW112677   4.390   4.629   2.294
 3926SOL    HW212678   4.537   4.668   2.354
 3927SOL     OW12679   0.538   3.067   6.425
 3927SOL    HW112680   0.543   3.167   6.417
 3927SOL    HW212681   0.444   3.040   6.443
 3928SOL     OW12682   4.685   6.253   0.009
 3928SOL    HW112683   4.688   6.165   6.983
 3928SOL    HW212684   4.682   6.327   6.964
 3929SOL     OW12685   0.826   0.546   5.100
 3929SOL    HW112686   0.800   0.634   5.140
 3929SOL    HW212687   0.747   0.506   5.054
 3930SOL     OW12688   2.533   2.015   3.873
 3930SOL    HW112689   2.530   2.003   3.773
 3930SOL    HW212690   2.478   1.944   3.917
 3931SOL     OW12691   0.172   1.387   2.076
 3931SOL    HW112692   0.098   1.442   2.114
 3931SOL    HW212693   0.260   1.422   2.108
 3932SOL     OW12694   0.302   2.885   4.322
 3932SOL    HW112695   0.234   2.831   4.273
 3932SOL    HW212696   0.347   2.947   4.259
 3933SOL     OW12697   1.491   0.244   6.138
 3933SOL    HW112698   1.518   0.156   6.098
 3933SOL    HW212699   1.458   0.305   6.066
 3934SOL     OW12700   5.926   6.978   6.061
 3934SOL    HW112701   5.942   6.987   6.159
 3934SOL    HW212702   6.001   6.925   6.020
 3935SOL     OW12703   3.511   0.281   0.802
 3935SOL    HW112704   3.527   0.269   0.900
 3935SOL    HW212705   3.431   0.227   0.776
 3936SOL     OW12706   6.602   5.994   4.506
 3936SOL    HW112707   6.525   6.023   4.562
 3936SOL    HW212708   6.667   6.070   4.496
 3937SOL     OW12709   0.231   1.759   2.650
 3937SOL    HW112710   0.201   1.724   2.562
 3937SOL    HW212711   0.152   1.788   2.704
 3938SOL     OW12712   6.867   1.440   3.164
 3938SOL    HW112713   6.883   1.361   3.223
 3938SOL    HW212714   6.770   1.463   3.165
 3939SOL     OW12715   2.974   1.847   1.933
 3939SOL    HW112716   2.880   1.827   1.907
 3939SOL    HW212717   3.022   1.762   1.955
 3940SOL     OW12718   4.131   3.136   1.064
 3940SOL    HW112719   4.171   3.208   1.121
 3940SOL    HW212720   4.043   3.167   1.029
 3941SOL     OW12721   4.638   4.856   5.880
 3941SOL    HW112722   4.678   4.910   5.954
 3941SOL    HW212723   4.635   4.760   5.907
 3942SOL     OW12724   6.522   6.670   0.084
 3942SOL    HW112725   6.560   6.621   0.006
 3942SOL    HW212726   6.590   6.735   0.118
 3943SOL     OW12727   0.669   3.282   4.178
 3943SOL    HW112728   0.651   3.377   4.153
 3943SOL    HW212729   0.582   3.232   4.180
 3944SOL     OW12730   4.592   2.254   4.869
 3944SOL    HW112731   4.597   2.348   4.835
 3944SOL    HW212732   4.683   2.224   4.897
 3945SOL     OW12733   0.485   1.718   1.069
 3945SOL    HW112734   0.437   1.641   1.026
 3945SOL    HW212735   0.567   1.684   1.116
 3946SOL     OW12736   4.747   4.743   3.678
 3946SOL    HW112737   4.810   4.675   3.639
 3946SOL    HW212738   4.659   4.699   3.695
 3947SOL     OW12739   4.254   6.160   0.544
 3947SOL    HW112740   4.213   6.155   0.635
 3947SOL    HW212741   4.335   6.100   0.540
 3948SOL     OW12742   6.665   4.629   1.220
 3948SOL    HW112743   6.687   4.727   1.225
 3948SOL    HW212744   6.676   4.588   1.311
 3949SOL     OW12745   4.683   5.690   2.900
 3949SOL    HW112746   4.683   5.771   2.958
 3949SOL    HW212747   4.594   5.646   2.904
 3950SOL     OW12748   1.569   5.552   1.328
 3950SOL    HW112749   1.632   5.543   1.406
 3950SOL    HW212750   1.621   5.556   1.243
 3951SOL     OW12751   4.626   0.783   1.342
 3951SOL    HW112752   4.537   0.827   1.357
 3951SOL    HW212753   4.612   0.686   1.324
 3952SOL     OW12754   0.094   2.774   1.205
 3952SOL    HW112755   0.101   2.699   1.139
 3952SOL    HW212756   0.077   2.859   1.156
 3953SOL     OW12757   3.886   3.260   2.001
 3953SOL    HW112758   3.984   3.253   1.981
 3953SOL    HW212759   3.835   3.254   1.915
 3954SOL     OW12760   4.116   5.397   5.443
 3954SOL    HW112761   4.050   5.343   5.390
 3954SOL    HW212762   4.080   5.412   5.535
 3955SOL     OW12763   3.600   1.838   5.552
 3955SOL    HW112764   3.589   1.805   5.458
 3955SOL    HW212765   3.548   1.922   5.564
 3956SOL     OW12766   1.438   1.162   2.370
 3956SOL    HW112767   1.516   1.102   2.391
 3956SOL    HW212768   1.353   1.116   2.396
 3957SOL     OW12769   3.994   6.904   4.625
 3957SOL    HW112770   4.071   6.943   4.575
 3957SOL    HW212771   3.934   6.855   4.562
 3958SOL     OW12772   6.048   2.658   3.992
 3958SOL    HW112773   5.999   2.684   4.075
 3958SOL    HW212774   6.031   2.562   3.972
 3959SOL     OW12775   5.064   5.020   0.115
 3959SOL    HW112776   4.976   5.058   0.086
 3959SOL    HW212777   5.049   4.948   0.182
 3960SOL     OW12778   5.340   2.112   5.238
 3960SOL    HW112779   5.355   2.202   5.278
 3960SOL    HW212780   5.383   2.107   5.148
 3961SOL     OW12781   5.044   0.251   2.855
 3961SOL    HW112782   5.058   0.304   2.939
 3961SOL    HW212783   5.127   0.256   2.799
 3962SOL     OW12784   0.717   5.332   6.224
 3962SOL    HW112785   0.636   5.318   6.280
 3962SOL    HW212786   0.716   5.425   6.187
 3963SOL     OW12787   4.764   6.259   1.847
 3963SOL    HW112788   4.788   6.272   1.751
 3963SOL    HW212789   4.796   6.337   1.901
 3964SOL     OW12790   4.823   4.153   3.226
 3964SOL    HW112791   4.772   4.197   3.153
 3964SOL    HW212792   4.899   4.101   3.187
 3965SOL     OW12793   5.342   3.521   4.377
 3965SOL    HW112794   5.288   3.588   4.427
 3965SOL    HW212795   5.438   3.527   4.405
 3966SOL     OW12796   3.940   5.847   6.545
 3966SOL    HW112797   3.903   5.900   6.469
 3966SOL    HW212798   3.910   5.888   6.631
 3967SOL     OW12799   2.160   4.222   1.674
 3967SOL    HW112800   2.146   4.302   1.616
 3967SOL    HW212801   2.202   4.251   1.760
 3968SOL     OW12802   4.469   0.668   0.740
 3968SOL    HW112803   4.400   0.603   0.708
 3968SOL    HW212804   4.468   0.671   0.840
 3969SOL     OW12805   1.571   5.430   2.159
 3969SOL    HW112806   1.493   5.384   2.202
 3969SOL    HW212807   1.545   5.524   2.135
 3970SOL     OW12808   6.005   5.703   1.940
 3970SOL    HW112809   6.099   5.669   1.932
 3970SOL    HW212810   5.990   5.736   2.033
 3971SOL     OW12811   2.456   5.868   4.263
 3971SOL    HW112812   2.550   5.888   4.234
 3971SOL    HW212813   2.405   5.953   4.272
 3972SOL     OW12814   1.254   3.833   6.410
 3972SOL    HW112815   1.193   3.905   6.445
 3972SOL    HW212816   1.326   3.874   6.354
 3973SOL     OW12817   1.106   6.024   1.099
 3973SOL    HW112818   1.104   5.995   1.194
 3973SOL    HW212819   1.018   6.064   1.074
 3974SOL     OW12820   1.983   0.838   5.886
 3974SOL    HW112821   1.940   0.761   5.934
 3974SOL    HW212822   2.076   0.813   5.860
 3975SOL     OW12823   5.104   1.999   6.093
 3975SOL    HW112824   5.130   2.056   6.171
 3975SOL    HW212825   5.185   1.959   6.052
 3976SOL     OW12826   1.947   6.499   2.809
 3976SOL    HW112827   1.926   6.412   2.764
 3976SOL    HW212828   1.862   6.549   2.824
 3977SOL     OW12829   1.368   3.988   6.671
 3977SOL    HW112830   1.293   3.956   6.727
 3977SOL    HW212831   1.440   3.918   6.667
 3978SOL     OW12832   6.679   5.211   3.360
 3978SOL    HW112833   6.593   5.210   3.411
 3978SOL    HW212834   6.704   5.305   3.339
 3979SOL     OW12835   3.506   1.173   6.168
 3979SOL    HW112836   3.447   1.155   6.089
 3979SOL    HW212837   3.513   1.090   6.223
 3980SOL     OW12838   6.101   6.513   6.439
 3980SOL    HW112839   6.020   6.472   6.482
 3980SOL    HW212840   6.166   6.540   6.511
 3981SOL     OW12841   5.173   6.062   0.569
 3981SOL    HW112842   5.100   6.130   0.579
 3981SOL    HW212843   5.257   6.098   0.609
 3982SOL     OW12844   2.185   0.097   2.073
 3982SOL    HW112845   2.207   0.144   2.158
 3982SOL    HW212846   2.154   0.163   2.005
 3983SOL     OW12847   4.509   5.269   3.940
 3983SOL    HW112848   4.510   5.194   3.875
 3983SOL    HW212849   4.441   5.250   4.011
 3984SOL     OW12850   6.032   1.635   2.665
 3984SOL    HW112851   5.964   1.648   2.592
 3984SOL    HW212852   6.042   1.720   2.716
 3985SOL     OW12853   3.492   5.200   6.572
 3985SOL    HW112854   3.400   5.194   6.612
 3985SOL    HW212855   3.557   5.151   6.629
 3986SOL     OW12856   5.149   1.845   2.511
 3986SOL    HW112857   5.066   1.852   2.566
 3986SOL    HW212858   5.129   1.874   2.417
 3987SOL     OW12859   3.089   4.913   4.787
 3987SOL    HW112860   3.009   4.970   4.767
 3987SOL    HW212861   3.137   4.891   4.702
 3988SOL     OW12862   4.461   5.689   0.552
 3988SOL    HW112863   4.419   5.668   0.464
 3988SOL    HW212864   4.486   5.604   0.598
 3989SOL     OW12865   6.349   2.046   0.258
 3989SOL    HW112866   6.322   2.011   0.348
 3989SOL    HW212867   6.326   2.143   0.251
 3990SOL     OW12868   5.147   2.460   1.795
 3990SOL    HW112869   5.151   2.463   1.895
 3990SOL    HW212870   5.240   2.470   1.758
 3991SOL     OW12871   0.928   1.290   2.660
 3991SOL    HW112872   0.994   1.340   2.716
 3991SOL    HW212873   0.909   1.201   2.703
 3992SOL     OW12874   3.292   2.135   0.456
 3992SOL    HW112875   3.196   2.109   0.470
 3992SOL    HW212876   3.307   2.227   0.493
 3993SOL     OW12877   1.409   3.219   2.171
 3993SOL    HW112878   1.367   3.201   2.260
 3993SOL    HW212879   1.338   3.227   2.101
 3994SOL     OW12880   2.379   6.845   4.988
 3994SOL    HW112881   2.460   6.802   4.948
 3994SOL    HW212882   2.406   6.901   5.066
 3995SOL     OW12883   1.807   3.028   5.439
 3995SOL    HW112884   1.868   3.082   5.498
 3995SOL    HW212885   1.852   2.942   5.414
 3996SOL     OW12886   6.892   6.574   5.234
 3996SOL    HW112887   6.827   6.498   5.232
 3996SOL    HW212888   6.978   6.544   5.275
 3997SOL     OW12889   5.578   1.242   4.045
 3997SOL    HW112890   5.488   1.200   4.050
 3997SOL    HW212891   5.571   1.340   4.066
 3998SOL     OW12892   3.874   2.120   3.730
 3998SOL    HW112893   3.973   2.126   3.717
 3998SOL    HW212894   3.851   2.147   3.824
 3999SOL     OW12895   6.276   2.476   4.615
 3999SOL    HW112896   6.260   2.511   4.707
 3999SOL    HW212897   6.254   2.546   4.548
 4000SOL     OW12898   3.816   6.740   3.635
 4000SOL    HW112899   3.800   6.773   3.728
 4000SOL    HW212900   3.730   6.711   3.594
 4001SOL     OW12901   2.138   2.217   3.868
 4001SOL    HW112902   2.096   2.307   3.877
 4001SOL    HW212903   2.233   2.227   3.839
 4002SOL     OW12904   2.122   3.719   1.837
 4002SOL    HW112905   2.166   3.781   1.903
 4002SOL    HW212906   2.161   3.627   1.847
 4003SOL     OW12907   3.183   0.142   4.465
 4003SOL    HW112908   3.166   0.136   4.563
 4003SOL    HW212909   3.268   0.094   4.443
 4004SOL     OW12910   6.404   1.896   4.655
 4004SOL    HW112911   6.358   1.852   4.732
 4004SOL    HW212912   6.377   1.993   4.651
 4005SOL     OW12913   5.020   5.429   6.407
 4005SOL    HW112914   4.991   5.337   6.384
 4005SOL    HW212915   5.066   5.471   6.329
 4006SOL     OW12916   3.868   5.362   2.536
 4006SOL    HW112917   3.794   5.332   2.597
 4006SOL    HW212918   3.828   5.398   2.451
 4007SOL     OW12919   6.758   2.529   6.660
 4007SOL    HW112920   6.848   2.487   6.675
 4007SOL    HW212921   6.688   2.472   6.702
 4008SOL     OW12922   2.567   2.552   4.451
 4008SOL    HW112923   2.516   2.606   4.517
 4008SOL    HW212924   2.552   2.588   4.359
 4009SOL     OW12925   4.133   3.642   2.224
 4009SOL    HW112926   4.203   3.654   2.154
 4009SOL    HW212927   4.068   3.717   2.220
 4010SOL     OW12928   2.314   3.107   0.443
 4010SOL    HW112929   2.305   3.203   0.469
 4010SOL    HW212930   2.230   3.077   0.398
 4011SOL     OW12931   1.188   2.451   1.758
 4011SOL    HW112932   1.088   2.444   1.755
 4011SOL    HW212933   1.227   2.414   1.674
 4012SOL     OW12934   0.125   3.892   2.875
 4012SOL    HW112935   0.185   3.951   2.928
 4012SOL    HW212936   0.075   3.831   2.937
 4013SOL     OW12937   4.521   2.492   3.740
 4013SOL    HW112938   4.617   2.488   3.768
 4013SOL    HW212939   4.471   2.416   3.782
 4014SOL     OW12940   5.537   5.993   3.181
 4014SOL    HW112941   5.481   5.945   3.113
 4014SOL    HW212942   5.481   6.060   3.230
 4015SOL     OW12943   4.854   4.118   5.528
 4015SOL    HW112944   4.929   4.118   5.461
 4015SOL    HW212945   4.883   4.165   5.611
 4016SOL     OW12946   3.285   6.191   5.882
 4016SOL    HW112947   3.311   6.107   5.930
 4016SOL    HW212948   3.199   6.226   5.919
 4017SOL     OW12949   6.614   5.377   0.032
 4017SOL    HW112950   6.666   5.410   0.111
 4017SOL    HW212951   6.528   5.336   0.064
 4018SOL     OW12952   4.094   6.030   1.037
 4018SOL    HW112953   4.017   5.970   1.057
 4018SOL    HW212954   4.071   6.124   1.062
 4019SOL     OW12955   5.026   5.047   3.342
 4019SOL    HW112956   4.965   5.027   3.419
 4019SOL    HW212957   5.121   5.043   3.373
 4020SOL     OW12958   5.359   2.355   5.321
 4020SOL    HW112959   5.389   2.425   5.256
 4020SOL    HW212960   5.280   2.389   5.372
 4021SOL     OW12961   3.288   4.429   5.794
 4021SOL    HW112962   3.204   4.414   5.847
 4021SOL    HW212963   3.349   4.350   5.804
 4022SOL     OW12964   5.005   0.522   0.801
 4022SOL    HW112965   5.067   0.510   0.878
 4022SOL    HW212966   5.057   0.517   0.715
 4023SOL     OW12967   6.103   1.038   5.622
 4023SOL    HW112968   6.007   1.062   5.606
 4023SOL    HW212969   6.156   1.122   5.636
 4024SOL     OW12970   4.241   4.915   4.161
 4024SOL    HW112971   4.217   4.876   4.073
 4024SOL    HW212972   4.274   4.842   4.222
 4025SOL     OW12973   0.685   4.396   3.821
 4025SOL    HW112974   0.638   4.366   3.738
 4025SOL    HW212975   0.674   4.328   3.893
 4026SOL     OW12976   5.174   6.115   4.132
 4026SOL    HW112977   5.169   6.165   4.219
 4026SOL    HW212978   5.162   6.018   4.149
 4027SOL     OW12979   4.279   5.228   1.629
 4027SOL    HW112980   4.253   5.179   1.713
 4027SOL    HW212981   4.373   5.261   1.637
 4028SOL     OW12982   2.246   0.811   3.893
 4028SOL    HW112983   2.294   0.787   3.808
 4028SOL    HW212984   2.260   0.909   3.912
 4029SOL     OW12985   1.805   4.412   4.585
 4029SOL    HW112986   1.783   4.317   4.609
 4029SOL    HW212987   1.812   4.467   4.668
 4030SOL     OW12988   0.045   2.227   5.503
 4030SOL    HW112989   6.979   2.201   5.542
 4030SOL    HW212990   0.032   2.306   5.442
 4031SOL     OW12991   3.944   5.679   3.884
 4031SOL    HW112992   4.029   5.719   3.851
 4031SOL    HW212993   3.951   5.579   3.886
 4032SOL     OW12994   4.783   0.047   4.995
 4032SOL    HW112995   4.782   7.003   4.920
 4032SOL    HW212996   4.740   0.133   4.967
 4033SOL     OW12997   3.008   3.911   5.294
 4033SOL    HW112998   3.048   3.947   5.210
 4033SOL    HW212999   2.927   3.964   5.318
 4034SOL     OW13000   6.878   2.727   3.807
 4034SOL    HW113001   6.843   2.798   3.868
 4034SOL    HW213002   6.976   2.715   3.825
 4035SOL     OW13003   0.081   4.851   0.291
 4035SOL    HW113004   0.178   4.875   0.294
 4035SOL    HW213005   0.033   4.898   0.366
 4036SOL     OW13006   6.793   6.930   3.228
 4036SOL    HW113007   6.743   7.001   3.279
 4036SOL    HW213008   6.802   6.849   3.286
 4037SOL     OW13009   6.929   3.868   6.805
 4037SOL    HW113010   6.839   3.867   6.849
 4037SOL    HW213011   7.000   3.865   6.875
 4038SOL     OW13012   5.479   4.692   4.139
 4038SOL    HW113013   5.470   4.657   4.045
 4038SOL    HW213014   5.457   4.619   4.203
 4039SOL     OW13015   4.482   6.145   0.830
 4039SOL    HW113016   4.455   6.148   0.734
 4039SOL    HW213017   4.413   6.190   0.885
 4040SOL     OW13018   4.045   5.918   1.595
 4040SOL    HW113019   4.001   5.897   1.508
 4040SOL    HW213020   4.009   5.859   1.666
 4041SOL     OW13021   1.558   6.702   4.252
 4041SOL    HW113022   1.602   6.636   4.313
 4041SOL    HW213023   1.627   6.747   4.196
 4042SOL     OW13024   6.020   5.254   1.748
 4042SOL    HW113025   5.925   5.260   1.716
 4042SOL    HW213026   6.021   5.247   1.847
 4043SOL     OW13027   6.435   3.003   1.273
 4043SOL    HW113028   6.438   3.097   1.238
 4043SOL    HW213029   6.526   2.962   1.267
 4044SOL     OW13030   6.489   5.862   3.452
 4044SOL    HW113031   6.589   5.853   3.452
 4044SOL    HW213032   6.463   5.945   3.501
 4045SOL     OW13033   2.603   6.302   5.959
 4045SOL    HW113034   2.518   6.274   6.005
 4045SOL    HW213035   2.606   6.402   5.953
 4046SOL     OW13036   1.784   2.911   1.164
 4046SOL    HW113037   1.764   2.964   1.246
 4046SOL    HW213038   1.806   2.817   1.190
 4047SOL     OW13039   3.183   3.828   1.582
 4047SOL    HW113040   3.120   3.892   1.536
 4047SOL    HW213041   3.219   3.763   1.515
 4048SOL     OW13042   5.550   1.301   1.111
 4048SOL    HW113043   5.586   1.210   1.132
 4048SOL    HW213044   5.452   1.304   1.133
 4049SOL     OW13045   5.560   0.745   5.245
 4049SOL    HW113046   5.496   0.714   5.174
 4049SOL    HW213047   5.617   0.818   5.208
 4050SOL     OW13048   2.590   0.314   1.065
 4050SOL    HW113049   2.612   0.219   1.042
 4050SOL    HW213050   2.511   0.316   1.126
 4051SOL     OW13051   3.084   3.641   0.817
 4051SOL    HW113052   3.145   3.717   0.798
 4051SOL    HW213053   3.101   3.567   0.752
 4052SOL     OW13054   1.684   6.366   1.348
 4052SOL    HW113055   1.601   6.316   1.320
 4052SOL    HW213056   1.715   6.331   1.436
 4053SOL     OW13057   3.629   5.039   3.773
 4053SOL    HW113058   3.651   4.956   3.824
 4053SOL    HW213059   3.709   5.067   3.720
 4054SOL     OW13060   5.360   2.263   0.207
 4054SOL    HW113061   5.342   2.323   0.129
 4054SOL    HW213062   5.299   2.184   0.202
 4055SOL     OW13063   3.539   2.223   0.045
 4055SOL    HW113064   3.594   2.146   0.075
 4055SOL    HW213065   3.585   2.309   0.068
 4056SOL     OW13066   3.982   3.652   0.515
 4056SOL    HW113067   4.061   3.632   0.573
 4056SOL    HW213068   3.899   3.619   0.560
 4057SOL     OW13069   5.484   2.674   6.401
 4057SOL    HW113070   5.530   2.679   6.489
 4057SOL    HW213071   5.500   2.758   6.350
 4058SOL     OW13072   0.608   0.526   4.870
 4058SOL    HW113073   0.508   0.522   4.860
 4058SOL    HW213074   0.651   0.513   4.781
 4059SOL     OW13075   0.073   1.862   4.735
 4059SOL    HW113076   7.014   1.883   4.679
 4059SOL    HW213077   0.120   1.783   4.696
 4060SOL     OW13078   4.631   5.426   3.743
 4060SOL    HW113079   4.599   5.369   3.818
 4060SOL    HW213080   4.687   5.372   3.681
 4061SOL     OW13081   3.134   3.154   1.552
 4061SOL    HW113082   3.225   3.162   1.593
 4061SOL    HW213083   3.067   3.133   1.623
 4062SOL     OW13084   2.756   0.034   3.082
 4062SOL    HW113085   2.795   7.004   3.006
 4062SOL    HW213086   2.827   0.091   3.123
 4063SOL     OW13087   2.921   5.341   5.972
 4063SOL    HW113088   2.843   5.308   5.918
 4063SOL    HW213089   2.980   5.265   5.995
 4064SOL     OW13090   6.468   6.982   3.982
 4064SOL    HW113091   6.512   6.927   4.053
 4064SOL    HW213092   6.385   0.002   4.019
 4065SOL     OW13093   6.151   4.935   6.692
 4065SOL    HW113094   6.114   5.000   6.757
 4065SOL    HW213095   6.077   4.886   6.646
 4066SOL     OW13096   6.111   4.970   1.998
 4066SOL    HW113097   6.044   4.932   1.934
 4066SOL    HW213098   6.067   5.040   2.055
 4067SOL     OW13099   6.319   1.068   1.839
 4067SOL    HW113100   6.283   1.160   1.858
 4067SOL    HW213101   6.278   1.003   1.903
 4068SOL     OW13102   5.916   0.534   3.774
 4068SOL    HW113103   5.970   0.618   3.772
 4068SOL    HW213104   5.877   0.522   3.865
 4069SOL     OW13105   0.229   5.414   1.375
 4069SOL    HW113106   0.302   5.371   1.427
 4069SOL    HW213107   0.148   5.424   1.433
 4070SOL     OW13108   0.801   3.789   2.721
 4070SOL    HW113109   0.765   3.708   2.768
 4070SOL    HW213110   0.742   3.812   2.643
 4071SOL     OW13111   2.262   0.061   3.928
 4071SOL    HW113112   2.226   0.056   3.835
 4071SOL    HW213113   2.266   6.991   3.967
 4072SOL     OW13114   0.791   0.529   3.956
 4072SOL    HW113115   0.748   0.558   3.871
 4072SOL    HW213116   0.881   0.491   3.936
 4073SOL     OW13117   2.617   5.086   0.675
 4073SOL    HW113118   2.555   5.163   0.671
 4073SOL    HW213119   2.623   5.042   0.585
 4074SOL     OW13120   1.359   2.924   0.492
 4074SOL    HW113121   1.324   3.017   0.488
 4074SOL    HW213122   1.456   2.923   0.469
 4075SOL     OW13123   5.244   0.703   3.958
 4075SOL    HW113124   5.323   0.763   3.945
 4075SOL    HW213125   5.268   0.611   3.927
 4076SOL     OW13126   1.681   2.637   3.760
 4076SOL    HW113127   1.730   2.724   3.767
 4076SOL    HW213128   1.746   2.561   3.771
 4077SOL     OW13129   2.541   1.428   0.902
 4077SOL    HW113130   2.519   1.492   0.976
 4077SOL    HW213131   2.471   1.433   0.831
 4078SOL     OW13132   5.586   3.976   2.250
 4078SOL    HW113133   5.596   3.988   2.152
 4078SOL    HW213134   5.552   4.061   2.291
 4079SOL     OW13135   6.931   0.960   3.657
 4079SOL    HW113136   7.019   1.006   3.667
 4079SOL    HW213137   6.904   0.922   3.746
 4080SOL     OW13138   4.036   3.088   2.608
 4080SOL    HW113139   4.129   3.058   2.585
 4080SOL    HW213140   3.994   3.130   2.527
 4081SOL     OW13141   2.450   2.366   6.385
 4081SOL    HW113142   2.398   2.401   6.462
 4081SOL    HW213143   2.451   2.434   6.311
 4082SOL     OW13144   1.463   2.744   5.571
 4082SOL    HW113145   1.449   2.704   5.662
 4082SOL    HW213146   1.381   2.732   5.516
 4083SOL     OW13147   5.921   5.045   2.711
 4083SOL    HW113148   5.852   4.973   2.719
 4083SOL    HW213149   5.931   5.092   2.798
 4084SOL     OW13150   4.408   0.597   3.085
 4084SOL    HW113151   4.413   0.692   3.115
 4084SOL    HW213152   4.495   0.551   3.106
 4085SOL     OW13153   4.015   4.711   1.859
 4085SOL    HW113154   4.001   4.755   1.948
 4085SOL    HW213155   4.113   4.709   1.839
 4086SOL     OW13156   6.120   5.079   5.624
 4086SOL    HW113157   6.156   5.072   5.717
 4086SOL    HW213158   6.075   5.168   5.613
 4087SOL     OW13159   2.149   0.564   2.496
 4087SOL    HW113160   2.058   0.586   2.460
 4087SOL    HW213161   2.190   0.645   2.537
 4088SOL     OW13162   0.375   1.778   4.904
 4088SOL    HW113163   0.327   1.708   4.851
 4088SOL    HW213164   0.367   1.866   4.858
 4089SOL     OW13165   1.042   0.690   2.890
 4089SOL    HW113166   0.970   0.716   2.954
 4089SOL    HW213167   1.125   0.741   2.912
 4090SOL     OW13168   2.747   1.820   6.076
 4090SOL    HW113169   2.751   1.840   5.979
 4090SOL    HW213170   2.708   1.729   6.090
 4091SOL     OW13171   3.480   5.987   1.209
 4091SOL    HW113172   3.546   6.057   1.237
 4091SOL    HW213173   3.442   5.942   1.290
 4092SOL     OW13174   5.532   2.823   4.442
 4092SOL    HW113175   5.589   2.847   4.520
 4092SOL    HW213176   5.582   2.839   4.357
 4093SOL     OW13177   5.589   4.421   3.931
 4093SOL    HW113178   5.550   4.513   3.925
 4093SOL    HW213179   5.643   4.402   3.849
 4094SOL     OW13180   6.754   6.007   0.210
 4094SOL    HW113181   6.784   6.016   0.115
 4094SOL    HW213182   6.716   5.916   0.225
 4095SOL     OW13183   1.397   4.954   0.158
 4095SOL    HW113184   1.312   4.943   0.108
 4095SOL    HW213185   1.377   4.962   0.256
 4096SOL     OW13186   0.413   0.478   6.694
 4096SOL    HW113187   0.352   0.556   6.711
 4096SOL    HW213188   0.419   0.462   6.595
 4097SOL     OW13189   6.531   4.430   4.912
 4097SOL    HW113190   6.535   4.371   4.832
 4097SOL    HW213191   6.479   4.513   4.891
 4098SOL     OW13192   1.665   4.300   2.459
 4098SOL    HW113193   1.743   4.317   2.399
 4098SOL    HW213194   1.633   4.206   2.446
 4099SOL     OW13195   5.241   3.965   6.097
 4099SOL    HW113196   5.292   3.905   6.035
 4099SOL    HW213197   5.147   3.932   6.106
 4100SOL     OW13198   1.747   1.139   3.733
 4100SOL    HW113199   1.668   1.195   3.756
 4100SOL    HW213200   1.796   1.115   3.816
 4101SOL     OW13201   6.588   5.264   0.296
 4101SOL    HW113202   6.676   5.305   0.321
 4101SOL    HW213203   6.604   5.180   0.245
 4102SOL     OW13204   1.854   6.661   0.268
 4102SOL    HW113205   1.895   6.697   0.184
 4102SOL    HW213206   1.816   6.570   0.250
 4103SOL     OW13207   1.931   6.597   4.375
 4103SOL    HW113208   1.914   6.498   4.372
 4103SOL    HW213209   1.894   6.635   4.459
 4104SOL     OW13210   2.176   5.687   4.832
 4104SOL    HW113211   2.166   5.781   4.799
 4104SOL    HW213212   2.232   5.635   4.766
 4105SOL     OW13213   4.526   0.251   1.861
 4105SOL    HW113214   4.460   0.320   1.830
 4105SOL    HW213215   4.596   0.238   1.791
 4106SOL     OW13216   1.069   1.239   3.039
 4106SOL    HW113217   1.141   1.265   3.104
 4106SOL    HW213218   1.110   1.194   2.960
 4107SOL     OW13219   1.006   0.472   0.507
 4107SOL    HW113220   1.033   0.407   0.578
 4107SOL    HW213221   1.054   0.450   0.422
 4108SOL     OW13222   6.534   5.999   5.530
 4108SOL    HW113223   6.470   6.021   5.457
 4108SOL    HW213224   6.610   6.064   5.529
 4109SOL     OW13225   5.660   5.788   3.329
 4109SOL    HW113226   5.622   5.870   3.286
 4109SOL    HW213227   5.586   5.732   3.366
 4110SOL     OW13228   5.399   3.200   0.306
 4110SOL    HW113229   5.380   3.181   0.210
 4110SOL    HW213230   5.331   3.264   0.342
 4111SOL     OW13231   6.519   3.946   3.867
 4111SOL    HW113232   6.466   3.887   3.807
 4111SOL    HW213233   6.506   4.042   3.841
 4112SOL     OW13234   4.329   6.148   4.746
 4112SOL    HW113235   4.304   6.084   4.673
 4112SOL    HW213236   4.282   6.123   4.830
 4113SOL     OW13237   4.362   5.420   4.583
 4113SOL    HW113238   4.321   5.439   4.494
 4113SOL    HW213239   4.292   5.381   4.644
 4114SOL     OW13240   0.319   1.197   1.462
 4114SOL    HW113241   0.353   1.215   1.554
 4114SOL    HW213242   0.333   1.278   1.405
 4115SOL     OW13243   4.064   5.972   3.860
 4115SOL    HW113244   4.062   5.996   3.956
 4115SOL    HW213245   3.971   5.976   3.822
 4116SOL     OW13246   4.809   3.882   2.554
 4116SOL    HW113247   4.781   3.853   2.645
 4116SOL    HW213248   4.853   3.972   2.560
 4117SOL     OW13249   1.085   1.379   4.010
 4117SOL    HW113250   1.059   1.283   3.999
 4117SOL    HW213251   1.146   1.407   3.936
 4118SOL     OW13252   0.335   6.684   0.152
 4118SOL    HW113253   0.368   6.767   0.106
 4118SOL    HW213254   0.301   6.620   0.083
 4119SOL     OW13255   0.363   0.350   4.305
 4119SOL    HW113256   0.458   0.357   4.274
 4119SOL    HW213257   0.305   0.410   4.248
 4120SOL     OW13258   2.002   0.806   6.443
 4120SOL    HW113259   2.027   0.773   6.534
 4120SOL    HW213260   1.908   0.840   6.443
 4121SOL     OW13261   6.541   6.928   2.388
 4121SOL    HW113262   6.593   6.866   2.447
 4121SOL    HW213263   6.570   0.000   2.405
 4122SOL     OW13264   0.705   4.464   3.133
 4122SOL    HW113265   0.680   4.516   3.051
 4122SOL    HW213266   0.761   4.520   3.193
 4123SOL     OW13267   5.122   4.910   1.325
 4123SOL    HW113268   5.130   4.837   1.392
 4123SOL    HW213269   5.050   4.974   1.354
 4124SOL     OW13270   6.120   5.314   0.394
 4124SOL    HW113271   6.067   5.357   0.321
 4124SOL    HW213272   6.140   5.220   0.369
 4125SOL     OW13273   6.407   2.269   0.679
 4125SOL    HW113274   6.440   2.309   0.764
 4125SOL    HW213275   6.354   2.338   0.628
 4126SOL     OW13276   1.407   3.446   2.897
 4126SOL    HW113277   1.354   3.529   2.878
 4126SOL    HW213278   1.351   3.382   2.950
 4127SOL     OW13279   4.159   1.867   4.511
 4127SOL    HW113280   4.138   1.819   4.426
 4127SOL    HW213281   4.148   1.966   4.497
 4128SOL     OW13282   0.712   2.917   6.933
 4128SOL    HW113283   0.733   2.995   6.874
 4128SOL    HW213284   0.791   2.898   6.991
 4129SOL     OW13285   2.893   2.208   0.828
 4129SOL    HW113286   2.982   2.253   0.825
 4129SOL    HW213287   2.824   2.272   0.862
 4130SOL     OW13288   5.865   3.140   0.749
 4130SOL    HW113289   5.961   3.163   0.732
 4130SOL    HW213290   5.808   3.177   0.675
 4131SOL     OW13291   5.100   6.541   2.995
 4131SOL    HW113292   5.059   6.454   3.021
 4131SOL    HW213293   5.052   6.616   3.041
 4132SOL     OW13294   0.178   5.472   3.533
 4132SOL    HW113295   0.093   5.503   3.576
 4132SOL    HW213296   0.172   5.485   3.434
 4133SOL     OW13297   5.584   0.476   2.509
 4133SOL    HW113298   5.583   0.552   2.574
 4133SOL    HW213299   5.607   0.510   2.418
 4134SOL     OW13300   1.253   3.580   1.264
 4134SOL    HW113301   1.208   3.617   1.183
 4134SOL    HW213302   1.185   3.545   1.328
 4135SOL     OW13303   6.602   0.737   1.978
 4135SOL    HW113304   6.613   0.782   2.066
 4135SOL    HW213305   6.595   0.638   1.991
 4136SOL     OW13306   1.103   4.852   0.624
 4136SOL    HW113307   1.040   4.840   0.548
 4136SOL    HW213308   1.105   4.949   0.651
 4137SOL     OW13309   1.233   2.532   0.088
 4137SOL    HW113310   1.317   2.575   0.121
 4137SOL    HW213311   1.211   2.454   0.145
 4138SOL     OW13312   4.861   0.136   0.176
 4138SOL    HW113313   4.915   0.054   0.160
 4138SOL    HW213314   4.771   0.126   0.133
 4139SOL     OW13315   2.280   4.308   2.901
 4139SOL    HW113316   2.280   4.228   2.841
 4139SOL    HW213317   2.191   4.354   2.895
 4140SOL     OW13318   1.823   0.314   5.968
 4140SOL    HW113319   1.788   0.336   5.877
 4140SOL    HW213320   1.775   0.370   6.036
 4141SOL     OW13321   4.812   0.620   6.165
 4141SOL    HW113322   4.837   0.525   6.184
 4141SOL    HW213323   4.712   0.627   6.159
 4142SOL     OW13324   0.723   5.448   2.122
 4142SOL    HW113325   0.765   5.512   2.057
 4142SOL    HW213326   0.761   5.463   2.213
 4143SOL     OW13327   5.896   2.768   6.279
 4143SOL    HW113328   5.937   2.677   6.286
 4143SOL    HW213329   5.838   2.773   6.198
 4144SOL     OW13330   6.350   0.807   0.762
 4144SOL    HW113331   6.282   0.757   0.707
 4144SOL    HW213332   6.309   0.835   0.848
 4145SOL     OW13333   6.846   0.644   1.737
 4145SOL    HW113334   6.874   0.643   1.833
 4145SOL    HW213335   6.871   0.731   1.695
 4146SOL     OW13336   5.083   5.971   2.030
 4146SOL    HW113337   5.052   6.007   1.942
 4146SOL    HW213338   5.170   6.014   2.054
 4147SOL     OW13339   4.353   4.920   6.352
 4147SOL    HW113340   4.280   4.937   6.286
 4147SOL    HW213341   4.440   4.954   6.315
 4148SOL     OW13342   2.066   1.212   5.562
 4148SOL    HW113343   2.012   1.154   5.500
 4148SOL    HW213344   2.087   1.298   5.517
 4149SOL     OW13345   1.535   3.783   6.702
 4149SOL    HW113346   1.629   3.762   6.674
 4149SOL    HW213347   1.473   3.712   6.667
 4150SOL     OW13348   5.222   1.918   6.747
 4150SOL    HW113349   5.266   1.973   6.818
 4150SOL    HW213350   5.289   1.895   6.677
 4151SOL     OW13351   3.089   5.952   4.587
 4151SOL    HW113352   3.085   5.901   4.501
 4151SOL    HW213353   2.997   5.974   4.618
 4152SOL     OW13354   2.930   4.392   1.291
 4152SOL    HW113355   3.000   4.321   1.288
 4152SOL    HW213356   2.919   4.424   1.385
 4153SOL     OW13357   6.939   6.056   1.401
 4153SOL    HW113358   6.988   6.117   1.463
 4153SOL    HW213359   6.934   5.964   1.439
 4154SOL     OW13360   1.337   6.307   3.848
 4154SOL    HW113361   1.275   6.239   3.811
 4154SOL    HW213362   1.432   6.275   3.838
 4155SOL     OW13363   0.546   0.891   1.760
 4155SOL    HW113364   0.570   0.821   1.828
 4155SOL    HW213365   0.555   0.981   1.802
 4156SOL     OW13366   0.345   5.356   6.093
 4156SOL    HW113367   0.424   5.299   6.071
 4156SOL    HW213368   0.313   5.335   6.186
 4157SOL     OW13369   6.069   6.316   1.567
 4157SOL    HW113370   5.973   6.329   1.543
 4157SOL    HW213371   6.124   6.308   1.484
 4158SOL     OW13372   0.907   2.905   1.458
 4158SOL    HW113373   0.995   2.920   1.412
 4158SOL    HW213374   0.919   2.913   1.557
 4159SOL     OW13375   3.044   0.283   3.841
 4159SOL    HW113376   3.108   0.289   3.918
 4159SOL    HW213377   3.072   0.347   3.769
 4160SOL     OW13378   6.982   0.113   6.943
 4160SOL    HW113379   6.896   0.159   6.920
 4160SOL    HW213380   0.030   0.137   6.876
 4161SOL     OW13381   3.674   3.210   2.296
 4161SOL    HW113382   3.736   3.188   2.221
 4161SOL    HW213383   3.629   3.298   2.278
 4162SOL     OW13384   5.417   5.523   1.609
 4162SOL    HW113385   5.392   5.466   1.530
 4162SOL    HW213386   5.397   5.474   1.693
 4163SOL     OW13387   3.490   5.798   1.870
 4163SOL    HW113388   3.480   5.887   1.914
 4163SOL    HW213389   3.586   5.782   1.849
 4164SOL     OW13390   6.716   0.868   6.271
 4164SOL    HW113391   6.735   0.928   6.193
 4164SOL    HW213392   6.792   0.874   6.337
 4165SOL     OW13393   4.750   0.411   4.637
 4165SOL    HW113394   4.847   0.403   4.613
 4165SOL    HW213395   4.714   0.497   4.600
 4166SOL     OW13396   5.816   1.672   1.142
 4166SOL    HW113397   5.780   1.604   1.207
 4166SOL    HW213398   5.864   1.626   1.068
 4167SOL     OW13399   3.412   5.681   4.407
 4167SOL    HW113400   3.347   5.629   4.351
 4167SOL    HW213401   3.390   5.670   4.504
 4168SOL     OW13402   5.228   3.678   6.794
 4168SOL    HW113403   5.290   3.636   6.727
 4168SOL    HW213404   5.258   3.652   6.886
 4169SOL     OW13405   5.346   2.724   5.761
 4169SOL    HW113406   5.312   2.717   5.667
 4169SOL    HW213407   5.268   2.719   5.824
 4170SOL     OW13408   0.043   2.390   4.748
 4170SOL    HW113409   0.035   2.298   4.710
 4170SOL    HW213410   0.040   2.457   4.674
 4171SOL     OW13411   0.823   1.855   0.153
 4171SOL    HW113412   0.909   1.870   0.202
 4171SOL    HW213413   0.750   1.840   0.219
 4172SOL     OW13414   3.093   3.910   0.522
 4172SOL    HW113415   3.184   3.948   0.502
 4172SOL    HW213416   3.030   3.938   0.450
 4173SOL     OW13417   4.964   2.530   6.650
 4173SOL    HW113418   4.866   2.516   6.640
 4173SOL    HW213419   4.995   2.599   6.584
 4174SOL     OW13420   3.395   0.780   4.826
 4174SOL    HW113421   3.420   0.699   4.773
 4174SOL    HW213422   3.347   0.751   4.909
 4175SOL     OW13423   0.595   4.350   6.536
 4175SOL    HW113424   0.529   4.370   6.608
 4175SOL    HW213425   0.550   4.354   6.447
 4176SOL     OW13426   5.323   7.020   5.851
 4176SOL    HW113427   5.322   6.929   5.893
 4176SOL    HW213428   5.417   0.025   5.832
 4177SOL     OW13429   4.082   4.837   2.648
 4177SOL    HW113430   4.116   4.763   2.707
 4177SOL    HW213431   3.985   4.852   2.667
 4178SOL     OW13432   3.959   5.870   1.354
 4178SOL    HW113433   3.868   5.838   1.382
 4178SOL    HW213434   4.018   5.791   1.336
 4179SOL     OW13435   5.392   2.998   5.366
 4179SOL    HW113436   5.405   2.899   5.372
 4179SOL    HW213437   5.464   3.044   5.419
 4180SOL     OW13438   4.520   3.924   0.800
 4180SOL    HW113439   4.455   3.916   0.876
 4180SOL    HW213440   4.471   3.920   0.713
 4181SOL     OW13441   4.557   6.997   4.812
 4181SOL    HW113442   4.584   6.957   4.725
 4181SOL    HW213443   4.490   0.047   4.797
 4182SOL     OW13444   0.025   6.458   4.851
 4182SOL    HW113445   6.974   6.524   4.832
 4182SOL    HW213446   0.089   6.497   4.918
 4183SOL     OW13447   4.452   1.900   0.854
 4183SOL    HW113448   4.460   1.903   0.954
 4183SOL    HW213449   4.404   1.981   0.822
 4184SOL     OW13450   3.421   5.705   3.971
 4184SOL    HW113451   3.497   5.696   3.907
 4184SOL    HW213452   3.393   5.800   3.976
 4185SOL     OW13453   5.525   2.833   3.152
 4185SOL    HW113454   5.455   2.840   3.223
 4185SOL    HW213455   5.569   2.922   3.140
 4186SOL     OW13456   1.818   6.405   0.261
 4186SOL    HW113457   1.912   6.393   0.293
 4186SOL    HW213458   1.812   6.381   0.164
 4187SOL     OW13459   1.736   3.461   6.614
 4187SOL    HW113460   1.676   3.416   6.680
 4187SOL    HW213461   1.827   3.420   6.617
 4188SOL     OW13462   4.387   6.939   0.296
 4188SOL    HW113463   4.303   6.927   0.349
 4188SOL    HW213464   4.407   0.014   0.286
 4189SOL     OW13465   5.138   4.989   3.723
 4189SOL    HW113466   5.137   4.966   3.820
 4189SOL    HW213467   5.228   5.025   3.699
 4190SOL     OW13468   6.898   5.679   1.468
 4190SOL    HW113469   6.935   5.595   1.508
 4190SOL    HW213470   6.955   5.756   1.495
 4191SOL     OW13471   4.493   4.642   6.763
 4191SOL    HW113472   4.401   4.631   6.726
 4191SOL    HW213473   4.491   4.699   6.845
 4192SOL     OW13474   1.621   3.400   1.001
 4192SOL    HW113475   1.529   3.379   0.968
 4192SOL    HW213476   1.635   3.499   1.001
 4193SOL     OW13477   0.603   0.387   0.782
 4193SOL    HW113478   0.565   0.339   0.703
 4193SOL    HW213479   0.594   0.330   0.864
 4194SOL     OW13480   4.243   1.457   5.345
 4194SOL    HW113481   4.261   1.361   5.325
 4194SOL    HW213482   4.146   1.469   5.366
 4195SOL     OW13483   3.370   6.295   0.725
 4195SOL    HW113484   3.378   6.197   0.709
 4195SOL    HW213485   3.457   6.331   0.759
 4196SOL     OW13486   6.382   3.058   1.933
 4196SOL    HW113487   6.456   3.074   1.997
 4196SOL    HW213488   6.302   3.024   1.982
 4197SOL     OW13489   3.590   0.900   6.852
 4197SOL    HW113490   3.490   0.909   6.851
 4197SOL    HW213491   3.615   0.808   6.823
 4198SOL     OW13492   6.629   2.293   2.381
 4198SOL    HW113493   6.663   2.379   2.418
 4198SOL    HW213494   6.601   2.233   2.456
 4199SOL     OW13495   0.778   3.931   5.991
 4199SOL    HW113496   0.772   3.838   5.954
 4199SOL    HW213497   0.713   3.941   6.066
 4200SOL     OW13498   5.010   0.855   3.931
 4200SOL    HW113499   4.947   0.778   3.918
 4200SOL    HW213500   5.099   0.820   3.961
 4201SOL     OW13501   5.168   6.377   3.860
 4201SOL    HW113502   5.166   6.279   3.883
 4201SOL    HW213503   5.172   6.387   3.760
 4202SOL     OW13504   5.387   3.995   1.267
 4202SOL    HW113505   5.435   4.082   1.275
 4202SOL    HW213506   5.404   3.956   1.177
 4203SOL     OW13507   6.248   5.518   6.041
 4203SOL    HW113508   6.222   5.423   6.060
 4203SOL    HW213509   6.253   5.569   6.127
 4204SOL     OW13510   2.370   3.280   6.503
 4204SOL    HW113511   2.274   3.263   6.482
 4204SOL    HW213512   2.420   3.194   6.502
 4205SOL     OW13513   3.659   6.332   5.657
 4205SOL    HW113514   3.645   6.301   5.563
 4205SOL    HW213515   3.573   6.363   5.695
 4206SOL     OW13516   1.623   2.151   4.841
 4206SOL    HW113517   1.688   2.123   4.770
 4206SOL    HW213518   1.623   2.251   4.848
 4207SOL     OW13519   1.421   2.174   2.286
 4207SOL    HW113520   1.357   2.236   2.240
 4207SOL    HW213521   1.379   2.140   2.370
 4208SOL     OW13522   2.123   3.430   4.367
 4208SOL    HW113523   2.031   3.468   4.378
 4208SOL    HW213524   2.161   3.406   4.456
 4209SOL     OW13525   6.649   6.571   2.195
 4209SOL    HW113526   6.591   6.650   2.218
 4209SOL    HW213527   6.743   6.589   2.223
 4210SOL     OW13528   4.033   3.929   4.617
 4210SOL    HW113529   3.982   3.991   4.556
 4210SOL    HW213530   3.997   3.938   4.710
 4211SOL     OW13531   4.251   2.310   5.453
 4211SOL    HW113532   4.335   2.353   5.486
 4211SOL    HW213533   4.183   2.309   5.526
 4212SOL     OW13534   6.756   2.338   3.377
 4212SOL    HW113535   6.742   2.435   3.397
 4212SOL    HW213536   6.671   2.298   3.343
 4213SOL     OW13537   3.228   0.958   3.892
 4213SOL    HW113538   3.132   0.985   3.887
 4213SOL    HW213539   3.279   1.002   3.818
 4214SOL     OW13540   6.862   6.044   3.482
 4214SOL    HW113541   6.846   6.077   3.389
 4214SOL    HW213542   6.957   6.061   3.508
 4215SOL     OW13543   4.510   6.647   5.471
 4215SOL    HW113544   4.496   6.560   5.518
 4215SOL    HW213545   4.533   6.717   5.538
 4216SOL     OW13546   2.703   5.756   2.109
 4216SOL    HW113547   2.769   5.706   2.166
 4216SOL    HW213548   2.743   5.774   2.020
 4217SOL     OW13549   0.788   0.541   2.532
 4217SOL    HW113550   0.874   0.572   2.573
 4217SOL    HW213551   0.795   0.444   2.508
 4218SOL     OW13552   2.877   1.437   1.217
 4218SOL    HW113553   2.864   1.524   1.170
 4218SOL    HW213554   2.961   1.442   1.272
 4219SOL     OW13555   4.601   5.433   3.105
 4219SOL    HW113556   4.586   5.494   3.183
 4219SOL    HW213557   4.519   5.432   3.047
 4220SOL     OW13558   5.608   1.961   1.860
 4220SOL    HW113559   5.638   1.899   1.932
 4220SOL    HW213560   5.536   1.918   1.806
 4221SOL     OW13561   0.598   6.233   0.160
 4221SOL    HW113562   0.592   6.163   0.089
 4221SOL    HW213563   0.573   6.194   0.248
 4222SOL     OW13564   4.955   3.059   4.342
 4222SOL    HW113565   4.967   3.133   4.276
 4222SOL    HW213566   4.959   3.097   4.435
 4223SOL     OW13567   4.232   3.462   1.908
 4223SOL    HW113568   4.183   3.538   1.864
 4223SOL    HW213569   4.318   3.445   1.861
 4224SOL     OW13570   4.976   3.695   4.555
 4224SOL    HW113571   4.936   3.609   4.523
 4224SOL    HW213572   4.940   3.718   4.645
 4225SOL     OW13573   0.268   2.095   5.351
 4225SOL    HW113574   0.183   2.133   5.389
 4225SOL    HW213575   0.344   2.116   5.412
 4226SOL     OW13576   1.322   5.708   4.843
 4226SOL    HW113577   1.413   5.747   4.827
 4226SOL    HW213578   1.309   5.693   4.941
 4227SOL     OW13579   5.193   5.371   2.326
 4227SOL    HW113580   5.100   5.385   2.359
 4227SOL    HW213581   5.246   5.322   2.396
 4228SOL     OW13582   1.795   5.343   3.801
 4228SOL    HW113583   1.752   5.307   3.884
 4228SOL    HW213584   1.806   5.270   3.735
 4229SOL     OW13585   6.657   4.475   5.148
 4229SOL    HW113586   6.612   4.451   5.062
 4229SOL    HW213587   6.597   4.534   5.202
 4230SOL     OW13588   0.377   0.869   2.104
 4230SOL    HW113589   0.358   0.923   2.186
 4230SOL    HW213590   0.304   0.884   2.037
 4231SOL     OW13591   5.881   1.335   5.609
 4231SOL    HW113592   5.953   1.331   5.539
 4231SOL    HW213593   5.921   1.362   5.696
 4232SOL     OW13594   1.835   6.017   3.850
 4232SOL    HW113595   1.763   5.969   3.901
 4232SOL    HW213596   1.907   5.952   3.826
 4233SOL     OW13597   4.418   5.205   3.425
 4233SOL    HW113598   4.457   5.130   3.372
 4233SOL    HW213599   4.320   5.213   3.403
 4234SOL     OW13600   2.965   5.522   6.239
 4234SOL    HW113601   2.971   5.521   6.140
 4234SOL    HW213602   3.015   5.444   6.277
 4235SOL     OW13603   0.361   5.762   5.527
 4235SOL    HW113604   0.455   5.730   5.521
 4235SOL    HW213605   0.347   5.809   5.614
 4236SOL     OW13606   0.285   5.313   2.720
 4236SOL    HW113607   0.213   5.378   2.695
 4236SOL    HW213608   0.336   5.287   2.638
 4237SOL     OW13609   6.982   4.860   3.679
 4237SOL    HW113610   6.922   4.926   3.723
 4237SOL    HW213611   0.026   4.824   3.746
 4238SOL     OW13612   2.862   6.973   2.852
 4238SOL    HW113613   2.918   7.002   2.774
 4238SOL    HW213614   2.882   6.878   2.873
 4239SOL     OW13615   4.299   0.971   3.712
 4239SOL    HW113616   4.272   0.971   3.616
 4239SOL    HW213617   4.302   1.065   3.746
 4240SOL     OW13618   6.805   6.694   1.544
 4240SOL    HW113619   6.882   6.632   1.555
 4240SOL    HW213620   6.838   6.783   1.512
 4241SOL     OW13621   6.344   3.320   0.475
 4241SOL    HW113622   6.443   3.332   0.483
 4241SOL    HW213623   6.298   3.375   0.544
 4242SOL     OW13624   2.325   1.913   3.484
 4242SOL    HW113625   2.307   1.815   3.475
 4242SOL    HW213626   2.401   1.927   3.548
 4243SOL     OW13627   4.781   0.179   2.996
 4243SOL    HW113628   4.871   0.186   2.952
 4243SOL    HW213629   4.717   0.134   2.934
 4244SOL     OW13630   3.713   3.274   2.811
 4244SOL    HW113631   3.667   3.247   2.726
 4244SOL    HW213632   3.811   3.257   2.802
 4245SOL     OW13633   6.436   2.154   6.621
 4245SOL    HW113634   6.498   2.077   6.635
 4245SOL    HW213635   6.377   2.136   6.542
 4246SOL     OW13636   1.005   3.442   1.349
 4246SOL    HW113637   0.910   3.437   1.319
 4246SOL    HW213638   1.013   3.405   1.441
 4247SOL     OW13639   0.215   5.603   4.767
 4247SOL    HW113640   0.181   5.626   4.859
 4247SOL    HW213641   0.141   5.563   4.713
 4248SOL     OW13642   1.575   2.909   5.289
 4248SOL    HW113643   1.478   2.934   5.297
 4248SOL    HW213644   1.628   2.959   5.357
 4249SOL     OW13645   5.615   3.849   5.776
 4249SOL    HW113646   5.634   3.770   5.717
 4249SOL    HW213647   5.620   3.933   5.722
 4250SOL     OW13648   0.333   4.524   2.986
 4250SOL    HW113649   0.325   4.590   3.060
 4250SOL    HW213650   0.404   4.552   2.922
 4251SOL     OW13651   5.861   4.118   0.487
 4251SOL    HW113652   5.901   4.169   0.411
 4251SOL    HW213653   5.795   4.175   0.535
 4252SOL     OW13654   0.608   5.694   5.503
 4252SOL    HW113655   0.686   5.752   5.526
 4252SOL    HW213656   0.609   5.612   5.561
 4253SOL     OW13657   4.313   6.477   2.186
 4253SOL    HW113658   4.288   6.472   2.282
 4253SOL    HW213659   4.284   6.565   2.148
 4254SOL     OW13660   2.682   4.282   1.170
 4254SOL    HW113661   2.777   4.311   1.179
 4254SOL    HW213662   2.633   4.299   1.255
 4255SOL     OW13663   0.304   2.181   4.474
 4255SOL    HW113664   0.351   2.251   4.527
 4255SOL    HW213665   0.210   2.172   4.507
 4256SOL     OW13666   1.910   0.209   1.611
 4256SOL    HW113667   1.969   0.288   1.626
 4256SOL    HW213668   1.814   0.235   1.623
 4257SOL     OW13669   3.743   1.878   4.439
 4257SOL    HW113670   3.746   1.787   4.397
 4257SOL    HW213671   3.807   1.881   4.516
 4258SOL     OW13672   4.990   6.572   2.332
 4258SOL    HW113673   5.060   6.520   2.284
 4258SOL    HW213674   4.999   6.559   2.430
 4259SOL     OW13675   2.338   2.673   0.565
 4259SOL    HW113676   2.279   2.690   0.486
 4259SOL    HW213677   2.340   2.754   0.623
 4260SOL     OW13678   5.027   5.416   3.729
 4260SOL    HW113679   4.963   5.375   3.664
 4260SOL    HW213680   5.112   5.438   3.681
 4261SOL     OW13681   1.513   6.818   2.035
 4261SOL    HW113682   1.555   6.727   2.038
 4261SOL    HW213683   1.542   6.864   1.951
 4262SOL     OW13684   0.616   5.225   6.684
 4262SOL    HW113685   0.570   5.174   6.612
 4262SOL    HW213686   0.591   5.187   6.773
 4263SOL     OW13687   3.110   4.948   5.521
 4263SOL    HW113688   3.134   4.899   5.437
 4263SOL    HW213689   3.150   5.040   5.519
 4264SOL     OW13690   0.040   0.900   0.807
 4264SOL    HW113691   6.975   0.877   0.850
 4264SOL    HW213692   0.085   0.817   0.774
 4265SOL     OW13693   0.116   1.655   1.040
 4265SOL    HW113694   0.109   1.683   1.136
 4265SOL    HW213695   0.035   1.603   1.015
 4266SOL     OW13696   2.501   4.927   0.861
 4266SOL    HW113697   2.555   4.936   0.946
 4266SOL    HW213698   2.544   4.981   0.789
 4267SOL     OW13699   1.591   3.784   5.005
 4267SOL    HW113700   1.640   3.767   5.090
 4267SOL    HW213701   1.633   3.730   4.932
 4268SOL     OW13702   1.915   0.754   0.699
 4268SOL    HW113703   1.858   0.691   0.646
 4268SOL    HW213704   1.924   0.841   0.649
 4269SOL     OW13705   3.504   3.041   0.234
 4269SOL    HW113706   3.574   3.108   0.209
 4269SOL    HW213707   3.488   2.980   0.156
 4270SOL     OW13708   3.395   2.979   5.097
 4270SOL    HW113709   3.410   2.973   4.998
 4270SOL    HW213710   3.342   3.062   5.118
 4271SOL     OW13711   0.787   6.912   6.470
 4271SOL    HW113712   0.821   6.876   6.557
 4271SOL    HW213713   0.696   6.952   6.484
 4272SOL     OW13714   0.058   4.947   4.518
 4272SOL    HW113715   6.988   4.912   4.501
 4272SOL    HW213716   0.111   4.879   4.570
 4273SOL     OW13717   5.586   6.332   5.788
 4273SOL    HW113718   5.672   6.295   5.754
 4273SOL    HW213719   5.517   6.259   5.789
 4274SOL     OW13720   1.685   6.945   3.983
 4274SOL    HW113721   1.587   6.968   3.987
 4274SOL    HW213722   1.732   7.012   3.925
 4275SOL     OW13723   0.676   6.907   6.012
 4275SOL    HW113724   0.608   6.875   5.945
 4275SOL    HW213725   0.693   6.836   6.079
 4276SOL     OW13726   2.194   3.991   2.353
 4276SOL    HW113727   2.204   3.902   2.308
 4276SOL    HW213728   2.227   4.062   2.291
 4277SOL     OW13729   6.745   5.814   3.474
 4277SOL    HW113730   6.783   5.906   3.478
 4277SOL    HW213731   6.816   5.749   3.448
 4278SOL     OW13732   6.707   0.212   5.424
 4278SOL    HW113733   6.727   0.238   5.518
 4278SOL    HW213734   6.771   0.256   5.362
 4279SOL     OW13735   3.306   6.516   5.274
 4279SOL    HW113736   3.208   6.494   5.278
 4279SOL    HW213737   3.357   6.436   5.242
 4280SOL     OW13738   5.171   2.734   3.924
 4280SOL    HW113739   5.190   2.636   3.927
 4280SOL    HW213740   5.094   2.755   3.984
 4281SOL     OW13741   2.268   4.269   5.113
 4281SOL    HW113742   2.268   4.170   5.097
 4281SOL    HW213743   2.184   4.309   5.077
 4282SOL     OW13744   1.741   2.376   1.380
 4282SOL    HW113745   1.717   2.317   1.303
 4282SOL    HW213746   1.705   2.468   1.366
 4283SOL     OW13747   1.662   0.366   4.187
 4283SOL    HW113748   1.747   0.315   4.185
 4283SOL    HW213749   1.605   0.333   4.263
 4284SOL     OW13750   5.909   2.069   2.546
 4284SOL    HW113751   5.955   1.982   2.528
 4284SOL    HW213752   5.977   2.141   2.558
 4285SOL     OW13753   1.199   6.760   6.006
 4285SOL    HW113754   1.134   6.774   5.931
 4285SOL    HW213755   1.187   6.668   6.043
 4286SOL     OW13756   5.007   5.751   0.371
 4286SOL    HW113757   5.006   5.713   0.463
 4286SOL    HW213758   5.054   5.840   0.372
 4287SOL     OW13759   5.110   6.313   4.817
 4287SOL    HW113760   5.081   6.377   4.746
 4287SOL    HW213761   5.087   6.220   4.790
 4288SOL     OW13762   1.295   6.311   3.160
 4288SOL    HW113763   1.388   6.299   3.127
 4288SOL    HW213764   1.297   6.358   3.248
 4289SOL     OW13765   5.461   2.878   1.318
 4289SOL    HW113766   5.525   2.835   1.255
 4289SOL    HW213767   5.495   2.969   1.343
 4290SOL     OW13768   2.450   0.901   1.830
 4290SOL    HW113769   2.377   0.846   1.791
 4290SOL    HW213770   2.533   0.889   1.776
 4291SOL     OW13771   6.599   3.929   0.868
 4291SOL    HW113772   6.627   4.016   0.910
 4291SOL    HW213773   6.643   3.854   0.917
 4292SOL     OW13774   5.702   5.092   6.514
 4292SOL    HW113775   5.626   5.124   6.569
 4292SOL    HW213776   5.749   5.017   6.561
 4293SOL     OW13777   6.838   2.782   6.824
 4293SOL    HW113778   6.894   2.787   6.908
 4293SOL    HW213779   6.860   2.698   6.775
 4294SOL     OW13780   4.268   1.830   5.803
 4294SOL    HW113781   4.240   1.850   5.709
 4294SOL    HW213782   4.368   1.826   5.807
 4295SOL     OW13783   3.471   0.289   4.386
 4295SOL    HW113784   3.568   0.296   4.412
 4295SOL    HW213785   3.430   0.380   4.386
 4296SOL     OW13786   2.233   1.669   1.183
 4296SOL    HW113787   2.259   1.764   1.200
 4296SOL    HW213788   2.205   1.626   1.269
 4297SOL     OW13789   5.606   0.728   5.746
 4297SOL    HW113790   5.537   0.676   5.796
 4297SOL    HW213791   5.658   0.667   5.687
 4298SOL     OW13792   2.764   6.076   1.123
 4298SOL    HW113793   2.723   5.987   1.146
 4298SOL    HW213794   2.703   6.126   1.062
 4299SOL     OW13795   0.966   3.508   6.688
 4299SOL    HW113796   0.999   3.508   6.782
 4299SOL    HW213797   0.964   3.602   6.653
 4300SOL     OW13798   4.735   0.848   6.498
 4300SOL    HW113799   4.832   0.838   6.477
 4300SOL    HW213800   4.720   0.934   6.546
 4301SOL     OW13801   2.775   1.645   0.793
 4301SOL    HW113802   2.768   1.546   0.778
 4301SOL    HW213803   2.689   1.689   0.767
 4302SOL     OW13804   1.097   6.731   0.105
 4302SOL    HW113805   1.010   6.682   0.099
 4302SOL    HW213806   1.170   6.677   0.062
 4303SOL     OW13807   0.346   3.455   2.035
 4303SOL    HW113808   0.327   3.430   1.940
 4303SOL    HW213809   0.325   3.378   2.095
 4304SOL     OW13810   3.044   3.787   4.300
 4304SOL    HW113811   3.105   3.862   4.273
 4304SOL    HW213812   3.047   3.775   4.399
 4305SOL     OW13813   6.193   1.399   3.564
 4305SOL    HW113814   6.271   1.399   3.626
 4305SOL    HW213815   6.164   1.494   3.548
 4306SOL     OW13816   6.873   5.041   5.558
 4306SOL    HW113817   6.820   5.123   5.539
 4306SOL    HW213818   6.952   5.036   5.497
 4307SOL     OW13819   5.383   4.045   6.321
 4307SOL    HW113820   5.338   3.989   6.251
 4307SOL    HW213821   5.476   4.011   6.335
 4308SOL     OW13822   5.047   6.113   4.405
 4308SOL    HW113823   5.084   6.045   4.468
 4308SOL    HW213824   4.948   6.103   4.399
 4309SOL     OW13825   1.509   1.440   0.703
 4309SOL    HW113826   1.576   1.490   0.757
 4309SOL    HW213827   1.456   1.380   0.763
 4310SOL     OW13828   1.733   1.675   2.829
 4310SOL    HW113829   1.719   1.742   2.756
 4310SOL    HW213830   1.724   1.720   2.918
 4311SOL     OW13831   1.976   6.151   3.463
 4311SOL    HW113832   1.936   6.229   3.416
 4311SOL    HW213833   2.074   6.146   3.443
 4312SOL     OW13834   2.023   5.213   2.168
 4312SOL    HW113835   2.044   5.254   2.080
 4312SOL    HW213836   1.925   5.221   2.186
 4313SOL     OW13837   5.183   0.714   2.454
 4313SOL    HW113838   5.235   0.653   2.514
 4313SOL    HW213839   5.086   0.709   2.477
 4314SOL     OW13840   4.899   3.187   2.808
 4314SOL    HW113841   4.850   3.147   2.731
 4314SOL    HW213842   4.864   3.149   2.893
 4315SOL     OW13843   2.396   0.624   2.037
 4315SOL    HW113844   2.441   0.559   2.098
 4315SOL    HW213845   2.449   0.709   2.033
 4316SOL     OW13846   6.225   0.310   2.122
 4316SOL    HW113847   6.276   0.302   2.036
 4316SOL    HW213848   6.211   0.406   2.144
 4317SOL     OW13849   3.671   1.072   3.835
 4317SOL    HW113850   3.735   1.026   3.772
 4317SOL    HW213851   3.676   1.028   3.925
 4318SOL     OW13852   0.240   3.025   3.904
 4318SOL    HW113853   0.168   3.093   3.913
 4318SOL    HW213854   0.201   2.934   3.913
 4319SOL     OW13855   2.361   3.468   6.703
 4319SOL    HW113856   2.302   3.534   6.656
 4319SOL    HW213857   2.373   3.388   6.645
 4320SOL     OW13858   0.256   6.295   2.755
 4320SOL    HW113859   0.226   6.201   2.775
 4320SOL    HW213860   0.177   6.355   2.752
 4321SOL     OW13861   6.865   0.304   5.216
 4321SOL    HW113862   6.910   0.215   5.211
 4321SOL    HW213863   6.924   0.369   5.263
 4322SOL     OW13864   5.970   1.056   0.418
 4322SOL    HW113865   5.990   1.040   0.515
 4322SOL    HW213866   6.055   1.075   0.369
 4323SOL     OW13867   6.599   3.247   3.141
 4323SOL    HW113868   6.542   3.252   3.223
 4323SOL    HW213869   6.695   3.248   3.167
 4324SOL     OW13870   5.868   4.032   6.090
 4324SOL    HW113871   5.800   3.962   6.065
 4324SOL    HW213872   5.820   4.117   6.113
 4325SOL     OW13873   2.056   1.467   6.856
 4325SOL    HW113874   1.979   1.529   6.871
 4325SOL    HW213875   2.022   1.375   6.837
 4326SOL     OW13876   6.071   2.556   5.158
 4326SOL    HW113877   6.028   2.604   5.082
 4326SOL    HW213878   6.103   2.466   5.128
 4327SOL     OW13879   6.171   6.427   2.498
 4327SOL    HW113880   6.182   6.501   2.564
 4327SOL    HW213881   6.093   6.447   2.438
 4328SOL     OW13882   5.321   5.100   0.165
 4328SOL    HW113883   5.223   5.084   0.151
 4328SOL    HW213884   5.335   5.196   0.190
 4329SOL     OW13885   3.902   1.761   5.582
 4329SOL    HW113886   3.918   1.771   5.484
 4329SOL    HW213887   3.811   1.797   5.605
 4330SOL     OW13888   0.950   0.334   5.867
 4330SOL    HW113889   0.856   0.339   5.835
 4330SOL    HW213890   0.956   0.272   5.945
 4331SOL     OW13891   6.158   2.599   6.448
 4331SOL    HW113892   6.202   2.645   6.371
 4331SOL    HW213893   6.181   2.646   6.533
 4332SOL     OW13894   5.090   2.989   1.985
 4332SOL    HW113895   5.055   2.972   1.892
 4332SOL    HW213896   5.062   2.913   2.044
 4333SOL     OW13897   5.285   0.630   4.787
 4333SOL    HW113898   5.218   0.683   4.838
 4333SOL    HW213899   5.355   0.691   4.749
 4334SOL     OW13900   4.313   1.463   2.039
 4334SOL    HW113901   4.366   1.461   2.125
 4334SOL    HW213902   4.217   1.482   2.060
 4335SOL     OW13903   3.516   4.119   4.989
 4335SOL    HW113904   3.478   4.155   4.904
 4335SOL    HW213905   3.589   4.054   4.968
 4336SOL     OW13906   1.104   6.549   4.333
 4336SOL    HW113907   1.083   6.463   4.287
 4336SOL    HW213908   1.192   6.541   4.380
 4337SOL     OW13909   6.969   5.463   0.686
 4337SOL    HW113910   6.938   5.508   0.602
 4337SOL    HW213911   6.948   5.522   0.764
 4338SOL     OW13912   6.594   6.260   4.093
 4338SOL    HW113913   6.535   6.180   4.106
 4338SOL    HW213914   6.638   6.255   4.003
 4339SOL     OW13915   6.099   1.295   5.433
 4339SOL    HW113916   6.071   1.234   5.359
 4339SOL    HW213917   6.198   1.294   5.442
 4340SOL     OW13918   5.302   3.667   1.553
 4340SOL    HW113919   5.365   3.744   1.542
 4340SOL    HW213920   5.295   3.643   1.650
 4341SOL     OW13921   1.348   4.533   1.120
 4341SOL    HW113922   1.254   4.520   1.087
 4341SOL    HW213923   1.378   4.451   1.168
 4342SOL     OW13924   0.955   3.346   3.006
 4342SOL    HW113925   0.880   3.287   3.038
 4342SOL    HW213926   0.968   3.421   3.070
 4343SOL     OW13927   2.409   1.455   1.646
 4343SOL    HW113928   2.425   1.395   1.568
 4343SOL    HW213929   2.425   1.405   1.731
 4344SOL     OW13930   1.879   4.954   3.020
 4344SOL    HW113931   1.861   4.980   3.115
 4344SOL    HW213932   1.849   5.028   2.960
 4345SOL     OW13933   1.476   2.335   5.664
 4345SOL    HW113934   1.440   2.427   5.650
 4345SOL    HW213935   1.400   2.271   5.675
 4346SOL     OW13936   1.997   3.424   1.888
 4346SOL    HW113937   2.081   3.448   1.935
 4346SOL    HW213938   1.953   3.506   1.853
 4347SOL     OW13939   5.641   6.605   2.907
 4347SOL    HW113940   5.548   6.608   2.871
 4347SOL    HW213941   5.706   6.609   2.832
 4348SOL     OW13942   1.953   4.136   6.907
 4348SOL    HW113943   2.023   4.166   6.842
 4348SOL    HW213944   1.885   4.208   6.919
 4349SOL     OW13945   0.317   1.215   3.522
 4349SOL    HW113946   0.307   1.203   3.423
 4349SOL    HW213947   0.253   1.155   3.570
 4350SOL     OW13948   5.173   1.949   3.692
 4350SOL    HW113949   5.098   1.883   3.696
 4350SOL    HW213950   5.240   1.927   3.762
 4351SOL     OW13951   2.736   6.067   1.702
 4351SOL    HW113952   2.771   5.978   1.731
 4351SOL    HW213953   2.719   6.124   1.783
 4352SOL     OW13954   6.304   0.896   2.226
 4352SOL    HW113955   6.317   0.993   2.203
 4352SOL    HW213956   6.366   0.872   2.302
 4353SOL     OW13957   3.329   5.574   6.348
 4353SOL    HW113958   3.285   5.555   6.435
 4353SOL    HW213959   3.427   5.554   6.354
 4354SOL     OW13960   2.392   0.283   0.726
 4354SOL    HW113961   2.379   0.279   0.627
 4354SOL    HW213962   2.430   0.197   0.759
 4355SOL     OW13963   4.690   1.176   0.304
 4355SOL    HW113964   4.656   1.247   0.242
 4355SOL    HW213965   4.661   1.198   0.397
 4356SOL     OW13966   4.235   4.150   0.717
 4356SOL    HW113967   4.280   4.083   0.658
 4356SOL    HW213968   4.174   4.103   0.781
 4357SOL     OW13969   5.934   0.359   6.987
 4357SOL    HW113970   6.021   0.347   6.940
 4357SOL    HW213971   5.904   0.272   0.005
 4358SOL     OW13972   0.867   6.761   1.652
 4358SOL    HW113973   0.776   6.721   1.663
 4358SOL    HW213974   0.937   6.690   1.666
 4359SOL     OW13975   6.710   2.363   4.174
 4359SOL    HW113976   6.618   2.389   4.205
 4359SOL    HW213977   6.729   2.407   4.086
 4360SOL     OW13978   1.162   3.316   1.143
 4360SOL    HW113979   1.227   3.252   1.183
 4360SOL    HW213980   1.116   3.366   1.216
 4361SOL     OW13981   5.157   2.453   2.068
 4361SOL    HW113982   5.206   2.532   2.107
 4361SOL    HW213983   5.214   2.371   2.078
 4362SOL     OW13984   6.469   4.051   4.588
 4362SOL    HW113985   6.477   4.070   4.490
 4362SOL    HW213986   6.381   4.085   4.622
 4363SOL     OW13987   5.008   2.334   6.089
 4363SOL    HW113988   4.977   2.266   6.023
 4363SOL    HW213989   5.041   2.288   6.171
 4364SOL     OW13990   3.112   4.044   4.619
 4364SOL    HW113991   3.177   4.073   4.549
 4364SOL    HW213992   3.053   4.121   4.643
 4365SOL     OW13993   3.626   2.126   2.690
 4365SOL    HW113994   3.528   2.127   2.671
 4365SOL    HW213995   3.676   2.158   2.609
 4366SOL     OW13996   5.917   5.391   0.968
 4366SOL    HW113997   5.877   5.407   0.878
 4366SOL    HW213998   5.846   5.363   1.033
 4367SOL     OW13999   1.399   6.385   6.136
 4367SOL    HW114000   1.320   6.445   6.123
 4367SOL    HW214001   1.383   6.299   6.088
 4368SOL     OW14002   5.653   3.718   2.026
 4368SOL    HW114003   5.712   3.716   2.107
 4368SOL    HW214004   5.651   3.811   1.990
 4369SOL     OW14005   4.274   5.373   2.038
 4369SOL    HW114006   4.226   5.308   2.097
 4369SOL    HW214007   4.217   5.397   1.960
 4370SOL     OW14008   5.640   4.805   3.537
 4370SOL    HW114009   5.685   4.756   3.462
 4370SOL    HW214010   5.686   4.782   3.623
 4371SOL     OW14011   6.249   1.970   1.858
 4371SOL    HW114012   6.239   1.877   1.895
 4371SOL    HW214013   6.231   1.968   1.760
 4372SOL     OW14014   4.133   1.063   3.195
 4372SOL    HW114015   4.070   0.994   3.160
 4372SOL    HW214016   4.181   1.107   3.119
 4373SOL     OW14017   6.755   1.867   6.446
 4373SOL    HW114018   6.695   1.892   6.522
 4373SOL    HW214019   6.734   1.924   6.366
 4374SOL     OW14020   1.973   2.568   1.480
 4374SOL    HW114021   2.019   2.551   1.568
 4374SOL    HW214022   2.010   2.652   1.439
 4375SOL     OW14023   2.511   6.481   4.633
 4375SOL    HW114024   2.599   6.436   4.648
 4375SOL    HW214025   2.455   6.426   4.572
 4376SOL     OW14026   5.580   0.944   3.007
 4376SOL    HW114027   5.588   1.001   2.925
 4376SOL    HW214028   5.668   0.941   3.054
 4377SOL     OW14029   5.777   4.205   6.468
 4377SOL    HW114030   5.754   4.300   6.487
 4377SOL    HW214031   5.830   4.167   6.544
 4378SOL     OW14032   1.642   0.287   3.934
 4378SOL    HW114033   1.632   0.315   4.030
 4378SOL    HW214034   1.726   0.235   3.923
 4379SOL     OW14035   2.666   2.124   5.117
 4379SOL    HW114036   2.680   2.025   5.111
 4379SOL    HW214037   2.718   2.170   5.045
 4380SOL     OW14038   0.427   1.281   1.710
 4380SOL    HW114039   0.457   1.186   1.719
 4380SOL    HW214040   0.335   1.290   1.749
 4381SOL     OW14041   2.326   6.551   5.981
 4381SOL    HW114042   2.235   6.513   5.966
 4381SOL    HW214043   2.387   6.519   5.908
 4382SOL     OW14044   6.901   3.587   5.424
 4382SOL    HW114045   6.981   3.553   5.472
 4382SOL    HW214046   6.821   3.580   5.484
 4383SOL     OW14047   5.536   3.005   0.056
 4383SOL    HW114048   5.521   2.982   6.981
 4383SOL    HW214049   5.526   2.922   0.111
 4384SOL     OW14050   6.304   6.488   4.047
 4384SOL    HW114051   6.222   6.544   4.038
 4384SOL    HW214052   6.309   6.423   3.971
 4385SOL     OW14053   5.467   1.466   4.596
 4385SOL    HW114054   5.403   1.429   4.529
 4385SOL    HW214055   5.499   1.555   4.566
 4386SOL     OW14056   1.057   3.163   5.235
 4386SOL    HW114057   1.140   3.115   5.264
 4386SOL    HW214058   1.023   3.218   5.311
 4387SOL     OW14059   6.735   1.932   0.556
 4387SOL    HW114060   6.654   1.966   0.603
 4387SOL    HW214061   6.711   1.903   0.463
 4388SOL     OW14062   5.172   2.325   6.525
 4388SOL    HW114063   5.090   2.349   6.576
 4388SOL    HW214064   5.245   2.302   6.590
 4389SOL     OW14065   1.104   3.739   1.743
 4389SOL    HW114066   1.022   3.711   1.694
 4389SOL    HW214067   1.161   3.660   1.761
 4390SOL     OW14068   6.569   0.960   1.814
 4390SOL    HW114069   6.571   0.878   1.871
 4390SOL    HW214070   6.484   1.010   1.828
 4391SOL     OW14071   2.091   6.359   6.678
 4391SOL    HW114072   2.003   6.403   6.695
 4391SOL    HW214073   2.096   6.332   6.582
 4392SOL     OW14074   2.028   2.455   4.994
 4392SOL    HW114075   1.949   2.450   5.054
 4392SOL    HW214076   2.078   2.540   5.011
 4393SOL     OW14077   4.898   0.964   1.701
 4393SOL    HW114078   4.888   0.985   1.799
 4393SOL    HW214079   4.830   0.896   1.675
 4394SOL     OW14080   1.192   0.386   1.547
 4394SOL    HW114081   1.143   0.301   1.528
 4394SOL    HW214082   1.268   0.396   1.483
 4395SOL     OW14083   2.706   5.492   1.047
 4395SOL    HW114084   2.624   5.543   1.022
 4395SOL    HW214085   2.720   5.418   0.981
 4396SOL     OW14086   2.591   0.003   3.304
 4396SOL    HW114087   2.564   6.928   3.301
 4396SOL    HW214088   2.629   0.029   3.215
 4397SOL     OW14089   2.872   1.982   4.557
 4397SOL    HW114090   2.939   1.920   4.515
 4397SOL    HW214091   2.783   1.969   4.514
 4398SOL     OW14092   2.195   2.865   5.379
 4398SOL    HW114093   2.205   2.964   5.379
 4398SOL    HW214094   2.277   2.823   5.341
 4399SOL     OW14095   3.019   6.989   2.247
 4399SOL    HW114096   3.064   7.019   2.163
 4399SOL    HW214097   3.074   7.017   2.326
 4400SOL     OW14098   1.783   5.450   4.634
 4400SOL    HW114099   1.857   5.384   4.646
 4400SOL    HW214100   1.767   5.465   4.536
 4401SOL     OW14101   3.547   0.442   6.176
 4401SOL    HW114102   3.626   0.382   6.162
 4401SOL    HW214103   3.465   0.398   6.141
 4402SOL     OW14104   1.528   0.433   3.332
 4402SOL    HW114105   1.547   0.354   3.390
 4402SOL    HW214106   1.511   0.403   3.239
 4403SOL     OW14107   1.408   5.145   1.254
 4403SOL    HW114108   1.464   5.188   1.183
 4403SOL    HW214109   1.453   5.155   1.343
 4404SOL     OW14110   0.443   6.718   6.267
 4404SOL    HW114111   0.407   6.755   6.182
 4404SOL    HW214112   0.421   6.621   6.273
 4405SOL     OW14113   1.832   5.244   3.548
 4405SOL    HW114114   1.754   5.188   3.518
 4405SOL    HW214115   1.906   5.183   3.580
 4406SOL     OW14116   6.502   3.655   1.815
 4406SOL    HW114117   6.403   3.643   1.805
 4406SOL    HW214118   6.524   3.752   1.810
 4407SOL     OW14119   6.154   6.378   1.965
 4407SOL    HW114120   6.101   6.440   1.906
 4407SOL    HW214121   6.231   6.429   2.004
 4408SOL     OW14122   4.075   0.826   0.643
 4408SOL    HW114123   3.990   0.878   0.647
 4408SOL    HW214124   4.084   0.783   0.553
 4409SOL     OW14125   2.884   0.418   3.020
 4409SOL    HW114126   2.968   0.457   2.981
 4409SOL    HW214127   2.821   0.394   2.947
 4410SOL     OW14128   1.334   6.382   1.377
 4410SOL    HW114129   1.378   6.294   1.361
 4410SOL    HW214130   1.260   6.395   1.311
 4411SOL     OW14131   3.252   4.412   5.496
 4411SOL    HW114132   3.323   4.351   5.461
 4411SOL    HW214133   3.228   4.385   5.589
 4412SOL     OW14134   4.988   6.311   2.630
 4412SOL    HW114135   4.913   6.374   2.651
 4412SOL    HW214136   5.074   6.348   2.667
 4413SOL     OW14137   4.497   6.058   4.021
 4413SOL    HW114138   4.477   6.087   3.927
 4413SOL    HW214139   4.527   5.962   4.020
 4414SOL     OW14140   4.625   4.314   1.275
 4414SOL    HW114141   4.702   4.344   1.218
 4414SOL    HW214142   4.659   4.268   1.357
 4415SOL     OW14143   3.013   3.174   1.295
 4415SOL    HW114144   2.969   3.258   1.325
 4415SOL    HW214145   3.040   3.121   1.376
 4416SOL     OW14146   4.336   2.188   3.172
 4416SOL    HW114147   4.236   2.181   3.173
 4416SOL    HW214148   4.362   2.273   3.126
 4417SOL     OW14149   0.039   3.968   3.853
 4417SOL    HW114150   6.972   3.943   3.816
 4417SOL    HW214151   0.084   4.032   3.792
 4418SOL     OW14152   5.987   6.717   6.250
 4418SOL    HW114153   6.041   6.801   6.249
 4418SOL    HW214154   6.024   6.653   6.318
 4419SOL     OW14155   6.540   5.695   6.554
 4419SOL    HW114156   6.629   5.650   6.555
 4419SOL    HW214157   6.516   5.723   6.647
 4420SOL     OW14158   3.672   2.214   0.830
 4420SOL    HW114159   3.602   2.283   0.853
 4420SOL    HW214160   3.678   2.147   0.904
 4421SOL     OW14161   1.135   2.203   5.425
 4421SOL    HW114162   1.163   2.181   5.518
 4421SOL    HW214163   1.207   2.177   5.361
 4422SOL     OW14164   7.003   4.407   6.609
 4422SOL    HW114165   0.081   4.414   6.604
 4422SOL    HW214166   6.971   4.333   6.551
 4423SOL     OW14167   5.547   4.279   4.888
 4423SOL    HW114168   5.581   4.278   4.794
 4423SOL    HW214169   5.578   4.197   4.936
 4424SOL     OW14170   4.945   5.623   3.519
 4424SOL    HW114171   4.865   5.630   3.579
 4424SOL    HW214172   5.028   5.620   3.574
 4425SOL     OW14173   1.847   5.264   1.494
 4425SOL    HW114174   1.809   5.226   1.409
 4425SOL    HW214175   1.934   5.309   1.473
 4426SOL     OW14176   0.626   0.185   4.388
 4426SOL    HW114177   0.577   0.102   4.414
 4426SOL    HW214178   0.688   0.211   4.461
 4427SOL     OW14179   2.841   6.119   2.699
 4427SOL    HW114180   2.879   6.190   2.640
 4427SOL    HW214181   2.742   6.131   2.705
 4428SOL     OW14182   5.435   0.003   3.503
 4428SOL    HW114183   5.381   7.022   3.587
 4428SOL    HW214184   5.532   7.012   3.525
 4429SOL     OW14185   2.521   6.006   3.297
 4429SOL    HW114186   2.532   6.019   3.395
 4429SOL    HW214187   2.580   5.931   3.266
 4430SOL     OW14188   4.970   4.391   5.296
 4430SOL    HW114189   4.968   4.427   5.203
 4430SOL    HW214190   5.007   4.298   5.296
 4431SOL     OW14191   3.507   6.760   3.535
 4431SOL    HW114192   3.471   6.683   3.483
 4431SOL    HW214193   3.433   6.805   3.584
 4432SOL     OW14194   1.072   3.523   6.069
 4432SOL    HW114195   0.979   3.489   6.059
 4432SOL    HW214196   1.078   3.582   6.149
 4433SOL     OW14197   0.310   0.796   5.572
 4433SOL    HW114198   0.299   0.728   5.645
 4433SOL    HW214199   0.314   0.887   5.612
 4434SOL     OW14200   0.134   0.386   2.341
 4434SOL    HW114201   0.191   0.457   2.382
 4434SOL    HW214202   0.086   0.336   2.413
 4435SOL     OW14203   2.057   3.568   0.488
 4435SOL    HW114204   2.029   3.512   0.566
 4435SOL    HW214205   2.154   3.590   0.496
 4436SOL     OW14206   4.081   1.719   1.969
 4436SOL    HW114207   4.088   1.621   1.989
 4436SOL    HW214208   4.038   1.766   2.047
 4437SOL     OW14209   0.148   3.943   0.699
 4437SOL    HW114210   0.057   3.965   0.665
 4437SOL    HW214211   0.215   3.961   0.626
 4438SOL     OW14212   3.690   0.945   5.694
 4438SOL    HW114213   3.639   0.984   5.771
 4438SOL    HW214214   3.713   1.017   5.629
 4439SOL     OW14215   2.657   6.718   2.829
 4439SOL    HW114216   2.624   6.758   2.744
 4439SOL    HW214217   2.723   6.646   2.809
 4440SOL     OW14218   1.704   4.892   0.275
 4440SOL    HW114219   1.701   4.927   0.182
 4440SOL    HW214220   1.709   4.968   0.340
 4441SOL     OW14221   6.987   1.017   0.562
 4441SOL    HW114222   6.993   0.988   0.657
 4441SOL    HW214223   0.056   1.018   0.521
 4442SOL     OW14224   1.724   4.630   6.428
 4442SOL    HW114225   1.666   4.700   6.468
 4442SOL    HW214226   1.678   4.541   6.434
 4443SOL     OW14227   0.577   5.620   6.010
 4443SOL    HW114228   0.517   5.667   6.075
 4443SOL    HW214229   0.522   5.557   5.955
 4444SOL     OW14230   5.552   4.381   6.879
 4444SOL    HW114231   5.533   4.477   6.856
 4444SOL    HW214232   5.642   4.356   6.842
 4445SOL     OW14233   6.867   5.407   6.807
 4445SOL    HW114234   6.962   5.423   6.780
 4445SOL    HW214235   6.819   5.495   6.814
 4446SOL     OW14236   5.188   0.485   1.008
 4446SOL    HW114237   5.226   0.485   1.100
 4446SOL    HW214238   5.262   0.495   0.941
 4447SOL     OW14239   4.881   5.619   5.468
 4447SOL    HW114240   4.907   5.586   5.377
 4447SOL    HW214241   4.793   5.578   5.495
 4448SOL     OW14242   3.735   6.349   2.026
 4448SOL    HW114243   3.803   6.386   2.088
 4448SOL    HW214244   3.670   6.421   2.002
 4449SOL     OW14245   3.285   1.520   5.381
 4449SOL    HW114246   3.344   1.441   5.400
 4449SOL    HW214247   3.198   1.509   5.429
 4450SOL     OW14248   3.207   6.960   0.179
 4450SOL    HW114249   3.120   7.005   0.161
 4450SOL    HW214250   3.276   0.006   0.205
 4451SOL     OW14251   5.328   4.411   2.930
 4451SOL    HW114252   5.318   4.509   2.951
 4451SOL    HW214253   5.252   4.382   2.872
 4452SOL     OW14254   4.588   6.235   4.796
 4452SOL    HW114255   4.656   6.193   4.736
 4452SOL    HW214256   4.496   6.218   4.761
 4453SOL     OW14257   6.883   3.921   0.655
 4453SOL    HW114258   6.896   3.854   0.729
 4453SOL    HW214259   6.805   3.893   0.599
 4454SOL     OW14260   0.846   2.312   6.736
 4454SOL    HW114261   0.809   2.225   6.769
 4454SOL    HW214262   0.771   2.375   6.716
 4455SOL     OW14263   0.585   6.733   5.408
 4455SOL    HW114264   0.603   6.636   5.424
 4455SOL    HW214265   0.530   6.770   5.482
 4456SOL     OW14266   1.961   0.303   4.922
 4456SOL    HW114267   2.042   0.244   4.919
 4456SOL    HW214268   1.961   0.364   4.843
 4457SOL     OW14269   1.351   2.744   4.871
 4457SOL    HW114270   1.257   2.711   4.875
 4457SOL    HW214271   1.410   2.674   4.832
 4458SOL     OW14272   1.943   3.654   6.493
 4458SOL    HW114273   1.918   3.734   6.547
 4458SOL    HW214274   1.901   3.572   6.533
 4459SOL     OW14275   1.353   2.917   2.892
 4459SOL    HW114276   1.432   2.934   2.950
 4459SOL    HW214277   1.366   2.830   2.844
 4460SOL     OW14278   0.016   3.236   4.538
 4460SOL    HW114279   7.009   3.276   4.625
 4460SOL    HW214280   0.067   3.304   4.485
 4461SOL     OW14281   2.536   0.966   1.245
 4461SOL    HW114282   2.441   0.972   1.216
 4461SOL    HW214283   2.541   0.935   1.340
 4462SOL     OW14284   6.470   4.824   3.224
 4462SOL    HW114285   6.532   4.798   3.150
 4462SOL    HW214286   6.409   4.747   3.245
 4463SOL     OW14287   6.234   1.454   0.544
 4463SOL    HW114288   6.221   1.410   0.633
 4463SOL    HW214289   6.331   1.455   0.521
 4464SOL     OW14290   0.523   5.310   0.501
 4464SOL    HW114291   0.466   5.350   0.573
 4464SOL    HW214292   0.577   5.235   0.538
 4465SOL     OW14293   2.996   5.617   1.186
 4465SOL    HW114294   2.930   5.597   1.115
 4465SOL    HW214295   3.074   5.554   1.178
 4466SOL     OW14296   1.470   2.620   3.329
 4466SOL    HW114297   1.543   2.622   3.260
 4466SOL    HW214298   1.388   2.580   3.289
 4467SOL     OW14299   4.670   5.910   3.048
 4467SOL    HW114300   4.626   5.996   3.019
 4467SOL    HW214301   4.623   5.875   3.129
 4468SOL     OW14302   1.738   2.646   1.395
 4468SOL    HW114303   1.688   2.713   1.450
 4468SOL    HW214304   1.812   2.608   1.450
 4469SOL     OW14305   3.033   6.104   1.225
 4469SOL    HW114306   2.942   6.103   1.184
 4469SOL    HW214307   3.097   6.151   1.164
 4470SOL     OW14308   1.915   6.934   2.761
 4470SOL    HW114309   1.985   6.876   2.722
 4470SOL    HW214310   1.825   6.898   2.738
 4471SOL     OW14311   0.910   1.265   6.329
 4471SOL    HW114312   0.989   1.229   6.379
 4471SOL    HW214313   0.877   1.196   6.264
 4472SOL     OW14314   1.647   2.549   0.983
 4472SOL    HW114315   1.592   2.578   1.061
 4472SOL    HW214316   1.624   2.455   0.959
 4473SOL     OW14317   0.399   3.010   4.545
 4473SOL    HW114318   0.365   2.956   4.468
 4473SOL    HW214319   0.499   3.019   4.537
 4474SOL     OW14320   3.194   5.857   0.674
 4474SOL    HW114321   3.286   5.866   0.637
 4474SOL    HW214322   3.198   5.813   0.764
 4475SOL     OW14323   1.253   4.144   1.188
 4475SOL    HW114324   1.232   4.118   1.282
 4475SOL    HW214325   1.313   4.224   1.188
 4476SOL     OW14326   4.944   1.391   3.823
 4476SOL    HW114327   4.986   1.339   3.749
 4476SOL    HW214328   4.861   1.344   3.853
 4477SOL     OW14329   1.694   0.756   5.483
 4477SOL    HW114330   1.704   0.718   5.391
 4477SOL    HW214331   1.605   0.800   5.491
 4478SOL     OW14332   1.841   0.584   0.478
 4478SOL    HW114333   1.827   0.498   0.525
 4478SOL    HW214334   1.933   0.586   0.438
 4479SOL     OW14335   0.950   2.961   0.368
 4479SOL    HW114336   0.856   2.930   0.379
 4479SOL    HW214337   0.959   3.052   0.408
 4480SOL     OW14338   0.890   6.156   4.000
 4480SOL    HW114339   0.896   6.253   4.026
 4480SOL    HW214340   0.907   6.099   4.081
 4481SOL     OW14341   2.151   3.909   6.236
 4481SOL    HW114342   2.161   3.939   6.141
 4481SOL    HW214343   2.094   3.975   6.286
 4482SOL     OW14344   2.666   6.123   6.858
 4482SOL    HW114345   2.594   6.065   6.896
 4482SOL    HW214346   2.675   6.206   6.913
 4483SOL     OW14347   1.394   3.100   0.809
 4483SOL    HW114348   1.427   3.097   0.714
 4483SOL    HW214349   1.467   3.071   0.871
 4484SOL     OW14350   2.363   2.044   0.259
 4484SOL    HW114351   2.447   2.096   0.241
 4484SOL    HW214352   2.328   2.006   0.174
 4485SOL     OW14353   5.746   2.421   5.083
 4485SOL    HW114354   5.702   2.347   5.033
 4485SOL    HW214355   5.802   2.476   5.021
 4486SOL     OW14356   4.546   5.571   5.399
 4486SOL    HW114357   4.578   5.480   5.427
 4486SOL    HW214358   4.458   5.562   5.353
 4487SOL     OW14359   0.495   2.893   0.156
 4487SOL    HW114360   0.582   2.850   0.135
 4487SOL    HW214361   0.448   2.841   0.228
 4488SOL     OW14362   0.225   4.308   4.403
 4488SOL    HW114363   0.320   4.289   4.427
 4488SOL    HW214364   0.165   4.239   4.443
 4489SOL     OW14365   4.590   6.013   5.621
 4489SOL    HW114366   4.550   5.922   5.610
 4489SOL    HW214367   4.634   6.042   5.536
 4490SOL     OW14368   5.110   1.576   1.129
 4490SOL    HW114369   5.075   1.619   1.046
 4490SOL    HW214370   5.138   1.648   1.194
 4491SOL     OW14371   1.049   3.027   3.723
 4491SOL    HW114372   1.084   3.035   3.630
 4491SOL    HW214373   1.006   3.114   3.749
 4492SOL     OW14374   6.534   0.245   2.215
 4492SOL    HW114375   6.458   0.194   2.174
 4492SOL    HW214376   6.621   0.212   2.178
 4493SOL     OW14377   4.892   1.743   4.571
 4493SOL    HW114378   4.832   1.808   4.617
 4493SOL    HW214379   4.915   1.777   4.480
 4494SOL     OW14380   1.207   0.394   0.738
 4494SOL    HW114381   1.264   0.376   0.657
 4494SOL    HW214382   1.183   0.491   0.741
 4495SOL     OW14383   5.077   5.461   1.499
 4495SOL    HW114384   5.174   5.436   1.506
 4495SOL    HW214385   5.029   5.426   1.580
 4496SOL     OW14386   3.711   5.900   6.247
 4496SOL    HW114387   3.662   5.926   6.330
 4496SOL    HW214388   3.688   5.806   6.223
 4497SOL     OW14389   4.397   1.163   6.541
 4497SOL    HW114390   4.326   1.229   6.520
 4497SOL    HW214391   4.476   1.178   6.482
 4498SOL     OW14392   1.259   5.448   5.750
 4498SOL    HW114393   1.320   5.438   5.672
 4498SOL    HW214394   1.302   5.407   5.831
 4499SOL     OW14395   6.084   1.938   2.829
 4499SOL    HW114396   6.086   1.998   2.749
 4499SOL    HW214397   6.148   1.971   2.897
 4500SOL     OW14398   4.124   5.699   6.833
 4500SOL    HW114399   4.106   5.797   6.836
 4500SOL    HW214400   4.194   5.676   6.901
 4501SOL     OW14401   5.927   0.706   2.976
 4501SOL    HW114402   5.944   0.701   2.877
 4501SOL    HW214403   5.889   0.619   3.007
 4502SOL     OW14404   0.114   3.775   6.320
 4502SOL    HW114405   0.176   3.698   6.336
 4502SOL    HW214406   0.027   3.740   6.285
 4503SOL     OW14407   2.775   0.742   3.035
 4503SOL    HW114408   2.857   0.764   2.982
 4503SOL    HW214409   2.796   0.670   3.101
 4504SOL     OW14410   0.036   1.743   2.860
 4504SOL    HW114411   6.982   1.687   2.828
 4504SOL    HW214412   0.065   1.711   2.951
 4505SOL     OW14413   5.965   4.751   4.547
 4505SOL    HW114414   5.899   4.746   4.472
 4505SOL    HW214415   5.916   4.755   4.634
 4506SOL     OW14416   4.843   2.418   5.245
 4506SOL    HW114417   4.877   2.498   5.294
 4506SOL    HW214418   4.884   2.336   5.284
 4507SOL     OW14419   6.497   2.887   3.288
 4507SOL    HW114420   6.424   2.822   3.265
 4507SOL    HW214421   6.579   2.865   3.236
 4508SOL     OW14422   0.832   5.476   0.633
 4508SOL    HW114423   0.818   5.377   0.632
 4508SOL    HW214424   0.879   5.504   0.549
 4509SOL     OW14425   4.900   2.789   2.061
 4509SOL    HW114426   4.836   2.865   2.054
 4509SOL    HW214427   4.888   2.743   2.149
 4510SOL     OW14428   4.335   1.219   3.888
 4510SOL    HW114429   4.278   1.294   3.854
 4510SOL    HW214430   4.399   1.255   3.956
 4511SOL     OW14431   0.360   4.368   0.702
 4511SOL    HW114432   0.330   4.365   0.797
 4511SOL    HW214433   0.404   4.456   0.683
 4512SOL     OW14434   3.228   3.419   5.406
 4512SOL    HW114435   3.173   3.377   5.478
 4512SOL    HW214436   3.250   3.351   5.335
 4513SOL     OW14437   1.333   6.495   0.662
 4513SOL    HW114438   1.361   6.589   0.646
 4513SOL    HW214439   1.264   6.469   0.595
 4514SOL     OW14440   3.301   4.691   6.300
 4514SOL    HW114441   3.294   4.629   6.222
 4514SOL    HW214442   3.331   4.640   6.380
 4515SOL     OW14443   4.586   0.736   6.720
 4515SOL    HW114444   4.642   0.775   6.647
 4515SOL    HW214445   4.609   0.639   6.732
 4516SOL     OW14446   3.437   1.469   5.116
 4516SOL    HW114447   3.482   1.495   5.201
 4516SOL    HW214448   3.372   1.539   5.090
 4517SOL     OW14449   3.713   1.117   5.421
 4517SOL    HW114450   3.696   1.020   5.405
 4517SOL    HW214451   3.727   1.164   5.333
 4518SOL     OW14452   1.227   6.672   0.998
 4518SOL    HW114453   1.195   6.731   0.924
 4518SOL    HW214454   1.175   6.691   1.081
 4519SOL     OW14455   4.590   6.742   6.769
 4519SOL    HW114456   4.601   6.800   6.850
 4519SOL    HW214457   4.493   6.728   6.751
 4520SOL     OW14458   4.201   5.618   5.070
 4520SOL    HW114459   4.172   5.714   5.067
 4520SOL    HW214460   4.121   5.559   5.066
 4521SOL     OW14461   4.272   2.242   4.245
 4521SOL    HW114462   4.246   2.248   4.149
 4521SOL    HW214463   4.312   2.328   4.274
 4522SOL     OW14464   5.486   4.400   3.334
 4522SOL    HW114465   5.500   4.327   3.401
 4522SOL    HW214466   5.485   4.488   3.379
 4523SOL     OW14467   0.280   3.477   5.803
 4523SOL    HW114468   0.267   3.560   5.857
 4523SOL    HW214469   0.257   3.397   5.857
 4524SOL     OW14470   1.102   3.942   2.976
 4524SOL    HW114471   1.131   4.003   2.902
 4524SOL    HW214472   1.128   3.981   3.064
 4525SOL     OW14473   3.368   2.250   5.296
 4525SOL    HW114474   3.334   2.156   5.289
 4525SOL    HW214475   3.305   2.312   5.250
 4526SOL     OW14476   0.575   0.009   5.662
 4526SOL    HW114477   0.574   0.093   5.608
 4526SOL    HW214478   0.535   6.956   5.608
 4527SOL     OW14479   6.607   0.908   3.017
 4527SOL    HW114480   6.671   0.837   2.987
 4527SOL    HW214481   6.548   0.872   3.089
 4528SOL     OW14482   4.510   1.272   5.440
 4528SOL    HW114483   4.583   1.242   5.378
 4528SOL    HW214484   4.421   1.251   5.399
 4529SOL     OW14485   2.132   0.563   3.903
 4529SOL    HW114486   2.201   0.636   3.898
 4529SOL    HW214487   2.041   0.604   3.905
 4530SOL     OW14488   3.590   5.450   6.295
 4530SOL    HW114489   3.582   5.452   6.395
 4530SOL    HW214490   3.535   5.375   6.258
 4531SOL     OW14491   0.977   5.605   5.571
 4531SOL    HW114492   0.898   5.664   5.586
 4531SOL    HW214493   1.061   5.655   5.593
 4532SOL     OW14494   5.910   0.708   2.687
 4532SOL    HW114495   5.895   0.610   2.685
 4532SOL    HW214496   5.970   0.734   2.611
 4533SOL     OW14497   2.830   0.323   1.336
 4533SOL    HW114498   2.788   0.238   1.367
 4533SOL    HW214499   2.780   0.401   1.374
 4534SOL     OW14500   4.576   0.905   3.789
 4534SOL    HW114501   4.477   0.917   3.783
 4534SOL    HW214502   4.600   0.859   3.874
 4535SOL     OW14503   2.370   0.664   1.043
 4535SOL    HW114504   2.329   0.743   0.996
 4535SOL    HW214505   2.423   0.610   0.977
 4536SOL     OW14506   2.858   0.486   5.526
 4536SOL    HW114507   2.819   0.494   5.434
 4536SOL    HW214508   2.914   0.566   5.545
 4537SOL     OW14509   2.931   3.660   3.470
 4537SOL    HW114510   2.862   3.620   3.531
 4537SOL    HW214511   2.967   3.589   3.410
 4538SOL     OW14512   0.508   1.943   0.649
 4538SOL    HW114513   0.579   1.925   0.718
 4538SOL    HW214514   0.499   1.864   0.590
 4539SOL     OW14515   1.379   6.199   5.539
 4539SOL    HW114516   1.324   6.249   5.472
 4539SOL    HW214517   1.457   6.157   5.494
 4540SOL     OW14518   0.949   0.591   0.201
 4540SOL    HW114519   0.937   0.492   0.189
 4540SOL    HW214520   1.015   0.608   0.274
 4541SOL     OW14521   4.614   2.696   5.660
 4541SOL    HW114522   4.646   2.762   5.592
 4541SOL    HW214523   4.515   2.684   5.651
 4542SOL     OW14524   6.967   1.949   0.249
 4542SOL    HW114525   6.970   1.873   0.314
 4542SOL    HW214526   0.026   1.948   0.191
 4543SOL     OW14527   3.693   2.395   0.172
 4543SOL    HW114528   3.661   2.490   0.181
 4543SOL    HW214529   3.776   2.383   0.227
 4544SOL     OW14530   5.452   6.171   0.523
 4544SOL    HW114531   5.473   6.082   0.564
 4544SOL    HW214532   5.459   6.163   0.423
 4545SOL     OW14533   2.196   2.952   4.919
 4545SOL    HW114534   2.117   2.980   4.973
 4545SOL    HW214535   2.277   2.953   4.976
 4546SOL     OW14536   2.619   0.779   5.623
 4546SOL    HW114537   2.602   0.682   5.639
 4546SOL    HW214538   2.613   0.798   5.525
 4547SOL     OW14539   6.964   0.285   0.139
 4547SOL    HW114540   6.950   0.382   0.117
 4547SOL    HW214541   6.959   0.231   0.055
 4548SOL     OW14542   2.246   1.469   3.096
 4548SOL    HW114543   2.221   1.414   3.176
 4548SOL    HW214544   2.318   1.423   3.046
 4549SOL     OW14545   6.605   3.822   4.608
 4549SOL    HW114546   6.650   3.799   4.522
 4549SOL    HW214547   6.556   3.909   4.599
 4550SOL     OW14548   1.653   4.559   3.044
 4550SOL    HW114549   1.748   4.588   3.046
 4550SOL    HW214550   1.637   4.492   3.118
 4551SOL     OW14551   1.257   2.678   5.409
 4551SOL    HW114552   1.161   2.690   5.436
 4551SOL    HW214553   1.261   2.647   5.315
 4552SOL     OW14554   5.367   1.674   0.524
 4552SOL    HW114555   5.452   1.645   0.480
 4552SOL    HW214556   5.290   1.622   0.485
 4553SOL     OW14557   6.644   5.142   6.507
 4553SOL    HW114558   6.658   5.131   6.605
 4553SOL    HW214559   6.726   5.113   6.458
 4554SOL     OW14560   6.326   6.567   3.346
 4554SOL    HW114561   6.420   6.533   3.349
 4554SOL    HW214562   6.306   6.618   3.430
 4555SOL     OW14563   1.866   0.795   0.036
 4555SOL    HW114564   1.795   0.858   0.069
 4555SOL    HW214565   1.955   0.825   0.069
 4556SOL     OW14566   5.898   4.439   5.243
 4556SOL    HW114567   5.828   4.498   5.283
 4556SOL    HW214568   5.988   4.481   5.256
 4557SOL     OW14569   6.865   4.612   3.420
 4557SOL    HW114570   6.822   4.701   3.436
 4557SOL    HW214571   6.836   4.577   3.331
 4558SOL     OW14572   0.823   3.752   4.900
 4558SOL    HW114573   0.912   3.778   4.865
 4558SOL    HW214574   0.770   3.834   4.922
 4559SOL     OW14575   6.832   2.912   3.250
 4559SOL    HW114576   6.927   2.931   3.276
 4559SOL    HW214577   6.794   2.992   3.203
 4560SOL     OW14578   6.224   4.374   2.839
 4560SOL    HW114579   6.297   4.419   2.891
 4560SOL    HW214580   6.136   4.389   2.885
 4561SOL     OW14581   3.834   2.170   4.027
 4561SOL    HW114582   3.865   2.145   4.119
 4561SOL    HW214583   3.736   2.155   4.019
 4562SOL     OW14584   3.500   1.306   1.209
 4562SOL    HW114585   3.561   1.266   1.141
 4562SOL    HW214586   3.405   1.288   1.182
 4563SOL     OW14587   0.730   4.358   2.074
 4563SOL    HW114588   0.766   4.266   2.057
 4563SOL    HW214589   0.761   4.420   2.002
 4564SOL     OW14590   1.592   3.616   2.138
 4564SOL    HW114591   1.635   3.705   2.126
 4564SOL    HW214592   1.500   3.628   2.174
 4565SOL     OW14593   1.959   5.732   6.060
 4565SOL    HW114594   1.970   5.828   6.086
 4565SOL    HW214595   2.016   5.712   5.980
 4566SOL     OW14596   6.174   5.099   2.811
 4566SOL    HW114597   6.212   5.028   2.752
 4566SOL    HW214598   6.081   5.123   2.779
 4567SOL     OW14599   0.143   0.269   6.818
 4567SOL    HW114600   0.152   0.304   6.725
 4567SOL    HW214601   0.152   0.344   6.883
 4568SOL     OW14602   1.478   5.235   3.146
 4568SOL    HW114603   1.498   5.173   3.222
 4568SOL    HW214604   1.468   5.182   3.062
 4569SOL     OW14605   2.220   0.877   3.277
 4569SOL    HW114606   2.127   0.847   3.297
 4569SOL    HW214607   2.242   0.855   3.182
 4570SOL     OW14608   5.559   6.503   2.038
 4570SOL    HW114609   5.503   6.428   2.072
 4570SOL    HW214610   5.501   6.573   1.996
 4571SOL     OW14611   3.223   3.206   6.876
 4571SOL    HW114612   3.309   3.158   6.898
 4571SOL    HW214613   3.244   3.298   6.845
 4572SOL     OW14614   3.016   3.386   1.898
 4572SOL    HW114615   2.944   3.398   1.830
 4572SOL    HW214616   3.105   3.399   1.856
 4573SOL     OW14617   3.054   5.522   1.571
 4573SOL    HW114618   2.978   5.587   1.572
 4573SOL    HW214619   3.020   5.433   1.540
 4574SOL     OW14620   5.207   1.174   1.371
 4574SOL    HW114621   5.223   1.260   1.420
 4574SOL    HW214622   5.109   1.161   1.358
 4575SOL     OW14623   0.285   0.051   5.516
 4575SOL    HW114624   0.189   0.039   5.492
 4575SOL    HW214625   0.306   0.149   5.522
 4576SOL     OW14626   2.844   4.921   5.209
 4576SOL    HW114627   2.914   4.924   5.137
 4576SOL    HW214628   2.830   4.827   5.238
 4577SOL     OW14629   0.790   2.028   2.540
 4577SOL    HW114630   0.690   2.031   2.544
 4577SOL    HW214631   0.822   2.093   2.471
 4578SOL     OW14632   1.927   1.721   2.403
 4578SOL    HW114633   1.992   1.787   2.441
 4578SOL    HW214634   1.952   1.700   2.309
 4579SOL     OW14635   4.696   0.866   3.021
 4579SOL    HW114636   4.598   0.858   3.006
 4579SOL    HW214637   4.743   0.873   2.932
 4580SOL     OW14638   0.230   2.230   0.652
 4580SOL    HW114639   0.191   2.176   0.726
 4580SOL    HW214640   0.179   2.315   0.640
 4581SOL     OW14641   3.167   0.799   0.946
 4581SOL    HW114642   3.217   0.724   0.988
 4581SOL    HW214643   3.077   0.807   0.988
 4582SOL     OW14644   5.912   1.432   3.834
 4582SOL    HW114645   5.918   1.468   3.741
 4582SOL    HW214646   5.849   1.354   3.836
 4583SOL     OW14647   1.219   0.303   0.020
 4583SOL    HW114648   1.240   0.281   6.947
 4583SOL    HW214649   1.279   0.252   0.081
 4584SOL     OW14650   1.378   0.676   4.484
 4584SOL    HW114651   1.300   0.615   4.495
 4584SOL    HW214652   1.410   0.673   4.389
 4585SOL     OW14653   2.111   3.583   3.690
 4585SOL    HW114654   2.102   3.601   3.788
 4585SOL    HW214655   2.086   3.489   3.670
 4586SOL     OW14656   5.562   4.714   6.502
 4586SOL    HW114657   5.589   4.618   6.497
 4586SOL    HW214658   5.596   4.762   6.421
 4587SOL     OW14659   3.091   3.139   4.940
 4587SOL    HW114660   3.090   3.232   4.976
 4587SOL    HW214661   3.046   3.078   5.005
 4588SOL     OW14662   3.073   3.678   6.170
 4588SOL    HW114663   3.112   3.605   6.225
 4588SOL    HW214664   2.973   3.676   6.176
 4589SOL     OW14665   6.355   6.820   2.675
 4589SOL    HW114666   6.414   6.754   2.721
 4589SOL    HW214667   6.369   6.911   2.715
 4590SOL     OW14668   3.217   5.627   0.838
 4590SOL    HW114669   3.118   5.615   0.842
 4590SOL    HW214670   3.254   5.576   0.761
 4591SOL     OW14671   1.741   0.657   5.742
 4591SOL    HW114672   1.697   0.697   5.822
 4591SOL    HW214673   1.740   0.724   5.667
 4592SOL     OW14674   1.814   1.790   3.670
 4592SOL    HW114675   1.854   1.821   3.584
 4592SOL    HW214676   1.823   1.691   3.677
 4593SOL     OW14677   1.518   5.861   4.524
 4593SOL    HW114678   1.469   5.948   4.519
 4593SOL    HW214679   1.511   5.824   4.617
 4594SOL     OW14680   1.748   0.469   3.053
 4594SOL    HW114681   1.735   0.375   3.085
 4594SOL    HW214682   1.659   0.510   3.034
 4595SOL     OW14683   5.479   2.153   6.480
 4595SOL    HW114684   5.499   2.218   6.406
 4595SOL    HW214685   5.470   2.203   6.566
 4596SOL     OW14686   6.663   0.883   2.211
 4596SOL    HW114687   6.671   0.977   2.246
 4596SOL    HW214688   6.666   0.819   2.288
 4597SOL     OW14689   3.255   6.258   0.097
 4597SOL    HW114690   3.167   6.305   0.097
 4597SOL    HW214691   3.326   6.319   0.131
 4598SOL     OW14692   1.949   4.707   0.112
 4598SOL    HW114693   1.935   4.740   0.206
 4598SOL    HW214694   1.896   4.764   0.049
 4599SOL     OW14695   2.248   5.904   2.210
 4599SOL    HW114696   2.153   5.913   2.239
 4599SOL    HW214697   2.253   5.849   2.126
 4600SOL     OW14698   0.388   6.105   5.850
 4600SOL    HW114699   0.442   6.151   5.921
 4600SOL    HW214700   0.296   6.088   5.884
 4601SOL     OW14701   1.641   1.010   5.176
 4601SOL    HW114702   1.707   1.083   5.156
 4601SOL    HW214703   1.548   1.044   5.161
 4602SOL     OW14704   2.938   2.457   6.825
 4602SOL    HW114705   2.858   2.400   6.807
 4602SOL    HW214706   2.925   2.508   6.910
 4603SOL     OW14707   4.783   6.709   0.615
 4603SOL    HW114708   4.817   6.790   0.662
 4603SOL    HW214709   4.685   6.718   0.600
 4604SOL     OW14710   6.207   6.578   5.658
 4604SOL    HW114711   6.142   6.635   5.708
 4604SOL    HW214712   6.187   6.582   5.561
 4605SOL     OW14713   3.679   0.625   1.891
 4605SOL    HW114714   3.633   0.620   1.803
 4605SOL    HW214715   3.675   0.719   1.926
 4606SOL     OW14716   6.817   6.580   4.722
 4606SOL    HW114717   6.845   6.648   4.655
 4606SOL    HW214718   6.758   6.623   4.790
 4607SOL     OW14719   2.157   2.379   1.331
 4607SOL    HW114720   2.232   2.403   1.269
 4607SOL    HW214721   2.129   2.459   1.383
 4608SOL     OW14722   6.868   2.993   4.588
 4608SOL    HW114723   6.939   3.059   4.561
 4608SOL    HW214724   6.824   2.956   4.506
 4609SOL     OW14725   4.358   5.988   6.294
 4609SOL    HW114726   4.381   6.072   6.245
 4609SOL    HW214727   4.307   6.010   6.377
 4610SOL     OW14728   5.608   3.609   6.706
 4610SOL    HW114729   5.689   3.580   6.656
 4610SOL    HW214730   5.606   3.564   6.796
 4611SOL     OW14731   1.118   1.215   6.512
 4611SOL    HW114732   1.120   1.119   6.539
 4611SOL    HW214733   1.205   1.240   6.470
 4612SOL     OW14734   2.053   1.153   1.601
 4612SOL    HW114735   2.105   1.163   1.686
 4612SOL    HW214736   2.089   1.077   1.548
 4613SOL     OW14737   1.673   4.740   1.407
 4613SOL    HW114738   1.611   4.715   1.333
 4613SOL    HW214739   1.663   4.675   1.482
 4614SOL     OW14740   6.595   4.276   4.673
 4614SOL    HW114741   6.681   4.298   4.626
 4614SOL    HW214742   6.563   4.186   4.644
 4615SOL     OW14743   1.305   3.279   6.908
 4615SOL    HW114744   1.398   3.286   6.944
 4615SOL    HW214745   1.282   3.363   6.859
 4616SOL     OW14746   6.530   2.699   6.300
 4616SOL    HW114747   6.519   2.604   6.329
 4616SOL    HW214748   6.577   2.750   6.372
 4617SOL     OW14749   0.115   2.963   3.413
 4617SOL    HW114750   0.207   2.978   3.449
 4617SOL    HW214751   0.055   3.036   3.444
 4618SOL     OW14752   1.892   4.387   5.962
 4618SOL    HW114753   1.851   4.385   6.053
 4618SOL    HW214754   1.828   4.348   5.896
 4619SOL     OW14755   4.727   6.062   6.126
 4619SOL    HW114756   4.712   6.159   6.146
 4619SOL    HW214757   4.748   6.014   6.211
 4620SOL     OW14758   0.533   4.797   2.339
 4620SOL    HW114759   0.555   4.715   2.392
 4620SOL    HW214760   0.617   4.847   2.318
 4621SOL     OW14761   3.688   0.040   2.714
 4621SOL    HW114762   3.653   0.056   2.806
 4621SOL    HW214763   3.663   0.116   2.654
 4622SOL     OW14764   5.639   6.059   1.704
 4622SOL    HW114765   5.675   5.967   1.688
 4622SOL    HW214766   5.651   6.083   1.800
 4623SOL     OW14767   2.705   4.983   1.072
 4623SOL    HW114768   2.699   4.889   1.105
 4623SOL    HW214769   2.651   5.043   1.131
 4624SOL     OW14770   4.236   1.197   1.904
 4624SOL    HW114771   4.261   1.195   1.807
 4624SOL    HW214772   4.267   1.284   1.943
 4625SOL     OW14773   1.778   6.134   1.910
 4625SOL    HW114774   1.766   6.221   1.959
 4625SOL    HW214775   1.746   6.144   1.816
 4626SOL     OW14776   4.598   3.818   1.685
 4626SOL    HW114777   4.526   3.886   1.672
 4626SOL    HW214778   4.687   3.858   1.665
 4627SOL     OW14779   5.448   0.175   5.098
 4627SOL    HW114780   5.448   0.251   5.163
 4627SOL    HW214781   5.355   0.143   5.083
 4628SOL     OW14782   5.588   5.253   4.473
 4628SOL    HW114783   5.619   5.203   4.554
 4628SOL    HW214784   5.648   5.331   4.456
 4629SOL     OW14785   2.486   6.378   6.730
 4629SOL    HW114786   2.454   6.292   6.691
 4629SOL    HW214787   2.500   6.367   6.828
 4630SOL     OW14788   2.096   3.240   2.188
 4630SOL    HW114789   1.999   3.253   2.167
 4630SOL    HW214790   2.151   3.305   2.134
 4631SOL     OW14791   6.767   0.643   3.005
 4631SOL    HW114792   6.694   0.598   3.056
 4631SOL    HW214793   6.824   0.574   2.960
 4632SOL     OW14794   3.331   4.887   2.661
 4632SOL    HW114795   3.341   4.843   2.571
 4632SOL    HW214796   3.421   4.900   2.702
 4633SOL     OW14797   5.030   1.329   4.385
 4633SOL    HW114798   5.078   1.286   4.309
 4633SOL    HW214799   5.006   1.260   4.454
 4634SOL     OW14800   3.061   3.859   4.807
 4634SOL    HW114801   3.093   3.918   4.881
 4634SOL    HW214802   3.061   3.909   4.721
 4635SOL     OW14803   4.797   6.652   1.864
 4635SOL    HW114804   4.813   6.582   1.934
 4635SOL    HW214805   4.786   6.607   1.775
 4636SOL     OW14806   1.725   5.707   0.566
 4636SOL    HW114807   1.674   5.666   0.641
 4636SOL    HW214808   1.753   5.800   0.590
 4637SOL     OW14809   2.906   1.220   3.133
 4637SOL    HW114810   2.872   1.213   3.039
 4637SOL    HW214811   2.960   1.303   3.142
 4638SOL     OW14812   3.583   5.007   0.547
 4638SOL    HW114813   3.535   5.095   0.545
 4638SOL    HW214814   3.661   5.011   0.485
 4639SOL     OW14815   3.616   2.176   1.293
 4639SOL    HW114816   3.610   2.127   1.380
 4639SOL    HW214817   3.645   2.270   1.309
 4640SOL     OW14818   6.354   2.380   6.963
 4640SOL    HW114819   6.373   2.470   6.923
 4640SOL    HW214820   6.412   2.367   0.022
 4641SOL     OW14821   1.157   5.982   4.093
 4641SOL    HW114822   1.165   5.895   4.143
 4641SOL    HW214823   1.142   5.963   3.996
 4642SOL     OW14824   0.188   1.480   3.623
 4642SOL    HW114825   0.225   1.476   3.716
 4642SOL    HW214826   0.263   1.490   3.557
 4643SOL     OW14827   0.438   1.690   0.510
 4643SOL    HW114828   0.463   1.603   0.552
 4643SOL    HW214829   0.362   1.677   0.447
 4644SOL     OW14830   1.227   0.769   0.185
 4644SOL    HW114831   1.211   0.743   0.280
 4644SOL    HW214832   1.269   0.860   0.182
 4645SOL     OW14833   0.914   2.021   4.033
 4645SOL    HW114834   0.885   2.064   3.948
 4645SOL    HW214835   1.003   1.979   4.021
 4646SOL     OW14836   2.044   5.029   3.559
 4646SOL    HW114837   2.069   5.042   3.655
 4646SOL    HW214838   2.104   4.960   3.518
 4647SOL     OW14839   1.312   6.323   2.279
 4647SOL    HW114840   1.301   6.412   2.234
 4647SOL    HW214841   1.393   6.325   2.337
 4648SOL     OW14842   2.891   1.986   4.845
 4648SOL    HW114843   2.911   2.079   4.876
 4648SOL    HW214844   2.899   1.982   4.746
 4649SOL     OW14845   6.453   0.904   0.090
 4649SOL    HW114846   6.473   0.813   0.055
 4649SOL    HW214847   6.504   0.920   0.175
 4650SOL     OW14848   5.443   5.715   1.817
 4650SOL    HW114849   5.537   5.685   1.829
 4650SOL    HW214850   5.404   5.670   1.737
 4651SOL     OW14851   6.841   3.289   6.451
 4651SOL    HW114852   6.761   3.277   6.392
 4651SOL    HW214853   6.864   3.386   6.456
 4652SOL     OW14854   0.142   6.730   5.242
 4652SOL    HW114855   0.065   6.790   5.263
 4652SOL    HW214856   0.227   6.782   5.245
 4653SOL     OW14857   5.658   5.276   0.866
 4653SOL    HW114858   5.564   5.276   0.831
 4653SOL    HW214859   5.675   5.192   0.916
 4654SOL     OW14860   0.983   0.253   5.540
 4654SOL    HW114861   0.979   0.336   5.485
 4654SOL    HW214862   0.898   0.242   5.591
 4655SOL     OW14863   4.792   2.588   1.389
 4655SOL    HW114864   4.803   2.537   1.475
 4655SOL    HW214865   4.728   2.664   1.403
 4656SOL     OW14866   0.752   0.841   1.551
 4656SOL    HW114867   0.677   0.857   1.615
 4656SOL    HW214868   0.810   0.923   1.546
 4657SOL     OW14869   4.861   0.385   2.186
 4657SOL    HW114870   4.767   0.397   2.155
 4657SOL    HW214871   4.867   0.402   2.284
 4658SOL     OW14872   1.478   3.095   5.842
 4658SOL    HW114873   1.427   3.040   5.776
 4658SOL    HW214874   1.574   3.070   5.839
 4659SOL     OW14875   2.334   4.729   0.216
 4659SOL    HW114876   2.285   4.695   0.135
 4659SOL    HW214877   2.343   4.655   0.282
 4660SOL     OW14878   1.125   6.752   4.154
 4660SOL    HW114879   1.098   6.705   4.238
 4660SOL    HW214880   1.218   6.725   4.129
 4661SOL     OW14881   0.956   2.361   5.771
 4661SOL    HW114882   0.946   2.450   5.727
 4661SOL    HW214883   0.944   2.289   5.703
 4662SOL     OW14884   2.358   6.695   5.525
 4662SOL    HW114885   2.286   6.649   5.578
 4662SOL    HW214886   2.322   6.780   5.487
 4663SOL     OW14887   1.610   0.335   0.191
 4663SOL    HW114888   1.693   0.379   0.155
 4663SOL    HW214889   1.562   0.400   0.251
 4664SOL     OW14890   6.961   6.801   6.811
 4664SOL    HW114891   6.983   6.794   6.908
 4664SOL    HW214892   6.861   6.807   6.801
 4665SOL     OW14893   2.069   0.280   4.592
 4665SOL    HW114894   2.082   0.360   4.650
 4665SOL    HW214895   1.972   0.262   4.581
 4666SOL     OW14896   2.688   1.834   4.968
 4666SOL    HW114897   2.741   1.872   4.892
 4666SOL    HW214898   2.598   1.806   4.935
 4667SOL     OW14899   6.547   3.919   1.300
 4667SOL    HW114900   6.580   4.013   1.309
 4667SOL    HW214901   6.625   3.858   1.287
 4668SOL     OW14902   4.423   2.279   3.902
 4668SOL    HW114903   4.337   2.265   3.949
 4668SOL    HW214904   4.499   2.267   3.966
 4669SOL     OW14905   5.396   0.023   6.873
 4669SOL    HW114906   5.378   0.067   6.785
 4669SOL    HW214907   5.441   0.088   6.934
 4670SOL     OW14908   0.347   2.539   0.644
 4670SOL    HW114909   0.357   2.485   0.728
 4670SOL    HW214910   0.403   2.498   0.572
 4671SOL     OW14911   0.676   3.753   0.568
 4671SOL    HW114912   0.766   3.747   0.611
 4671SOL    HW214913   0.650   3.662   0.535
 4672SOL     OW14914   2.233   4.002   6.533
 4672SOL    HW114915   2.291   3.992   6.614
 4672SOL    HW214916   2.254   4.089   6.488
 4673SOL     OW14917   5.693   0.832   0.137
 4673SOL    HW114918   5.632   0.856   0.213
 4673SOL    HW214919   5.775   0.788   0.171
 4674SOL     OW14920   1.053   2.293   1.368
 4674SOL    HW114921   1.132   2.282   1.307
 4674SOL    HW214922   1.071   2.366   1.433
 4675SOL     OW14923   2.352   6.195   0.143
 4675SOL    HW114924   2.314   6.103   0.143
 4675SOL    HW214925   2.395   6.213   0.232
 4676SOL     OW14926   0.321   6.249   3.997
 4676SOL    HW114927   0.375   6.167   3.980
 4676SOL    HW214928   0.382   6.327   4.010
 4677SOL     OW14929   4.395   0.245   6.647
 4677SOL    HW114930   4.392   0.345   6.646
 4677SOL    HW214931   4.386   0.212   6.741
 4678SOL     OW14932   2.201   4.571   6.499
 4678SOL    HW114933   2.107   4.536   6.502
 4678SOL    HW214934   2.253   4.520   6.430
 4679SOL     OW14935   2.725   0.410   5.275
 4679SOL    HW114936   2.695   0.503   5.256
 4679SOL    HW214937   2.649   0.346   5.261
 4680SOL     OW14938   1.937   4.793   0.386
 4680SOL    HW114939   1.919   4.719   0.451
 4680SOL    HW214940   1.851   4.836   0.361
 4681SOL     OW14941   0.455   5.460   4.988
 4681SOL    HW114942   0.396   5.455   5.069
 4681SOL    HW214943   0.503   5.547   4.988
 4682SOL     OW14944   4.627   6.444   0.682
 4682SOL    HW114945   4.609   6.429   0.584
 4682SOL    HW214946   4.667   6.534   0.695
 4683SOL     OW14947   6.881   4.360   3.652
 4683SOL    HW114948   6.783   4.379   3.642
 4683SOL    HW214949   6.929   4.391   3.570
 4684SOL     OW14950   1.369   0.979   4.253
 4684SOL    HW114951   1.442   1.047   4.241
 4684SOL    HW214952   1.289   1.006   4.200
 4685SOL     OW14953   5.165   4.806   4.850
 4685SOL    HW114954   5.202   4.858   4.927
 4685SOL    HW214955   5.189   4.709   4.861
 4686SOL     OW14956   4.356   5.644   0.310
 4686SOL    HW114957   4.328   5.740   0.307
 4686SOL    HW214958   4.444   5.633   0.265
 4687SOL     OW14959   5.519   6.331   4.831
 4687SOL    HW114960   5.583   6.378   4.892
 4687SOL    HW214961   5.462   6.398   4.784
 4688SOL     OW14962   0.340   2.042   6.286
 4688SOL    HW114963   0.369   1.953   6.250
 4688SOL    HW214964   0.240   2.049   6.281
 4689SOL     OW14965   1.400   5.442   5.466
 4689SOL    HW114966   1.451   5.475   5.387
 4689SOL    HW214967   1.454   5.372   5.513
 4690SOL     OW14968   1.758   2.569   0.303
 4690SOL    HW114969   1.752   2.510   0.384
 4690SOL    HW214970   1.837   2.542   0.248
 4691SOL     OW14971   3.077   5.139   1.014
 4691SOL    HW114972   2.998   5.189   1.051
 4691SOL    HW214973   3.056   5.109   0.921
 4692SOL     OW14974   0.265   5.288   3.227
 4692SOL    HW114975   0.176   5.310   3.266
 4692SOL    HW214976   0.253   5.251   3.135
 4693SOL     OW14977   0.393   1.449   3.444
 4693SOL    HW114978   0.488   1.443   3.412
 4693SOL    HW214979   0.367   1.364   3.489
 4694SOL     OW14980   1.437   1.698   6.653
 4694SOL    HW114981   1.422   1.747   6.739
 4694SOL    HW214982   1.533   1.709   6.626
 4695SOL     OW14983   3.325   2.849   2.152
 4695SOL    HW114984   3.378   2.921   2.196
 4695SOL    HW214985   3.231   2.881   2.139
 4696SOL     OW14986   0.092   3.482   6.905
 4696SOL    HW114987   0.030   3.427   6.849
 4696SOL    HW214988   0.133   3.424   6.976
 4697SOL     OW14989   1.117   5.027   0.172
 4697SOL    HW114990   1.113   5.099   0.103
 4697SOL    HW214991   1.156   5.064   0.256
 4698SOL     OW14992   5.634   2.734   1.142
 4698SOL    HW114993   5.722   2.687   1.155
 4698SOL    HW214994   5.619   2.751   1.045
 4699SOL     OW14995   6.836   0.395   3.627
 4699SOL    HW114996   6.799   0.432   3.541
 4699SOL    HW214997   6.881   0.469   3.678
 4700SOL     OW14998   4.730   0.793   1.599
 4700SOL    HW114999   4.688   0.806   1.510
 4700SOL    HW215000   4.778   0.705   1.601
 4701SOL     OW15001   0.858   0.918   0.824
 4701SOL    HW115002   0.921   0.986   0.860
 4701SOL    HW215003   0.855   0.839   0.885
 4702SOL     OW15004   3.357   4.281   0.202
 4702SOL    HW115005   3.275   4.327   0.169
 4702SOL    HW215006   3.412   4.250   0.124
 4703SOL     OW15007   2.029   0.868   1.936
 4703SOL    HW115008   2.066   0.952   1.898
 4703SOL    HW215009   1.979   0.818   1.865
 4704SOL     OW15010   5.040   6.611   0.420
 4704SOL    HW115011   4.968   6.663   0.466
 4704SOL    HW215012   5.006   6.520   0.396
 4705SOL     OW15013   3.149   3.511   4.271
 4705SOL    HW115014   3.207   3.438   4.306
 4705SOL    HW215015   3.169   3.596   4.321
 4706SOL     OW15016   4.125   5.622   1.416
 4706SOL    HW115017   4.217   5.660   1.404
 4706SOL    HW215018   4.121   5.573   1.503
 4707SOL     OW15019   3.073   6.063   0.819
 4707SOL    HW115020   3.116   6.002   0.752
 4707SOL    HW215021   2.980   6.086   0.789
 4708SOL     OW15022   2.427   2.456   1.987
 4708SOL    HW115023   2.345   2.479   2.038
 4708SOL    HW215024   2.501   2.432   2.050
 4709SOL     OW15025   4.004   4.365   6.006
 4709SOL    HW115026   4.000   4.446   6.065
 4709SOL    HW215027   3.951   4.291   6.047
 4710SOL     OW15028   5.144   1.862   0.994
 4710SOL    HW115029   5.058   1.821   1.023
 4710SOL    HW215030   5.192   1.800   0.932
 4711SOL     OW15031   3.160   0.534   2.427
 4711SOL    HW115032   3.074   0.500   2.465
 4711SOL    HW215033   3.220   0.457   2.406
 4712SOL     OW15034   1.483   4.795   0.468
 4712SOL    HW115035   1.403   4.855   0.468
 4712SOL    HW215036   1.527   4.799   0.379
 4713SOL     OW15037   2.078   5.818   0.780
 4713SOL    HW115038   2.123   5.738   0.739
 4713SOL    HW215039   2.147   5.876   0.823
 4714SOL     OW15040   3.556   2.514   1.201
 4714SOL    HW115041   3.615   2.449   1.153
 4714SOL    HW215042   3.572   2.509   1.299
 4715SOL     OW15043   6.830   3.613   3.557
 4715SOL    HW115044   6.734   3.589   3.567
 4715SOL    HW215045   6.868   3.639   3.646
 4716SOL     OW15046   3.491   6.012   0.312
 4716SOL    HW115047   3.497   5.934   0.375
 4716SOL    HW215048   3.396   6.040   0.303
 4717SOL     OW15049   1.581   5.717   3.771
 4717SOL    HW115050   1.624   5.653   3.708
 4717SOL    HW215051   1.636   5.723   3.854
 4718SOL     OW15052   5.678   1.214   6.180
 4718SOL    HW115053   5.723   1.163   6.253
 4718SOL    HW215054   5.747   1.254   6.119
 4719SOL     OW15055   4.658   2.714   1.119
 4719SOL    HW115056   4.651   2.778   1.196
 4719SOL    HW215057   4.579   2.653   1.119
 4720SOL     OW15058   2.346   0.893   4.947
 4720SOL    HW115059   2.418   0.897   4.878
 4720SOL    HW215060   2.342   0.800   4.985
 4721SOL     OW15061   1.617   2.265   1.590
 4721SOL    HW115062   1.659   2.265   1.499
 4721SOL    HW215063   1.582   2.356   1.611
 4722SOL     OW15064   2.057   6.845   0.885
 4722SOL    HW115065   2.011   6.934   0.880
 4722SOL    HW215066   2.021   6.793   0.963
 4723SOL     OW15067   2.825   0.059   6.794
 4723SOL    HW115068   2.805   0.047   6.891
 4723SOL    HW215069   2.763   0.001   6.740
 4724SOL     OW15070   4.570   5.251   1.608
 4724SOL    HW115071   4.568   5.151   1.600
 4724SOL    HW215072   4.638   5.288   1.546
 4725SOL     OW15073   5.843   5.886   3.532
 4725SOL    HW115074   5.935   5.871   3.495
 4725SOL    HW215075   5.776   5.868   3.461
 4726SOL     OW15076   0.095   5.486   6.778
 4726SOL    HW115077   0.112   5.548   6.855
 4726SOL    HW215078   0.122   5.531   6.693
 4727SOL     OW15079   0.232   6.550   6.961
 4727SOL    HW115080   0.260   6.566   6.867
 4727SOL    HW215081   0.159   6.482   6.964
 4728SOL     OW15082   0.200   1.335   0.439
 4728SOL    HW115083   0.279   1.387   0.405
 4728SOL    HW215084   0.193   1.249   0.390
 4729SOL     OW15085   3.642   0.225   1.626
 4729SOL    HW115086   3.646   0.139   1.574
 4729SOL    HW215087   3.651   0.302   1.562
 4730SOL     OW15088   1.531   0.101   5.381
 4730SOL    HW115089   1.462   0.173   5.376
 4730SOL    HW215090   1.610   0.127   5.325
 4731SOL     OW15091   5.550   1.622   6.015
 4731SOL    HW115092   5.514   1.530   6.004
 4731SOL    HW215093   5.493   1.674   6.079
 4732SOL     OW15094   0.373   2.117   0.468
 4732SOL    HW115095   0.305   2.156   0.530
 4732SOL    HW215096   0.447   2.075   0.521
 4733SOL     OW15097   6.759   2.958   4.071
 4733SOL    HW115098   6.704   2.877   4.048
 4733SOL    HW215099   6.787   2.952   4.167
 4734SOL     OW15100   4.233   4.612   6.677
 4734SOL    HW115101   4.187   4.658   6.601
 4734SOL    HW215102   4.171   4.608   6.756
 4735SOL     OW15103   0.798   5.457   3.283
 4735SOL    HW115104   0.879   5.496   3.325
 4735SOL    HW215105   0.758   5.389   3.345
 4736SOL     OW15106   1.402   0.749   0.836
 4736SOL    HW115107   1.434   0.842   0.816
 4736SOL    HW215108   1.343   0.751   0.917
 4737SOL     OW15109   2.525   5.587   1.991
 4737SOL    HW115110   2.466   5.630   1.923
 4737SOL    HW215111   2.570   5.658   2.046
 4738SOL     OW15112   0.040   6.453   2.675
 4738SOL    HW115113   0.010   6.548   2.675
 4738SOL    HW215114   7.018   6.404   2.600
 4739SOL     OW15115   5.135   0.754   1.294
 4739SOL    HW115116   5.078   0.835   1.280
 4739SOL    HW215117   5.078   0.679   1.327
 4740SOL     OW15118   0.557   2.387   3.614
 4740SOL    HW115119   0.545   2.445   3.694
 4740SOL    HW215120   0.598   2.440   3.539
 4741SOL     OW15121   3.838   4.009   1.481
 4741SOL    HW115122   3.855   3.917   1.445
 4741SOL    HW215123   3.794   4.064   1.410
 4742SOL     OW15124   3.376   6.881   0.528
 4742SOL    HW115125   3.320   6.827   0.465
 4742SOL    HW215126   3.453   6.826   0.559
 4743SOL     OW15127   2.025   5.044   1.349
 4743SOL    HW115128   2.083   5.091   1.281
 4743SOL    HW215129   2.067   5.051   1.439
 4744SOL     OW15130   2.471   5.669   1.070
 4744SOL    HW115131   2.511   5.729   1.000
 4744SOL    HW215132   2.393   5.621   1.032
 4745SOL     OW15133   1.196   4.433   6.740
 4745SOL    HW115134   1.254   4.381   6.678
 4745SOL    HW215135   1.253   4.490   6.799
 4746SOL     OW15136   4.679   5.755   4.251
 4746SOL    HW115137   4.621   5.675   4.265
 4746SOL    HW215138   4.773   5.733   4.274
 4747SOL     OW15139   1.663   2.261   0.055
 4747SOL    HW115140   1.685   2.252   0.152
 4747SOL    HW215141   1.730   2.320   0.010
 4748SOL     OW15142   1.696   6.604   2.837
 4748SOL    HW115143   1.612   6.583   2.788
 4748SOL    HW215144   1.680   6.680   2.900
 4749SOL     OW15145   2.251   1.454   6.532
 4749SOL    HW115146   2.303   1.536   6.558
 4749SOL    HW215147   2.164   1.482   6.490
 4750SOL     OW15148   4.916   2.602   5.395
 4750SOL    HW115149   4.877   2.599   5.487
 4750SOL    HW215150   4.913   2.695   5.360
 4751SOL     OW15151   4.286   0.436   3.605
 4751SOL    HW115152   4.334   0.477   3.683
 4751SOL    HW215153   4.300   0.337   3.607
 4752SOL     OW15154   4.543   1.609   6.856
 4752SOL    HW115155   4.534   1.517   6.895
 4752SOL    HW215156   4.609   1.607   6.781
 4753SOL     OW15157   3.409   6.389   5.773
 4753SOL    HW115158   3.367   6.302   5.802
 4753SOL    HW215159   3.339   6.448   5.734
 4754SOL     OW15160   4.688   4.781   6.599
 4754SOL    HW115161   4.607   4.759   6.653
 4754SOL    HW215162   4.669   4.767   6.502
 4755SOL     OW15163   1.547   1.199   1.561
 4755SOL    HW115164   1.642   1.196   1.594
 4755SOL    HW215165   1.516   1.294   1.559
 4756SOL     OW15166   6.321   3.977   6.243
 4756SOL    HW115167   6.285   3.999   6.333
 4756SOL    HW215168   6.361   4.059   6.202
 4757SOL     OW15169   1.927   3.701   1.270
 4757SOL    HW115170   1.836   3.720   1.306
 4757SOL    HW215171   1.981   3.785   1.268
 4758SOL     OW15172   2.905   6.126   3.105
 4758SOL    HW115173   2.912   6.056   3.176
 4758SOL    HW215174   2.808   6.151   3.092
 4759SOL     OW15175   0.720   5.854   1.802
 4759SOL    HW115176   0.738   5.847   1.704
 4759SOL    HW215177   0.787   5.916   1.843
 4760SOL     OW15178   1.258   5.824   0.972
 4760SOL    HW115179   1.295   5.769   1.048
 4760SOL    HW215180   1.216   5.907   1.008
 4761SOL     OW15181   6.470   6.298   1.671
 4761SOL    HW115182   6.406   6.234   1.714
 4761SOL    HW215183   6.517   6.351   1.742
 4762SOL     OW15184   1.554   0.254   2.178
 4762SOL    HW115185   1.568   0.173   2.235
 4762SOL    HW215186   1.459   0.283   2.183
 4763SOL     OW15187   5.643   4.276   1.821
 4763SOL    HW115188   5.567   4.324   1.778
 4763SOL    HW215189   5.698   4.340   1.874
 4764SOL     OW15190   4.844   2.660   0.687
 4764SOL    HW115191   4.932   2.612   0.686
 4764SOL    HW215192   4.836   2.712   0.771
 4765SOL     OW15193   3.737   1.657   4.290
 4765SOL    HW115194   3.795   1.624   4.216
 4765SOL    HW215195   3.703   1.580   4.344
 4766SOL     OW15196   0.358   0.271   4.006
 4766SOL    HW115197   0.426   0.285   4.078
 4766SOL    HW215198   0.392   0.310   3.920
 4767SOL     OW15199   1.914   4.320   3.515
 4767SOL    HW115200   1.936   4.266   3.434
 4767SOL    HW215201   1.998   4.340   3.565
 4768SOL     OW15202   4.399   2.824   6.740
 4768SOL    HW115203   4.349   2.802   6.823
 4768SOL    HW215204   4.344   2.800   6.660
 4769SOL     OW15205   2.613   4.483   0.560
 4769SOL    HW115206   2.536   4.547   0.557
 4769SOL    HW215207   2.639   4.466   0.655
 4770SOL     OW15208   0.674   1.304   5.488
 4770SOL    HW115209   0.647   1.378   5.426
 4770SOL    HW215210   0.694   1.341   5.578
 4771SOL     OW15211   1.795   6.779   4.877
 4771SOL    HW115212   1.887   6.742   4.867
 4771SOL    HW215213   1.728   6.706   4.864
 4772SOL     OW15214   2.859   5.048   2.200
 4772SOL    HW115215   2.855   4.948   2.210
 4772SOL    HW215216   2.906   5.088   2.279
 4773SOL     OW15217   2.009   5.265   4.623
 4773SOL    HW115218   2.084   5.255   4.689
 4773SOL    HW215219   1.963   5.177   4.612
 4774SOL     OW15220   1.351   4.490   0.201
 4774SOL    HW115221   1.335   4.408   0.146
 4774SOL    HW215222   1.272   4.551   0.193
 4775SOL     OW15223   6.366   6.330   5.226
 4775SOL    HW115224   6.274   6.366   5.212
 4775SOL    HW215225   6.379   6.248   5.169
 4776SOL     OW15226   6.951   1.116   6.211
 4776SOL    HW115227   6.884   1.081   6.146
 4776SOL    HW215228   7.021   1.168   6.162
 4777SOL     OW15229   1.175   0.255   2.402
 4777SOL    HW115230   1.166   0.295   2.493
 4777SOL    HW215231   1.213   0.163   2.410
 4778SOL     OW15232   1.992   1.191   6.838
 4778SOL    HW115233   2.053   1.147   6.905
 4778SOL    HW215234   2.005   1.147   6.749
 4779SOL     OW15235   5.633   0.410   4.575
 4779SOL    HW115236   5.656   0.314   4.560
 4779SOL    HW215237   5.694   0.448   4.645
 4780SOL     OW15238   5.917   2.692   4.946
 4780SOL    HW115239   5.852   2.760   4.981
 4780SOL    HW215240   5.987   2.737   4.891
 4781SOL     OW15241   2.040   5.501   2.372
 4781SOL    HW115242   2.134   5.476   2.347
 4781SOL    HW215243   1.976   5.436   2.330
 4782SOL     OW15244   6.618   6.918   4.315
 4782SOL    HW115245   6.622   6.963   4.226
 4782SOL    HW215246   6.545   6.850   4.314
 4783SOL     OW15247   6.651   3.376   5.992
 4783SOL    HW115248   6.690   3.464   6.017
 4783SOL    HW215249   6.552   3.386   5.978
 4784SOL     OW15250   5.245   3.044   6.658
 4784SOL    HW115251   5.171   3.067   6.721
 4784SOL    HW215252   5.332   3.043   6.707
 4785SOL     OW15253   0.075   6.861   4.300
 4785SOL    HW115254   0.066   6.793   4.228
 4785SOL    HW215255   0.168   6.860   4.336
 4786SOL     OW15256   1.445   5.372   6.893
 4786SOL    HW115257   1.366   5.404   6.842
 4786SOL    HW215258   1.524   5.366   6.832
 4787SOL     OW15259   3.421   1.603   3.928
 4787SOL    HW115260   3.494   1.598   3.859
 4787SOL    HW215261   3.451   1.662   4.004
 4788SOL     OW15262   6.243   6.036   0.553
 4788SOL    HW115263   6.217   6.131   0.566
 4788SOL    HW215264   6.160   5.981   0.541
 4789SOL     OW15265   5.721   1.167   2.802
 4789SOL    HW115266   5.767   1.171   2.891
 4789SOL    HW215267   5.729   1.255   2.756
 4790SOL     OW15268   6.663   2.085   5.188
 4790SOL    HW115269   6.715   2.151   5.134
 4790SOL    HW215270   6.565   2.100   5.175
 4791SOL     OW15271   0.108   0.633   0.718
 4791SOL    HW115272   0.093   0.534   0.723
 4791SOL    HW215273   0.202   0.654   0.746
 4792SOL     OW15274   2.206   3.126   2.829
 4792SOL    HW115275   2.250   3.088   2.910
 4792SOL    HW215276   2.171   3.218   2.849
 4793SOL     OW15277   1.054   3.309   5.746
 4793SOL    HW115278   1.128   3.326   5.811
 4793SOL    HW215279   1.092   3.303   5.654
 4794SOL     OW15280   4.323   1.521   4.531
 4794SOL    HW115281   4.261   1.567   4.467
 4794SOL    HW215282   4.402   1.580   4.549
 4795SOL     OW15283   6.897   0.889   6.461
 4795SOL    HW115284   6.985   0.860   6.499
 4795SOL    HW215285   6.838   0.922   6.535
 4796SOL     OW15286   4.280   1.191   5.310
 4796SOL    HW115287   4.200   1.140   5.341
 4796SOL    HW215288   4.328   1.137   5.239
 4797SOL     OW15289   1.372   5.119   5.385
 4797SOL    HW115290   1.461   5.073   5.396
 4797SOL    HW215291   1.387   5.217   5.370
 4798SOL     OW15292   4.363   4.957   6.674
 4798SOL    HW115293   4.420   4.918   6.746
 4798SOL    HW215294   4.367   4.898   6.593
 4799SOL     OW15295   3.723   2.739   0.046
 4799SOL    HW115296   3.698   2.819   7.013
 4799SOL    HW215297   3.785   2.768   0.120
 4800SOL     OW15298   1.091   4.061   0.243
 4800SOL    HW115299   1.135   4.063   0.332
 4800SOL    HW215300   0.995   4.087   0.253
 4801SOL     OW15301   5.693   2.593   2.200
 4801SOL    HW115302   5.662   2.594   2.295
 4801SOL    HW215303   5.651   2.669   2.151
 4802SOL     OW15304   6.309   0.696   4.380
 4802SOL    HW115305   6.388   0.639   4.358
 4802SOL    HW215306   6.300   0.767   4.311
 4803SOL     OW15307   5.359   4.176   5.985
 4803SOL    HW115308   5.352   4.173   5.885
 4803SOL    HW215309   5.309   4.099   6.024
 4804SOL     OW15310   4.654   1.433   1.122
 4804SOL    HW115311   4.678   1.423   1.025
 4804SOL    HW215312   4.737   1.455   1.174
 4805SOL     OW15313   6.725   0.996   6.635
 4805SOL    HW115314   6.769   1.011   6.724
 4805SOL    HW215315   6.645   1.055   6.627
 4806SOL     OW15316   1.012   1.292   3.597
 4806SOL    HW115317   1.098   1.246   3.620
 4806SOL    HW215318   1.018   1.388   3.624
 4807SOL     OW15319   0.702   3.409   5.739
 4807SOL    HW115320   0.740   3.335   5.794
 4807SOL    HW215321   0.773   3.477   5.721
 4808SOL     OW15322   3.804   5.951   1.131
 4808SOL    HW115323   3.855   5.916   1.209
 4808SOL    HW215324   3.782   6.048   1.146
 4809SOL     OW15325   3.485   4.177   1.335
 4809SOL    HW115326   3.394   4.141   1.354
 4809SOL    HW215327   3.495   4.267   1.378
 4810SOL     OW15328   0.580   5.050   3.881
 4810SOL    HW115329   0.581   5.087   3.789
 4810SOL    HW215330   0.603   5.122   3.947
 4811SOL     OW15331   3.185   4.017   4.227
 4811SOL    HW115332   3.256   4.087   4.238
 4811SOL    HW215333   3.168   4.001   4.130
 4812SOL     OW15334   1.310   0.481   2.771
 4812SOL    HW115335   1.278   0.541   2.698
 4812SOL    HW215336   1.396   0.438   2.743
 4813SOL     OW15337   6.365   1.245   5.455
 4813SOL    HW115338   6.411   1.330   5.428
 4813SOL    HW215339   6.428   1.188   5.508
 4814SOL     OW15340   5.851   3.863   1.496
 4814SOL    HW115341   5.784   3.869   1.569
 4814SOL    HW215342   5.804   3.866   1.407
 4815SOL     OW15343   5.912   4.849   1.809
 4815SOL    HW115344   5.855   4.814   1.884
 4815SOL    HW215345   5.854   4.870   1.731
 4816SOL     OW15346   2.041   1.521   2.556
 4816SOL    HW115347   2.136   1.550   2.557
 4816SOL    HW215348   1.986   1.588   2.507
 4817SOL     OW15349   3.869   2.529   0.451
 4817SOL    HW115350   3.936   2.454   0.458
 4817SOL    HW215351   3.791   2.508   0.510
 4818SOL     OW15352   3.610   0.858   5.352
 4818SOL    HW115353   3.653   0.801   5.423
 4818SOL    HW215354   3.630   0.820   5.262
 4819SOL     OW15355   3.592   0.272   1.048
 4819SOL    HW115356   3.514   0.249   1.106
 4819SOL    HW215357   3.644   0.347   1.090
 4820SOL     OW15358   5.857   3.955   1.879
 4820SOL    HW115359   5.778   3.930   1.823
 4820SOL    HW215360   5.933   3.981   1.819
 4821SOL     OW15361   0.462   4.942   1.472
 4821SOL    HW115362   0.413   4.933   1.386
 4821SOL    HW215363   0.525   5.019   1.467
 4822SOL     OW15364   1.716   4.131   2.786
 4822SOL    HW115365   1.777   4.210   2.783
 4822SOL    HW215366   1.628   4.158   2.827
 4823SOL     OW15367   1.572   1.174   4.221
 4823SOL    HW115368   1.646   1.165   4.288
 4823SOL    HW215369   1.526   1.262   4.233
 4824SOL     OW15370   5.511   2.898   2.115
 4824SOL    HW115371   5.427   2.864   2.073
 4824SOL    HW215372   5.495   2.988   2.155
 4825SOL     OW15373   0.591   3.347   3.017
 4825SOL    HW115374   0.626   3.391   2.934
 4825SOL    HW215375   0.651   3.270   3.041
 4826SOL     OW15376   6.485   5.801   0.040
 4826SOL    HW115377   6.469   5.898   0.055
 4826SOL    HW215378   6.565   5.772   0.092
 4827SOL     OW15379   5.374   0.946   1.358
 4827SOL    HW115380   5.344   1.040   1.375
 4827SOL    HW215381   5.297   0.884   1.369
 4828SOL     OW15382   5.204   3.851   0.264
 4828SOL    HW115383   5.190   3.945   0.232
 4828SOL    HW215384   5.120   3.799   0.249
 4829SOL     OW15385   3.280   0.606   5.492
 4829SOL    HW115386   3.205   0.640   5.548
 4829SOL    HW215387   3.333   0.539   5.544
 4830SOL     OW15388   4.020   0.101   5.082
 4830SOL    HW115389   4.017   0.028   5.014
 4830SOL    HW215390   3.987   0.186   5.042
 4831SOL     OW15391   6.494   3.955   5.863
 4831SOL    HW115392   6.539   4.002   5.786
 4831SOL    HW215393   6.535   3.865   5.874
 4832SOL     OW15394   1.982   3.137   6.774
 4832SOL    HW115395   1.920   3.085   6.714
 4832SOL    HW215396   2.076   3.108   6.757
 4833SOL     OW15397   5.114   1.453   3.281
 4833SOL    HW115398   5.033   1.441   3.338
 4833SOL    HW215399   5.106   1.397   3.199
 4834SOL     OW15400   5.601   0.707   2.643
 4834SOL    HW115401   5.701   0.715   2.634
 4834SOL    HW215402   5.558   0.792   2.610
 4835SOL     OW15403   2.062   0.294   6.363
 4835SOL    HW115404   2.084   0.199   6.385
 4835SOL    HW215405   2.072   0.308   6.264
 4836SOL     OW15406   5.199   2.941   2.944
 4836SOL    HW115407   5.228   3.020   2.998
 4836SOL    HW215408   5.116   2.902   2.983
 4837SOL     OW15409   1.505   4.113   0.324
 4837SOL    HW115410   1.553   4.029   0.348
 4837SOL    HW215411   1.487   4.167   0.407
 4838SOL     OW15412   2.866   5.808   2.343
 4838SOL    HW115413   2.775   5.839   2.371
 4838SOL    HW215414   2.934   5.840   2.408
 4839SOL     OW15415   0.670   6.129   6.685
 4839SOL    HW115416   0.603   6.112   6.758
 4839SOL    HW215417   0.745   6.063   6.693
 4840SOL     OW15418   6.880   6.513   6.897
 4840SOL    HW115419   6.787   6.528   6.929
 4840SOL    HW215420   6.932   6.597   6.905
 4841SOL     OW15421   2.451   5.699   2.396
 4841SOL    HW115422   2.510   5.656   2.328
 4841SOL    HW215423   2.371   5.738   2.352
 4842SOL     OW15424   3.635   6.196   1.340
 4842SOL    HW115425   3.552   6.208   1.395
 4842SOL    HW215426   3.649   6.276   1.282
 4843SOL     OW15427   0.147   3.286   0.265
 4843SOL    HW115428   0.094   3.201   0.261
 4843SOL    HW215429   0.132   3.330   0.353
 4844SOL     OW15430   6.493   1.571   5.618
 4844SOL    HW115431   6.506   1.539   5.524
 4844SOL    HW215432   6.560   1.641   5.639
 4845SOL     OW15433   6.224   5.489   3.858
 4845SOL    HW115434   6.245   5.423   3.930
 4845SOL    HW215435   6.125   5.497   3.847
 4846SOL     OW15436   1.089   4.545   1.007
 4846SOL    HW115437   1.027   4.543   1.086
 4846SOL    HW215438   1.051   4.490   0.933
 4847SOL     OW15439   4.058   2.121   4.377
 4847SOL    HW115440   4.040   2.144   4.472
 4847SOL    HW215441   4.151   2.147   4.353
 4848SOL     OW15442   2.884   2.123   2.306
 4848SOL    HW115443   2.879   2.214   2.264
 4848SOL    HW215444   2.792   2.091   2.328
 4849SOL     OW15445   1.469   6.074   0.167
 4849SOL    HW115446   1.479   6.103   0.072
 4849SOL    HW215447   1.550   6.022   0.195
 4850SOL     OW15448   3.929   0.681   2.580
 4850SOL    HW115449   3.941   0.766   2.631
 4850SOL    HW215450   3.997   0.676   2.507
 4851SOL     OW15451   4.987   6.668   4.946
 4851SOL    HW115452   5.060   6.611   4.984
 4851SOL    HW215453   4.903   6.654   4.998
 4852SOL     OW15454   1.652   1.555   0.928
 4852SOL    HW115455   1.582   1.552   0.999
 4852SOL    HW215456   1.678   1.650   0.911
 4853SOL     OW15457   2.884   1.509   1.987
 4853SOL    HW115458   2.829   1.567   2.046
 4853SOL    HW215459   2.980   1.538   1.991
 4854SOL     OW15460   4.694   6.582   1.006
 4854SOL    HW115461   4.702   6.483   1.017
 4854SOL    HW215462   4.643   6.602   0.922
 4855SOL     OW15463   0.245   2.605   2.531
 4855SOL    HW115464   0.171   2.661   2.495
 4855SOL    HW215465   0.281   2.646   2.615
 4856SOL     OW15466   2.615   4.612   3.623
 4856SOL    HW115467   2.697   4.657   3.659
 4856SOL    HW215468   2.618   4.515   3.647
 4857SOL     OW15469   7.016   1.709   5.635
 4857SOL    HW115470   0.076   1.751   5.594
 4857SOL    HW215471   0.020   1.662   5.720
 4858SOL     OW15472   1.273   1.397   3.814
 4858SOL    HW115473   1.363   1.415   3.852
 4858SOL    HW215474   1.275   1.313   3.760
 4859SOL     OW15475   2.534   5.809   5.180
 4859SOL    HW115476   2.483   5.744   5.123
 4859SOL    HW215477   2.574   5.761   5.257
 4860SOL     OW15478   4.575   4.781   0.907
 4860SOL    HW115479   4.520   4.847   0.958
 4860SOL    HW215480   4.628   4.829   0.837
 4861SOL     OW15481   5.280   3.876   5.542
 4861SOL    HW115482   5.373   3.841   5.545
 4861SOL    HW215483   5.218   3.809   5.583
 4862SOL     OW15484   1.610   6.323   2.424
 4862SOL    HW115485   1.710   6.332   2.432
 4862SOL    HW215486   1.582   6.233   2.456
 4863SOL     OW15487   6.367   4.272   6.711
 4863SOL    HW115488   6.378   4.297   6.615
 4863SOL    HW215489   6.450   4.224   6.742
 4864SOL     OW15490   2.721   1.358   3.931
 4864SOL    HW115491   2.810   1.347   3.886
 4864SOL    HW215492   2.716   1.297   4.010
 4865SOL     OW15493   1.837   6.313   5.131
 4865SOL    HW115494   1.756   6.313   5.189
 4865SOL    HW215495   1.886   6.399   5.141
 4866SOL     OW15496   6.553   4.109   6.788
 4866SOL    HW115497   6.556   4.030   6.850
 4866SOL    HW215498   6.608   4.183   6.826
 4867SOL     OW15499   5.144   6.990   2.744
 4867SOL    HW115500   5.080   0.032   2.786
 4867SOL    HW215501   5.097   6.936   2.674
 4868SOL     OW15502   6.966   4.627   0.554
 4868SOL    HW115503   0.035   4.667   0.564
 4868SOL    HW215504   6.956   4.551   0.618
 4869SOL     OW15505   0.679   0.874   0.338
 4869SOL    HW115506   0.725   0.843   0.421
 4869SOL    HW215507   0.735   0.943   0.292
 4870SOL     OW15508   0.896   6.212   2.189
 4870SOL    HW115509   0.827   6.139   2.193
 4870SOL    HW215510   0.984   6.177   2.220
 4871SOL     OW15511   1.366   1.677   4.389
 4871SOL    HW115512   1.323   1.601   4.339
 4871SOL    HW215513   1.360   1.660   4.487
 4872SOL     OW15514   5.777   6.856   3.003
 4872SOL    HW115515   5.732   6.774   2.966
 4872SOL    HW215516   5.855   6.880   2.946
 4873SOL     OW15517   6.814   5.969   5.395
 4873SOL    HW115518   6.838   6.065   5.388
 4873SOL    HW215519   6.845   5.920   5.314
 4874SOL     OW15520   5.405   2.815   2.777
 4874SOL    HW115521   5.394   2.732   2.830
 4874SOL    HW215522   5.317   2.861   2.767
 4875SOL     OW15523   5.689   6.433   5.146
 4875SOL    HW115524   5.759   6.383   5.094
 4875SOL    HW215525   5.730   6.514   5.188
 4876SOL     OW15526   1.870   1.071   3.147
 4876SOL    HW115527   1.901   1.161   3.117
 4876SOL    HW215528   1.898   1.055   3.241
 4877SOL     OW15529   0.014   1.781   4.984
 4877SOL    HW115530   0.040   1.824   4.898
 4877SOL    HW215531   0.001   1.852   5.054
 4878SOL     OW15532   0.758   2.459   2.367
 4878SOL    HW115533   0.681   2.404   2.398
 4878SOL    HW215534   0.754   2.549   2.410
 4879SOL     OW15535   5.476   1.721   3.304
 4879SOL    HW115536   5.549   1.726   3.236
 4879SOL    HW215537   5.454   1.626   3.323
 4880SOL     OW15538   6.919   2.695   6.338
 4880SOL    HW115539   6.848   2.739   6.393
 4880SOL    HW215540   6.915   2.596   6.351
 4881SOL     OW15541   1.574   2.798   1.562
 4881SOL    HW115542   1.617   2.877   1.606
 4881SOL    HW215543   1.477   2.817   1.548
 4882SOL     OW15544   4.407   2.058   4.380
 4882SOL    HW115545   4.507   2.058   4.372
 4882SOL    HW215546   4.369   2.122   4.314
 4883SOL     OW15547   6.713   4.137   1.282
 4883SOL    HW115548   6.763   4.153   1.197
 4883SOL    HW215549   6.641   4.207   1.291
 4884SOL     OW15550   2.132   6.492   1.866
 4884SOL    HW115551   2.223   6.531   1.879
 4884SOL    HW215552   2.093   6.527   1.781
 4885SOL     OW15553   1.204   4.032   0.511
 4885SOL    HW115554   1.246   4.121   0.493
 4885SOL    HW215555   1.126   4.045   0.573
 4886SOL     OW15556   2.855   1.203   2.038
 4886SOL    HW115557   2.822   1.295   2.017
 4886SOL    HW215558   2.952   1.196   2.015
 4887SOL     OW15559   6.374   6.544   0.894
 4887SOL    HW115560   6.304   6.573   0.959
 4887SOL    HW215561   6.331   6.522   0.806
 4888SOL     OW15562   3.957   6.131   3.297
 4888SOL    HW115563   4.043   6.163   3.259
 4888SOL    HW215564   3.901   6.092   3.224
 4889SOL     OW15565   6.737   3.069   3.625
 4889SOL    HW115566   6.747   3.088   3.723
 4889SOL    HW215567   6.644   3.090   3.597
 4890SOL     OW15568   0.680   1.542   4.736
 4890SOL    HW115569   0.731   1.486   4.801
 4890SOL    HW215570   0.739   1.566   4.659
 4891SOL     OW15571   2.667   5.935   6.165
 4891SOL    HW115572   2.573   5.947   6.134
 4891SOL    HW215573   2.689   5.837   6.165
 4892SOL     OW15574   5.354   5.793   2.726
 4892SOL    HW115575   5.258   5.789   2.699
 4892SOL    HW215576   5.398   5.872   2.682
 4893SOL     OW15577   0.591   3.373   1.864
 4893SOL    HW115578   0.531   3.446   1.831
 4893SOL    HW215579   0.622   3.395   1.957
 4894SOL     OW15580   4.983   0.321   1.854
 4894SOL    HW115581   5.071   0.314   1.806
 4894SOL    HW215582   4.999   0.352   1.948
 4895SOL     OW15583   6.954   4.538   4.108
 4895SOL    HW115584   0.009   4.482   4.140
 4895SOL    HW215585   6.869   4.501   4.145
 4896SOL     OW15586   1.885   4.833   4.010
 4896SOL    HW115587   1.890   4.882   4.096
 4896SOL    HW215588   1.820   4.879   3.949
 4897SOL     OW15589   1.581   6.351   5.312
 4897SOL    HW115590   1.547   6.402   5.392
 4897SOL    HW215591   1.580   6.253   5.333
 4898SOL     OW15592   4.566   2.134   3.654
 4898SOL    HW115593   4.547   2.171   3.563
 4898SOL    HW215594   4.500   2.171   3.719
 4899SOL     OW15595   0.123   5.808   1.862
 4899SOL    HW115596   0.062   5.729   1.869
 4899SOL    HW215597   0.194   5.801   1.932
 4900SOL     OW15598   3.758   5.999   5.640
 4900SOL    HW115599   3.689   6.065   5.611
 4900SOL    HW215600   3.849   6.040   5.633
 4901SOL     OW15601   0.259   1.693   5.789
 4901SOL    HW115602   0.319   1.676   5.867
 4901SOL    HW215603   0.272   1.788   5.758
 4902SOL     OW15604   1.748   0.064   5.975
 4902SOL    HW115605   1.795   0.152   5.969
 4902SOL    HW215606   1.723   0.033   5.882
 4903SOL     OW15607   5.509   4.532   2.294
 4903SOL    HW115608   5.432   4.595   2.301
 4903SOL    HW215609   5.586   4.566   2.349
 4904SOL     OW15610   1.969   0.340   0.182
 4904SOL    HW115611   1.907   0.279   0.232
 4904SOL    HW215612   1.916   0.413   0.138
 4905SOL     OW15613   3.062   6.405   2.374
 4905SOL    HW115614   3.071   6.487   2.318
 4905SOL    HW215615   3.138   6.343   2.354
 4906SOL     OW15616   4.908   3.041   5.044
 4906SOL    HW115617   4.896   3.132   5.007
 4906SOL    HW215618   4.858   3.033   5.131
 4907SOL     OW15619   4.679   1.670   6.530
 4907SOL    HW115620   4.588   1.705   6.510
 4907SOL    HW215621   4.748   1.732   6.491
 4908SOL     OW15622   3.911   6.317   6.938
 4908SOL    HW115623   3.936   6.414   6.939
 4908SOL    HW215624   3.829   6.303   6.993
 4909SOL     OW15625   5.165   4.684   4.528
 4909SOL    HW115626   5.233   4.757   4.532
 4909SOL    HW215627   5.201   4.608   4.472
 4910SOL     OW15628   4.495   1.562   5.592
 4910SOL    HW115629   4.578   1.580   5.539
 4910SOL    HW215630   4.447   1.483   5.553
 4911SOL     OW15631   6.977   2.782   2.090
 4911SOL    HW115632   6.927   2.697   2.101
 4911SOL    HW215633   6.950   2.826   2.004
 4912SOL     OW15634   5.573   2.358   4.081
 4912SOL    HW115635   5.536   2.330   4.170
 4912SOL    HW215636   5.671   2.338   4.079
 4913SOL     OW15637   0.064   3.055   5.837
 4913SOL    HW115638   0.059   3.031   5.740
 4913SOL    HW215639   6.994   3.064   5.874
 4914SOL     OW15640   4.542   0.384   3.331
 4914SOL    HW115641   4.454   0.342   3.354
 4914SOL    HW215642   4.610   0.313   3.316
 4915SOL     OW15643   3.252   5.114   6.094
 4915SOL    HW115644   3.311   5.155   6.163
 4915SOL    HW215645   3.156   5.122   6.122
 4916SOL     OW15646   6.283   2.276   4.015
 4916SOL    HW115647   6.352   2.205   4.006
 4916SOL    HW215648   6.325   2.359   4.052
 4917SOL     OW15649   4.527   6.769   0.535
 4917SOL    HW115650   4.443   6.823   0.538
 4917SOL    HW215651   4.512   6.687   0.479
 4918SOL     OW15652   6.447   5.221   2.636
 4918SOL    HW115653   6.441   5.134   2.684
 4918SOL    HW215654   6.420   5.295   2.698
 4919SOL     OW15655   3.757   3.995   2.280
 4919SOL    HW115656   3.707   4.047   2.212
 4919SOL    HW215657   3.729   4.023   2.372
 4920SOL     OW15658   5.963   0.640   5.424
 4920SOL    HW115659   5.969   0.732   5.385
 4920SOL    HW215660   5.967   0.646   5.524
 4921SOL     OW15661   0.269   6.931   2.233
 4921SOL    HW115662   0.296   0.003   2.253
 4921SOL    HW215663   0.230   6.889   2.315
 4922SOL     OW15664   3.549   2.471   6.664
 4922SOL    HW115665   3.568   2.547   6.602
 4922SOL    HW215666   3.627   2.408   6.664
 4923SOL     OW15667   3.419   1.630   1.849
 4923SOL    HW115668   3.509   1.665   1.877
 4923SOL    HW215669   3.362   1.706   1.818
 4924SOL     OW15670   2.506   0.265   5.241
 4924SOL    HW115671   2.515   0.234   5.146
 4924SOL    HW215672   2.413   0.301   5.255
 4925SOL     OW15673   5.435   5.622   3.417
 4925SOL    HW115674   5.500   5.549   3.435
 4925SOL    HW215675   5.359   5.617   3.482
 4926SOL     OW15676   5.489   2.477   1.076
 4926SOL    HW115677   5.434   2.446   1.153
 4926SOL    HW215678   5.487   2.577   1.072
 4927SOL     OW15679   3.473   1.545   6.707
 4927SOL    HW115680   3.381   1.559   6.671
 4927SOL    HW215681   3.532   1.621   6.678
 4928SOL     OW15682   0.188   1.896   0.439
 4928SOL    HW115683   0.160   1.871   0.531
 4928SOL    HW215684   0.254   1.970   0.443
 4929SOL     OW15685   0.449   6.396   5.032
 4929SOL    HW115686   0.455   6.360   4.938
 4929SOL    HW215687   0.468   6.494   5.031
 4930SOL     OW15688   5.231   6.262   2.347
 4930SOL    HW115689   5.229   6.178   2.401
 4930SOL    HW215690   5.147   6.269   2.293
 4931SOL     OW15691   6.324   5.880   0.790
 4931SOL    HW115692   6.362   5.791   0.813
 4931SOL    HW215693   6.296   5.881   0.694
 4932SOL     OW15694   3.009   3.315   2.183
 4932SOL    HW115695   3.016   3.333   2.085
 4932SOL    HW215696   2.964   3.228   2.199
 4933SOL     OW15697   2.795   6.591   5.536
 4933SOL    HW115698   2.705   6.631   5.555
 4933SOL    HW215699   2.787   6.525   5.462
 4934SOL     OW15700   4.018   5.005   2.895
 4934SOL    HW115701   3.932   5.051   2.871
 4934SOL    HW215702   4.066   4.979   2.811
 4935SOL     OW15703   0.154   1.094   6.408
 4935SOL    HW115704   0.180   0.997   6.405
 4935SOL    HW215705   0.091   1.114   6.333
 4936SOL     OW15706   3.152   2.875   0.739
 4936SOL    HW115707   3.191   2.834   0.656
 4936SOL    HW215708   3.212   2.858   0.816
 4937SOL     OW15709   4.427   2.330   5.166
 4937SOL    HW115710   4.459   2.247   5.122
 4937SOL    HW215711   4.402   2.397   5.097
 4938SOL     OW15712   4.264   5.555   6.299
 4938SOL    HW115713   4.168   5.569   6.321
 4938SOL    HW215714   4.318   5.633   6.330
 4939SOL     OW15715   4.405   2.968   6.120
 4939SOL    HW115716   4.374   2.882   6.159
 4939SOL    HW215717   4.500   2.985   6.147
 4940SOL     OW15718   1.739   6.216   4.499
 4940SOL    HW115719   1.730   6.147   4.427
 4940SOL    HW215720   1.787   6.296   4.463
 4941SOL     OW15721   5.395   0.453   0.825
 4941SOL    HW115722   5.372   0.356   0.827
 4941SOL    HW215723   5.454   0.474   0.904
 4942SOL     OW15724   5.229   4.400   5.703
 4942SOL    HW115725   5.247   4.303   5.690
 4942SOL    HW215726   5.310   4.444   5.743
 4943SOL     OW15727   4.998   2.266   1.363
 4943SOL    HW115728   4.992   2.361   1.392
 4943SOL    HW215729   4.966   2.257   1.269
 4944SOL     OW15730   2.235   4.825   2.656
 4944SOL    HW115731   2.288   4.862   2.579
 4944SOL    HW215732   2.246   4.885   2.736
 4945SOL     OW15733   0.636   6.505   4.501
 4945SOL    HW115734   0.616   6.437   4.571
 4945SOL    HW215735   0.730   6.536   4.511
 4946SOL     OW15736   1.197   4.290   2.158
 4946SOL    HW115737   1.241   4.202   2.142
 4946SOL    HW215738   1.117   4.299   2.099
 4947SOL     OW15739   0.425   6.876   0.432
 4947SOL    HW115740   0.447   6.780   0.451
 4947SOL    HW215741   0.503   6.933   0.455
 4948SOL     OW15742   1.755   1.369   2.025
 4948SOL    HW115743   1.659   1.349   2.042
 4948SOL    HW215744   1.763   1.438   1.953
 4949SOL     OW15745   5.388   1.468   4.319
 4949SOL    HW115746   5.395   1.465   4.219
 4949SOL    HW215747   5.369   1.561   4.348
 4950SOL     OW15748   3.117   5.756   5.368
 4950SOL    HW115749   3.084   5.673   5.412
 4950SOL    HW215750   3.040   5.806   5.329
 4951SOL     OW15751   4.324   2.090   3.493
 4951SOL    HW115752   4.400   2.153   3.478
 4951SOL    HW215753   4.323   2.022   3.419
 4952SOL     OW15754   0.663   5.666   4.952
 4952SOL    HW115755   0.754   5.655   4.911
 4952SOL    HW215756   0.673   5.684   5.050
 4953SOL     OW15757   1.583   5.531   1.614
 4953SOL    HW115758   1.662   5.478   1.645
 4953SOL    HW215759   1.500   5.495   1.657
 4954SOL     OW15760   5.376   5.591   6.649
 4954SOL    HW115761   5.375   5.545   6.738
 4954SOL    HW215762   5.417   5.682   6.660
 4955SOL     OW15763   1.001   6.445   1.556
 4955SOL    HW115764   1.068   6.497   1.609
 4955SOL    HW215765   1.034   6.351   1.543
 4956SOL     OW15766   4.735   6.142   4.562
 4956SOL    HW115767   4.720   6.241   4.560
 4956SOL    HW215768   4.738   6.106   4.469
 4957SOL     OW15769   0.991   0.232   3.786
 4957SOL    HW115770   1.011   0.255   3.881
 4957SOL    HW215771   1.062   0.171   3.751
 4958SOL     OW15772   6.999   6.007   0.024
 4958SOL    HW115773   0.044   5.965   6.984
 4958SOL    HW215774   6.926   6.050   6.993
 4959SOL     OW15775   1.098   0.916   1.348
 4959SOL    HW115776   1.148   0.986   1.297
 4959SOL    HW215777   1.156   0.880   1.420
 4960SOL     OW15778   3.712   6.578   5.077
 4960SOL    HW115779   3.797   6.554   5.124
 4960SOL    HW215780   3.682   6.501   5.021
 4961SOL     OW15781   4.360   0.600   5.096
 4961SOL    HW115782   4.264   0.574   5.103
 4961SOL    HW215783   4.417   0.529   5.138
 4962SOL     OW15784   6.977   1.496   1.373
 4962SOL    HW115785   0.054   1.489   1.359
 4962SOL    HW215786   6.947   1.589   1.351
 4963SOL     OW15787   0.513   5.167   1.811
 4963SOL    HW115788   0.611   5.157   1.828
 4963SOL    HW215789   0.472   5.077   1.799
 4964SOL     OW15790   3.781   6.406   3.517
 4964SOL    HW115791   3.768   6.431   3.421
 4964SOL    HW215792   3.849   6.333   3.524
 4965SOL     OW15793   6.898   6.750   4.518
 4965SOL    HW115794   6.920   6.796   4.432
 4965SOL    HW215795   6.961   6.673   4.532
 4966SOL     OW15796   3.816   4.967   4.027
 4966SOL    HW115797   3.732   5.021   4.029
 4966SOL    HW215798   3.887   5.012   4.080
 4967SOL     OW15799   4.235   2.252   5.986
 4967SOL    HW115800   4.242   2.153   6.001
 4967SOL    HW215801   4.326   2.290   5.975
 4968SOL     OW15802   5.858   3.725   5.536
 4968SOL    HW115803   5.863   3.823   5.554
 4968SOL    HW215804   5.786   3.707   5.469
 4969SOL     OW15805   0.813   1.910   1.918
 4969SOL    HW115806   0.752   1.856   1.861
 4969SOL    HW215807   0.781   1.907   2.013
 4970SOL     OW15808   0.778   2.633   6.059
 4970SOL    HW115809   0.730   2.720   6.066
 4970SOL    HW215810   0.750   2.586   5.975
 4971SOL     OW15811   6.106   5.981   4.021
 4971SOL    HW115812   6.142   6.006   4.111
 4971SOL    HW215813   6.148   5.896   3.990
 4972SOL     OW15814   1.076   2.609   6.036
 4972SOL    HW115815   1.101   2.548   6.111
 4972SOL    HW215816   0.981   2.638   6.046
 4973SOL     OW15817   5.735   6.128   3.066
 4973SOL    HW115818   5.683   6.209   3.041
 4973SOL    HW215819   5.677   6.065   3.117
 4974SOL     OW15820   5.132   6.694   1.735
 4974SOL    HW115821   5.074   6.623   1.694
 4974SOL    HW215822   5.075   6.752   1.794
 4975SOL     OW15823   5.655   5.809   0.445
 4975SOL    HW115824   5.559   5.803   0.418
 4975SOL    HW215825   5.682   5.905   0.451
 4976SOL     OW15826   4.008   0.433   4.712
 4976SOL    HW115827   4.067   0.435   4.793
 4976SOL    HW215828   3.958   0.346   4.710
 4977SOL     OW15829   3.784   4.161   0.325
 4977SOL    HW115830   3.703   4.102   0.330
 4977SOL    HW215831   3.844   4.129   0.252
 4978SOL     OW15832   6.029   2.981   5.923
 4978SOL    HW115833   6.094   2.909   5.948
 4978SOL    HW215834   6.071   3.043   5.857
 4979SOL     OW15835   1.851   1.547   5.320
 4979SOL    HW115836   1.793   1.597   5.384
 4979SOL    HW215837   1.794   1.497   5.255
 4980SOL     OW15838   2.540   5.479   2.242
 4980SOL    HW115839   2.549   5.489   2.143
 4980SOL    HW215840   2.628   5.449   2.280
 4981SOL     OW15841   4.052   6.409   5.496
 4981SOL    HW115842   4.076   6.501   5.466
 4981SOL    HW215843   4.128   6.347   5.478
 4982SOL     OW15844   2.534   2.587   0.392
 4982SOL    HW115845   2.489   2.626   0.472
 4982SOL    HW215846   2.504   2.636   0.310
 4983SOL     OW15847   5.309   3.110   4.417
 4983SOL    HW115848   5.288   3.123   4.514
 4983SOL    HW215849   5.227   3.123   4.363
 4984SOL     OW15850   4.927   3.814   2.894
 4984SOL    HW115851   4.892   3.756   2.968
 4984SOL    HW215852   4.953   3.756   2.817
 4985SOL     OW15853   5.710   3.919   2.581
 4985SOL    HW115854   5.733   3.831   2.541
 4985SOL    HW215855   5.792   3.976   2.586
 4986SOL     OW15856   5.218   4.603   2.064
 4986SOL    HW115857   5.288   4.584   2.132
 4986SOL    HW215858   5.196   4.519   2.014
 4987SOL     OW15859   0.501   3.716   1.008
 4987SOL    HW115860   0.464   3.768   0.932
 4987SOL    HW215861   0.601   3.709   0.998
 4988SOL     OW15862   0.316   2.222   5.098
 4988SOL    HW115863   0.401   2.210   5.045
 4988SOL    HW215864   0.317   2.159   5.176
 4989SOL     OW15865   0.237   1.009   0.480
 4989SOL    HW115866   0.319   0.983   0.428
 4989SOL    HW215867   0.260   1.081   0.545
 4990SOL     OW15868   0.548   2.481   5.242
 4990SOL    HW115869   0.614   2.411   5.268
 4990SOL    HW215870   0.469   2.438   5.199
 4991SOL     OW15871   1.609   2.749   4.458
 4991SOL    HW115872   1.668   2.681   4.502
 4991SOL    HW215873   1.619   2.837   4.506
 4992SOL     OW15874   3.038   0.968   5.675
 4992SOL    HW115875   3.129   0.991   5.639
 4992SOL    HW215876   3.030   0.999   5.769
 4993SOL     OW15877   2.868   5.768   4.136
 4993SOL    HW115878   2.814   5.774   4.052
 4993SOL    HW215879   2.830   5.697   4.195
 4994SOL     OW15880   6.904   6.683   2.353
 4994SOL    HW115881   6.823   6.700   2.409
 4994SOL    HW215882   6.977   6.745   2.382
 4995SOL     OW15883   5.894   2.385   5.863
 4995SOL    HW115884   5.875   2.465   5.807
 4995SOL    HW215885   5.832   2.311   5.838
 4996SOL     OW15886   0.701   1.232   4.195
 4996SOL    HW115887   0.613   1.266   4.162
 4996SOL    HW215888   0.745   1.301   4.252
 4997SOL     OW15889   0.655   2.553   3.432
 4997SOL    HW115890   0.673   2.529   3.336
 4997SOL    HW215891   0.581   2.620   3.436
 4998SOL     OW15892   1.354   5.471   5.037
 4998SOL    HW115893   1.405   5.407   4.980
 4998SOL    HW215894   1.259   5.440   5.046
 4999SOL     OW15895   6.288   4.346   1.206
 4999SOL    HW115896   6.216   4.377   1.269
 4999SOL    HW215897   6.264   4.371   1.113
 5000SOL     OW15898   6.954   5.663   4.281
 5000SOL    HW115899   6.907   5.743   4.242
 5000SOL    HW215900   6.970   5.596   4.209
 5001SOL     OW15901   4.581   4.326   5.757
 5001SOL    HW115902   4.669   4.343   5.800
 5001SOL    HW215903   4.582   4.363   5.664
 5002SOL     OW15904   2.208   1.592   1.478
 5002SOL    HW115905   2.193   1.678   1.528
 5002SOL    HW215906   2.284   1.543   1.521
 5003SOL     OW15907   6.564   5.487   2.959
 5003SOL    HW115908   6.616   5.407   2.932
 5003SOL    HW215909   6.623   5.551   3.008
 5004SOL     OW15910   3.599   5.569   6.835
 5004SOL    HW115911   3.679   5.509   6.836
 5004SOL    HW215912   3.610   5.640   6.904
 5005SOL     OW15913   4.545   2.328   0.080
 5005SOL    HW115914   4.623   2.379   0.118
 5005SOL    HW215915   4.579   2.250   0.028
 5006SOL     OW15916   5.164   4.897   3.960
 5006SOL    HW115917   5.254   4.929   3.990
 5006SOL    HW215918   5.163   4.797   3.959
 5007SOL     OW15919   3.901   1.545   4.560
 5007SOL    HW115920   3.811   1.509   4.539
 5007SOL    HW215921   3.970   1.475   4.542
 5008SOL     OW15922   6.699   1.621   3.687
 5008SOL    HW115923   6.756   1.696   3.720
 5008SOL    HW215924   6.755   1.552   3.641
 5009SOL     OW15925   1.842   6.226   4.065
 5009SOL    HW115926   1.826   6.173   3.981
 5009SOL    HW215927   1.911   6.180   4.121
 5010SOL     OW15928   4.041   3.500   4.691
 5010SOL    HW115929   3.972   3.428   4.691
 5010SOL    HW215930   4.036   3.552   4.606
 5011SOL     OW15931   1.608   2.724   2.605
 5011SOL    HW115932   1.689   2.779   2.586
 5011SOL    HW215933   1.555   2.714   2.521
 5012SOL     OW15934   6.239   3.421   6.784
 5012SOL    HW115935   6.230   3.349   6.716
 5012SOL    HW215936   6.262   3.380   6.873
 5013SOL     OW15937   4.627   1.242   6.395
 5013SOL    HW115938   4.686   1.294   6.456
 5013SOL    HW215939   4.680   1.167   6.354
 5014SOL     OW15940   6.130   6.541   0.069
 5014SOL    HW115941   6.093   6.503   0.154
 5014SOL    HW215942   6.130   6.470   7.020
 5015SOL     OW15943   5.218   2.501   3.322
 5015SOL    HW115944   5.190   2.449   3.402
 5015SOL    HW215945   5.293   2.454   3.276
 5016SOL     OW15946   2.323   6.836   2.430
 5016SOL    HW115947   2.272   6.831   2.516
 5016SOL    HW215948   2.348   6.744   2.401
 5017SOL     OW15949   2.619   2.794   1.483
 5017SOL    HW115950   2.599   2.744   1.399
 5017SOL    HW215951   2.534   2.831   1.521
 5018SOL     OW15952   6.585   5.128   4.264
 5018SOL    HW115953   6.506   5.160   4.316
 5018SOL    HW215954   6.652   5.088   4.326
 5019SOL     OW15955   2.662   5.418   6.192
 5019SOL    HW115956   2.742   5.460   6.151
 5019SOL    HW215957   2.601   5.385   6.120
 5020SOL     OW15958   4.863   5.546   6.621
 5020SOL    HW115959   4.825   5.467   6.670
 5020SOL    HW215960   4.906   5.516   6.537
 5021SOL     OW15961   2.020   5.160   5.976
 5021SOL    HW115962   1.973   5.243   6.003
 5021SOL    HW215963   1.953   5.091   5.948
 5022SOL     OW15964   1.753   5.137   0.895
 5022SOL    HW115965   1.739   5.039   0.885
 5022SOL    HW215966   1.831   5.165   0.838
 5023SOL     OW15967   6.685   3.501   2.505
 5023SOL    HW115968   6.726   3.589   2.529
 5023SOL    HW215969   6.621   3.513   2.430
 5024SOL     OW15970   5.178   3.575   5.333
 5024SOL    HW115971   5.204   3.504   5.398
 5024SOL    HW215972   5.106   3.541   5.273
 5025SOL     OW15973   6.425   1.863   2.806
 5025SOL    HW115974   6.466   1.908   2.886
 5025SOL    HW215975   6.453   1.767   2.803
 5026SOL     OW15976   0.654   6.449   2.975
 5026SOL    HW115977   0.563   6.448   2.932
 5026SOL    HW215978   0.714   6.509   2.923
 5027SOL     OW15979   1.109   0.027   3.476
 5027SOL    HW115980   1.118   6.975   3.543
 5027SOL    HW215981   1.157   0.108   3.509
 5028SOL     OW15982   1.300   0.770   2.890
 5028SOL    HW115983   1.353   0.686   2.898
 5028SOL    HW215984   1.307   0.805   2.796
 5029SOL     OW15985   6.890   1.071   2.304
 5029SOL    HW115986   6.957   1.100   2.236
 5029SOL    HW215987   6.924   1.090   2.396
 5030SOL     OW15988   1.924   5.510   6.917
 5030SOL    HW115989   1.879   5.424   6.892
 5030SOL    HW215990   1.921   5.521   7.016
 5031SOL     OW15991   5.882   0.214   4.931
 5031SOL    HW115992   5.840   0.285   4.874
 5031SOL    HW215993   5.812   0.153   4.966
 5032SOL     OW15994   0.856   6.183   0.896
 5032SOL    HW115995   0.856   6.120   0.819
 5032SOL    HW215996   0.937   6.242   0.891
 5033SOL     OW15997   1.419   4.369   5.952
 5033SOL    HW115998   1.397   4.408   5.862
 5033SOL    HW215999   1.508   4.324   5.948
 5034SOL     OW16000   6.574   4.061   0.433
 5034SOL    HW116001   6.645   4.095   0.371
 5034SOL    HW216002   6.486   4.058   0.385
 5035SOL     OW16003   6.166   4.124   1.091
 5035SOL    HW116004   6.214   4.201   1.135
 5035SOL    HW216005   6.226   4.083   1.022
 5036SOL     OW16006   1.841   0.640   2.475
 5036SOL    HW116007   1.883   0.684   2.554
 5036SOL    HW216008   1.787   0.707   2.424
 5037SOL     OW16009   4.793   2.578   3.366
 5037SOL    HW116010   4.697   2.602   3.347
 5037SOL    HW216011   4.821   2.505   3.305
 5038SOL     OW16012   2.613   6.555   5.893
 5038SOL    HW116013   2.594   6.640   5.941
 5038SOL    HW216014   2.571   6.558   5.802
 5039SOL     OW16015   1.885   1.484   3.621
 5039SOL    HW116016   1.844   1.481   3.530
 5039SOL    HW216017   1.969   1.430   3.621
 5040SOL     OW16018   2.898   3.249   6.520
 5040SOL    HW116019   2.946   3.208   6.598
 5040SOL    HW216020   2.930   3.206   6.435
 5041SOL     OW16021   1.323   5.410   1.017
 5041SOL    HW116022   1.387   5.334   1.033
 5041SOL    HW216023   1.265   5.389   0.939
 5042SOL     OW16024   5.999   1.954   5.893
 5042SOL    HW116025   5.909   1.969   5.935
 5042SOL    HW216026   6.070   1.984   5.956
 5043SOL     OW16027   4.420   6.864   3.062
 5043SOL    HW116028   4.378   6.801   3.128
 5043SOL    HW216029   4.417   6.957   3.099
 5044SOL     OW16030   6.162   4.434   3.180
 5044SOL    HW116031   6.154   4.340   3.210
 5044SOL    HW216032   6.109   4.447   3.096
 5045SOL     OW16033   6.104   2.965   6.330
 5045SOL    HW116034   6.034   2.893   6.329
 5045SOL    HW216035   6.192   2.925   6.358
 5046SOL     OW16036   3.380   3.252   5.184
 5046SOL    HW116037   3.343   3.320   5.120
 5046SOL    HW216038   3.480   3.252   5.178
 5047SOL     OW16039   1.335   0.899   2.668
 5047SOL    HW116040   1.433   0.913   2.657
 5047SOL    HW216041   1.286   0.955   2.601
 5048SOL     OW16042   5.558   3.170   1.454
 5048SOL    HW116043   5.511   3.154   1.541
 5048SOL    HW216044   5.549   3.266   1.428
 5049SOL     OW16045   1.306   2.595   2.453
 5049SOL    HW116046   1.316   2.693   2.437
 5049SOL    HW216047   1.209   2.573   2.462
 5050SOL     OW16048   0.779   3.488   0.836
 5050SOL    HW116049   0.759   3.412   0.898
 5050SOL    HW216050   0.865   3.470   0.788
 5051SOL     OW16051   2.956   4.329   0.370
 5051SOL    HW116052   2.858   4.332   0.354
 5051SOL    HW216053   3.000   4.277   0.296
 5052SOL     OW16054   5.709   3.688   0.948
 5052SOL    HW116055   5.686   3.783   0.927
 5052SOL    HW216056   5.767   3.651   0.875
 5053SOL     OW16057   2.124   4.895   0.248
 5053SOL    HW116058   2.189   4.824   0.222
 5053SOL    HW216059   2.048   4.854   0.298
 5054SOL     OW16060   3.811   6.129   5.182
 5054SOL    HW116061   3.754   6.080   5.116
 5054SOL    HW216062   3.879   6.067   5.220
 5055SOL     OW16063   1.884   2.049   4.023
 5055SOL    HW116064   1.806   1.996   3.989
 5055SOL    HW216065   1.950   2.063   3.949
 5056SOL     OW16066   1.808   2.357   5.129
 5056SOL    HW116067   1.849   2.266   5.136
 5056SOL    HW216068   1.732   2.365   5.194
 5057SOL     OW16069   0.857   4.978   3.121
 5057SOL    HW116070   0.834   4.881   3.118
 5057SOL    HW216071   0.791   5.025   3.180
 5058SOL     OW16072   3.738   3.844   6.911
 5058SOL    HW116073   3.659   3.793   6.944
 5058SOL    HW216074   3.799   3.863   6.988
 5059SOL     OW16075   4.138   1.509   3.363
 5059SOL    HW116076   4.171   1.570   3.436
 5059SOL    HW216077   4.060   1.551   3.317
 5060SOL     OW16078   0.128   3.517   5.545
 5060SOL    HW116079   0.176   3.513   5.457
 5060SOL    HW216080   0.192   3.493   5.618
 5061SOL     OW16081   3.880   2.345   5.398
 5061SOL    HW116082   3.901   2.442   5.411
 5061SOL    HW216083   3.784   2.334   5.373
 5062SOL     OW16084   5.368   0.672   3.614
 5062SOL    HW116085   5.380   0.596   3.677
 5062SOL    HW216086   5.456   0.696   3.574
 5063SOL     OW16087   0.959   0.958   2.114
 5063SOL    HW116088   0.976   1.053   2.085
 5063SOL    HW216089   0.861   0.941   2.115
 5064SOL     OW16090   5.171   5.869   0.838
 5064SOL    HW116091   5.095   5.831   0.784
 5064SOL    HW216092   5.163   5.969   0.842
 5065SOL     OW16093   2.341   0.997   2.752
 5065SOL    HW116094   2.274   1.050   2.803
 5065SOL    HW216095   2.420   0.977   2.810
 5066SOL     OW16096   2.407   4.953   2.487
 5066SOL    HW116097   2.506   4.954   2.505
 5066SOL    HW216098   2.377   5.046   2.464
 5067SOL     OW16099   5.435   2.716   0.539
 5067SOL    HW116100   5.463   2.635   0.489
 5067SOL    HW216101   5.512   2.751   0.592
 5068SOL     OW16102   2.931   5.785   0.731
 5068SOL    HW116103   3.020   5.797   0.686
 5068SOL    HW216104   2.917   5.688   0.750
 5069SOL     OW16105   3.507   4.953   5.161
 5069SOL    HW116106   3.452   4.960   5.077
 5069SOL    HW216107   3.478   4.873   5.213
 5070SOL     OW16108   5.726   3.731   4.913
 5070SOL    HW116109   5.656   3.696   4.850
 5070SOL    HW216110   5.769   3.812   4.873
 5071SOL     OW16111   2.638   0.145   4.200
 5071SOL    HW116112   2.712   0.157   4.133
 5071SOL    HW216113   2.667   0.182   4.288
 5072SOL     OW16114   0.585   1.228   0.115
 5072SOL    HW116115   0.650   1.180   0.057
 5072SOL    HW216116   0.493   1.195   0.096
 5073SOL     OW16117   2.473   0.800   2.442
 5073SOL    HW116118   2.491   0.705   2.418
 5073SOL    HW216119   2.417   0.802   2.526
 5074SOL     OW16120   3.456   2.146   1.813
 5074SOL    HW116121   3.544   2.176   1.851
 5074SOL    HW216122   3.409   2.088   1.880
 5075SOL     OW16123   1.035   3.456   0.207
 5075SOL    HW116124   1.122   3.439   0.253
 5075SOL    HW216125   0.988   3.532   0.251
 5076SOL     OW16126   5.905   7.019   6.384
 5076SOL    HW116127   5.819   6.992   6.343
 5076SOL    HW216128   5.936   6.949   6.449
 5077SOL     OW16129   0.591   4.684   3.777
 5077SOL    HW116130   0.611   4.587   3.767
 5077SOL    HW216131   0.577   4.705   3.873
 5078SOL     OW16132   0.505   2.077   4.316
 5078SOL    HW116133   0.465   2.010   4.254
 5078SOL    HW216134   0.437   2.105   4.384
 5079SOL     OW16135   1.902   2.886   5.736
 5079SOL    HW116136   1.836   2.947   5.780
 5079SOL    HW216137   1.944   2.933   5.658
 5080SOL     OW16138   5.612   5.802   0.068
 5080SOL    HW116139   5.669   5.720   0.073
 5080SOL    HW216140   5.668   5.883   0.085
 5081SOL     OW16141   2.913   5.757   5.588
 5081SOL    HW116142   2.826   5.800   5.562
 5081SOL    HW216143   2.985   5.827   5.592
 5082SOL     OW16144   5.990   5.966   1.707
 5082SOL    HW116145   6.077   5.952   1.659
 5082SOL    HW216146   5.916   5.923   1.655
 5083SOL     OW16147   1.699   0.220   3.158
 5083SOL    HW116148   1.670   0.192   3.066
 5083SOL    HW216149   1.637   0.181   3.226
 5084SOL     OW16150   2.294   4.892   5.426
 5084SOL    HW116151   2.301   4.815   5.363
 5084SOL    HW216152   2.305   4.859   5.520
 5085SOL     OW16153   0.640   4.573   5.389
 5085SOL    HW116154   0.703   4.553   5.314
 5085SOL    HW216155   0.604   4.666   5.378
 5086SOL     OW16156   1.694   5.261   1.979
 5086SOL    HW116157   1.644   5.333   2.028
 5086SOL    HW216158   1.716   5.293   1.887
 5087SOL     OW16159   6.440   4.460   2.180
 5087SOL    HW116160   6.358   4.517   2.174
 5087SOL    HW216161   6.414   4.365   2.192
 5088SOL     OW16162   5.369   6.310   2.110
 5088SOL    HW116163   5.342   6.232   2.052
 5088SOL    HW216164   5.333   6.296   2.202
 5089SOL     OW16165   5.229   5.452   5.714
 5089SOL    HW116166   5.290   5.373   5.714
 5089SOL    HW216167   5.138   5.424   5.745
 5090SOL     OW16168   2.991   0.027   5.040
 5090SOL    HW116169   2.926   6.978   5.014
 5090SOL    HW216170   2.965   0.065   5.129
 5091SOL     OW16171   6.341   6.831   6.424
 5091SOL    HW116172   6.344   6.742   6.470
 5091SOL    HW216173   6.372   6.902   6.486
 5092SOL     OW16174   2.927   3.422   4.422
 5092SOL    HW116175   3.000   3.484   4.393
 5092SOL    HW216176   2.911   3.433   4.520
 5093SOL     OW16177   2.490   1.723   2.843
 5093SOL    HW116178   2.534   1.801   2.799
 5093SOL    HW216179   2.438   1.753   2.923
 5094SOL     OW16180   2.035   5.521   5.457
 5094SOL    HW116181   2.086   5.490   5.376
 5094SOL    HW216182   2.086   5.593   5.504
 5095SOL     OW16183   6.476   1.576   2.881
 5095SOL    HW116184   6.521   1.520   2.811
 5095SOL    HW216185   6.402   1.525   2.924
 5096SOL     OW16186   5.656   2.773   5.580
 5096SOL    HW116187   5.672   2.758   5.482
 5096SOL    HW216188   5.601   2.698   5.616
 5097SOL     OW16189   1.185   0.448   5.765
 5097SOL    HW116190   1.111   0.515   5.774
 5097SOL    HW216191   1.146   0.356   5.755
 5098SOL     OW16192   3.351   3.433   1.125
 5098SOL    HW116193   3.274   3.385   1.083
 5098SOL    HW216194   3.398   3.488   1.056
 5099SOL     OW16195   1.551   0.028   2.341
 5099SOL    HW116196   1.460   7.008   2.339
 5099SOL    HW216197   1.621   6.979   2.334
 5100SOL     OW16198   5.289   3.924   2.223
 5100SOL    HW116199   5.380   3.917   2.265
 5100SOL    HW216200   5.227   3.858   2.265
 5101SOL     OW16201   3.642   0.652   6.308
 5101SOL    HW116202   3.577   0.682   6.378
 5101SOL    HW216203   3.606   0.571   6.262
 5102SOL     OW16204   4.765   4.490   4.456
 5102SOL    HW116205   4.759   4.410   4.397
 5102SOL    HW216206   4.700   4.481   4.532
 5103SOL     OW16207   0.498   1.037   6.054
 5103SOL    HW116208   0.502   1.105   6.127
 5103SOL    HW216209   0.426   1.062   5.989
 5104SOL     OW16210   3.643   3.627   1.886
 5104SOL    HW116211   3.593   3.544   1.865
 5104SOL    HW216212   3.636   3.691   1.809
 5105SOL     OW16213   4.403   3.357   6.318
 5105SOL    HW116214   4.389   3.351   6.417
 5105SOL    HW216215   4.340   3.295   6.272
 5106SOL     OW16216   4.498   2.513   0.769
 5106SOL    HW116217   4.422   2.563   0.728
 5106SOL    HW216218   4.521   2.435   0.712
 5107SOL     OW16219   4.843   3.711   0.057
 5107SOL    HW116220   4.894   3.675   0.134
 5107SOL    HW216221   4.904   3.720   7.000
 5108SOL     OW16222   4.144   4.637   0.337
 5108SOL    HW116223   4.108   4.628   0.430
 5108SOL    HW216224   4.097   4.711   0.290
 5109SOL     OW16225   1.058   2.929   1.029
 5109SOL    HW116226   1.152   2.920   1.062
 5109SOL    HW216227   1.057   2.984   0.946
 5110SOL     OW16228   4.887   0.266   5.747
 5110SOL    HW116229   4.898   0.259   5.648
 5110SOL    HW216230   4.964   0.318   5.785
 5111SOL     OW16231   0.325   6.612   4.725
 5111SOL    HW116232   0.242   6.626   4.671
 5111SOL    HW216233   0.302   6.605   4.822
 5112SOL     OW16234   6.809   6.783   3.472
 5112SOL    HW116235   6.766   6.768   3.561
 5112SOL    HW216236   6.876   6.857   3.480
 5113SOL     OW16237   1.867   3.814   6.736
 5113SOL    HW116238   1.806   3.873   6.788
 5113SOL    HW216239   1.903   3.742   6.795
 5114SOL     OW16240   4.816   5.099   1.157
 5114SOL    HW116241   4.812   5.000   1.142
 5114SOL    HW216242   4.821   5.118   1.255
 5115SOL     OW16243   1.763   3.929   1.041
 5115SOL    HW116244   1.849   3.892   1.006
 5115SOL    HW216245   1.755   4.025   1.016
 5116SOL     OW16246   1.323   1.065   6.321
 5116SOL    HW116247   1.236   1.060   6.273
 5116SOL    HW216248   1.371   1.149   6.296
 5117SOL     OW16249   1.342   2.427   3.789
 5117SOL    HW116250   1.303   2.436   3.697
 5117SOL    HW216251   1.437   2.397   3.781
 5118SOL     OW16252   4.742   5.695   6.153
 5118SOL    HW116253   4.791   5.642   6.085
 5118SOL    HW216254   4.645   5.699   6.129
 5119SOL     OW16255   5.331   1.060   0.305
 5119SOL    HW116256   5.252   1.012   0.268
 5119SOL    HW216257   5.307   1.155   0.325
 5120SOL     OW16258   5.531   6.254   6.510
 5120SOL    HW116259   5.522   6.352   6.495
 5120SOL    HW216260   5.439   6.213   6.512
 5121SOL     OW16261   1.341   3.386   6.251
 5121SOL    HW116262   1.371   3.373   6.156
 5121SOL    HW216263   1.412   3.434   6.302
 5122SOL     OW16264   5.334   5.239   4.551
 5122SOL    HW116265   5.321   5.143   4.574
 5122SOL    HW216266   5.429   5.255   4.524
 5123SOL     OW16267   4.907   3.286   1.355
 5123SOL    HW116268   4.823   3.255   1.399
 5123SOL    HW216269   4.977   3.301   1.425
 5124SOL     OW16270   2.226   6.112   5.116
 5124SOL    HW116271   2.157   6.042   5.130
 5124SOL    HW216272   2.187   6.202   5.135
 5125SOL     OW16273   6.952   2.066   3.887
 5125SOL    HW116274   6.946   1.969   3.912
 5125SOL    HW216275   6.965   2.120   3.970
 5126SOL     OW16276   2.008   0.364   0.702
 5126SOL    HW116277   2.067   0.307   0.644
 5126SOL    HW216278   2.063   0.407   0.774
 5127SOL     OW16279   2.286   5.369   6.875
 5127SOL    HW116280   2.325   5.459   6.894
 5127SOL    HW216281   2.354   5.312   6.829
 5128SOL     OW16282   6.385   0.040   2.079
 5128SOL    HW116283   6.426   6.972   2.064
 5128SOL    HW216284   6.310   0.054   2.014
 5129SOL     OW16285   5.677   7.001   0.980
 5129SOL    HW116286   5.659   0.077   0.994
 5129SOL    HW216287   5.616   6.966   0.908
 5130SOL     OW16288   0.090   4.808   3.136
 5130SOL    HW116289   0.132   4.815   3.227
 5130SOL    HW216290   0.040   4.892   3.116
 5131SOL     OW16291   2.884   2.284   2.619
 5131SOL    HW116292   2.906   2.305   2.523
 5131SOL    HW216293   2.819   2.351   2.654
 5132SOL     OW16294   3.019   6.463   5.238
 5132SOL    HW116295   2.922   6.461   5.261
 5132SOL    HW216296   3.037   6.396   5.166
 5133SOL     OW16297   3.899   6.598   6.233
 5133SOL    HW116298   3.865   6.688   6.263
 5133SOL    HW216299   3.943   6.607   6.144
 5134SOL     OW16300   6.584   3.988   0.074
 5134SOL    HW116301   6.643   4.026   0.146
 5134SOL    HW216302   6.627   3.905   0.037
 5135SOL     OW16303   5.991   1.992   4.262
 5135SOL    HW116304   6.025   2.061   4.325
 5135SOL    HW216305   5.895   1.973   4.280
 5136SOL     OW16306   4.084   1.098   3.937
 5136SOL    HW116307   4.181   1.106   3.913
 5136SOL    HW216308   4.034   1.058   3.859
 5137SOL     OW16309   3.398   4.625   6.574
 5137SOL    HW116310   3.429   4.716   6.602
 5137SOL    HW216311   3.330   4.591   6.639
 5138SOL     OW16312   2.644   3.338   6.222
 5138SOL    HW116313   2.643   3.375   6.129
 5138SOL    HW216314   2.574   3.384   6.277
 5139SOL     OW16315   0.562   0.290   3.110
 5139SOL    HW116316   0.641   0.244   3.070
 5139SOL    HW216317   0.566   0.387   3.089
 5140SOL     OW16318   3.742   2.807   1.875
 5140SOL    HW116319   3.753   2.717   1.834
 5140SOL    HW216320   3.647   2.821   1.902
 5141SOL     OW16321   6.530   3.408   6.706
 5141SOL    HW116322   6.530   3.432   6.609
 5141SOL    HW216323   6.443   3.433   6.748
 5142SOL     OW16324   5.591   3.292   4.138
 5142SOL    HW116325   5.585   3.203   4.184
 5142SOL    HW216326   5.510   3.305   4.081
 5143SOL     OW16327   6.837   4.790   4.626
 5143SOL    HW116328   6.858   4.776   4.723
 5143SOL    HW216329   6.865   4.710   4.573
 5144SOL     OW16330   1.679   1.398   5.171
 5144SOL    HW116331   1.732   1.338   5.111
 5144SOL    HW216332   1.583   1.395   5.144
 5145SOL     OW16333   3.213   5.888   5.778
 5145SOL    HW116334   3.196   5.985   5.792
 5145SOL    HW216335   3.249   5.873   5.686
 5146SOL     OW16336   2.839   4.380   0.036
 5146SOL    HW116337   2.865   4.389   6.962
 5146SOL    HW216338   2.748   4.418   0.050
 5147SOL     OW16339   5.912   4.812   6.616
 5147SOL    HW116340   5.928   4.713   6.614
 5147SOL    HW216341   5.830   4.832   6.670
 5148SOL     OW16342   0.355   6.327   1.707
 5148SOL    HW116343   0.343   6.421   1.739
 5148SOL    HW216344   0.269   6.293   1.671
 5149SOL     OW16345   6.358   1.240   4.803
 5149SOL    HW116346   6.393   1.172   4.867
 5149SOL    HW216347   6.391   1.219   4.711
 5150SOL     OW16348   1.617   5.266   4.378
 5150SOL    HW116349   1.642   5.232   4.469
 5150SOL    HW216350   1.523   5.239   4.357
 5151SOL     OW16351   4.312   0.896   6.625
 5151SOL    HW116352   4.342   0.979   6.578
 5151SOL    HW216353   4.346   0.816   6.575
 5152SOL     OW16354   0.644   5.131   0.195
 5152SOL    HW116355   0.631   5.169   0.104
 5152SOL    HW216356   0.690   5.198   0.253
 5153SOL     OW16357   1.889   1.405   0.944
 5153SOL    HW116358   1.807   1.453   0.914
 5153SOL    HW216359   1.970   1.458   0.917
 5154SOL     OW16360   2.174   3.351   4.645
 5154SOL    HW116361   2.128   3.275   4.598
 5154SOL    HW216362   2.272   3.333   4.648
 5155SOL     OW16363   2.919   1.236   2.353
 5155SOL    HW116364   2.831   1.219   2.309
 5155SOL    HW216365   2.993   1.215   2.289
 5156SOL     OW16366   5.838   2.996   5.603
 5156SOL    HW116367   5.808   3.040   5.688
 5156SOL    HW216368   5.775   2.922   5.580
 5157SOL     OW16369   5.973   3.084   3.487
 5157SOL    HW116370   5.991   3.040   3.398
 5157SOL    HW216371   5.909   3.027   3.539
 5158SOL     OW16372   4.224   1.476   1.289
 5158SOL    HW116373   4.206   1.573   1.272
 5158SOL    HW216374   4.296   1.444   1.228
 5159SOL     OW16375   0.972   2.742   4.419
 5159SOL    HW116376   1.046   2.730   4.352
 5159SOL    HW216377   0.974   2.835   4.454
 5160SOL     OW16378   2.119   3.045   4.372
 5160SOL    HW116379   2.075   3.112   4.432
 5160SOL    HW216380   2.151   2.968   4.427
 5161SOL     OW16381   1.251   2.987   6.901
 5161SOL    HW116382   1.271   3.077   6.940
 5161SOL    HW216383   1.226   2.998   6.805
 5162SOL     OW16384   6.051   6.495   4.933
 5162SOL    HW116385   5.975   6.560   4.921
 5162SOL    HW216386   6.112   6.502   4.855
 5163SOL     OW16387   5.512   3.467   0.947
 5163SOL    HW116388   5.482   3.416   1.028
 5163SOL    HW216389   5.583   3.533   0.973
 5164SOL     OW16390   5.879   4.781   6.098
 5164SOL    HW116391   5.832   4.790   6.186
 5164SOL    HW216392   5.964   4.730   6.109
 5165SOL     OW16393   6.520   4.501   4.479
 5165SOL    HW116394   6.505   4.537   4.571
 5165SOL    HW216395   6.437   4.452   4.449
 5166SOL     OW16396   1.031   0.079   1.755
 5166SOL    HW116397   1.061   0.164   1.798
 5166SOL    HW216398   0.990   0.019   1.825
 5167SOL     OW16399   0.693   6.318   5.658
 5167SOL    HW116400   0.779   6.293   5.612
 5167SOL    HW216401   0.711   6.391   5.724
 5168SOL     OW16402   4.241   2.042   2.916
 5168SOL    HW116403   4.143   2.058   2.926
 5168SOL    HW216404   4.292   2.125   2.938
 5169SOL     OW16405   3.721   4.543   6.263
 5169SOL    HW116406   3.679   4.567   6.175
 5169SOL    HW216407   3.703   4.447   6.283
 5170SOL     OW16408   5.074   4.044   4.356
 5170SOL    HW116409   5.129   4.112   4.306
 5170SOL    HW216410   5.067   4.071   4.452
 5171SOL     OW16411   2.500   4.616   4.593
 5171SOL    HW116412   2.490   4.535   4.536
 5171SOL    HW216413   2.471   4.595   4.686
 5172SOL     OW16414   2.042   5.373   0.964
 5172SOL    HW116415   2.010   5.460   0.925
 5172SOL    HW216416   1.990   5.298   0.923
 5173SOL     OW16417   5.959   3.815   5.849
 5173SOL    HW116418   6.029   3.857   5.907
 5173SOL    HW216419   5.884   3.783   5.907
 5174SOL     OW16420   1.337   4.535   5.765
 5174SOL    HW116421   1.237   4.528   5.773
 5174SOL    HW216422   1.361   4.624   5.727
 5175SOL     OW16423   0.475   4.828   6.582
 5175SOL    HW116424   0.382   4.803   6.608
 5175SOL    HW216425   0.479   4.924   6.557
 5176SOL     OW16426   5.238   3.509   0.573
 5176SOL    HW116427   5.139   3.518   0.578
 5176SOL    HW216428   5.271   3.458   0.652
 5177SOL     OW16429   5.528   6.836   6.790
 5177SOL    HW116430   5.627   6.851   6.792
 5177SOL    HW216431   5.482   6.910   6.839
 5178SOL     OW16432   2.349   2.147   1.416
 5178SOL    HW116433   2.428   2.202   1.443
 5178SOL    HW216434   2.265   2.199   1.433
 5179SOL     OW16435   2.658   5.872   5.768
 5179SOL    HW116436   2.576   5.925   5.746
 5179SOL    HW216437   2.665   5.794   5.706
 5180SOL     OW16438   3.177   2.412   1.246
 5180SOL    HW116439   3.239   2.478   1.203
 5180SOL    HW216440   3.192   2.412   1.345
 5181SOL     OW16441   3.410   5.272   2.509
 5181SOL    HW116442   3.384   5.369   2.511
 5181SOL    HW216443   3.332   5.216   2.539
 5182SOL     OW16444   5.181   4.323   1.903
 5182SOL    HW116445   5.223   4.246   1.951
 5182SOL    HW216446   5.240   4.351   1.827
 5183SOL     OW16447   4.557   0.444   2.768
 5183SOL    HW116448   4.608   0.441   2.854
 5183SOL    HW216449   4.537   0.539   2.745
 5184SOL     OW16450   1.029   1.579   3.023
 5184SOL    HW116451   1.025   1.517   3.102
 5184SOL    HW216452   0.937   1.612   3.002
 5185SOL     OW16453   4.053   0.267   2.209
 5185SOL    HW116454   4.150   0.241   2.206
 5185SOL    HW216455   4.024   0.297   2.118
 5186SOL     OW16456   5.986   4.501   0.645
 5186SOL    HW116457   5.886   4.507   0.640
 5186SOL    HW216458   6.025   4.508   0.553
 5187SOL     OW16459   5.183   1.576   3.867
 5187SOL    HW116460   5.146   1.611   3.781
 5187SOL    HW216461   5.193   1.476   3.861
 5188SOL     OW16462   0.957   3.593   5.098
 5188SOL    HW116463   0.880   3.621   5.041
 5188SOL    HW216464   0.981   3.667   5.161
 5189SOL     OW16465   4.697   5.314   6.526
 5189SOL    HW116466   4.749   5.353   6.451
 5189SOL    HW216467   4.599   5.333   6.513
 5190SOL     OW16468   1.461   2.369   3.462
 5190SOL    HW116469   1.512   2.455   3.456
 5190SOL    HW216470   1.429   2.343   3.371
 5191SOL     OW16471   3.894   0.527   1.740
 5191SOL    HW116472   3.920   0.617   1.706
 5191SOL    HW216473   3.812   0.535   1.797
 5192SOL     OW16474   6.294   4.567   2.648
 5192SOL    HW116475   6.290   4.493   2.715
 5192SOL    HW216476   6.270   4.531   2.558
 5193SOL     OW16477   5.170   3.749   3.150
 5193SOL    HW116478   5.236   3.746   3.075
 5193SOL    HW216479   5.154   3.657   3.184
 5194SOL     OW16480   5.948   1.034   5.900
 5194SOL    HW116481   6.015   1.084   5.845
 5194SOL    HW216482   5.860   1.034   5.853
 5195SOL     OW16483   6.033   6.733   5.789
 5195SOL    HW116484   6.070   6.810   5.840
 5195SOL    HW216485   5.963   6.687   5.843
 5196SOL     OW16486   0.804   3.342   1.703
 5196SOL    HW116487   0.730   3.368   1.764
 5196SOL    HW216488   0.785   3.252   1.664
 5197SOL     OW16489   3.192   6.379   4.804
 5197SOL    HW116490   3.210   6.294   4.755
 5197SOL    HW216491   3.238   6.455   4.757
 5198SOL     OW16492   4.194   6.944   5.640
 5198SOL    HW116493   4.098   6.941   5.669
 5198SOL    HW216494   4.208   6.881   5.563
 5199SOL     OW16495   1.104   5.173   1.399
 5199SOL    HW116496   1.185   5.116   1.382
 5199SOL    HW216497   1.121   5.232   1.478
 5200SOL     OW16498   6.540   0.769   5.106
 5200SOL    HW116499   6.622   0.826   5.100
 5200SOL    HW216500   6.537   0.723   5.194
 5201SOL     OW16501   6.547   5.180   4.826
 5201SOL    HW116502   6.507   5.117   4.760
 5201SOL    HW216503   6.501   5.269   4.820
 5202SOL     OW16504   3.867   2.968   5.751
 5202SOL    HW116505   3.809   2.970   5.670
 5202SOL    HW216506   3.952   3.018   5.733
 5203SOL     OW16507   1.790   0.747   6.769
 5203SOL    HW116508   1.700   0.786   6.754
 5203SOL    HW216509   1.824   0.773   6.859
 5204SOL     OW16510   2.718   0.082   0.959
 5204SOL    HW116511   2.773   0.065   0.877
 5204SOL    HW216512   2.735   0.010   1.026
 5205SOL     OW16513   0.238   6.105   1.095
 5205SOL    HW116514   0.295   6.051   1.157
 5205SOL    HW216515   0.142   6.092   1.120
 5206SOL     OW16516   1.128   4.814   3.915
 5206SOL    HW116517   1.083   4.725   3.906
 5206SOL    HW216518   1.082   4.868   3.985
 5207SOL     OW16519   6.656   0.235   3.750
 5207SOL    HW116520   6.726   0.270   3.687
 5207SOL    HW216521   6.661   0.135   3.753
 5208SOL     OW16522   5.689   2.051   0.566
 5208SOL    HW116523   5.623   2.105   0.514
 5208SOL    HW216524   5.745   2.112   0.623
 5209SOL     OW16525   5.881   5.705   3.147
 5209SOL    HW116526   5.948   5.667   3.211
 5209SOL    HW216527   5.792   5.712   3.193
 5210SOL     OW16528   5.240   3.884   0.518
 5210SOL    HW116529   5.230   3.882   0.419
 5210SOL    HW216530   5.335   3.859   0.542
 5211SOL     OW16531   5.364   2.529   4.942
 5211SOL    HW116532   5.300   2.480   4.883
 5211SOL    HW216533   5.444   2.556   4.888
 5212SOL     OW16534   0.896   3.673   0.292
 5212SOL    HW116535   0.966   3.715   0.349
 5212SOL    HW216536   0.876   3.732   0.214
 5213SOL     OW16537   3.662   3.769   2.977
 5213SOL    HW116538   3.740   3.795   2.920
 5213SOL    HW216539   3.684   3.783   3.074
 5214SOL     OW16540   5.638   3.665   5.319
 5214SOL    HW116541   5.595   3.717   5.245
 5214SOL    HW216542   5.609   3.570   5.314
 5215SOL     OW16543   0.609   3.817   5.101
 5215SOL    HW116544   0.688   3.816   5.163
 5215SOL    HW216545   0.548   3.741   5.125
 5216SOL     OW16546   5.415   5.046   1.294
 5216SOL    HW116547   5.437   5.004   1.206
 5216SOL    HW216548   5.317   5.039   1.311
 5217SOL     OW16549   4.615   5.887   3.335
 5217SOL    HW116550   4.714   5.875   3.335
 5217SOL    HW216551   4.570   5.801   3.358
 5218SOL     OW16552   6.847   0.197   0.860
 5218SOL    HW116553   6.782   0.124   0.840
 5218SOL    HW216554   6.817   0.248   0.941
 5219SOL     OW16555   3.217   1.332   5.035
 5219SOL    HW116556   3.309   1.365   5.018
 5219SOL    HW216557   3.152   1.407   5.022
 5220SOL     OW16558   2.535   4.879   3.941
 5220SOL    HW116559   2.437   4.886   3.923
 5220SOL    HW216560   2.561   4.783   3.948
 5221SOL     OW16561   6.551   5.558   1.317
 5221SOL    HW116562   6.478   5.571   1.384
 5221SOL    HW216563   6.581   5.646   1.282
 5222SOL     OW16564   6.273   3.880   1.186
 5222SOL    HW116565   6.206   3.954   1.175
 5222SOL    HW216566   6.351   3.914   1.239
 5223SOL     OW16567   6.959   3.118   0.381
 5223SOL    HW116568   6.892   3.043   0.376
 5223SOL    HW216569   6.959   3.158   0.472
 5224SOL     OW16570   6.769   2.238   4.969
 5224SOL    HW116571   6.807   2.158   4.923
 5224SOL    HW216572   6.836   2.312   4.968
 5225SOL     OW16573   0.132   1.601   4.287
 5225SOL    HW116574   0.192   1.532   4.329
 5225SOL    HW216575   0.096   1.564   4.201
 5226SOL     OW16576   0.729   6.595   3.777
 5226SOL    HW116577   0.730   6.683   3.729
 5226SOL    HW216578   0.822   6.560   3.785
 5227SOL     OW16579   0.638   3.047   5.670
 5227SOL    HW116580   0.713   3.025   5.609
 5227SOL    HW216581   0.670   3.111   5.741
 5228SOL     OW16582   1.051   1.494   5.496
 5228SOL    HW116583   1.137   1.529   5.459
 5228SOL    HW216584   0.990   1.468   5.421
 5229SOL     OW16585   3.557   1.833   6.197
 5229SOL    HW116586   3.522   1.744   6.168
 5229SOL    HW216587   3.648   1.822   6.237
 5230SOL     OW16588   6.975   6.969   1.937
 5230SOL    HW116589   0.050   6.951   1.917
 5230SOL    HW216590   6.923   6.885   1.923
 5231SOL     OW16591   6.783   3.012   1.936
 5231SOL    HW116592   6.714   2.940   1.946
 5231SOL    HW216593   6.752   3.079   1.868
 5232SOL     OW16594   1.749   3.002   5.913
 5232SOL    HW116595   1.679   2.955   5.967
 5232SOL    HW216596   1.791   3.075   5.967
 5233SOL     OW16597   3.365   6.942   2.699
 5233SOL    HW116598   3.379   6.845   2.676
 5233SOL    HW216599   3.280   6.951   2.751
 5234SOL     OW16600   2.592   2.282   0.040
 5234SOL    HW116601   2.622   2.195   0.079
 5234SOL    HW216602   2.619   2.357   0.101
 5235SOL     OW16603   1.953   2.296   1.581
 5235SOL    HW116604   1.940   2.213   1.527
 5235SOL    HW216605   1.913   2.374   1.533
 5236SOL     OW16606   3.210   5.196   1.350
 5236SOL    HW116607   3.272   5.159   1.419
 5236SOL    HW216608   3.243   5.173   1.258
 5237SOL     OW16609   2.216   1.945   2.713
 5237SOL    HW116610   2.259   1.914   2.798
 5237SOL    HW216611   2.155   2.022   2.733
 5238SOL     OW16612   0.807   6.543   2.747
 5238SOL    HW116613   0.888   6.598   2.769
 5238SOL    HW216614   0.735   6.603   2.711
 5239SOL     OW16615   2.647   3.794   0.523
 5239SOL    HW116616   2.728   3.831   0.568
 5239SOL    HW216617   2.673   3.713   0.470
 5240SOL     OW16618   2.408   4.095   5.860
 5240SOL    HW116619   2.487   4.108   5.919
 5240SOL    HW216620   2.429   4.128   5.768
 5241SOL     OW16621   0.621   6.088   2.443
 5241SOL    HW116622   0.634   6.186   2.428
 5241SOL    HW216623   0.710   6.045   2.459
 5242SOL     OW16624   4.267   0.839   0.143
 5242SOL    HW116625   4.310   0.797   0.223
 5242SOL    HW216626   4.336   0.887   0.089
 5243SOL     OW16627   2.479   5.925   1.824
 5243SOL    HW116628   2.577   5.929   1.800
 5243SOL    HW216629   2.425   5.924   1.740
 5244SOL     OW16630   4.820   1.812   0.263
 5244SOL    HW116631   4.732   1.779   0.229
 5244SOL    HW216632   4.894   1.770   0.210
 5245SOL     OW16633   3.120   3.824   1.866
 5245SOL    HW116634   3.104   3.831   1.768
 5245SOL    HW216635   3.199   3.765   1.883
 5246SOL     OW16636   6.449   4.327   6.437
 5246SOL    HW116637   6.424   4.300   6.344
 5246SOL    HW216638   6.525   4.271   6.469
 5247SOL     OW16639   4.138   2.171   6.616
 5247SOL    HW116640   4.049   2.139   6.583
 5247SOL    HW216641   4.125   2.250   6.676
 5248SOL     OW16642   5.576   0.777   3.484
 5248SOL    HW116643   5.639   0.725   3.427
 5248SOL    HW216644   5.614   0.868   3.502
 5249SOL     OW16645   0.796   4.465   0.257
 5249SOL    HW116646   0.712   4.446   0.206
 5249SOL    HW216647   0.846   4.539   0.213
 5250SOL     OW16648   1.812   6.037   0.928
 5250SOL    HW116649   1.888   6.096   0.902
 5250SOL    HW216650   1.726   6.089   0.924
 5251SOL     OW16651   0.678   4.987   0.447
 5251SOL    HW116652   0.611   4.930   0.494
 5251SOL    HW216653   0.669   4.972   0.348
 5252SOL     OW16654   3.289   6.215   2.236
 5252SOL    HW116655   3.249   6.127   2.213
 5252SOL    HW216656   3.389   6.209   2.231
 5253SOL     OW16657   6.777   5.678   4.844
 5253SOL    HW116658   6.760   5.658   4.748
 5253SOL    HW216659   6.836   5.607   4.883
 5254SOL     OW16660   4.983   6.311   3.583
 5254SOL    HW116661   4.924   6.258   3.522
 5254SOL    HW216662   4.926   6.358   3.651
 5255SOL     OW16663   6.633   1.842   5.325
 5255SOL    HW116664   6.666   1.793   5.244
 5255SOL    HW216665   6.653   1.940   5.315
 5256SOL     OW16666   6.953   1.771   2.040
 5256SOL    HW116667   6.928   1.864   2.068
 5256SOL    HW216668   7.001   1.775   1.952
 5257SOL     OW16669   4.210   1.382   6.530
 5257SOL    HW116670   4.227   1.351   6.437
 5257SOL    HW216671   4.117   1.419   6.537
 5258SOL     OW16672   4.447   1.357   3.621
 5258SOL    HW116673   4.514   1.300   3.668
 5258SOL    HW216674   4.454   1.343   3.522
 5259SOL     OW16675   6.300   4.992   3.703
 5259SOL    HW116676   6.214   4.973   3.657
 5259SOL    HW216677   6.375   4.987   3.637
 5260SOL     OW16678   2.184   0.729   0.717
 5260SOL    HW116679   2.086   0.710   0.729
 5260SOL    HW216680   2.197   0.783   0.634
 5261SOL     OW16681   5.597   4.421   6.505
 5261SOL    HW116682   5.566   4.422   6.600
 5261SOL    HW216683   5.525   4.457   6.446
 5262SOL     OW16684   1.748   1.106   2.737
 5262SOL    HW116685   1.818   1.039   2.759
 5262SOL    HW216686   1.790   1.196   2.723
 5263SOL     OW16687   1.433   6.539   2.476
 5263SOL    HW116688   1.519   6.493   2.451
 5263SOL    HW216689   1.449   6.637   2.482
 5264SOL     OW16690   6.332   1.534   1.906
 5264SOL    HW116691   6.325   1.513   1.808
 5264SOL    HW216692   6.279   1.616   1.926
 5265SOL     OW16693   6.584   4.789   5.175
 5265SOL    HW116694   6.530   4.862   5.132
 5265SOL    HW216695   6.627   4.824   5.258
 5266SOL     OW16696   1.811   0.564   6.565
 5266SOL    HW116697   1.818   0.620   6.482
 5266SOL    HW216698   1.763   0.616   6.636
 5267SOL     OW16699   5.468   2.516   4.426
 5267SOL    HW116700   5.476   2.565   4.340
 5267SOL    HW216701   5.421   2.574   4.493
 5268SOL     OW16702   5.029   0.112   6.050
 5268SOL    HW116703   5.094   0.161   5.991
 5268SOL    HW216704   5.072   0.028   6.084
 5269SOL     OW16705   0.267   7.000   3.511
 5269SOL    HW116706   0.281   0.011   3.418
 5269SOL    HW216707   0.281   0.053   3.575
 5270SOL     OW16708   0.346   1.295   6.404
 5270SOL    HW116709   0.279   1.228   6.437
 5270SOL    HW216710   0.384   1.265   6.317
 5271SOL     OW16711   0.401   4.793   2.819
 5271SOL    HW116712   0.304   4.814   2.813
 5271SOL    HW216713   0.453   4.854   2.760
 5272SOL     OW16714   4.450   0.606   0.148
 5272SOL    HW116715   4.405   0.565   0.228
 5272SOL    HW216716   4.384   0.612   0.073
 5273SOL     OW16717   2.446   2.168   2.562
 5273SOL    HW116718   2.372   2.103   2.582
 5273SOL    HW216719   2.413   2.238   2.499
 5274SOL     OW16720   5.128   4.960   1.028
 5274SOL    HW116721   5.118   4.966   1.127
 5274SOL    HW216722   5.042   4.929   0.987
 5275SOL     OW16723   4.449   1.864   6.865
 5275SOL    HW116724   4.481   1.769   6.869
 5275SOL    HW216725   4.365   1.868   6.810
 5276SOL     OW16726   4.305   6.571   1.557
 5276SOL    HW116727   4.326   6.628   1.637
 5276SOL    HW216728   4.211   6.588   1.528
 5277SOL     OW16729   2.436   2.875   1.700
 5277SOL    HW116730   2.342   2.872   1.734
 5277SOL    HW216731   2.481   2.787   1.719
 5278SOL     OW16732   4.695   3.592   1.566
 5278SOL    HW116733   4.639   3.560   1.490
 5278SOL    HW216734   4.646   3.662   1.617
 5279SOL     OW16735   1.982   5.556   2.712
 5279SOL    HW116736   2.045   5.485   2.681
 5279SOL    HW216737   1.991   5.637   2.654
 5280SOL     OW16738   4.520   0.248   5.120
 5280SOL    HW116739   4.586   0.259   5.046
 5280SOL    HW216740   4.430   0.224   5.082
 5281SOL     OW16741   0.449   2.765   2.222
 5281SOL    HW116742   0.422   2.672   2.247
 5281SOL    HW216743   0.399   2.793   2.140
 5282SOL     OW16744   5.281   1.546   2.190
 5282SOL    HW116745   5.283   1.639   2.153
 5282SOL    HW216746   5.204   1.496   2.150
 5283SOL     OW16747   5.496   5.423   6.422
 5283SOL    HW116748   5.455   5.332   6.429
 5283SOL    HW216749   5.476   5.475   6.505
 5284SOL     OW16750   5.324   2.900   3.614
 5284SOL    HW116751   5.350   2.803   3.616
 5284SOL    HW216752   5.319   2.935   3.707
 5285SOL     OW16753   3.666   6.012   2.411
 5285SOL    HW116754   3.680   6.020   2.510
 5285SOL    HW216755   3.749   5.976   2.368
 5286SOL     OW16756   2.407   5.159   2.197
 5286SOL    HW116757   2.392   5.128   2.291
 5286SOL    HW216758   2.504   5.150   2.174
 5287SOL     OW16759   0.694   2.112   1.734
 5287SOL    HW116760   0.737   2.075   1.816
 5287SOL    HW216761   0.754   2.098   1.655
 5288SOL     OW16762   4.688   1.406   0.558
 5288SOL    HW116763   4.682   1.504   0.576
 5288SOL    HW216764   4.607   1.376   0.508
 5289SOL     OW16765   2.282   5.965   0.888
 5289SOL    HW116766   2.243   6.057   0.878
 5289SOL    HW216767   2.321   5.955   0.979
 5290SOL     OW16768   4.625   5.925   0.818
 5290SOL    HW116769   4.672   5.917   0.905
 5290SOL    HW216770   4.557   5.999   0.823
 5291SOL     OW16771   2.093   4.831   6.705
 5291SOL    HW116772   2.075   4.753   6.646
 5291SOL    HW216773   2.119   4.798   6.796
 5292SOL     OW16774   5.121   2.166   6.281
 5292SOL    HW116775   5.054   2.110   6.329
 5292SOL    HW216776   5.168   2.225   6.346
 5293SOL     OW16777   1.063   1.239   4.384
 5293SOL    HW116778   0.987   1.289   4.342
 5293SOL    HW216779   1.029   1.190   4.464
 5294SOL     OW16780   5.035   2.122   5.225
 5294SOL    HW116781   5.128   2.102   5.255
 5294SOL    HW216782   4.970   2.102   5.299
 5295SOL     OW16783   5.924   1.024   1.580
 5295SOL    HW116784   5.970   1.092   1.637
 5295SOL    HW216785   5.992   0.972   1.528
 5296SOL     OW16786   0.693   3.522   0.406
 5296SOL    HW116787   0.755   3.587   0.363
 5296SOL    HW216788   0.717   3.429   0.376
 5297SOL     OW16789   1.791   3.105   1.622
 5297SOL    HW116790   1.876   3.127   1.670
 5297SOL    HW216791   1.714   3.148   1.668
 5298SOL     OW16792   1.202   5.626   1.487
 5298SOL    HW116793   1.263   5.557   1.447
 5298SOL    HW216794   1.139   5.659   1.417
 5299SOL     OW16795   3.147   0.316   1.521
 5299SOL    HW116796   3.176   0.384   1.454
 5299SOL    HW216797   3.189   0.228   1.499
 5300SOL     OW16798   6.849   5.438   3.570
 5300SOL    HW116799   6.822   5.477   3.482
 5300SOL    HW216800   6.767   5.421   3.625
 5301SOL     OW16801   4.655   0.332   0.436
 5301SOL    HW116802   4.694   0.411   0.388
 5301SOL    HW216803   4.724   0.291   0.495
 5302SOL     OW16804   6.691   4.437   3.210
 5302SOL    HW116805   6.742   4.362   3.253
 5302SOL    HW216806   6.593   4.421   3.220
 5303SOL     OW16807   0.560   5.567   3.506
 5303SOL    HW116808   0.552   5.559   3.605
 5303SOL    HW216809   0.624   5.641   3.484
 5304SOL     OW16810   4.885   2.092   5.441
 5304SOL    HW116811   4.943   2.095   5.522
 5304SOL    HW216812   4.790   2.074   5.468
 5305SOL     OW16813   2.884   0.886   2.577
 5305SOL    HW116814   2.800   0.931   2.605
 5305SOL    HW216815   2.961   0.949   2.585
 5306SOL     OW16816   2.574   7.011   4.618
 5306SOL    HW116817   2.513   0.032   4.685
 5306SOL    HW216818   2.540   6.920   4.595
 5307SOL     OW16819   4.398   0.129   6.911
 5307SOL    HW116820   4.382   0.046   6.965
 5307SOL    HW216821   4.467   0.185   6.956
 5308SOL     OW16822   0.089   1.153   2.151
 5308SOL    HW116823   0.128   1.242   2.131
 5308SOL    HW216824   0.096   1.093   2.071
 5309SOL     OW16825   4.035   3.561   4.078
 5309SOL    HW116826   4.039   3.590   3.983
 5309SOL    HW216827   3.991   3.472   4.085
 5310SOL     OW16828   5.882   1.966   0.798
 5310SOL    HW116829   5.947   1.936   0.868
 5310SOL    HW216830   5.828   1.887   0.767
 5311SOL     OW16831   1.870   5.815   0.052
 5311SOL    HW116832   1.841   5.725   0.084
 5311SOL    HW216833   1.963   5.808   0.014
 5312SOL     OW16834   0.215   2.933   1.907
 5312SOL    HW116835   0.203   3.004   1.837
 5312SOL    HW216836   0.272   2.860   1.870
 5313SOL     OW16837   1.170   5.692   0.096
 5313SOL    HW116838   1.239   5.706   0.025
 5313SOL    HW216839   1.215   5.665   0.181
 5314SOL     OW16840   3.430   4.491   0.748
 5314SOL    HW116841   3.476   4.446   0.825
 5314SOL    HW216842   3.332   4.472   0.752
 5315SOL     OW16843   4.995   3.209   2.383
 5315SOL    HW116844   4.947   3.297   2.379
 5315SOL    HW216845   5.094   3.225   2.378
 5316SOL     OW16846   5.934   5.611   5.027
 5316SOL    HW116847   5.900   5.658   4.946
 5316SOL    HW216848   5.898   5.656   5.109
 5317SOL     OW16849   5.991   5.627   2.847
 5317SOL    HW116850   6.069   5.572   2.879
 5317SOL    HW216851   5.924   5.636   2.921
 5318SOL     OW16852   0.445   2.332   4.655
 5318SOL    HW116853   0.418   2.347   4.751
 5318SOL    HW216854   0.536   2.289   4.653
 5319SOL     OW16855   3.650   0.403   1.404
 5319SOL    HW116856   3.558   0.427   1.374
 5319SOL    HW216857   3.717   0.462   1.360
 5320SOL     OW16858   6.180   3.712   5.703
 5320SOL    HW116859   6.098   3.745   5.750
 5320SOL    HW216860   6.213   3.783   5.641
 5321SOL     OW16861   1.596   5.463   6.298
 5321SOL    HW116862   1.605   5.425   6.390
 5321SOL    HW216863   1.687   5.475   6.258
 5322SOL     OW16864   3.089   6.361   0.699
 5322SOL    HW116865   3.017   6.303   0.737
 5322SOL    HW216866   3.171   6.355   0.755
 5323SOL     OW16867   6.031   3.347   0.207
 5323SOL    HW116868   6.020   3.435   0.252
 5323SOL    HW216869   6.038   3.275   0.276
 5324SOL     OW16870   3.838   3.260   1.696
 5324SOL    HW116871   3.937   3.244   1.691
 5324SOL    HW216872   3.791   3.174   1.711
 5325SOL     OW16873   4.537   5.968   4.395
 5325SOL    HW116874   4.624   6.006   4.362
 5325SOL    HW216875   4.461   6.023   4.359
 5326SOL     OW16876   0.344   0.208   2.279
 5326SOL    HW116877   0.438   0.208   2.314
 5326SOL    HW216878   0.287   0.268   2.335
 5327SOL     OW16879   6.496   0.851   4.006
 5327SOL    HW116880   6.437   0.774   3.981
 5327SOL    HW216881   6.462   0.893   4.090
 5328SOL     OW16882   3.735   4.921   1.017
 5328SOL    HW116883   3.697   4.831   0.996
 5328SOL    HW216884   3.697   4.953   1.104
 5329SOL     OW16885   6.608   5.781   0.518
 5329SOL    HW116886   6.533   5.744   0.573
 5329SOL    HW216887   6.695   5.761   0.563
 5330SOL     OW16888   3.891   5.322   0.195
 5330SOL    HW116889   3.913   5.291   0.288
 5330SOL    HW216890   3.927   5.256   0.129
 5331SOL     OW16891   4.792   2.812   6.492
 5331SOL    HW116892   4.862   2.749   6.458
 5331SOL    HW216893   4.785   2.803   6.591
 5332SOL     OW16894   5.951   3.172   0.025
 5332SOL    HW116895   5.991   3.086   0.055
 5332SOL    HW216896   5.974   3.244   0.090
 5333SOL     OW16897   1.185   1.887   4.298
 5333SOL    HW116898   1.254   1.815   4.307
 5333SOL    HW216899   1.184   1.921   4.204
 5334SOL     OW16900   3.738   5.816   1.476
 5334SOL    HW116901   3.738   5.716   1.487
 5334SOL    HW216902   3.644   5.849   1.480
 5335SOL     OW16903   0.365   4.759   1.104
 5335SOL    HW116904   0.363   4.662   1.127
 5335SOL    HW216905   0.323   4.811   1.179
 5336SOL     OW16906   1.966   2.950   5.039
 5336SOL    HW116907   1.949   2.854   5.060
 5336SOL    HW216908   1.883   2.993   5.005
 5337SOL     OW16909   6.644   4.591   0.742
 5337SOL    HW116910   6.554   4.573   0.702
 5337SOL    HW216911   6.685   4.671   0.698
 5338SOL     OW16912   6.398   3.527   0.283
 5338SOL    HW116913   6.382   3.591   0.358
 5338SOL    HW216914   6.379   3.434   0.313
 5339SOL     OW16915   5.330   3.410   2.666
 5339SOL    HW116916   5.305   3.411   2.570
 5339SOL    HW216917   5.277   3.340   2.714
 5340SOL     OW16918   4.988   3.598   2.026
 5340SOL    HW116919   4.957   3.675   2.083
 5340SOL    HW216920   4.948   3.513   2.061
 5341SOL     OW16921   4.400   4.560   3.674
 5341SOL    HW116922   4.300   4.561   3.677
 5341SOL    HW216923   4.435   4.648   3.705
 5342SOL     OW16924   6.376   5.627   5.022
 5342SOL    HW116925   6.348   5.654   5.114
 5342SOL    HW216926   6.385   5.708   4.964
 5343SOL     OW16927   3.505   3.059   6.347
 5343SOL    HW116928   3.534   3.015   6.432
 5343SOL    HW216929   3.497   2.989   6.275
 5344SOL     OW16930   0.146   1.728   6.474
 5344SOL    HW116931   0.190   1.668   6.407
 5344SOL    HW216932   0.212   1.754   6.544
 5345SOL     OW16933   5.481   1.355   6.355
 5345SOL    HW116934   5.438   1.288   6.416
 5345SOL    HW216935   5.533   1.307   6.284
 5346SOL     OW16936   3.347   5.518   3.049
 5346SOL    HW116937   3.305   5.603   3.017
 5346SOL    HW216938   3.275   5.451   3.071
 5347SOL     OW16939   5.589   1.526   4.018
 5347SOL    HW116940   5.661   1.594   4.026
 5347SOL    HW216941   5.540   1.538   3.932
 5348SOL     OW16942   5.022   2.563   4.866
 5348SOL    HW116943   5.057   2.483   4.914
 5348SOL    HW216944   5.006   2.637   4.931
 5349SOL     OW16945   1.256   3.510   1.670
 5349SOL    HW116946   1.340   3.487   1.621
 5349SOL    HW216947   1.177   3.484   1.615
 5350SOL     OW16948   1.538   6.398   0.093
 5350SOL    HW116949   1.475   6.367   0.022
 5350SOL    HW216950   1.485   6.418   0.176
 5351SOL     OW16951   6.540   6.103   3.618
 5351SOL    HW116952   6.545   6.179   3.553
 5351SOL    HW216953   6.629   6.058   3.623
 5352SOL     OW16954   1.129   3.037   5.951
 5352SOL    HW116955   1.177   3.124   5.963
 5352SOL    HW216956   1.102   3.027   5.855
 5353SOL     OW16957   3.908   4.845   3.802
 5353SOL    HW116958   3.981   4.777   3.810
 5353SOL    HW216959   3.901   4.897   3.887
 5354SOL     OW16960   3.547   5.712   1.201
 5354SOL    HW116961   3.571   5.809   1.194
 5354SOL    HW216962   3.485   5.688   1.127
 5355SOL     OW16963   5.709   5.438   5.339
 5355SOL    HW116964   5.631   5.439   5.278
 5355SOL    HW216965   5.726   5.344   5.371
 5356SOL     OW16966   0.623   6.298   0.779
 5356SOL    HW116967   0.595   6.202   0.776
 5356SOL    HW216968   0.717   6.304   0.812
 5357SOL     OW16969   6.238   3.754   2.805
 5357SOL    HW116970   6.152   3.780   2.762
 5357SOL    HW216971   6.296   3.708   2.738
 5358SOL     OW16972   4.763   1.098   6.636
 5358SOL    HW116973   4.845   1.127   6.685
 5358SOL    HW216974   4.711   1.179   6.607
 5359SOL     OW16975   3.405   2.305   6.842
 5359SOL    HW116976   3.427   2.282   6.937
 5359SOL    HW216977   3.474   2.367   6.805
 5360SOL     OW16978   5.885   4.922   4.159
 5360SOL    HW116979   5.967   4.887   4.204
 5360SOL    HW216980   5.894   5.020   4.143
 5361SOL     OW16981   1.332   5.297   2.768
 5361SOL    HW116982   1.397   5.370   2.749
 5361SOL    HW216983   1.259   5.299   2.701
 5362SOL     OW16984   6.015   1.442   2.338
 5362SOL    HW116985   5.949   1.517   2.348
 5362SOL    HW216986   6.108   1.477   2.350
 5363SOL     OW16987   5.303   5.116   3.398
 5363SOL    HW116988   5.299   5.176   3.318
 5363SOL    HW216989   5.369   5.043   3.382
 5364SOL     OW16990   4.585   1.918   2.623
 5364SOL    HW116991   4.637   1.835   2.643
 5364SOL    HW216992   4.488   1.901   2.638
 5365SOL     OW16993   2.951   3.495   4.688
 5365SOL    HW116994   2.974   3.404   4.723
 5365SOL    HW216995   2.942   3.559   4.765
 5366SOL     OW16996   6.232   5.802   3.577
 5366SOL    HW116997   6.329   5.824   3.587
 5366SOL    HW216998   6.185   5.880   3.535
 5367SOL     OW16999   6.056   5.820   1.428
 5367SOL    HW117000   5.992   5.874   1.373
 5367SOL    HW217001   6.149   5.837   1.396
 5368SOL     OW17002   0.170   6.249   4.503
 5368SOL    HW117003   0.184   6.296   4.416
 5368SOL    HW217004   0.232   6.170   4.508
 5369SOL     OW17005   4.313   5.784   3.034
 5369SOL    HW117006   4.214   5.775   3.019
 5369SOL    HW217007   4.351   5.847   2.967
 5370SOL     OW17008   1.614   2.938   0.256
 5370SOL    HW117009   1.652   2.854   0.294
 5370SOL    HW217010   1.514   2.931   0.252
 5371SOL     OW17011   6.454   5.765   4.450
 5371SOL    HW117012   6.512   5.837   4.487
 5371SOL    HW217013   6.487   5.676   4.482
 5372SOL     OW17014   1.694   6.803   3.053
 5372SOL    HW117015   1.699   6.899   3.026
 5372SOL    HW217016   1.780   6.776   3.095
 5373SOL     OW17017   2.567   1.273   6.461
 5373SOL    HW117018   2.481   1.282   6.409
 5373SOL    HW217019   2.554   1.207   6.535
 5374SOL     OW17020   1.952   4.070   1.804
 5374SOL    HW117021   2.037   4.122   1.807
 5374SOL    HW217022   1.970   3.975   1.828
 5375SOL     OW17023   2.451   4.473   5.089
 5375SOL    HW117024   2.388   4.402   5.121
 5375SOL    HW217025   2.470   4.536   5.164
 5376SOL     OW17026   0.536   0.145   6.243
 5376SOL    HW117027   0.484   0.230   6.248
 5376SOL    HW217028   0.539   0.102   6.334
 5377SOL     OW17029   1.384   1.351   3.064
 5377SOL    HW117030   1.430   1.286   3.125
 5377SOL    HW217031   1.362   1.434   3.116
 5378SOL     OW17032   4.391   0.182   2.541
 5378SOL    HW117033   4.364   0.209   2.633
 5378SOL    HW217034   4.310   0.149   2.491
 5379SOL     OW17035   2.380   2.036   4.349
 5379SOL    HW117036   2.392   1.937   4.350
 5379SOL    HW217037   2.285   2.057   4.371
 5380SOL     OW17038   4.673   5.847   1.702
 5380SOL    HW117039   4.717   5.780   1.763
 5380SOL    HW217040   4.742   5.897   1.651
 5381SOL     OW17041   2.798   0.524   3.248
 5381SOL    HW117042   2.852   0.532   3.332
 5381SOL    HW217043   2.851   0.476   3.179
 5382SOL     OW17044   4.528   0.702   2.656
 5382SOL    HW117045   4.602   0.762   2.687
 5382SOL    HW217046   4.447   0.757   2.635
 5383SOL     OW17047   2.220   3.065   4.667
 5383SOL    HW117048   2.206   3.033   4.761
 5383SOL    HW217049   2.262   2.992   4.613
 5384SOL     OW17050   5.299   5.616   5.494
 5384SOL    HW117051   5.365   5.686   5.524
 5384SOL    HW217052   5.283   5.552   5.569
 5385SOL     OW17053   4.007   3.437   6.280
 5385SOL    HW117054   3.959   3.456   6.194
 5385SOL    HW217055   4.097   3.480   6.279
 5386SOL     OW17056   4.879   4.588   3.939
 5386SOL    HW117057   4.836   4.678   3.934
 5386SOL    HW217058   4.810   4.517   3.928
 5387SOL     OW17059   1.258   1.550   4.171
 5387SOL    HW117060   1.334   1.586   4.116
 5387SOL    HW217061   1.217   1.472   4.123
 5388SOL     OW17062   6.687   6.736   3.724
 5388SOL    HW117063   6.743   6.692   3.794
 5388SOL    HW217064   6.593   6.700   3.728
 5389SOL     OW17065   5.215   0.948   3.560
 5389SOL    HW117066   5.264   0.990   3.483
 5389SOL    HW217067   5.261   0.863   3.586
 5390SOL     OW17068   0.036   4.014   3.441
 5390SOL    HW117069   0.022   4.060   3.529
 5390SOL    HW217070   6.971   3.975   3.410
 5391SOL     OW17071   2.987   2.496   1.038
 5391SOL    HW117072   3.045   2.458   1.110
 5391SOL    HW217073   3.044   2.526   0.961
 5392SOL     OW17074   5.934   0.702   4.227
 5392SOL    HW117075   5.896   0.729   4.138
 5392SOL    HW217076   5.910   0.606   4.245
 5393SOL     OW17077   4.455   2.473   4.321
 5393SOL    HW117078   4.491   2.523   4.242
 5393SOL    HW217079   4.478   2.523   4.405
 5394SOL     OW17080   0.425   2.626   1.427
 5394SOL    HW117081   0.500   2.693   1.428
 5394SOL    HW217082   0.340   2.673   1.406
 5395SOL     OW17083   6.920   1.473   0.955
 5395SOL    HW117084   6.854   1.426   1.012
 5395SOL    HW217085   6.887   1.477   0.861
 5396SOL     OW17086   4.298   3.543   0.441
 5396SOL    HW117087   4.267   3.452   0.470
 5396SOL    HW217088   4.264   3.563   0.349
 5397SOL     OW17089   6.946   0.671   2.685
 5397SOL    HW117090   6.974   0.649   2.778
 5397SOL    HW217091   6.908   0.589   2.641
 5398SOL     OW17092   6.849   3.267   2.580
 5398SOL    HW117093   6.800   3.354   2.582
 5398SOL    HW217094   6.846   3.225   2.671
 5399SOL     OW17095   1.794   2.822   0.422
 5399SOL    HW117096   1.886   2.832   0.460
 5399SOL    HW217097   1.778   2.727   0.396
 5400SOL     OW17098   4.743   3.156   1.544
 5400SOL    HW117099   4.800   3.172   1.624
 5400SOL    HW217100   4.651   3.130   1.572
 5401SOL     OW17101   5.704   2.369   1.281
 5401SOL    HW117102   5.616   2.416   1.276
 5401SOL    HW217103   5.777   2.436   1.297
 5402SOL     OW17104   1.209   6.052   3.149
 5402SOL    HW117105   1.122   6.047   3.198
 5402SOL    HW217106   1.239   6.148   3.145
 5403SOL     OW17107   5.002   2.401   6.973
 5403SOL    HW117108   5.100   2.388   6.963
 5403SOL    HW217109   4.979   2.410   0.048
 5404SOL     OW17110   4.671   6.836   7.008
 5404SOL    HW117111   4.683   6.894   0.067
 5404SOL    HW217112   4.735   6.759   7.013
 5405SOL     OW17113   0.360   4.919   0.315
 5405SOL    HW117114   0.395   5.000   0.267
 5405SOL    HW217115   0.437   4.864   0.347
 5406SOL     OW17116   2.329   1.284   6.297
 5406SOL    HW117117   2.276   1.327   6.371
 5406SOL    HW217118   2.273   1.214   6.253
 5407SOL     OW17119   1.387   6.888   3.301
 5407SOL    HW117120   1.395   6.820   3.228
 5407SOL    HW217121   1.411   6.845   3.389
 5408SOL     OW17122   2.252   1.597   4.255
 5408SOL    HW117123   2.265   1.668   4.324
 5408SOL    HW217124   2.326   1.530   4.263
 5409SOL     OW17125   1.170   2.618   2.076
 5409SOL    HW117126   1.250   2.674   2.055
 5409SOL    HW217127   1.117   2.603   1.993
 5410SOL     OW17128   6.132   2.488   0.807
 5410SOL    HW117129   6.128   2.391   0.787
 5410SOL    HW217130   6.199   2.532   0.747
 5411SOL     OW17131   3.827   5.442   6.825
 5411SOL    HW117132   3.868   5.439   6.916
 5411SOL    HW217133   3.829   5.351   6.784
 5412SOL     OW17134   0.528   2.143   5.442
 5412SOL    HW117135   0.567   2.178   5.357
 5412SOL    HW217136   0.556   2.048   5.455
 5413SOL     OW17137   0.996   4.874   5.010
 5413SOL    HW117138   1.019   4.873   5.108
 5413SOL    HW217139   0.933   4.950   4.992
 5414SOL     OW17140   5.515   4.526   5.684
 5414SOL    HW117141   5.490   4.475   5.602
 5414SOL    HW217142   5.615   4.526   5.694
 5415SOL     OW17143   3.308   1.202   0.295
 5415SOL    HW117144   3.338   1.187   0.389
 5415SOL    HW217145   3.372   1.262   0.248
 5416SOL     OW17146   3.591   5.669   0.122
 5416SOL    HW117147   3.659   5.730   0.163
 5416SOL    HW217148   3.583   5.587   0.178
 5417SOL     OW17149   4.868   6.791   4.045
 5417SOL    HW117150   4.803   6.721   4.074
 5417SOL    HW217151   4.936   6.805   4.117
 5418SOL     OW17152   6.643   2.965   5.469
 5418SOL    HW117153   6.572   3.034   5.484
 5418SOL    HW217154   6.604   2.889   5.416
 5419SOL     OW17155   4.365   1.589   6.419
 5419SOL    HW117156   4.442   1.538   6.381
 5419SOL    HW217157   4.309   1.527   6.476
 5420SOL     OW17158   1.547   2.154   1.842
 5420SOL    HW117159   1.573   2.197   1.756
 5420SOL    HW217160   1.448   2.139   1.843
 5421SOL     OW17161   3.676   4.898   2.158
 5421SOL    HW117162   3.615   4.939   2.225
 5421SOL    HW217163   3.622   4.843   2.093
 5422SOL     OW17164   2.853   4.827   3.663
 5422SOL    HW117165   2.880   4.772   3.741
 5422SOL    HW217166   2.837   4.921   3.692
 5423SOL     OW17167   4.870   6.976   1.615
 5423SOL    HW117168   4.779   6.934   1.611
 5423SOL    HW217169   4.917   6.945   1.697
 5424SOL     OW17170   4.267   3.824   5.402
 5424SOL    HW117171   4.337   3.766   5.361
 5424SOL    HW217172   4.219   3.773   5.473
 5425SOL     OW17173   1.395   4.103   6.099
 5425SOL    HW117174   1.421   4.192   6.063
 5425SOL    HW217175   1.340   4.054   6.032
 5426SOL     OW17176   0.080   5.102   1.593
 5426SOL    HW117177   0.145   5.177   1.608
 5426SOL    HW217178   0.122   5.016   1.622
 5427SOL     OW17179   4.279   3.267   0.477
 5427SOL    HW117180   4.331   3.215   0.409
 5427SOL    HW217181   4.260   3.209   0.557
 5428SOL     OW17182   5.203   4.899   3.124
 5428SOL    HW117183   5.158   4.952   3.195
 5428SOL    HW217184   5.187   4.941   3.035
 5429SOL     OW17185   2.746   6.907   4.296
 5429SOL    HW117186   2.822   6.970   4.313
 5429SOL    HW217187   2.664   6.960   4.276
 5430SOL     OW17188   2.551   3.765   5.606
 5430SOL    HW117189   2.544   3.759   5.506
 5430SOL    HW217190   2.498   3.692   5.648
 5431SOL     OW17191   4.692   4.515   0.201
 5431SOL    HW117192   4.741   4.536   0.286
 5431SOL    HW217193   4.647   4.426   0.210
 5432SOL     OW17194   0.414   5.102   6.546
 5432SOL    HW117195   0.372   5.113   6.455
 5432SOL    HW217196   0.372   5.167   6.609
 5433SOL     OW17197   3.675   6.983   1.492
 5433SOL    HW117198   3.677   6.953   1.588
 5433SOL    HW217199   3.747   6.936   1.441
 5434SOL     OW17200   4.721   0.441   4.318
 5434SOL    HW117201   4.764   0.364   4.366
 5434SOL    HW217202   4.792   0.506   4.291
 5435SOL     OW17203   6.533   5.040   0.126
 5435SOL    HW117204   6.575   4.972   0.186
 5435SOL    HW217205   6.574   5.035   0.035
 5436SOL     OW17206   1.711   4.683   2.146
 5436SOL    HW117207   1.652   4.633   2.209
 5436SOL    HW217208   1.658   4.751   2.097
 5437SOL     OW17209   3.272   6.554   1.041
 5437SOL    HW117210   3.318   6.601   0.966
 5437SOL    HW217211   3.174   6.545   1.019
 5438SOL     OW17212   4.518   6.521   1.820
 5438SOL    HW117213   4.471   6.434   1.832
 5438SOL    HW217214   4.460   6.595   1.855
 5439SOL     OW17215   0.873   4.201   1.060
 5439SOL    HW117216   0.916   4.203   0.970
 5439SOL    HW217217   0.897   4.116   1.106
 5440SOL     OW17218   5.528   6.338   3.793
 5440SOL    HW117219   5.623   6.371   3.798
 5440SOL    HW217220   5.477   6.393   3.728
 5441SOL     OW17221   5.644   2.423   4.638
 5441SOL    HW117222   5.604   2.463   4.555
 5441SOL    HW217223   5.631   2.324   4.636
 5442SOL     OW17224   2.777   0.497   6.411
 5442SOL    HW117225   2.871   0.471   6.431
 5442SOL    HW217226   2.774   0.591   6.378
 5443SOL     OW17227   5.353   0.963   2.743
 5443SOL    HW117228   5.344   0.866   2.765
 5443SOL    HW217229   5.416   0.973   2.665
 5444SOL     OW17230   6.783   1.222   6.390
 5444SOL    HW117231   6.826   1.175   6.313
 5444SOL    HW217232   6.829   1.196   6.475
 5445SOL     OW17233   5.980   6.367   5.928
 5445SOL    HW117234   5.977   6.291   5.993
 5445SOL    HW217235   5.921   6.441   5.961
 5446SOL     OW17236   0.131   4.387   5.824
 5446SOL    HW117237   0.051   4.344   5.784
 5446SOL    HW217238   0.203   4.395   5.755
 5447SOL     OW17239   0.062   1.513   1.652
 5447SOL    HW117240   0.021   1.433   1.696
 5447SOL    HW217241   0.001   1.548   1.581
 5448SOL     OW17242   5.365   4.804   2.761
 5448SOL    HW117243   5.350   4.706   2.758
 5448SOL    HW217244   5.366   4.835   2.856
 5449SOL     OW17245   3.038   0.857   1.900
 5449SOL    HW117246   3.110   0.925   1.912
 5449SOL    HW217247   2.962   0.878   1.961
 5450SOL     OW17248   4.499   5.773   2.138
 5450SOL    HW117249   4.479   5.796   2.043
 5450SOL    HW217250   4.513   5.857   2.190
 5451SOL     OW17251   6.360   6.358   3.783
 5451SOL    HW117252   6.455   6.353   3.752
 5451SOL    HW217253   6.307   6.414   3.719
 5452SOL     OW17254   2.065   3.708   2.856
 5452SOL    HW117255   1.970   3.728   2.836
 5452SOL    HW217256   2.113   3.685   2.771
 5453SOL     OW17257   7.008   4.795   4.112
 5453SOL    HW117258   6.923   4.848   4.106
 5453SOL    HW217259   6.986   4.697   4.117
 5454SOL     OW17260   6.093   4.171   3.303
 5454SOL    HW117261   6.086   4.159   3.204
 5454SOL    HW217262   6.066   4.086   3.349
 5455SOL     OW17263   2.592   1.909   3.637
 5455SOL    HW117264   2.661   1.864   3.695
 5455SOL    HW217265   2.633   1.931   3.548
 5456SOL     OW17266   5.661   2.468   0.676
 5456SOL    HW117267   5.598   2.530   0.724
 5456SOL    HW217268   5.660   2.379   0.722
 5457SOL     OW17269   5.809   1.071   6.366
 5457SOL    HW117270   5.772   0.989   6.411
 5457SOL    HW217271   5.903   1.054   6.339
 5458SOL     OW17272   5.867   3.951   6.902
 5458SOL    HW117273   5.834   3.878   6.961
 5458SOL    HW217274   5.875   4.036   6.955
 5459SOL     OW17275   2.081   3.533   4.832
 5459SOL    HW117276   2.112   3.502   4.742
 5459SOL    HW217277   2.103   3.464   4.901
 5460SOL     OW17278   0.423   0.525   1.470
 5460SOL    HW117279   0.359   0.460   1.431
 5460SOL    HW217280   0.406   0.616   1.431
 5461SOL     OW17281   6.362   1.149   6.140
 5461SOL    HW117282   6.375   1.091   6.060
 5461SOL    HW217283   6.401   1.104   6.220
 5462SOL     OW17284   4.922   4.570   6.547
 5462SOL    HW117285   4.995   4.560   6.480
 5462SOL    HW217286   4.909   4.667   6.568
 5463SOL     OW17287   0.787   3.427   6.148
 5463SOL    HW117288   0.823   3.341   6.113
 5463SOL    HW217289   0.776   3.421   6.247
 5464SOL     OW17290   1.679   5.581   5.864
 5464SOL    HW117291   1.651   5.559   5.770
 5464SOL    HW217292   1.730   5.504   5.903
 5465SOL     OW17293   0.461   0.026   4.545
 5465SOL    HW117294   0.406   0.040   4.463
 5465SOL    HW217295   0.478   6.950   4.557
 5466SOL     OW17296   5.821   1.694   4.151
 5466SOL    HW117297   5.797   1.786   4.123
 5466SOL    HW217298   5.776   1.672   4.237
 5467SOL     OW17299   4.956   3.258   4.120
 5467SOL    HW117300   4.897   3.336   4.141
 5467SOL    HW217301   5.052   3.284   4.131
 5468SOL     OW17302   0.337   1.231   1.065
 5468SOL    HW117303   0.255   1.270   1.024
 5468SOL    HW217304   0.321   1.135   1.087
 5469SOL     OW17305   3.351   0.526   4.346
 5469SOL    HW117306   3.392   0.593   4.284
 5469SOL    HW217307   3.252   0.533   4.342
 5470SOL     OW17308   4.573   5.032   4.265
 5470SOL    HW117309   4.567   4.954   4.203
 5470SOL    HW217310   4.589   5.000   4.358
 5471SOL     OW17311   4.659   0.463   3.012
 5471SOL    HW117312   4.725   0.513   3.068
 5471SOL    HW217313   4.680   0.365   3.015
 5472SOL     OW17314   3.264   3.456   6.772
 5472SOL    HW117315   3.348   3.497   6.736
 5472SOL    HW217316   3.191   3.462   6.704
 5473SOL     OW17317   2.941   4.951   1.895
 5473SOL    HW117318   2.934   5.051   1.896
 5473SOL    HW217319   2.893   4.913   1.974
 5474SOL     OW17320   1.105   4.877   2.428
 5474SOL    HW117321   1.138   4.901   2.519
 5474SOL    HW217322   1.061   4.787   2.431
 5475SOL     OW17323   0.864   1.136   5.588
 5475SOL    HW117324   0.791   1.180   5.535
 5475SOL    HW217325   0.949   1.139   5.535
 5476SOL     OW17326   1.994   6.967   5.400
 5476SOL    HW117327   1.957   6.999   5.312
 5476SOL    HW217328   1.960   0.004   5.473
 5477SOL     OW17329   1.852   3.785   3.914
 5477SOL    HW117330   1.760   3.746   3.910
 5477SOL    HW217331   1.920   3.712   3.899
 5478SOL     OW17332   5.008   4.836   5.890
 5478SOL    HW117333   5.045   4.757   5.842
 5478SOL    HW217334   5.050   4.920   5.855
 5479SOL     OW17335   5.047   2.137   4.097
 5479SOL    HW117336   5.005   2.200   4.031
 5479SOL    HW217337   5.033   2.043   4.066
 5480SOL     OW17338   1.107   3.323   4.290
 5480SOL    HW117339   1.008   3.327   4.272
 5480SOL    HW217340   1.138   3.228   4.281
 5481SOL     OW17341   4.342   1.872   6.466
 5481SOL    HW117342   4.367   1.784   6.427
 5481SOL    HW217343   4.348   1.943   6.395
 5482SOL     OW17344   5.422   3.250   1.891
 5482SOL    HW117345   5.358   3.248   1.968
 5482SOL    HW217346   5.441   3.345   1.867
 5483SOL     OW17347   6.834   3.045   6.904
 5483SOL    HW117348   6.808   2.961   6.857
 5483SOL    HW217349   6.893   3.023   6.982
 5484SOL     OW17350   6.631   6.698   4.911
 5484SOL    HW117351   6.622   6.792   4.879
 5484SOL    HW217352   6.628   6.695   5.010
 5485SOL     OW17353   3.601   0.324   5.187
 5485SOL    HW117354   3.553   0.406   5.219
 5485SOL    HW217355   3.603   0.323   5.087
 5486SOL     OW17356   1.125   0.974   3.826
 5486SOL    HW117357   1.165   1.000   3.914
 5486SOL    HW217358   1.026   0.965   3.836
 5487SOL     OW17359   4.542   5.086   0.553
 5487SOL    HW117360   4.502   5.175   0.573
 5487SOL    HW217361   4.471   5.022   0.524
 5488SOL     OW17362   4.841   0.853   5.662
 5488SOL    HW117363   4.834   0.784   5.734
 5488SOL    HW217364   4.851   0.943   5.703
 5489SOL     OW17365   0.663   4.054   3.404
 5489SOL    HW117366   0.685   3.958   3.391
 5489SOL    HW217367   0.564   4.065   3.412
 5490SOL     OW17368   2.265   2.466   0.219
 5490SOL    HW117369   2.268   2.393   0.150
 5490SOL    HW217370   2.356   2.505   0.231
 5491SOL     OW17371   0.406   5.307   1.540
 5491SOL    HW117372   0.465   5.229   1.517
 5491SOL    HW217373   0.461   5.391   1.539
 5492SOL     OW17374   1.352   1.092   5.214
 5492SOL    HW117375   1.387   1.065   5.304
 5492SOL    HW217376   1.284   1.025   5.183
 5493SOL     OW17377   3.082   2.814   0.318
 5493SOL    HW117378   2.984   2.812   0.294
 5493SOL    HW217379   3.136   2.818   0.234
 5494SOL     OW17380   5.764   2.906   2.223
 5494SOL    HW117381   5.815   2.978   2.176
 5494SOL    HW217382   5.674   2.895   2.180
 5495SOL     OW17383   3.563   2.863   2.826
 5495SOL    HW117384   3.601   2.840   2.736
 5495SOL    HW217385   3.492   2.932   2.816
 5496SOL     OW17386   3.637   5.384   1.259
 5496SOL    HW117387   3.595   5.427   1.339
 5496SOL    HW217388   3.647   5.452   1.186
 5497SOL     OW17389   6.444   6.738   2.214
 5497SOL    HW117390   6.461   6.814   2.276
 5497SOL    HW217391   6.350   6.705   2.225
 5498SOL     OW17392   4.111   0.569   5.227
 5498SOL    HW117393   4.131   0.634   5.301
 5498SOL    HW217394   4.150   0.480   5.249
 5499SOL     OW17395   6.966   2.016   4.351
 5499SOL    HW117396   6.907   1.946   4.312
 5499SOL    HW217397   0.040   1.987   4.344
 5500SOL     OW17398   1.827   5.896   1.560
 5500SOL    HW117399   1.892   5.847   1.617
 5500SOL    HW217400   1.738   5.851   1.562
 5501SOL     OW17401   1.966   0.171   2.629
 5501SOL    HW117402   1.956   0.146   2.532
 5501SOL    HW217403   1.940   0.094   2.686
 5502SOL     OW17404   4.529   3.783   0.277
 5502SOL    HW117405   4.552   3.689   0.301
 5502SOL    HW217406   4.507   3.789   0.180
 5503SOL     OW17407   1.051   5.743   4.370
 5503SOL    HW117408   1.090   5.833   4.388
 5503SOL    HW217409   1.113   5.672   4.404
 5504SOL     OW17410   3.328   1.950   4.853
 5504SOL    HW117411   3.385   1.983   4.929
 5504SOL    HW217412   3.287   2.027   4.806
 5505SOL     OW17413   2.758   5.018   6.009
 5505SOL    HW117414   2.752   4.918   6.008
 5505SOL    HW217415   2.757   5.051   6.103
 5506SOL     OW17416   6.434   6.961   5.708
 5506SOL    HW117417   6.412   6.917   5.621
 5506SOL    HW217418   6.488   0.021   5.692
 5507SOL     OW17419   2.978   5.594   4.422
 5507SOL    HW117420   2.930   5.662   4.478
 5507SOL    HW217421   3.052   5.552   4.476
 5508SOL     OW17422   2.347   0.645   6.112
 5508SOL    HW117423   2.285   0.692   6.174
 5508SOL    HW217424   2.309   0.644   6.020
 5509SOL     OW17425   5.841   6.240   6.671
 5509SOL    HW117426   5.791   6.205   6.750
 5509SOL    HW217427   5.926   6.189   6.660
 5510SOL     OW17428   4.538   0.468   5.567
 5510SOL    HW117429   4.516   0.566   5.566
 5510SOL    HW217430   4.581   0.445   5.654
 5511SOL     OW17431   0.531   1.731   2.243
 5511SOL    HW117432   0.558   1.705   2.151
 5511SOL    HW217433   0.441   1.776   2.239
 5512SOL     OW17434   1.426   0.060   0.974
 5512SOL    HW117435   1.428   0.075   1.073
 5512SOL    HW217436   1.442   6.985   0.954
 5513SOL     OW17437   3.465   4.970   4.414
 5513SOL    HW117438   3.491   4.928   4.327
 5513SOL    HW217439   3.475   5.069   4.406
 5514SOL     OW17440   6.116   5.250   3.550
 5514SOL    HW117441   6.197   5.258   3.607
 5514SOL    HW217442   6.142   5.255   3.453
 5515SOL     OW17443   6.995   3.330   1.919
 5515SOL    HW117444   6.938   3.377   1.851
 5515SOL    HW217445   6.936   3.278   1.981
 5516SOL     OW17446   1.692   3.443   5.961
 5516SOL    HW117447   1.691   3.515   6.030
 5516SOL    HW217448   1.601   3.434   5.920
 5517SOL     OW17449   2.671   1.004   2.670
 5517SOL    HW117450   2.697   1.097   2.697
 5517SOL    HW217451   2.604   1.008   2.597
 5518SOL     OW17452   5.855   4.914   5.392
 5518SOL    HW117453   5.867   4.865   5.478
 5518SOL    HW217454   5.760   4.903   5.361
 5519SOL     OW17455   5.135   3.462   3.854
 5519SOL    HW117456   5.194   3.518   3.795
 5519SOL    HW217457   5.143   3.493   3.948
 5520SOL     OW17458   1.539   3.593   1.278
 5520SOL    HW117459   1.571   3.501   1.255
 5520SOL    HW217460   1.439   3.596   1.272
 5521SOL     OW17461   5.344   5.374   1.834
 5521SOL    HW117462   5.328   5.355   1.931
 5521SOL    HW217463   5.416   5.313   1.800
 5522SOL     OW17464   2.108   3.655   2.184
 5522SOL    HW117465   2.148   3.575   2.140
 5522SOL    HW217466   2.144   3.738   2.141
 5523SOL     OW17467   3.033   0.691   1.430
 5523SOL    HW117468   3.083   0.742   1.500
 5523SOL    HW217469   3.096   0.632   1.380
 5524SOL     OW17470   6.660   5.674   6.056
 5524SOL    HW117471   6.693   5.767   6.074
 5524SOL    HW217472   6.628   5.633   6.141
 5525SOL     OW17473   0.041   5.515   5.005
 5525SOL    HW117474   6.971   5.494   5.039
 5525SOL    HW217475   0.090   5.430   4.986
 5526SOL     OW17476   5.894   2.451   4.710
 5526SOL    HW117477   5.920   2.545   4.734
 5526SOL    HW217478   5.795   2.445   4.701
 5527SOL     OW17479   2.181   3.532   1.205
 5527SOL    HW117480   2.084   3.510   1.215
 5527SOL    HW217481   2.211   3.511   1.112
 5528SOL     OW17482   0.648   3.488   3.277
 5528SOL    HW117483   0.687   3.405   3.236
 5528SOL    HW217484   0.612   3.547   3.205
 5529SOL     OW17485   1.432   1.304   5.053
 5529SOL    HW117486   1.390   1.255   5.129
 5529SOL    HW217487   1.375   1.294   4.971
 5530SOL     OW17488   1.240   2.626   0.884
 5530SOL    HW117489   1.181   2.706   0.870
 5530SOL    HW217490   1.321   2.635   0.826
 5531SOL     OW17491   3.014   2.813   5.935
 5531SOL    HW117492   3.028   2.849   5.843
 5531SOL    HW217493   2.930   2.759   5.937
 5532SOL     OW17494   2.463   1.550   1.114
 5532SOL    HW117495   2.380   1.605   1.129
 5532SOL    HW217496   2.483   1.497   1.196
 5533SOL     OW17497   4.378   0.518   1.210
 5533SOL    HW117498   4.289   0.545   1.247
 5533SOL    HW217499   4.403   0.581   1.136
 5534SOL     OW17500   6.946   4.205   5.712
 5534SOL    HW117501   6.897   4.264   5.648
 5534SOL    HW217502   7.016   4.152   5.663
 5535SOL     OW17503   5.950   3.355   3.405
 5535SOL    HW117504   6.011   3.411   3.461
 5535SOL    HW217505   5.943   3.264   3.446
 5536SOL     OW17506   1.812   0.636   3.272
 5536SOL    HW117507   1.817   0.568   3.199
 5536SOL    HW217508   1.728   0.690   3.262
 5537SOL     OW17509   4.398   1.174   4.578
 5537SOL    HW117510   4.386   1.259   4.528
 5537SOL    HW217511   4.383   1.097   4.517
 5538SOL     OW17512   5.487   1.801   0.735
 5538SOL    HW117513   5.434   1.748   0.668
 5538SOL    HW217514   5.535   1.875   0.688
 5539SOL     OW17515   3.633   6.932   6.913
 5539SOL    HW117516   3.582   6.999   6.967
 5539SOL    HW217517   3.659   6.855   6.971
 5540SOL     OW17518   5.410   0.730   6.718
 5540SOL    HW117519   5.387   0.726   6.621
 5540SOL    HW217520   5.393   0.822   6.753
 5541SOL     OW17521   4.837   3.391   5.670
 5541SOL    HW117522   4.860   3.301   5.631
 5541SOL    HW217523   4.890   3.405   5.754
 5542SOL     OW17524   4.029   4.550   6.925
 5542SOL    HW117525   3.973   4.504   6.994
 5542SOL    HW217526   3.969   4.588   6.854
 5543SOL     OW17527   1.404   0.541   0.359
 5543SOL    HW117528   1.444   0.582   0.276
 5543SOL    HW217529   1.415   0.604   0.436
 5544SOL     OW17530   3.860   5.453   6.139
 5544SOL    HW117531   3.810   5.522   6.086
 5544SOL    HW217532   3.813   5.365   6.130
 5545SOL     OW17533   3.856   0.051   3.016
 5545SOL    HW117534   3.924   7.000   3.017
 5545SOL    HW217535   3.903   0.140   3.009
 5546SOL     OW17536   0.802   5.041   4.908
 5546SOL    HW117537   0.767   5.011   4.997
 5546SOL    HW217538   0.759   5.127   4.882
 5547SOL     OW17539   5.350   1.156   4.302
 5547SOL    HW117540   5.364   1.253   4.321
 5547SOL    HW217541   5.438   1.113   4.280
 5548SOL     OW17542   6.924   4.080   5.093
 5548SOL    HW117543   6.839   4.103   5.045
 5548SOL    HW217544   6.903   4.027   5.175
 5549SOL     OW17545   4.377   2.851   0.766
 5549SOL    HW117546   4.312   2.782   0.736
 5549SOL    HW217547   4.361   2.872   0.862
 5550SOL     OW17548   1.992   4.020   2.099
 5550SOL    HW117549   1.970   4.042   2.194
 5550SOL    HW217550   1.910   3.990   2.051
 5551SOL     OW17551   1.916   5.606   3.862
 5551SOL    HW117552   1.889   5.521   3.816
 5551SOL    HW217553   1.963   5.584   3.947
 5552SOL     OW17554   0.410   6.358   6.765
 5552SOL    HW117555   0.390   6.456   6.766
 5552SOL    HW217556   0.417   6.326   6.671
 5553SOL     OW17557   4.668   0.495   0.013
 5553SOL    HW117558   4.600   0.551   0.061
 5553SOL    HW217559   4.746   0.553   7.010
 5554SOL     OW17560   5.355   2.259   2.081
 5554SOL    HW117561   5.434   2.316   2.057
 5554SOL    HW217562   5.378   2.203   2.160
 5555SOL     OW17563   1.615   4.386   2.078
 5555SOL    HW117564   1.620   4.431   2.167
 5555SOL    HW217565   1.692   4.416   2.022
 5556SOL     OW17566   6.958   0.813   4.504
 5556SOL    HW117567   6.915   0.836   4.591
 5556SOL    HW217568   0.029   0.849   4.503
 5557SOL     OW17569   3.194   5.979   2.090
 5557SOL    HW117570   3.288   5.965   2.060
 5557SOL    HW217571   3.171   5.913   2.162
 5558SOL     OW17572   3.818   4.835   6.998
 5558SOL    HW117573   3.727   4.853   0.012
 5558SOL    HW217574   3.811   4.775   6.918
 5559SOL     OW17575   1.918   0.099   2.344
 5559SOL    HW117576   1.948   0.060   2.257
 5559SOL    HW217577   1.881   0.191   2.329
 5560SOL     OW17578   1.103   6.373   2.669
 5560SOL    HW117579   1.012   6.336   2.685
 5560SOL    HW217580   1.100   6.444   2.599
 5561SOL     OW17581   3.301   6.874   3.656
 5561SOL    HW117582   3.234   6.815   3.613
 5561SOL    HW217583   3.278   6.970   3.637
 5562SOL     OW17584   4.073   3.549   1.440
 5562SOL    HW117585   3.977   3.556   1.414
 5562SOL    HW217586   4.118   3.637   1.427
 5563SOL     OW17587   2.686   4.732   3.086
 5563SOL    HW117588   2.700   4.703   3.180
 5563SOL    HW217589   2.775   4.749   3.043
 5564SOL     OW17590   5.215   0.381   6.037
 5564SOL    HW117591   5.290   0.316   6.044
 5564SOL    HW217592   5.169   0.389   6.125
 5565SOL     OW17593   3.094   2.228   6.902
 5565SOL    HW117594   3.067   2.318   6.867
 5565SOL    HW217595   3.119   2.236   6.998
 5566SOL     OW17596   1.368   3.607   6.577
 5566SOL    HW117597   1.319   3.524   6.553
 5566SOL    HW217598   1.351   3.677   6.507
 5567SOL     OW17599   6.861   4.349   1.626
 5567SOL    HW117600   6.946   4.379   1.583
 5567SOL    HW217601   6.881   4.284   1.699
 5568SOL     OW17602   4.362   6.296   1.880
 5568SOL    HW117603   4.428   6.220   1.879
 5568SOL    HW217604   4.278   6.266   1.925
 5569SOL     OW17605   2.168   3.213   4.153
 5569SOL    HW117606   2.133   3.147   4.220
 5569SOL    HW217607   2.176   3.303   4.196
 5570SOL     OW17608   0.420   3.934   2.789
 5570SOL    HW117609   0.516   3.930   2.817
 5570SOL    HW217610   0.390   4.029   2.790
 5571SOL     OW17611   6.303   4.825   1.856
 5571SOL    HW117612   6.240   4.851   1.930
 5571SOL    HW217613   6.282   4.878   1.774
 5572SOL     OW17614   1.227   2.912   5.108
 5572SOL    HW117615   1.251   2.959   5.193
 5572SOL    HW217616   1.311   2.891   5.057
 5573SOL     OW17617   2.951   5.116   4.405
 5573SOL    HW117618   2.877   5.174   4.372
 5573SOL    HW217619   2.987   5.062   4.329
 5574SOL     OW17620   6.746   2.260   6.425
 5574SOL    HW117621   6.788   2.245   6.515
 5574SOL    HW217622   6.818   2.260   6.355
 5575SOL     OW17623   0.463   7.018   1.508
 5575SOL    HW117624   0.530   0.057   1.553
 5575SOL    HW217625   0.374   0.042   1.505
 5576SOL     OW17626   2.259   4.183   3.446
 5576SOL    HW117627   2.195   4.144   3.511
 5576SOL    HW217628   2.269   4.122   3.368
 5577SOL     OW17629   1.758   3.209   6.115
 5577SOL    HW117630   1.737   3.298   6.075
 5577SOL    HW217631   1.678   3.176   6.166
 5578SOL     OW17632   4.131   3.619   3.178
 5578SOL    HW117633   4.136   3.597   3.080
 5578SOL    HW217634   4.162   3.713   3.192
 5579SOL     OW17635   0.768   3.083   1.655
 5579SOL    HW117636   0.841   3.030   1.697
 5579SOL    HW217637   0.679   3.041   1.676
 5580SOL     OW17638   5.053   1.870   5.532
 5580SOL    HW117639   4.972   1.874   5.474
 5580SOL    HW217640   5.129   1.831   5.480
 5581SOL     OW17641   0.988   1.701   6.931
 5581SOL    HW117642   0.998   1.800   6.926
 5581SOL    HW217643   0.913   1.678   6.994
 5582SOL     OW17644   2.536   2.682   6.466
 5582SOL    HW117645   2.629   2.700   6.435
 5582SOL    HW217646   2.478   2.665   6.387
 5583SOL     OW17647   5.771   0.974   2.128
 5583SOL    HW117648   5.698   1.038   2.149
 5583SOL    HW217649   5.849   0.991   2.188
 5584SOL     OW17650   0.402   3.988   5.118
 5584SOL    HW117651   0.389   4.058   5.048
 5584SOL    HW217652   0.467   3.919   5.084
 5585SOL     OW17653   5.046   4.816   1.978
 5585SOL    HW117654   5.079   4.737   2.031
 5585SOL    HW217655   5.065   4.900   2.029
 5586SOL     OW17656   6.721   3.049   6.503
 5586SOL    HW117657   6.793   3.114   6.481
 5586SOL    HW217658   6.668   3.082   6.581
 5587SOL     OW17659   5.053   0.374   6.325
 5587SOL    HW117660   5.017   0.299   6.382
 5587SOL    HW217661   4.993   0.387   6.247
 5588SOL     OW17662   3.246   6.569   1.600
 5588SOL    HW117663   3.302   6.494   1.633
 5588SOL    HW217664   3.151   6.555   1.627
 5589SOL     OW17665   5.675   4.873   6.297
 5589SOL    HW117666   5.615   4.950   6.273
 5589SOL    HW217667   5.755   4.908   6.346
 5590SOL     OW17668   5.757   5.708   4.327
 5590SOL    HW117669   5.776   5.740   4.235
 5590SOL    HW217670   5.667   5.740   4.356
 5591SOL     OW17671   6.156   1.603   1.367
 5591SOL    HW117672   6.073   1.652   1.339
 5591SOL    HW217673   6.231   1.630   1.307
 5592SOL     OW17674   0.765   4.636   3.390
 5592SOL    HW117675   0.673   4.666   3.412
 5592SOL    HW217676   0.786   4.551   3.439
 5593SOL     OW17677   6.678   1.892   0.180
 5593SOL    HW117678   6.773   1.868   0.160
 5593SOL    HW217679   6.660   1.985   0.149
 5594SOL     OW17680   5.486   2.545   5.188
 5594SOL    HW117681   5.584   2.532   5.194
 5594SOL    HW217682   5.457   2.537   5.092
 5595SOL     OW17683   0.950   2.546   5.558
 5595SOL    HW117684   0.858   2.586   5.561
 5595SOL    HW217685   0.982   2.543   5.463
 5596SOL     OW17686   4.458   6.209   2.609
 5596SOL    HW117687   4.530   6.154   2.566
 5596SOL    HW217688   4.372   6.195   2.560
 5597SOL     OW17689   5.256   3.526   3.344
 5597SOL    HW117690   5.218   3.594   3.408
 5597SOL    HW217691   5.320   3.467   3.393
 5598SOL     OW17692   5.329   2.170   4.756
 5598SOL    HW117693   5.284   2.259   4.767
 5598SOL    HW217694   5.371   2.165   4.665
 5599SOL     OW17695   0.637   1.830   3.905
 5599SOL    HW117696   0.612   1.927   3.916
 5599SOL    HW217697   0.727   1.824   3.862
 5600SOL     OW17698   1.563   2.563   4.193
 5600SOL    HW117699   1.648   2.606   4.161
 5600SOL    HW217700   1.531   2.610   4.275
 5601SOL     OW17701   2.275   1.067   5.352
 5601SOL    HW117702   2.324   1.020   5.425
 5601SOL    HW217703   2.206   1.127   5.392
 5602SOL     OW17704   1.318   2.011   0.779
 5602SOL    HW117705   1.256   2.031   0.703
 5602SOL    HW217706   1.390   1.949   0.747
 5603SOL     OW17707   5.411   2.299   6.714
 5603SOL    HW117708   5.426   2.397   6.728
 5603SOL    HW217709   5.413   2.253   6.803
 5604SOL     OW17710   5.963   1.913   5.420
 5604SOL    HW117711   6.030   1.843   5.394
 5604SOL    HW217712   5.903   1.876   5.492
 5605SOL     OW17713   0.369   1.817   4.574
 5605SOL    HW117714   0.325   1.732   4.601
 5605SOL    HW217715   0.460   1.797   4.536
 5606SOL     OW17716   4.448   6.984   1.741
 5606SOL    HW117717   4.514   6.945   1.676
 5606SOL    HW217718   4.484   0.048   1.777
 5607SOL     OW17719   5.785   1.970   1.593
 5607SOL    HW117720   5.796   2.029   1.673
 5607SOL    HW217721   5.853   1.995   1.525
 5608SOL     OW17722   4.067   6.875   4.903
 5608SOL    HW117723   4.162   6.856   4.928
 5608SOL    HW217724   4.061   6.887   4.804
 5609SOL     OW17725   2.911   6.499   6.427
 5609SOL    HW117726   2.910   6.405   6.392
 5609SOL    HW217727   2.865   6.501   6.516
 5610SOL     OW17728   4.974   0.761   0.223
 5610SOL    HW117729   5.041   0.833   0.238
 5610SOL    HW217730   4.883   0.802   0.214
 5611SOL     OW17731   1.560   4.623   3.446
 5611SOL    HW117732   1.590   4.620   3.541
 5611SOL    HW217733   1.561   4.530   3.408
 5612SOL     OW17734   2.847   0.146   5.287
 5612SOL    HW117735   2.785   0.073   5.257
 5612SOL    HW217736   2.799   0.234   5.282
 5613SOL     OW17737   4.304   4.638   1.766
 5613SOL    HW117738   4.317   4.550   1.720
 5613SOL    HW217739   4.346   4.634   1.857
 5614SOL     OW17740   4.882   2.417   3.155
 5614SOL    HW117741   4.933   2.478   3.095
 5614SOL    HW217742   4.918   2.324   3.147
 5615SOL     OW17743   1.652   0.753   0.423
 5615SOL    HW117744   1.733   0.696   0.437
 5615SOL    HW217745   1.617   0.740   0.330
 5616SOL     OW17746   1.865   0.858   4.623
 5616SOL    HW117747   1.833   0.819   4.536
 5616SOL    HW217748   1.789   0.904   4.669
 5617SOL     OW17749   1.855   0.715   4.870
 5617SOL    HW117750   1.835   0.750   4.962
 5617SOL    HW217751   1.914   0.778   4.822
 5618SOL     OW17752   0.052   4.189   3.663
 5618SOL    HW117753   6.995   4.250   3.666
 5618SOL    HW217754   0.133   4.241   3.636
 5619SOL     OW17755   2.320   3.925   5.598
 5619SOL    HW117756   2.406   3.874   5.599
 5619SOL    HW217757   2.336   4.017   5.636
 5620SOL     OW17758   3.557   2.069   6.742
 5620SOL    HW117759   3.615   2.033   6.815
 5620SOL    HW217760   3.609   2.134   6.688
 5621SOL     OW17761   1.406   2.107   5.329
 5621SOL    HW117762   1.450   2.172   5.392
 5621SOL    HW217763   1.456   2.107   5.242
 5622SOL     OW17764   5.673   0.671   6.035
 5622SOL    HW117765   5.681   0.575   6.059
 5622SOL    HW217766   5.587   0.686   5.986
 5623SOL     OW17767   1.372   6.002   6.871
 5623SOL    HW117768   1.443   5.946   6.912
 5623SOL    HW217769   1.414   6.065   6.804
 5624SOL     OW17770   1.198   4.611   3.422
 5624SOL    HW117771   1.150   4.690   3.384
 5624SOL    HW217772   1.175   4.529   3.369
 5625SOL     OW17773   6.622   2.976   4.883
 5625SOL    HW117774   6.720   2.990   4.874
 5625SOL    HW217775   6.592   3.005   4.974
 5626SOL     OW17776   3.892   0.161   4.710
 5626SOL    HW117777   3.934   0.075   4.681
 5626SOL    HW217778   3.843   0.146   4.795
 5627SOL     OW17779   1.483   6.120   1.770
 5627SOL    HW117780   1.415   6.123   1.696
 5627SOL    HW217781   1.436   6.114   1.858
 5628SOL     OW17782   1.946   1.765   4.784
 5628SOL    HW117783   1.872   1.762   4.717
 5628SOL    HW217784   1.943   1.682   4.841
 5629SOL     OW17785   3.493   3.580   2.504
 5629SOL    HW117786   3.592   3.571   2.490
 5629SOL    HW217787   3.464   3.672   2.476
 5630SOL     OW17788   0.737   4.644   1.516
 5630SOL    HW117789   0.689   4.678   1.434
 5630SOL    HW217790   0.791   4.718   1.556
 5631SOL     OW17791   4.703   0.878   0.243
 5631SOL    HW117792   4.716   0.948   0.314
 5631SOL    HW217793   4.607   0.852   0.239
 5632SOL     OW17794   4.352   3.568   6.864
 5632SOL    HW117795   4.437   3.549   6.913
 5632SOL    HW217796   4.324   3.662   6.880
 5633SOL     OW17797   6.574   2.545   4.711
 5633SOL    HW117798   6.535   2.539   4.619
 5633SOL    HW217799   6.646   2.476   4.721
 5634SOL     OW17800   4.061   5.565   4.225
 5634SOL    HW117801   4.122   5.603   4.155
 5634SOL    HW217802   4.005   5.638   4.263
 5635SOL     OW17803   2.681   2.390   4.787
 5635SOL    HW117804   2.725   2.378   4.698
 5635SOL    HW217805   2.583   2.376   4.778
 5636SOL     OW17806   4.347   5.516   2.942
 5636SOL    HW117807   4.312   5.606   2.966
 5636SOL    HW217808   4.275   5.447   2.956
 5637SOL     OW17809   5.629   6.556   3.359
 5637SOL    HW117810   5.685   6.628   3.399
 5637SOL    HW217811   5.678   6.513   3.284
 5638SOL     OW17812   5.198   2.917   6.414
 5638SOL    HW117813   5.232   2.967   6.494
 5638SOL    HW217814   5.161   2.983   6.348
 5639SOL     OW17815   1.813   1.597   6.064
 5639SOL    HW117816   1.761   1.682   6.061
 5639SOL    HW217817   1.800   1.553   6.153
 5640SOL     OW17818   2.583   0.327   3.218
 5640SOL    HW117819   2.645   0.382   3.274
 5640SOL    HW217820   2.612   0.231   3.220
 5641SOL     OW17821   6.382   5.290   5.287
 5641SOL    HW117822   6.315   5.349   5.332
 5641SOL    HW217823   6.359   5.195   5.304
 5642SOL     OW17824   1.370   2.005   6.115
 5642SOL    HW117825   1.357   2.093   6.068
 5642SOL    HW217826   1.439   1.951   6.067
 5643SOL     OW17827   6.086   2.465   4.299
 5643SOL    HW117828   5.991   2.453   4.270
 5643SOL    HW217829   6.105   2.402   4.375
 5644SOL     OW17830   3.609   0.339   6.699
 5644SOL    HW117831   3.611   0.243   6.670
 5644SOL    HW217832   3.650   0.396   6.627
 5645SOL     OW17833   5.592   2.875   4.183
 5645SOL    HW117834   5.660   2.878   4.110
 5645SOL    HW217835   5.525   2.948   4.169
 5646SOL     OW17836   1.821   4.371   2.811
 5646SOL    HW117837   1.784   4.425   2.735
 5646SOL    HW217838   1.914   4.402   2.831
 5647SOL     OW17839   6.884   5.847   2.866
 5647SOL    HW117840   6.943   5.913   2.913
 5647SOL    HW217841   6.936   5.802   2.794
 5648SOL     OW17842   4.136   6.346   2.877
 5648SOL    HW117843   4.063   6.415   2.885
 5648SOL    HW217844   4.215   6.386   2.832
 5649SOL     OW17845   0.552   6.498   3.956
 5649SOL    HW117846   0.592   6.502   4.048
 5649SOL    HW217847   0.619   6.531   3.889
 5650SOL     OW17848   6.749   4.151   0.250
 5650SOL    HW117849   6.726   4.235   0.202
 5650SOL    HW217850   6.838   4.161   0.296
 5651SOL     OW17851   1.505   0.519   1.702
 5651SOL    HW117852   1.524   0.481   1.792
 5651SOL    HW217853   1.406   0.524   1.688
 5652SOL     OW17854   1.283   5.851   2.033
 5652SOL    HW117855   1.188   5.881   2.041
 5652SOL    HW217856   1.309   5.849   1.937
 5653SOL     OW17857   0.180   6.947   1.062
 5653SOL    HW117858   0.165   6.894   0.978
 5653SOL    HW217859   0.131   6.903   1.137
 5654SOL     OW17860   2.472   6.071   5.154
 5654SOL    HW117861   2.377   6.102   5.153
 5654SOL    HW217862   2.475   5.971   5.155
 5655SOL     OW17863   6.533   2.757   4.451
 5655SOL    HW117864   6.542   2.808   4.537
 5655SOL    HW217865   6.442   2.773   4.412
 5656SOL     OW17866   0.248   3.294   0.006
 5656SOL    HW117867   0.303   3.216   7.000
 5656SOL    HW217868   0.211   3.279   0.098
 5657SOL     OW17869   4.304   5.521   5.285
 5657SOL    HW117870   4.266   5.560   5.201
 5657SOL    HW217871   4.230   5.483   5.341
 5658SOL     OW17872   1.926   2.090   5.540
 5658SOL    HW117873   2.006   2.090   5.602
 5658SOL    HW217874   1.935   2.166   5.476
 5659SOL     OW17875   3.968   4.270   6.323
 5659SOL    HW117876   4.030   4.348   6.326
 5659SOL    HW217877   3.914   4.267   6.408
 5660SOL     OW17878   4.280   0.587   6.328
 5660SOL    HW117879   4.223   0.505   6.331
 5660SOL    HW217880   4.222   0.668   6.336
 5661SOL     OW17881   1.328   5.162   5.743
 5661SOL    HW117882   1.277   5.113   5.672
 5661SOL    HW217883   1.268   5.180   5.821
 5662SOL     OW17884   2.494   6.263   2.497
 5662SOL    HW117885   2.581   6.305   2.474
 5662SOL    HW217886   2.421   6.307   2.445
 5663SOL     OW17887   0.743   2.740   0.177
 5663SOL    HW117888   0.814   2.707   0.238
 5663SOL    HW217889   0.736   2.679   0.098
 5664SOL     OW17890   5.073   3.858   4.044
 5664SOL    HW117891   5.034   3.812   4.124
 5664SOL    HW217892   5.000   3.882   3.980
 5665SOL     OW17893   2.202   1.402   0.983
 5665SOL    HW117894   2.224   1.481   1.041
 5665SOL    HW217895   2.147   1.337   1.035
 5666SOL     OW17896   5.229   1.287   4.668
 5666SOL    HW117897   5.144   1.237   4.652
 5666SOL    HW217898   5.304   1.223   4.682
 5667SOL     OW17899   2.385   5.042   5.079
 5667SOL    HW117900   2.466   5.063   5.135
 5667SOL    HW217901   2.415   4.998   4.994
 5668SOL     OW17902   5.461   3.127   3.550
 5668SOL    HW117903   5.532   3.138   3.620
 5668SOL    HW217904   5.416   3.038   3.562
 5669SOL     OW17905   6.502   4.584   6.533
 5669SOL    HW117906   6.519   4.577   6.632
 5669SOL    HW217907   6.494   4.493   6.494
 5670SOL     OW17908   0.553   2.305   2.448
 5670SOL    HW117909   0.543   2.206   2.441
 5670SOL    HW217910   0.497   2.339   2.523
 5671SOL     OW17911   6.984   6.981   3.505
 5671SOL    HW117912   0.046   6.928   3.492
 5671SOL    HW217913   6.998   0.027   3.577
 5672SOL     OW17914   5.160   3.303   5.464
 5672SOL    HW117915   5.175   3.231   5.533
 5672SOL    HW217916   5.185   3.391   5.502
 5673SOL     OW17917   0.627   0.549   1.181
 5673SOL    HW117918   0.674   0.617   1.237
 5673SOL    HW217919   0.675   0.538   1.094
 5674SOL     OW17920   1.869   5.392   5.982
 5674SOL    HW117921   1.943   5.426   5.924
 5674SOL    HW217922   1.864   5.447   6.065
 5675SOL     OW17923   2.196   1.855   0.508
 5675SOL    HW117924   2.250   1.933   0.475
 5675SOL    HW217925   2.234   1.770   0.470
 5676SOL     OW17926   2.802   2.182   1.583
 5676SOL    HW117927   2.820   2.115   1.511
 5676SOL    HW217928   2.751   2.138   1.657
 5677SOL     OW17929   6.785   0.818   1.217
 5677SOL    HW117930   6.773   0.917   1.213
 5677SOL    HW217931   6.843   0.789   1.141
 5678SOL     OW17932   3.262   2.031   2.028
 5678SOL    HW117933   3.233   1.995   1.939
 5678SOL    HW217934   3.194   2.008   2.097
 5679SOL     OW17935   6.062   3.489   5.112
 5679SOL    HW117936   6.112   3.549   5.050
 5679SOL    HW217937   6.116   3.473   5.194
 5680SOL     OW17938   1.600   6.109   5.458
 5680SOL    HW117939   1.635   6.047   5.387
 5680SOL    HW217940   1.649   6.093   5.543
 5681SOL     OW17941   1.022   3.944   3.473
 5681SOL    HW117942   0.977   4.028   3.444
 5681SOL    HW217943   1.091   3.965   3.543
 5682SOL     OW17944   2.250   4.355   1.906
 5682SOL    HW117945   2.184   4.381   1.976
 5682SOL    HW217946   2.309   4.433   1.885
 5683SOL     OW17947   6.151   1.308   6.186
 5683SOL    HW117948   6.178   1.381   6.248
 5683SOL    HW217949   6.231   1.253   6.162
 5684SOL     OW17950   1.883   2.701   5.109
 5684SOL    HW117951   1.790   2.680   5.138
 5684SOL    HW217952   1.939   2.720   5.189
 5685SOL     OW17953   2.573   1.774   3.142
 5685SOL    HW117954   2.479   1.746   3.160
 5685SOL    HW217955   2.624   1.781   3.228
 5686SOL     OW17956   3.586   6.142   6.079
 5686SOL    HW117957   3.663   6.093   6.118
 5686SOL    HW217958   3.512   6.077   6.058
 5687SOL     OW17959   2.190   6.249   6.420
 5687SOL    HW117960   2.195   6.343   6.384
 5687SOL    HW217961   2.280   6.206   6.412
 5688SOL     OW17962   2.464   2.660   3.097
 5688SOL    HW117963   2.370   2.628   3.082
 5688SOL    HW217964   2.505   2.685   3.009
 5689SOL     OW17965   0.618   2.192   1.478
 5689SOL    HW117966   0.550   2.266   1.479
 5689SOL    HW217967   0.633   2.159   1.572
 5690SOL     OW17968   1.607   5.691   0.175
 5690SOL    HW117969   1.522   5.685   0.228
 5690SOL    HW217970   1.679   5.729   0.231
 5691SOL     OW17971   3.130   1.099   2.553
 5691SOL    HW117972   3.111   1.176   2.492
 5691SOL    HW217973   3.150   1.133   2.645
 5692SOL     OW17974   4.537   4.972   1.540
 5692SOL    HW117975   4.531   4.955   1.638
 5692SOL    HW217976   4.582   4.894   1.495
 5693SOL     OW17977   3.960   0.873   1.218
 5693SOL    HW117978   3.943   0.913   1.127
 5693SOL    HW217979   3.981   0.946   1.283
 5694SOL     OW17980   0.972   6.619   2.065
 5694SOL    HW117981   1.062   6.596   2.102
 5694SOL    HW217982   0.956   6.565   1.983
 5695SOL     OW17983   1.591   0.211   0.819
 5695SOL    HW117984   1.569   0.298   0.864
 5695SOL    HW217985   1.549   0.136   0.869
 5696SOL     OW17986   1.592   0.435   3.704
 5696SOL    HW117987   1.521   0.397   3.646
 5696SOL    HW217988   1.596   0.384   3.790
 5697SOL     OW17989   6.204   2.883   0.590
 5697SOL    HW117990   6.148   2.811   0.548
 5697SOL    HW217991   6.294   2.845   0.613
 5698SOL     OW17992   2.569   2.482   3.939
 5698SOL    HW117993   2.494   2.541   3.907
 5698SOL    HW217994   2.626   2.456   3.861
 5699SOL     OW17995   2.171   2.426   2.820
 5699SOL    HW117996   2.071   2.432   2.824
 5699SOL    HW217997   2.198   2.335   2.791
 5700SOL     OW17998   6.207   0.848   3.447
 5700SOL    HW117999   6.302   0.837   3.474
 5700SOL    HW218000   6.153   0.877   3.526
 5701SOL     OW18001   0.240   0.760   1.284
 5701SOL    HW118002   0.293   0.776   1.201
 5701SOL    HW218003   0.295   0.786   1.364
 5702SOL     OW18004   2.667   6.621   4.271
 5702SOL    HW118005   2.668   6.721   4.277
 5702SOL    HW218006   2.672   6.593   4.175
 5703SOL     OW18007   0.045   2.936   6.629
 5703SOL    HW118008   6.990   2.958   6.689
 5703SOL    HW218009   0.035   2.843   6.593
 5704SOL     OW18010   5.160   4.564   3.946
 5704SOL    HW118011   5.068   4.555   3.909
 5704SOL    HW218012   5.155   4.576   4.045
 5705SOL     OW18013   6.114   6.620   5.405
 5705SOL    HW118014   6.145   6.690   5.340
 5705SOL    HW218015   6.039   6.657   5.460
 5706SOL     OW18016   4.710   2.067   0.104
 5706SOL    HW118017   4.636   2.013   0.144
 5706SOL    HW218018   4.784   2.078   0.171
 5707SOL     OW18019   6.016   5.749   2.240
 5707SOL    HW118020   5.978   5.678   2.298
 5707SOL    HW218021   6.024   5.834   2.292
 5708SOL     OW18022   4.412   5.961   2.830
 5708SOL    HW118023   4.465   6.038   2.864
 5708SOL    HW218024   4.458   5.920   2.751
 5709SOL     OW18025   0.514   1.692   2.562
 5709SOL    HW118026   0.506   1.673   2.464
 5709SOL    HW218027   0.427   1.671   2.607
 5710SOL     OW18028   2.928   2.010   1.043
 5710SOL    HW118029   2.911   2.065   0.961
 5710SOL    HW218030   2.985   2.062   1.107
 5711SOL     OW18031   5.764   2.126   2.108
 5711SOL    HW118032   5.698   2.059   2.143
 5711SOL    HW218033   5.849   2.120   2.160
 5712SOL     OW18034   6.208   6.274   1.338
 5712SOL    HW118035   6.179   6.295   1.245
 5712SOL    HW218036   6.278   6.204   1.337
 5713SOL     OW18037   2.571   6.674   0.351
 5713SOL    HW118038   2.527   6.763   0.345
 5713SOL    HW218039   2.629   6.670   0.432
 5714SOL     OW18040   6.140   6.844   1.254
 5714SOL    HW118041   6.089   6.930   1.261
 5714SOL    HW218042   6.193   6.830   1.337
 5715SOL     OW18043   0.528   0.260   1.285
 5715SOL    HW118044   0.502   0.309   1.369
 5715SOL    HW218045   0.458   0.192   1.263
 5716SOL     OW18046   6.604   4.554   5.461
 5716SOL    HW118047   6.522   4.593   5.503
 5716SOL    HW218048   6.672   4.627   5.447
 5717SOL     OW18049   1.111   5.031   3.010
 5717SOL    HW118050   1.024   5.068   3.043
 5717SOL    HW218051   1.162   4.991   3.087
 5718SOL     OW18052   0.790   3.306   0.272
 5718SOL    HW118053   0.741   3.287   0.186
 5718SOL    HW218054   0.886   3.283   0.261
 5719SOL     OW18055   2.566   3.690   0.919
 5719SOL    HW118056   2.631   3.633   0.968
 5719SOL    HW218057   2.615   3.759   0.865
 5720SOL     OW18058   2.363   4.498   6.171
 5720SOL    HW118059   2.291   4.431   6.181
 5720SOL    HW218060   2.410   4.485   6.084
 5721SOL     OW18061   3.630   4.087   0.773
 5721SOL    HW118062   3.718   4.094   0.726
 5721SOL    HW218063   3.559   4.061   0.707
 5722SOL     OW18064   0.811   1.077   6.138
 5722SOL    HW118065   0.811   1.076   6.038
 5722SOL    HW218066   0.717   1.080   6.172
 5723SOL     OW18067   4.691   3.272   6.982
 5723SOL    HW118068   4.650   3.217   6.909
 5723SOL    HW218069   4.787   3.288   6.960
 5724SOL     OW18070   6.358   2.526   4.094
 5724SOL    HW118071   6.431   2.561   4.153
 5724SOL    HW218072   6.277   2.585   4.102
 5725SOL     OW18073   6.867   4.182   4.162
 5725SOL    HW118074   6.961   4.215   4.155
 5725SOL    HW218075   6.825   4.181   4.071
 5726SOL     OW18076   5.293   4.553   2.656
 5726SOL    HW118077   5.272   4.573   2.560
 5726SOL    HW218078   5.217   4.505   2.698
 5727SOL     OW18079   0.540   2.189   4.938
 5727SOL    HW118080   0.546   2.116   4.869
 5727SOL    HW218081   0.630   2.230   4.951
 5728SOL     OW18082   4.780   6.550   5.079
 5728SOL    HW118083   4.798   6.570   5.176
 5728SOL    HW218084   4.684   6.571   5.059
 5729SOL     OW18085   1.878   2.105   5.205
 5729SOL    HW118086   1.875   2.046   5.124
 5729SOL    HW218087   1.953   2.076   5.264
 5730SOL     OW18088   6.708   4.135   4.880
 5730SOL    HW118089   6.623   4.100   4.919
 5730SOL    HW218090   6.687   4.197   4.804
 5731SOL     OW18091   0.347   6.279   2.151
 5731SOL    HW118092   0.443   6.304   2.137
 5731SOL    HW218093   0.294   6.301   2.069
 5732SOL     OW18094   0.557   0.252   3.471
 5732SOL    HW118095   0.612   0.189   3.525
 5732SOL    HW218096   0.480   0.203   3.430
 5733SOL     OW18097   3.645   0.656   5.605
 5733SOL    HW118098   3.576   0.592   5.638
 5733SOL    HW218099   3.634   0.744   5.652
 5734SOL     OW18100   2.449   6.426   3.050
 5734SOL    HW118101   2.486   6.518   3.050
 5734SOL    HW218102   2.350   6.430   3.034
 5735SOL     OW18103   2.772   1.410   1.768
 5735SOL    HW118104   2.838   1.430   1.840
 5735SOL    HW218105   2.818   1.363   1.692
 5736SOL     OW18106   1.701   5.294   0.189
 5736SOL    HW118107   1.773   5.364   0.182
 5736SOL    HW218108   1.612   5.338   0.197
 5737SOL     OW18109   5.240   4.459   0.794
 5737SOL    HW118110   5.304   4.512   0.738
 5737SOL    HW218111   5.272   4.460   0.889
 5738SOL     OW18112   1.504   3.666   6.187
 5738SOL    HW118113   1.502   3.754   6.233
 5738SOL    HW218114   1.514   3.593   6.255
 5739SOL     OW18115   0.631   1.032   0.884
 5739SOL    HW118116   0.719   1.005   0.846
 5739SOL    HW218117   0.619   0.992   0.975
 5740SOL     OW18118   4.014   5.576   6.309
 5740SOL    HW118119   3.952   5.529   6.246
 5740SOL    HW218120   3.966   5.594   6.395
 5741SOL     OW18121   0.480   4.801   3.401
 5741SOL    HW118122   0.550   4.873   3.407
 5741SOL    HW218123   0.436   4.789   3.490
 5742SOL     OW18124   6.416   6.525   4.538
 5742SOL    HW118125   6.491   6.482   4.587
 5742SOL    HW218126   6.421   6.501   4.441
 5743SOL     OW18127   1.689   6.661   5.192
 5743SOL    HW118128   1.628   6.581   5.198
 5743SOL    HW218129   1.717   6.688   5.285
 5744SOL     OW18130   5.692   6.567   2.272
 5744SOL    HW118131   5.766   6.620   2.230
 5744SOL    HW218132   5.623   6.546   2.202
 5745SOL     OW18133   1.361   1.919   3.774
 5745SOL    HW118134   1.417   1.996   3.743
 5745SOL    HW218135   1.290   1.900   3.707
 5746SOL     OW18136   5.751   3.756   0.032
 5746SOL    HW118137   5.702   3.684   7.005
 5746SOL    HW218138   5.717   3.763   0.126
 5747SOL     OW18139   0.960   6.357   3.157
 5747SOL    HW118140   0.873   6.379   3.202
 5747SOL    HW218141   1.035   6.405   3.203
 5748SOL     OW18142   2.620   6.211   3.099
 5748SOL    HW118143   2.563   6.153   3.157
 5748SOL    HW218144   2.567   6.290   3.069
 5749SOL     OW18145   2.175   1.661   3.479
 5749SOL    HW118146   2.151   1.673   3.575
 5749SOL    HW218147   2.235   1.582   3.469
 5750SOL     OW18148   6.627   5.659   2.523
 5750SOL    HW118149   6.530   5.656   2.499
 5750SOL    HW218150   6.660   5.567   2.543
 5751SOL     OW18151   2.645   3.853   6.299
 5751SOL    HW118152   2.673   3.766   6.260
 5751SOL    HW218153   2.681   3.862   6.392
 5752SOL     OW18154   6.233   0.264   6.978
 5752SOL    HW118155   6.294   0.319   0.014
 5752SOL    HW218156   6.220   0.310   6.891
 5753SOL     OW18157   3.748   2.249   0.401
 5753SOL    HW118158   3.793   2.217   0.485
 5753SOL    HW218159   3.815   2.255   0.328
 5754SOL     OW18160   6.021   4.674   0.858
 5754SOL    HW118161   6.065   4.606   0.799
 5754SOL    HW218162   6.062   4.764   0.841
 5755SOL     OW18163   3.468   3.888   1.844
 5755SOL    HW118164   3.439   3.946   1.768
 5755SOL    HW218165   3.566   3.901   1.860
 5756SOL     OW18166   0.160   6.397   4.283
 5756SOL    HW118167   0.174   6.461   4.207
 5756SOL    HW218168   0.063   6.370   4.285
 5757SOL     OW18169   0.648   5.133   1.385
 5757SOL    HW118170   0.677   5.156   1.292
 5757SOL    HW218171   0.728   5.126   1.444
 5758SOL     OW18172   0.924   1.809   5.631
 5758SOL    HW118173   1.020   1.790   5.611
 5758SOL    HW218174   0.866   1.768   5.560
 5759SOL     OW18175   4.959   1.950   4.960
 5759SOL    HW118176   4.979   1.856   4.930
 5759SOL    HW218177   4.987   1.962   5.055
 5760SOL     OW18178   1.720   5.763   1.869
 5760SOL    HW118179   1.773   5.686   1.903
 5760SOL    HW218180   1.761   5.849   1.900
 5761SOL     OW18181   4.704   0.293   4.913
 5761SOL    HW118182   4.681   0.309   4.817
 5761SOL    HW218183   4.782   0.350   4.938
 5762SOL     OW18184   5.368   6.194   1.384
 5762SOL    HW118185   5.413   6.124   1.328
 5762SOL    HW218186   5.393   6.284   1.351
 5763SOL     OW18187   1.086   1.421   1.194
 5763SOL    HW118188   1.151   1.459   1.260
 5763SOL    HW218189   1.118   1.439   1.101
 5764SOL     OW18190   4.586   3.520   5.594
 5764SOL    HW118191   4.601   3.617   5.611
 5764SOL    HW218192   4.664   3.467   5.628
 5765SOL     OW18193   5.513   4.812   0.734
 5765SOL    HW118194   5.598   4.823   0.682
 5765SOL    HW218195   5.459   4.896   0.727
 5766SOL     OW18196   2.931   1.008   3.819
 5766SOL    HW118197   2.904   1.048   3.907
 5766SOL    HW218198   2.893   1.063   3.745
 5767SOL     OW18199   0.160   6.499   1.110
 5767SOL    HW118200   0.226   6.538   1.046
 5767SOL    HW218201   0.190   6.514   1.204
 5768SOL     OW18202   6.539   0.701   2.641
 5768SOL    HW118203   6.592   0.629   2.597
 5768SOL    HW218204   6.592   0.739   2.717
 5769SOL     OW18205   2.312   5.599   3.894
 5769SOL    HW118206   2.241   5.587   3.825
 5769SOL    HW218207   2.402   5.587   3.853
 5770SOL     OW18208   6.227   0.156   1.573
 5770SOL    HW118209   6.168   0.078   1.550
 5770SOL    HW218210   6.224   0.223   1.499
 5771SOL     OW18211   0.788   1.600   2.269
 5771SOL    HW118212   0.707   1.659   2.266
 5771SOL    HW218213   0.860   1.639   2.212
 5772SOL     OW18214   6.709   4.304   6.927
 5772SOL    HW118215   6.803   4.332   6.909
 5772SOL    HW218216   6.676   4.349   7.010
 5773SOL     OW18217   5.909   5.742   4.053
 5773SOL    HW118218   5.974   5.817   4.066
 5773SOL    HW218219   5.860   5.754   3.967
 5774SOL     OW18220   2.684   5.365   2.852
 5774SOL    HW118221   2.713   5.410   2.767
 5774SOL    HW218222   2.624   5.289   2.830
 5775SOL     OW18223   0.119   0.326   0.484
 5775SOL    HW118224   0.147   0.232   0.499
 5775SOL    HW218225   0.057   0.354   0.557
 5776SOL     OW18226   5.217   0.996   5.954
 5776SOL    HW118227   5.142   1.051   5.991
 5776SOL    HW218228   5.305   1.036   5.983
 5777SOL     OW18229   5.907   0.420   5.262
 5777SOL    HW118230   5.971   0.351   5.229
 5777SOL    HW218231   5.952   0.477   5.331
 5778SOL     OW18232   2.581   7.003   3.797
 5778SOL    HW118233   2.531   0.052   3.847
 5778SOL    HW218234   2.564   7.012   3.699
 5779SOL     OW18235   4.324   1.115   2.433
 5779SOL    HW118236   4.266   1.155   2.504
 5779SOL    HW218237   4.308   1.160   2.346
 5780SOL     OW18238   6.102   3.643   1.353
 5780SOL    HW118239   6.156   3.714   1.306
 5780SOL    HW218240   6.061   3.681   1.435
 5781SOL     OW18241   2.167   4.840   5.071
 5781SOL    HW118242   2.242   4.897   5.105
 5781SOL    HW218243   2.155   4.854   4.973
 5782SOL     OW18244   2.660   0.985   3.218
 5782SOL    HW118245   2.583   1.021   3.165
 5782SOL    HW218246   2.745   1.025   3.184
 5783SOL     OW18247   2.503   6.462   0.931
 5783SOL    HW118248   2.406   6.485   0.941
 5783SOL    HW218249   2.516   6.406   0.849
 5784SOL     OW18250   1.910   5.571   0.161
 5784SOL    HW118251   1.952   5.637   0.223
 5784SOL    HW218252   1.955   5.482   0.170
 5785SOL     OW18253   2.612   1.726   0.451
 5785SOL    HW118254   2.706   1.736   0.418
 5785SOL    HW218255   2.606   1.759   0.545
 5786SOL     OW18256   1.008   3.208   0.454
 5786SOL    HW118257   0.933   3.269   0.431
 5786SOL    HW218258   1.094   3.260   0.455
 5787SOL     OW18259   0.118   3.203   5.538
 5787SOL    HW118260   0.089   3.247   5.453
 5787SOL    HW218261   0.162   3.270   5.598
 5788SOL     OW18262   1.701   2.617   1.875
 5788SOL    HW118263   1.625   2.682   1.878
 5788SOL    HW218264   1.667   2.528   1.844
 5789SOL     OW18265   3.083   5.258   6.890
 5789SOL    HW118266   3.094   5.341   6.945
 5789SOL    HW218267   2.986   5.238   6.877
 5790SOL     OW18268   6.283   5.539   3.565
 5790SOL    HW118269   6.244   5.630   3.573
 5790SOL    HW218270   6.305   5.504   3.656
 5791SOL     OW18271   4.328   1.568   1.744
 5791SOL    HW118272   4.422   1.565   1.709
 5791SOL    HW218273   4.329   1.560   1.843
 5792SOL     OW18274   4.656   2.424   2.652
 5792SOL    HW118275   4.601   2.483   2.712
 5792SOL    HW218276   4.597   2.355   2.611
 5793SOL     OW18277   3.845   2.552   6.443
 5793SOL    HW118278   3.812   2.529   6.351
 5793SOL    HW218279   3.784   2.619   6.485
 5794SOL     OW18280   3.668   6.319   0.040
 5794SOL    HW118281   3.630   6.369   6.984
 5794SOL    HW218282   3.604   6.323   0.117
 5795SOL     OW18283   2.050   5.786   1.765
 5795SOL    HW118284   2.033   5.831   1.852
 5795SOL    HW218285   2.090   5.852   1.701
 5796SOL     OW18286   5.273   0.779   6.472
 5796SOL    HW118287   5.268   0.841   6.393
 5796SOL    HW218288   5.201   0.801   6.537
 5797SOL     OW18289   6.740   2.914   0.725
 5797SOL    HW118290   6.837   2.898   0.742
 5797SOL    HW218291   6.685   2.846   0.775
 5798SOL     OW18292   1.637   3.431   4.398
 5798SOL    HW118293   1.568   3.500   4.374
 5798SOL    HW218294   1.661   3.378   4.316
 5799SOL     OW18295   2.807   0.302   3.573
 5799SOL    HW118296   2.889   0.267   3.527
 5799SOL    HW218297   2.760   0.227   3.620
 5800SOL     OW18298   1.484   0.095   1.303
 5800SOL    HW118299   1.445   0.183   1.327
 5800SOL    HW218300   1.496   0.040   1.386
 5801SOL     OW18301   1.973   1.558   2.167
 5801SOL    HW118302   2.018   1.498   2.100
 5801SOL    HW218303   1.875   1.538   2.169
 5802SOL     OW18304   0.798   0.083   1.950
 5802SOL    HW118305   0.823   0.180   1.957
 5802SOL    HW218306   0.699   0.075   1.940
 5803SOL     OW18307   0.852   5.927   4.189
 5803SOL    HW118308   0.894   5.942   4.279
 5803SOL    HW218309   0.760   5.890   4.202
 5804SOL     OW18310   6.279   1.768   3.084
 5804SOL    HW118311   6.341   1.822   3.027
 5804SOL    HW218312   6.313   1.766   3.178
 5805SOL     OW18313   1.593   2.993   2.284
 5805SOL    HW118314   1.549   3.070   2.237
 5805SOL    HW218315   1.681   2.974   2.241
 5806SOL     OW18316   6.588   3.899   1.834
 5806SOL    HW118317   6.681   3.893   1.871
 5806SOL    HW218318   6.574   3.990   1.795
 5807SOL     OW18319   1.717   0.939   1.772
 5807SOL    HW118320   1.759   0.998   1.703
 5807SOL    HW218321   1.666   0.995   1.837
 5808SOL     OW18322   6.632   0.705   5.956
 5808SOL    HW118323   6.699   0.668   5.893
 5808SOL    HW218324   6.662   0.688   6.050
 5809SOL     OW18325   0.334   2.781   5.017
 5809SOL    HW118326   0.248   2.768   4.968
 5809SOL    HW218327   0.334   2.727   5.101
 5810SOL     OW18328   3.456   6.717   5.110
 5810SOL    HW118329   3.398   6.660   5.167
 5810SOL    HW218330   3.547   6.678   5.104
 5811SOL     OW18331   4.042   4.337   6.592
 5811SOL    HW118332   4.026   4.368   6.685
 5811SOL    HW218333   4.120   4.387   6.553
 5812SOL     OW18334   5.688   2.811   6.061
 5812SOL    HW118335   5.651   2.727   6.022
 5812SOL    HW218336   5.629   2.841   6.136
 5813SOL     OW18337   4.955   5.663   0.640
 5813SOL    HW118338   4.915   5.572   0.654
 5813SOL    HW218339   4.881   5.731   0.639
 5814SOL     OW18340   5.937   1.107   1.901
 5814SOL    HW118341   5.913   1.010   1.908
 5814SOL    HW218342   6.002   1.131   1.973
 5815SOL     OW18343   6.272   3.174   3.967
 5815SOL    HW118344   6.228   3.119   3.896
 5815SOL    HW218345   6.201   3.216   4.024
 5816SOL     OW18346   0.259   3.958   2.531
 5816SOL    HW118347   0.220   3.891   2.468
 5816SOL    HW218348   0.280   3.913   2.619
 5817SOL     OW18349   6.016   3.876   3.107
 5817SOL    HW118350   6.034   3.972   3.085
 5817SOL    HW218351   5.948   3.839   3.044
 5818SOL     OW18352   2.781   0.432   4.513
 5818SOL    HW118353   2.747   0.342   4.485
 5818SOL    HW218354   2.880   0.436   4.498
 5819SOL     OW18355   4.083   4.265   0.459
 5819SOL    HW118356   3.990   4.230   0.475
 5819SOL    HW218357   4.125   4.289   0.547
 5820SOL     OW18358   6.316   6.246   2.728
 5820SOL    HW118359   6.229   6.204   2.754
 5820SOL    HW218360   6.300   6.315   2.657
 5821SOL     OW18361   0.026   0.276   1.633
 5821SOL    HW118362   6.995   0.262   1.717
 5821SOL    HW218363   6.989   0.318   1.563
 5822SOL     OW18364   1.464   4.171   2.904
 5822SOL    HW118365   1.388   4.235   2.914
 5822SOL    HW218366   1.471   4.115   2.986
 5823SOL     OW18367   1.685   6.470   3.876
 5823SOL    HW118368   1.714   6.528   3.952
 5823SOL    HW218369   1.694   6.521   3.790
 5824SOL     OW18370   1.636   6.780   2.441
 5824SOL    HW118371   1.720   6.769   2.388
 5824SOL    HW218372   1.558   6.785   2.379
 5825SOL     OW18373   4.861   1.649   3.887
 5825SOL    HW118374   4.894   1.574   3.830
 5825SOL    HW218375   4.793   1.702   3.836
 5826SOL     OW18376   1.325   6.807   5.623
 5826SOL    HW118377   1.424   6.800   5.638
 5826SOL    HW218378   1.305   6.890   5.570
 5827SOL     OW18379   2.103   4.387   3.691
 5827SOL    HW118380   2.100   4.423   3.785
 5827SOL    HW218381   2.136   4.293   3.692
 5828SOL     OW18382   4.046   1.017   5.419
 5828SOL    HW118383   3.998   1.105   5.424
 5828SOL    HW218384   3.980   0.943   5.410
 5829SOL     OW18385   2.253   0.305   3.032
 5829SOL    HW118386   2.270   0.210   3.060
 5829SOL    HW218387   2.166   0.310   2.983
 5830SOL     OW18388   4.248   5.403   4.323
 5830SOL    HW118389   4.180   5.471   4.295
 5830SOL    HW218390   4.302   5.375   4.245
 5831SOL     OW18391   1.551   2.077   5.102
 5831SOL    HW118392   1.561   2.103   5.005
 5831SOL    HW218393   1.639   2.085   5.148
 5832SOL     OW18394   2.918   5.255   1.992
 5832SOL    HW118395   2.834   5.308   1.984
 5832SOL    HW218396   2.912   5.195   2.072
 5833SOL     OW18397   3.632   5.404   0.269
 5833SOL    HW118398   3.594   5.352   0.192
 5833SOL    HW218399   3.732   5.398   0.268
 5834SOL     OW18400   6.205   2.777   6.638
 5834SOL    HW118401   6.257   2.862   6.630
 5834SOL    HW218402   6.110   2.798   6.661
 5835SOL     OW18403   4.841   1.874   2.923
 5835SOL    HW118404   4.777   1.946   2.949
 5835SOL    HW218405   4.934   1.910   2.922
 5836SOL     OW18406   5.405   5.906   2.324
 5836SOL    HW118407   5.472   5.899   2.250
 5836SOL    HW218408   5.368   5.815   2.344
 5837SOL     OW18409   2.723   5.114   6.263
 5837SOL    HW118410   2.682   5.076   6.346
 5837SOL    HW218411   2.671   5.194   6.235
 5838SOL     OW18412   3.893   2.744   0.286
 5838SOL    HW118413   3.882   2.657   0.333
 5838SOL    HW218414   3.985   2.780   0.303
 5839SOL     OW18415   1.717   2.399   0.508
 5839SOL    HW118416   1.746   2.461   0.581
 5839SOL    HW218417   1.657   2.328   0.545
 5840SOL     OW18418   0.201   3.697   3.656
 5840SOL    HW118419   0.146   3.643   3.719
 5840SOL    HW218420   0.271   3.639   3.614
 5841SOL     OW18421   5.283   1.368   0.652
 5841SOL    HW118422   5.192   1.403   0.674
 5841SOL    HW218423   5.312   1.303   0.721
 5842SOL     OW18424   2.744   1.660   1.075
 5842SOL    HW118425   2.651   1.660   1.111
 5842SOL    HW218426   2.741   1.663   0.975
 5843SOL     OW18427   3.156   3.274   1.070
 5843SOL    HW118428   3.144   3.212   0.993
 5843SOL    HW218429   3.118   3.233   1.153
 5844SOL     OW18430   0.406   5.929   4.760
 5844SOL    HW118431   0.322   5.876   4.766
 5844SOL    HW218432   0.448   5.915   4.670
 5845SOL     OW18433   1.617   6.901   2.704
 5845SOL    HW118434   1.599   6.999   2.691
 5845SOL    HW218435   1.643   6.860   2.617
 5846SOL     OW18436   0.566   3.653   5.629
 5846SOL    HW118437   0.580   3.568   5.680
 5846SOL    HW218438   0.519   3.720   5.686
 5847SOL     OW18439   1.485   3.927   6.277
 5847SOL    HW118440   1.439   3.992   6.217
 5847SOL    HW218441   1.582   3.951   6.284
 5848SOL     OW18442   1.859   5.590   2.056
 5848SOL    HW118443   1.954   5.575   2.080
 5848SOL    HW218444   1.802   5.582   2.138
 5849SOL     OW18445   3.131   5.929   6.221
 5849SOL    HW118446   3.097   5.946   6.314
 5849SOL    HW218447   3.082   5.988   6.157
 5850SOL     OW18448   0.653   1.410   2.137
 5850SOL    HW118449   0.716   1.468   2.188
 5850SOL    HW218450   0.598   1.465   2.075
 5851SOL     OW18451   6.244   3.550   4.296
 5851SOL    HW118452   6.252   3.644   4.327
 5851SOL    HW218453   6.147   3.525   4.290
 5852SOL     OW18454   5.139   4.257   2.542
 5852SOL    HW118455   5.122   4.309   2.459
 5852SOL    HW218456   5.236   4.233   2.548
 5853SOL     OW18457   4.651   4.744   6.310
 5853SOL    HW118458   4.733   4.687   6.307
 5853SOL    HW218459   4.671   4.833   6.268
 5854SOL     OW18460   3.565   4.920   5.486
 5854SOL    HW118461   3.499   4.872   5.429
 5854SOL    HW218462   3.610   4.991   5.433
 5855SOL     OW18463   2.439   2.670   2.780
 5855SOL    HW118464   2.404   2.760   2.754
 5855SOL    HW218465   2.381   2.599   2.740
 5856SOL     OW18466   0.952   6.134   3.003
 5856SOL    HW118467   0.972   6.219   3.050
 5856SOL    HW218468   0.971   6.144   2.905
 5857SOL     OW18469   5.663   4.875   6.714
 5857SOL    HW118470   5.621   4.821   6.642
 5857SOL    HW218471   5.609   4.958   6.730
 5858SOL     OW18472   1.655   0.770   2.722
 5858SOL    HW118473   1.748   0.735   2.731
 5858SOL    HW218474   1.619   0.793   2.813
 5859SOL     OW18475   5.550   5.712   1.459
 5859SOL    HW118476   5.473   5.743   1.405
 5859SOL    HW218477   5.519   5.648   1.528
 5860SOL     OW18478   0.587   4.170   3.144
 5860SOL    HW118479   0.634   4.257   3.159
 5860SOL    HW218480   0.603   4.109   3.222
 5861SOL     OW18481   4.857   0.907   5.144
 5861SOL    HW118482   4.905   0.824   5.171
 5861SOL    HW218483   4.780   0.883   5.084
 5862SOL     OW18484   6.371   5.463   2.766
 5862SOL    HW118485   6.376   5.535   2.697
 5862SOL    HW218486   6.420   5.492   2.848
 5863SOL     OW18487   4.063   6.835   6.895
 5863SOL    HW118488   4.152   6.872   6.924
 5863SOL    HW218489   4.002   6.831   6.974
 5864SOL     OW18490   3.177   3.970   2.298
 5864SOL    HW118491   3.257   4.005   2.248
 5864SOL    HW218492   3.110   3.936   2.232
 5865SOL     OW18493   6.416   0.371   6.510
 5865SOL    HW118494   6.379   0.447   6.564
 5865SOL    HW218495   6.367   0.287   6.533
 5866SOL     OW18496   3.093   2.966   2.828
 5866SOL    HW118497   3.128   3.037   2.889
 5866SOL    HW218498   2.996   2.951   2.845
 5867SOL     OW18499   2.706   1.650   1.469
 5867SOL    HW118500   2.682   1.665   1.565
 5867SOL    HW218501   2.661   1.720   1.413
 5868SOL     OW18502   0.688   1.193   6.512
 5868SOL    HW118503   0.743   1.267   6.548
 5868SOL    HW218504   0.747   1.116   6.488
 5869SOL     OW18505   1.428   6.107   3.581
 5869SOL    HW118506   1.491   6.097   3.504
 5869SOL    HW218507   1.455   6.186   3.637
 5870SOL     OW18508   3.502   6.258   4.590
 5870SOL    HW118509   3.499   6.196   4.511
 5870SOL    HW218510   3.510   6.352   4.558
 5871SOL     OW18511   3.184   3.021   3.747
 5871SOL    HW118512   3.176   2.947   3.680
 5871SOL    HW218513   3.235   3.097   3.707
 5872SOL     OW18514   4.720   5.796   0.593
 5872SOL    HW118515   4.657   5.731   0.551
 5872SOL    HW218516   4.686   5.821   0.683
 5873SOL     OW18517   4.328   6.065   2.184
 5873SOL    HW118518   4.420   6.105   2.187
 5873SOL    HW218519   4.301   6.039   2.276
 5874SOL     OW18520   1.067   4.117   5.721
 5874SOL    HW118521   0.980   4.079   5.688
 5874SOL    HW218522   1.051   4.165   5.807
 5875SOL     OW18523   3.632   2.016   1.545
 5875SOL    HW118524   3.701   2.013   1.618
 5875SOL    HW218525   3.574   1.934   1.551
 5876SOL     OW18526   3.375   3.039   1.804
 5876SOL    HW118527   3.382   3.074   1.711
 5876SOL    HW218528   3.334   3.109   1.863
 5877SOL     OW18529   5.745   4.553   1.311
 5877SOL    HW118530   5.779   4.563   1.217
 5877SOL    HW218531   5.656   4.598   1.319
 5878SOL     OW18532   2.049   4.560   2.461
 5878SOL    HW118533   2.108   4.541   2.539
 5878SOL    HW218534   2.023   4.656   2.461
 5879SOL     OW18535   0.600   4.132   4.026
 5879SOL    HW118536   0.577   4.037   4.007
 5879SOL    HW218537   0.583   4.152   4.122
 5880SOL     OW18538   3.227   5.596   0.314
 5880SOL    HW118539   3.246   5.666   0.246
 5880SOL    HW218540   3.245   5.506   0.275
 5881SOL     OW18541   1.478   5.648   4.354
 5881SOL    HW118542   1.486   5.738   4.397
 5881SOL    HW218543   1.543   5.585   4.397
 5882SOL     OW18544   5.063   0.884   2.795
 5882SOL    HW118545   5.132   0.822   2.833
 5882SOL    HW218546   5.089   0.908   2.702
 5883SOL     OW18547   0.572   3.323   5.501
 5883SOL    HW118548   0.583   3.361   5.592
 5883SOL    HW218549   0.650   3.264   5.480
 5884SOL     OW18550   0.522   1.229   3.735
 5884SOL    HW118551   0.569   1.312   3.702
 5884SOL    HW218552   0.444   1.209   3.675
 5885SOL     OW18553   5.922   6.884   0.994
 5885SOL    HW118554   5.998   6.950   0.990
 5885SOL    HW218555   5.835   6.934   0.993
 5886SOL     OW18556   0.434   0.808   6.732
 5886SOL    HW118557   0.429   0.847   6.640
 5886SOL    HW218558   0.493   0.728   6.731
 5887SOL     OW18559   4.542   6.356   3.159
 5887SOL    HW118560   4.527   6.432   3.221
 5887SOL    HW218561   4.581   6.390   3.073
 5888SOL     OW18562   0.898   0.577   3.211
 5888SOL    HW118563   0.842   0.603   3.132
 5888SOL    HW218564   0.839   0.534   3.280
 5889SOL     OW18565   2.746   0.423   0.289
 5889SOL    HW118566   2.708   0.425   0.381
 5889SOL    HW218567   2.816   0.352   0.283
 5890SOL     OW18568   3.454   4.962   5.982
 5890SOL    HW118569   3.412   4.926   5.898
 5890SOL    HW218570   3.412   5.050   6.005
 5891SOL     OW18571   1.983   3.360   6.614
 5891SOL    HW118572   2.061   3.345   6.554
 5891SOL    HW218573   1.980   3.287   6.683
 5892SOL     OW18574   1.523   0.140   2.591
 5892SOL    HW118575   1.542   0.103   2.499
 5892SOL    HW218576   1.548   0.236   2.594
 5893SOL     OW18577   1.944   0.819   3.030
 5893SOL    HW118578   1.955   0.864   2.941
 5893SOL    HW218579   1.907   0.885   3.096
 5894SOL     OW18580   0.618   3.561   3.777
 5894SOL    HW118581   0.685   3.569   3.704
 5894SOL    HW218582   0.661   3.518   3.857
 5895SOL     OW18583   5.209   3.850   3.769
 5895SOL    HW118584   5.197   3.873   3.865
 5895SOL    HW218585   5.175   3.925   3.712
 5896SOL     OW18586   4.317   2.130   5.674
 5896SOL    HW118587   4.243   2.173   5.726
 5896SOL    HW218588   4.394   2.193   5.669
 5897SOL     OW18589   4.169   0.056   1.679
 5897SOL    HW118590   4.256   0.008   1.667
 5897SOL    HW218591   4.177   0.122   1.754
 5898SOL     OW18592   1.917   6.826   2.428
 5898SOL    HW118593   1.989   6.760   2.408
 5898SOL    HW218594   1.958   6.910   2.463
 5899SOL     OW18595   5.530   0.136   3.821
 5899SOL    HW118596   5.472   0.069   3.868
 5899SOL    HW218597   5.624   0.125   3.852
 5900SOL     OW18598   4.099   5.127   2.083
 5900SOL    HW118599   4.035   5.050   2.084
 5900SOL    HW218600   4.090   5.177   2.169
 5901SOL     OW18601   3.493   6.994   5.391
 5901SOL    HW118602   3.455   6.902   5.392
 5901SOL    HW218603   3.488   0.010   5.299
 5902SOL     OW18604   6.288   1.186   0.004
 5902SOL    HW118605   6.372   1.184   0.059
 5902SOL    HW218606   6.308   1.153   6.934
 5903SOL     OW18607   0.160   3.278   6.532
 5903SOL    HW118608   0.068   3.271   6.571
 5903SOL    HW218609   0.168   3.217   6.454
 5904SOL     OW18610   0.503   4.062   2.455
 5904SOL    HW118611   0.422   4.008   2.480
 5904SOL    HW218612   0.474   4.150   2.417
 5905SOL     OW18613   6.544   4.715   1.903
 5905SOL    HW118614   6.608   4.731   1.828
 5905SOL    HW218615   6.454   4.750   1.879
 5906SOL     OW18616   6.907   1.445   4.008
 5906SOL    HW118617   6.876   1.396   4.089
 5906SOL    HW218618   6.834   1.444   3.939
 5907SOL     OW18619   1.779   6.685   2.210
 5907SOL    HW118620   1.861   6.705   2.157
 5907SOL    HW218621   1.723   6.618   2.161
 5908SOL     OW18622   0.205   2.502   5.994
 5908SOL    HW118623   0.246   2.513   5.903
 5908SOL    HW218624   0.124   2.559   6.001
 5909SOL     OW18625   6.904   4.172   0.823
 5909SOL    HW118626   6.833   4.228   0.780
 5909SOL    HW218627   6.897   4.078   0.790
 5910SOL     OW18628   2.134   1.767   3.745
 5910SOL    HW118629   2.120   1.865   3.729
 5910SOL    HW218630   2.110   1.745   3.839
 5911SOL     OW18631   0.129   5.746   6.282
 5911SOL    HW118632   0.156   5.837   6.251
 5911SOL    HW218633   0.029   5.741   6.286
 5912SOL     OW18634   0.856   0.832   3.804
 5912SOL    HW118635   0.822   0.920   3.769
 5912SOL    HW218636   0.778   0.773   3.824
 5913SOL     OW18637   6.070   1.354   6.985
 5913SOL    HW118638   6.141   1.286   7.002
 5913SOL    HW218639   6.075   1.425   0.033
 5914SOL     OW18640   0.292   6.310   0.548
 5914SOL    HW118641   0.237   6.392   0.558
 5914SOL    HW218642   0.252   6.236   0.603
 5915SOL     OW18643   4.240   1.727   6.194
 5915SOL    HW118644   4.209   1.818   6.222
 5915SOL    HW218645   4.221   1.662   6.268
 5916SOL     OW18646   0.653   6.358   2.164
 5916SOL    HW118647   0.635   6.441   2.110
 5916SOL    HW218648   0.747   6.327   2.146
 5917SOL     OW18649   3.213   4.819   0.703
 5917SOL    HW118650   3.172   4.907   0.728
 5917SOL    HW218651   3.157   4.745   0.740
 5918SOL     OW18652   2.759   6.424   5.334
 5918SOL    HW118653   2.748   6.332   5.372
 5918SOL    HW218654   2.683   6.443   5.272
 5919SOL     OW18655   3.270   3.340   4.682
 5919SOL    HW118656   3.206   3.262   4.682
 5919SOL    HW218657   3.250   3.398   4.604
 5920SOL     OW18658   5.704   0.331   5.705
 5920SOL    HW118659   5.739   0.392   5.776
 5920SOL    HW218660   5.776   0.268   5.676
 5921SOL     OW18661   2.781   4.292   6.141
 5921SOL    HW118662   2.686   4.281   6.111
 5921SOL    HW218663   2.839   4.224   6.095
 5922SOL     OW18664   5.023   3.379   2.608
 5922SOL    HW118665   4.980   3.353   2.695
 5922SOL    HW218666   5.065   3.299   2.566
 5923SOL     OW18667   6.418   0.349   3.612
 5923SOL    HW118668   6.397   0.263   3.659
 5923SOL    HW218669   6.495   0.335   3.551
 5924SOL     OW18670   5.463   6.684   3.185
 5924SOL    HW118671   5.507   6.653   3.269
 5924SOL    HW218672   5.405   6.762   3.204
 5925SOL     OW18673   4.970   0.497   1.261
 5925SOL    HW118674   5.024   0.441   1.199
 5925SOL    HW218675   4.901   0.547   1.209
 5926SOL     OW18676   4.889   4.904   3.941
 5926SOL    HW118677   4.921   4.910   3.846
 5926SOL    HW218678   4.966   4.881   4.001
 5927SOL     OW18679   0.652   4.811   1.844
 5927SOL    HW118680   0.629   4.864   1.925
 5927SOL    HW218681   0.568   4.792   1.792
 5928SOL     OW18682   2.847   0.690   0.229
 5928SOL    HW118683   2.817   0.597   0.252
 5928SOL    HW218684   2.853   0.699   0.130
 5929SOL     OW18685   1.540   0.847   6.719
 5929SOL    HW118686   1.510   0.831   6.813
 5929SOL    HW218687   1.511   0.938   6.689
 5930SOL     OW18688   1.655   3.388   2.285
 5930SOL    HW118689   1.583   3.391   2.354
 5930SOL    HW218690   1.639   3.459   2.216
 5931SOL     OW18691   5.193   6.445   2.740
 5931SOL    HW118692   5.168   6.495   2.824
 5931SOL    HW218693   5.249   6.504   2.682
 5932SOL     OW18694   2.969   0.921   5.983
 5932SOL    HW118695   2.911   0.990   6.027
 5932SOL    HW218696   2.912   0.861   5.927
 5933SOL     OW18697   6.063   6.355   4.372
 5933SOL    HW118698   6.120   6.277   4.349
 5933SOL    HW218699   6.017   6.339   4.459
 5934SOL     OW18700   3.523   3.571   6.835
 5934SOL    HW118701   3.578   3.491   6.810
 5934SOL    HW218702   3.540   3.595   6.930
 5935SOL     OW18703   1.140   5.925   5.881
 5935SOL    HW118704   1.209   5.945   5.812
 5935SOL    HW218705   1.129   5.826   5.890
 5936SOL     OW18706   3.119   3.022   2.096
 5936SOL    HW118707   3.109   3.062   2.187
 5936SOL    HW218708   3.035   2.975   2.071
 5937SOL     OW18709   0.284   3.416   1.396
 5937SOL    HW118710   0.368   3.369   1.424
 5937SOL    HW218711   0.303   3.513   1.381
 5938SOL     OW18712   0.568   4.465   4.172
 5938SOL    HW118713   0.583   4.367   4.160
 5938SOL    HW218714   0.655   4.509   4.195
 5939SOL     OW18715   3.653   1.494   4.937
 5939SOL    HW118716   3.575   1.469   4.995
 5939SOL    HW218717   3.632   1.472   4.842
 5940SOL     OW18718   5.262   5.668   2.048
 5940SOL    HW118719   5.290   5.720   1.968
 5940SOL    HW218720   5.170   5.697   2.076
 5941SOL     OW18721   0.180   2.404   2.846
 5941SOL    HW118722   0.233   2.401   2.931
 5941SOL    HW218723   0.204   2.325   2.789
 5942SOL     OW18724   5.046   2.887   6.055
 5942SOL    HW118725   5.000   2.893   6.144
 5942SOL    HW218726   4.982   2.912   5.983
 5943SOL     OW18727   2.958   4.201   1.741
 5943SOL    HW118728   2.928   4.295   1.759
 5943SOL    HW218729   2.878   4.143   1.724
 5944SOL     OW18730   0.026   3.635   6.679
 5944SOL    HW118731   0.054   3.594   6.765
 5944SOL    HW218732   6.997   3.719   6.696
 5945SOL     OW18733   6.767   6.109   4.759
 5945SOL    HW118734   6.831   6.032   4.761
 5945SOL    HW218735   6.811   6.188   4.717
 5946SOL     OW18736   3.180   4.289   0.611
 5946SOL    HW118737   3.099   4.258   0.562
 5946SOL    HW218738   3.215   4.372   0.567
 5947SOL     OW18739   3.733   3.707   4.515
 5947SOL    HW118740   3.833   3.700   4.507
 5947SOL    HW218741   3.693   3.616   4.507
 5948SOL     OW18742   5.142   3.436   1.462
 5948SOL    HW118743   5.185   3.346   1.468
 5948SOL    HW218744   5.202   3.505   1.502
 5949SOL     OW18745   0.086   4.357   2.606
 5949SOL    HW118746   0.061   4.268   2.567
 5949SOL    HW218747   0.172   4.389   2.566
 5950SOL     OW18748   4.157   0.479   4.939
 5950SOL    HW118749   4.202   0.562   4.908
 5950SOL    HW218750   4.083   0.502   5.002
 5951SOL     OW18751   0.620   3.587   6.419
 5951SOL    HW118752   0.562   3.594   6.338
 5951SOL    HW218753   0.716   3.593   6.392
 5952SOL     OW18754   4.046   4.709   0.895
 5952SOL    HW118755   4.070   4.799   0.860
 5952SOL    HW218756   4.075   4.701   0.991
 5953SOL     OW18757   6.556   3.100   5.108
 5953SOL    HW118758   6.625   3.089   5.179
 5953SOL    HW218759   6.468   3.067   5.141
 5954SOL     OW18760   1.696   5.984   4.333
 5954SOL    HW118761   1.651   5.947   4.414
 5954SOL    HW218762   1.663   5.938   4.251
 5955SOL     OW18763   5.274   3.430   0.829
 5955SOL    HW118764   5.262   3.331   0.835
 5955SOL    HW218765   5.352   3.459   0.884
 5956SOL     OW18766   5.307   2.717   5.301
 5956SOL    HW118767   5.391   2.678   5.265
 5956SOL    HW218768   5.228   2.667   5.264
 5957SOL     OW18769   0.089   1.890   3.159
 5957SOL    HW118770   0.020   1.923   3.224
 5957SOL    HW218771   0.098   1.791   3.168
 5958SOL     OW18772   3.371   0.316   2.319
 5958SOL    HW118773   3.357   0.360   2.230
 5958SOL    HW218774   3.463   0.337   2.352
 5959SOL     OW18775   4.956   2.683   4.098
 5959SOL    HW118776   4.873   2.687   4.153
 5959SOL    HW218777   4.949   2.608   4.032
 5960SOL     OW18778   3.859   0.184   6.084
 5960SOL    HW118779   3.833   0.277   6.057
 5960SOL    HW218780   3.957   0.171   6.066
 5961SOL     OW18781   2.779   2.280   3.316
 5961SOL    HW118782   2.727   2.365   3.326
 5961SOL    HW218783   2.756   2.218   3.391
 5962SOL     OW18784   5.165   6.136   0.842
 5962SOL    HW118785   5.155   6.221   0.789
 5962SOL    HW218786   5.256   6.133   0.883
 5963SOL     OW18787   3.100   4.455   0.036
 5963SOL    HW118788   3.005   4.435   0.056
 5963SOL    HW218789   3.132   4.528   0.096
 5964SOL     OW18790   2.574   6.830   2.583
 5964SOL    HW118791   2.659   6.812   2.535
 5964SOL    HW218792   2.497   6.821   2.520
 5965SOL     OW18793   1.795   0.509   0.047
 5965SOL    HW118794   1.742   0.469   6.994
 5965SOL    HW218795   1.848   0.587   0.012
 5966SOL     OW18796   2.487   0.908   4.553
 5966SOL    HW118797   2.531   0.846   4.488
 5966SOL    HW218798   2.556   0.964   4.598
 5967SOL     OW18799   3.354   1.812   4.368
 5967SOL    HW118800   3.323   1.754   4.293
 5967SOL    HW218801   3.410   1.886   4.332
 5968SOL     OW18802   5.621   2.616   1.735
 5968SOL    HW118803   5.544   2.646   1.679
 5968SOL    HW218804   5.650   2.525   1.705
 5969SOL     OW18805   5.426   0.588   0.349
 5969SOL    HW118806   5.332   0.585   0.316
 5969SOL    HW218807   5.454   0.684   0.362
 5970SOL     OW18808   0.081   3.356   0.887
 5970SOL    HW118809   0.010   3.329   0.822
 5970SOL    HW218810   0.073   3.453   0.907
 5971SOL     OW18811   6.889   6.547   3.821
 5971SOL    HW118812   6.982   6.583   3.809
 5971SOL    HW218813   6.883   6.500   3.910
 5972SOL     OW18814   4.789   4.832   1.110
 5972SOL    HW118815   4.706   4.801   1.156
 5972SOL    HW218816   4.830   4.756   1.059
 5973SOL     OW18817   2.914   1.777   2.678
 5973SOL    HW118818   2.937   1.873   2.659
 5973SOL    HW218819   2.877   1.770   2.771
 5974SOL     OW18820   5.301   2.156   5.720
 5974SOL    HW118821   5.336   2.239   5.678
 5974SOL    HW218822   5.345   2.143   5.809
 5975SOL     OW18823   4.683   4.905   0.692
 5975SOL    HW118824   4.776   4.939   0.682
 5975SOL    HW218825   4.620   4.967   0.646
 5976SOL     OW18826   2.339   3.226   5.761
 5976SOL    HW118827   2.413   3.164   5.788
 5976SOL    HW218828   2.292   3.259   5.843
 5977SOL     OW18829   6.194   4.197   0.488
 5977SOL    HW118830   6.153   4.288   0.488
 5977SOL    HW218831   6.255   4.188   0.409
 5978SOL     OW18832   2.522   3.751   0.179
 5978SOL    HW118833   2.572   3.838   0.175
 5978SOL    HW218834   2.578   3.682   0.225
 5979SOL     OW18835   5.736   0.705   1.534
 5979SOL    HW118836   5.836   0.709   1.545
 5979SOL    HW218837   5.708   0.777   1.470
 5980SOL     OW18838   2.971   2.919   1.158
 5980SOL    HW118839   2.964   3.015   1.184
 5980SOL    HW218840   2.965   2.862   1.241
 5981SOL     OW18841   3.168   2.599   0.851
 5981SOL    HW118842   3.266   2.604   0.868
 5981SOL    HW218843   3.148   2.638   0.761
 5982SOL     OW18844   5.631   2.942   0.694
 5982SOL    HW118845   5.562   2.968   0.627
 5982SOL    HW218846   5.697   3.016   0.706
 5983SOL     OW18847   6.911   0.854   3.132
 5983SOL    HW118848   6.870   0.863   3.223
 5983SOL    HW218849   6.863   0.782   3.082
 5984SOL     OW18850   6.227   0.049   4.084
 5984SOL    HW118851   6.175   0.125   4.045
 5984SOL    HW218852   6.167   7.017   4.144
 5985SOL     OW18853   6.082   3.055   2.843
 5985SOL    HW118854   6.028   3.136   2.867
 5985SOL    HW218855   6.125   3.017   2.925
 5986SOL     OW18856   4.109   3.743   4.867
 5986SOL    HW118857   4.086   3.681   4.791
 5986SOL    HW218858   4.177   3.809   4.836
 5987SOL     OW18859   6.896   6.828   5.317
 5987SOL    HW118860   6.812   6.881   5.324
 5987SOL    HW218861   6.875   6.737   5.282
 5988SOL     OW18862   1.201   2.441   6.236
 5988SOL    HW118863   1.267   2.470   6.306
 5988SOL    HW218864   1.122   2.400   6.279
 5989SOL     OW18865   0.748   5.952   6.371
 5989SOL    HW118866   0.833   5.937   6.421
 5989SOL    HW218867   0.689   6.013   6.423
 5990SOL     OW18868   3.575   4.994   1.797
 5990SOL    HW118869   3.567   4.908   1.845
 5990SOL    HW218870   3.606   4.977   1.703
 5991SOL     OW18871   4.707   6.852   1.038
 5991SOL    HW118872   4.712   6.752   1.037
 5991SOL    HW218873   4.673   6.885   0.950
 5992SOL     OW18874   3.861   6.088   2.127
 5992SOL    HW118875   3.926   6.028   2.174
 5992SOL    HW218876   3.905   6.177   2.109
 5993SOL     OW18877   6.172   1.944   0.473
 5993SOL    HW118878   6.073   1.945   0.467
 5993SOL    HW218879   6.203   1.855   0.505
 5994SOL     OW18880   0.584   3.670   0.183
 5994SOL    HW118881   0.541   3.598   0.129
 5994SOL    HW218882   0.617   3.631   0.269
 5995SOL     OW18883   4.870   3.886   1.583
 5995SOL    HW118884   4.845   3.909   1.489
 5995SOL    HW218885   4.919   3.799   1.584
 5996SOL     OW18886   2.655   5.494   1.384
 5996SOL    HW118887   2.722   5.424   1.355
 5996SOL    HW218888   2.699   5.584   1.383
 5997SOL     OW18889   6.093   0.274   4.038
 5997SOL    HW118890   6.134   0.330   3.966
 5997SOL    HW218891   6.148   0.281   4.121
 5998SOL     OW18892   6.013   6.166   0.932
 5998SOL    HW118893   6.109   6.178   0.909
 5998SOL    HW218894   6.003   6.089   0.995
 5999SOL     OW18895   5.178   2.502   1.439
 5999SOL    HW118896   5.129   2.470   1.520
 5999SOL    HW218897   5.153   2.597   1.420
 6000SOL     OW18898   0.577   3.949   1.172
 6000SOL    HW118899   0.594   3.936   1.074
 6000SOL    HW218900   0.601   3.866   1.221
 6001SOL     OW18901   6.730   5.264   5.531
 6001SOL    HW118902   6.673   5.297   5.607
 6001SOL    HW218903   6.778   5.341   5.490
 6002SOL     OW18904   6.256   4.781   4.987
 6002SOL    HW118905   6.211   4.851   4.932
 6002SOL    HW218906   6.245   4.692   4.944
 6003SOL     OW18907   1.111   2.626   4.841
 6003SOL    HW118908   1.070   2.704   4.795
 6003SOL    HW218909   1.084   2.542   4.795
 6004SOL     OW18910   4.705   2.238   4.361
 6004SOL    HW118911   4.796   2.199   4.372
 6004SOL    HW218912   4.671   2.270   4.450
 6005SOL     OW18913   3.915   4.989   6.665
 6005SOL    HW118914   3.955   5.038   6.587
 6005SOL    HW218915   3.961   5.018   6.749
 6006SOL     OW18916   2.976   6.057   6.043
 6006SOL    HW118917   2.997   6.113   5.963
 6006SOL    HW218918   2.879   6.063   6.064
 6007SOL     OW18919   2.588   5.881   6.499
 6007SOL    HW118920   2.645   5.939   6.440
 6007SOL    HW218921   2.537   5.817   6.442
 6008SOL     OW18922   3.458   3.853   6.360
 6008SOL    HW118923   3.442   3.766   6.314
 6008SOL    HW218924   3.392   3.920   6.328
 6009SOL     OW18925   3.687   5.120   3.125
 6009SOL    HW118926   3.645   5.208   3.106
 6009SOL    HW218927   3.751   5.129   3.201
 6010SOL     OW18928   0.522   5.623   4.713
 6010SOL    HW118929   0.565   5.634   4.802
 6010SOL    HW218930   0.447   5.557   4.720
 6011SOL     OW18931   6.575   1.974   1.571
 6011SOL    HW118932   6.541   1.885   1.542
 6011SOL    HW218933   6.507   2.018   1.630
 6012SOL     OW18934   6.928   0.468   6.097
 6012SOL    HW118935   6.881   0.532   6.158
 6012SOL    HW218936   6.881   0.380   6.099
 6013SOL     OW18937   5.963   1.360   2.093
 6013SOL    HW118938   5.973   1.379   2.191
 6013SOL    HW218939   6.051   1.331   2.055
 6014SOL     OW18940   3.775   3.574   3.818
 6014SOL    HW118941   3.707   3.598   3.888
 6014SOL    HW218942   3.857   3.629   3.832
 6015SOL     OW18943   5.854   1.229   4.046
 6015SOL    HW118944   5.755   1.220   4.036
 6015SOL    HW218945   5.874   1.290   4.123
 6016SOL     OW18946   4.717   1.037   4.483
 6016SOL    HW118947   4.707   0.991   4.571
 6016SOL    HW218948   4.741   1.133   4.499
 6017SOL     OW18949   6.994   1.953   5.193
 6017SOL    HW118950   7.021   2.029   5.135
 6017SOL    HW218951   6.961   1.987   5.281
 6018SOL     OW18952   2.269   1.226   4.912
 6018SOL    HW118953   2.241   1.167   4.836
 6018SOL    HW218954   2.341   1.180   4.965
 6019SOL     OW18955   6.709   3.789   6.955
 6019SOL    HW118956   6.617   3.752   6.939
 6019SOL    HW218957   6.771   3.715   6.981
 6020SOL     OW18958   0.958   5.044   6.456
 6020SOL    HW118959   0.925   4.950   6.454
 6020SOL    HW218960   1.046   5.049   6.408
 6021SOL     OW18961   5.366   6.680   3.826
 6021SOL    HW118962   5.384   6.653   3.731
 6021SOL    HW218963   5.285   6.633   3.860
 6022SOL     OW18964   6.475   1.700   1.494
 6022SOL    HW118965   6.520   1.643   1.563
 6022SOL    HW218966   6.377   1.702   1.511
 6023SOL     OW18967   3.722   0.496   2.107
 6023SOL    HW118968   3.696   0.548   2.025
 6023SOL    HW218969   3.809   0.531   2.141
 6024SOL     OW18970   1.029   5.959   0.393
 6024SOL    HW118971   0.959   6.021   0.428
 6024SOL    HW218972   0.987   5.875   0.361
 6025SOL     OW18973   3.429   0.584   4.613
 6025SOL    HW118974   3.346   0.556   4.660
 6025SOL    HW218975   3.418   0.569   4.514
 6026SOL     OW18976   5.975   4.936   4.967
 6026SOL    HW118977   6.008   4.951   5.060
 6026SOL    HW218978   5.896   4.996   4.949
 6027SOL     OW18979   5.936   4.129   6.697
 6027SOL    HW118980   6.028   4.145   6.731
 6027SOL    HW218981   5.895   4.051   6.745
 6028SOL     OW18982   5.718   5.585   6.509
 6028SOL    HW118983   5.756   5.564   6.599
 6028SOL    HW218984   5.669   5.506   6.474
 6029SOL     OW18985   2.335   0.833   3.029
 6029SOL    HW118986   2.432   0.819   3.014
 6029SOL    HW218987   2.282   0.768   2.975
 6030SOL     OW18988   5.707   3.790   4.270
 6030SOL    HW118989   5.701   3.692   4.255
 6030SOL    HW218990   5.785   3.827   4.219
 6031SOL     OW18991   0.530   5.920   4.992
 6031SOL    HW118992   0.575   5.832   5.008
 6031SOL    HW218993   0.489   5.920   4.901
 6032SOL     OW18994   3.434   6.028   3.204
 6032SOL    HW118995   3.349   6.041   3.254
 6032SOL    HW218996   3.501   5.984   3.264
 6033SOL     OW18997   1.660   1.892   2.679
 6033SOL    HW118998   1.566   1.904   2.710
 6033SOL    HW218999   1.674   1.942   2.593
 6034SOL     OW19000   0.599   0.159   0.349
 6034SOL    HW119001   0.586   0.199   0.258
 6034SOL    HW219002   0.547   0.212   0.416
 6035SOL     OW19003   2.258   0.537   2.824
 6035SOL    HW119004   2.324   0.488   2.881
 6035SOL    HW219005   2.203   0.471   2.773
 6036SOL     OW19006   0.002   3.012   1.105
 6036SOL    HW119007   6.928   3.018   1.077
 6036SOL    HW219008   0.016   3.066   1.188
 6037SOL     OW19009   5.068   1.691   6.852
 6037SOL    HW119010   4.978   1.676   6.810
 6037SOL    HW219011   5.106   1.778   6.821
 6038SOL     OW19012   0.379   1.955   5.693
 6038SOL    HW119013   0.355   2.017   5.768
 6038SOL    HW219014   0.477   1.934   5.698
 6039SOL     OW19015   3.788   3.125   3.330
 6039SOL    HW119016   3.802   3.101   3.234
 6039SOL    HW219017   3.867   3.176   3.364
 6040SOL     OW19018   0.786   1.456   0.238
 6040SOL    HW119019   0.764   1.462   0.335
 6040SOL    HW219020   0.708   1.415   0.189
 6041SOL     OW19021   2.548   3.055   5.848
 6041SOL    HW119022   2.527   2.981   5.912
 6041SOL    HW219023   2.552   3.018   5.755
 6042SOL     OW19024   3.223   5.815   3.547
 6042SOL    HW119025   3.291   5.828   3.619
 6042SOL    HW219026   3.143   5.769   3.584
 6043SOL     OW19027   2.497   0.077   3.555
 6043SOL    HW119028   2.516   0.059   3.458
 6043SOL    HW219029   2.477   0.175   3.567
 6044SOL     OW19030   1.042   3.336   1.598
 6044SOL    HW119031   0.963   3.349   1.659
 6044SOL    HW219032   1.091   3.252   1.624
 6045SOL     OW19033   4.740   1.660   3.124
 6045SOL    HW119034   4.743   1.677   3.222
 6045SOL    HW219035   4.758   1.745   3.074
 6046SOL     OW19036   3.794   2.887   2.359
 6046SOL    HW119037   3.892   2.873   2.377
 6046SOL    HW219038   3.781   2.910   2.262
 6047SOL     OW19039   6.166   1.806   0.911
 6047SOL    HW119040   6.247   1.765   0.955
 6047SOL    HW219041   6.116   1.735   0.861
 6048SOL     OW19042   6.065   6.046   4.597
 6048SOL    HW119043   5.984   6.000   4.562
 6048SOL    HW219044   6.143   5.984   4.592
 6049SOL     OW19045   4.581   5.075   5.463
 6049SOL    HW119046   4.487   5.103   5.443
 6049SOL    HW219047   4.580   4.993   5.520
 6050SOL     OW19048   3.789   6.033   1.674
 6050SOL    HW119049   3.750   5.963   1.615
 6050SOL    HW219050   3.881   6.057   1.641
 6051SOL     OW19051   0.646   1.430   3.341
 6051SOL    HW119052   0.678   1.390   3.254
 6051SOL    HW219053   0.659   1.529   3.339
 6052SOL     OW19054   4.885   6.384   0.352
 6052SOL    HW119055   4.919   6.303   0.399
 6052SOL    HW219056   4.811   6.358   0.290
 6053SOL     OW19057   4.244   2.926   6.382
 6053SOL    HW119058   4.280   3.019   6.380
 6053SOL    HW219059   4.320   2.861   6.379
 6054SOL     OW19060   4.031   4.338   1.030
 6054SOL    HW119061   4.065   4.378   0.945
 6054SOL    HW219062   4.092   4.363   1.106
 6055SOL     OW19063   3.427   4.438   0.454
 6055SOL    HW119064   3.406   4.357   0.398
 6055SOL    HW219065   3.435   4.411   0.550
 6056SOL     OW19066   5.146   5.887   4.554
 6056SOL    HW119067   5.180   5.812   4.497
 6056SOL    HW219068   5.215   5.912   4.621
 6057SOL     OW19069   4.347   0.046   4.211
 6057SOL    HW119070   4.359   0.143   4.189
 6057SOL    HW219071   4.437   0.006   4.229
 6058SOL     OW19072   5.520   2.525   5.618
 6058SOL    HW119073   5.492   2.474   5.537
 6058SOL    HW219074   5.510   2.468   5.700
 6059SOL     OW19075   4.260   2.765   0.059
 6059SOL    HW119076   4.335   2.802   0.114
 6059SOL    HW219077   4.199   2.840   0.032
 6060SOL     OW19078   2.488   3.131   0.129
 6060SOL    HW119079   2.428   3.189   0.185
 6060SOL    HW219080   2.461   3.138   0.033
 6061SOL     OW19081   3.463   5.346   0.021
 6061SOL    HW119082   3.505   5.269   6.995
 6061SOL    HW219083   3.456   5.424   6.981
 6062SOL     OW19084   1.960   2.240   6.912
 6062SOL    HW119085   1.977   2.221   7.009
 6062SOL    HW219086   1.993   2.162   6.857
 6063SOL     OW19087   4.789   4.068   6.097
 6063SOL    HW119088   4.713   4.112   6.144
 6063SOL    HW219089   4.875   4.089   6.144
 6064SOL     OW19090   0.331   5.457   1.103
 6064SOL    HW119091   0.267   5.467   1.178
 6064SOL    HW219092   0.352   5.360   1.090
 6065SOL     OW19093   0.967   6.864   2.459
 6065SOL    HW119094   0.967   6.962   2.477
 6065SOL    HW219095   0.999   6.815   2.540
 6066SOL     OW19096   5.257   5.609   3.155
 6066SOL    HW119097   5.251   5.514   3.124
 6066SOL    HW219098   5.267   5.611   3.254
 6067SOL     OW19099   5.762   6.601   6.395
 6067SOL    HW119100   5.782   6.508   6.365
 6067SOL    HW219101   5.797   6.666   6.328
 6068SOL     OW19102   4.643   1.946   4.924
 6068SOL    HW119103   4.638   2.035   4.968
 6068SOL    HW219104   4.562   1.892   4.946
 6069SOL     OW19105   0.223   3.923   6.107
 6069SOL    HW119106   0.176   3.894   6.191
 6069SOL    HW219107   0.178   4.005   6.071
 6070SOL     OW19108   2.777   1.349   0.764
 6070SOL    HW119109   2.702   1.364   0.829
 6070SOL    HW219110   2.740   1.314   0.678
 6071SOL     OW19111   6.057   0.736   5.682
 6071SOL    HW119112   6.043   0.717   5.779
 6071SOL    HW219113   6.079   0.832   5.669
 6072SOL     OW19114   6.942   2.674   0.434
 6072SOL    HW119115   7.002   2.754   0.429
 6072SOL    HW219116   6.996   2.591   0.419
 6073SOL     OW19117   4.532   2.300   0.618
 6073SOL    HW119118   4.498   2.315   0.525
 6073SOL    HW219119   4.631   2.287   0.615
 6074SOL     OW19120   0.583   6.418   2.541
 6074SOL    HW119121   0.624   6.407   2.450
 6074SOL    HW219122   0.618   6.347   2.602
 6075SOL     OW19123   4.938   6.745   6.729
 6075SOL    HW119124   4.994   6.808   6.783
 6075SOL    HW219125   4.939   6.773   6.633
 6076SOL     OW19126   1.557   5.074   3.340
 6076SOL    HW119127   1.540   5.047   3.435
 6076SOL    HW219128   1.646   5.038   3.311
 6077SOL     OW19129   4.937   6.873   1.900
 6077SOL    HW119130   4.886   6.801   1.853
 6077SOL    HW219131   4.882   6.910   1.975
 6078SOL     OW19132   4.138   3.669   0.984
 6078SOL    HW119133   4.145   3.577   0.944
 6078SOL    HW219134   4.200   3.677   1.062
 6079SOL     OW19135   3.518   3.702   0.061
 6079SOL    HW119136   3.511   3.800   0.076
 6079SOL    HW219137   3.426   3.663   0.051
 6080SOL     OW19138   7.011   4.863   6.671
 6080SOL    HW119139   0.004   4.958   6.643
 6080SOL    HW219140   6.913   4.843   6.669
 6081SOL     OW19141   1.625   3.629   3.931
 6081SOL    HW119142   1.587   3.708   3.979
 6081SOL    HW219143   1.555   3.558   3.923
 6082SOL     OW19144   4.407   0.979   1.062
 6082SOL    HW119145   4.452   1.031   0.990
 6082SOL    HW219146   4.344   1.038   1.112
 6083SOL     OW19147   4.598   0.343   6.081
 6083SOL    HW119148   4.597   0.432   6.128
 6083SOL    HW219149   4.693   0.311   6.075
 6084SOL     OW19150   0.403   6.470   2.869
 6084SOL    HW119151   0.358   6.389   2.831
 6084SOL    HW219152   0.334   6.536   2.898
 6085SOL     OW19153   0.870   6.710   0.835
 6085SOL    HW119154   0.939   6.782   0.840
 6085SOL    HW219155   0.855   6.684   0.740
 6086SOL     OW19156   3.619   4.073   6.506
 6086SOL    HW119157   3.573   4.000   6.456
 6086SOL    HW219158   3.707   4.041   6.541
 6087SOL     OW19159   4.997   6.455   0.755
 6087SOL    HW119160   4.909   6.482   0.716
 6087SOL    HW219161   5.058   6.533   0.757
 6088SOL     OW19162   5.316   5.864   3.021
 6088SOL    HW119163   5.321   5.840   2.924
 6088SOL    HW219164   5.302   5.780   3.075
 6089SOL     OW19165   6.410   3.967   3.470
 6089SOL    HW119166   6.425   3.942   3.375
 6089SOL    HW219167   6.380   4.062   3.475
 6090SOL     OW19168   3.722   5.928   4.476
 6090SOL    HW119169   3.737   5.908   4.379
 6090SOL    HW219170   3.736   6.025   4.493
 6091SOL     OW19171   1.507   1.338   2.169
 6091SOL    HW119172   1.463   1.278   2.236
 6091SOL    HW219173   1.461   1.427   2.169
 6092SOL     OW19174   3.359   6.172   1.434
 6092SOL    HW119175   3.290   6.101   1.451
 6092SOL    HW219176   3.328   6.230   1.359
 6093SOL     OW19177   2.247   2.089   2.056
 6093SOL    HW119178   2.216   1.996   2.034
 6093SOL    HW219179   2.302   2.124   1.980
 6094SOL     OW19180   0.429   6.217   4.812
 6094SOL    HW119181   0.408   6.122   4.789
 6094SOL    HW219182   0.481   6.260   4.738
 6095SOL     OW19183   4.866   5.078   1.440
 6095SOL    HW119184   4.819   4.998   1.477
 6095SOL    HW219185   4.831   5.160   1.484
 6096SOL     OW19186   5.541   6.325   3.001
 6096SOL    HW119187   5.555   6.411   2.951
 6096SOL    HW219188   5.444   6.311   3.016
 6097SOL     OW19189   1.761   5.341   1.734
 6097SOL    HW119190   1.787   5.292   1.651
 6097SOL    HW219191   1.838   5.394   1.768
 6098SOL     OW19192   6.559   1.416   4.854
 6098SOL    HW119193   6.550   1.488   4.785
 6098SOL    HW219194   6.473   1.366   4.862
 6099SOL     OW19195   3.901   0.551   6.305
 6099SOL    HW119196   3.810   0.589   6.288
 6099SOL    HW219197   3.967   0.596   6.245
 6100SOL     OW19198   0.474   6.140   5.145
 6100SOL    HW119199   0.488   6.073   5.072
 6100SOL    HW219200   0.461   6.231   5.105
 6101SOL     OW19201   6.827   2.862   1.343
 6101SOL    HW119202   6.897   2.880   1.274
 6101SOL    HW219203   6.866   2.804   1.415
 6102SOL     OW19204   4.364   6.418   2.772
 6102SOL    HW119205   4.435   6.472   2.817
 6102SOL    HW219206   4.406   6.348   2.714
 6103SOL     OW19207   0.188   2.030   1.784
 6103SOL    HW119208   0.176   1.933   1.765
 6103SOL    HW219209   0.099   2.072   1.803
 6104SOL     OW19210   6.753   0.471   4.139
 6104SOL    HW119211   6.791   0.563   4.151
 6104SOL    HW219212   6.696   0.469   4.057
 6105SOL     OW19213   3.038   4.582   5.414
 6105SOL    HW119214   2.996   4.528   5.340
 6105SOL    HW219215   3.113   4.531   5.455
 6106SOL     OW19216   6.141   5.250   6.045
 6106SOL    HW119217   6.128   5.185   6.121
 6106SOL    HW219218   6.063   5.245   5.983
 6107SOL     OW19219   5.673   5.122   5.607
 6107SOL    HW119220   5.630   5.091   5.522
 6107SOL    HW219221   5.650   5.060   5.681
 6108SOL     OW19222   2.324   1.485   0.730
 6108SOL    HW119223   2.266   1.445   0.801
 6108SOL    HW219224   2.299   1.581   0.717
 6109SOL     OW19225   6.304   6.877   3.529
 6109SOL    HW119226   6.313   6.948   3.599
 6109SOL    HW219227   6.298   6.920   3.439
 6110SOL     OW19228   1.833   1.799   4.537
 6110SOL    HW119229   1.738   1.770   4.529
 6110SOL    HW219230   1.871   1.812   4.445
 6111SOL     OW19231   1.930   4.568   0.511
 6111SOL    HW119232   2.007   4.590   0.570
 6111SOL    HW219233   1.952   4.486   0.457
 6112SOL     OW19234   5.312   0.246   2.735
 6112SOL    HW119235   5.392   0.273   2.790
 6112SOL    HW219236   5.327   0.155   2.697
 6113SOL     OW19237   2.386   5.722   0.250
 6113SOL    HW119238   2.347   5.684   0.166
 6113SOL    HW219239   2.468   5.774   0.228
 6114SOL     OW19240   4.860   1.813   1.100
 6114SOL    HW119241   4.856   1.913   1.100
 6114SOL    HW219242   4.799   1.778   1.029
 6115SOL     OW19243   0.740   0.596   5.568
 6115SOL    HW119244   0.778   0.687   5.552
 6115SOL    HW219245   0.750   0.573   5.665
 6116SOL     OW19246   5.049   2.075   5.695
 6116SOL    HW119247   5.137   2.118   5.713
 6116SOL    HW219248   5.063   1.983   5.657
 6117SOL     OW19249   1.957   2.322   1.158
 6117SOL    HW119250   2.010   2.366   1.230
 6117SOL    HW219251   1.980   2.363   1.070
 6118SOL     OW19252   6.248   0.304   0.675
 6118SOL    HW119253   6.252   0.294   0.774
 6118SOL    HW219254   6.302   0.383   0.647
 6119SOL     OW19255   0.013   1.876   0.887
 6119SOL    HW119256   0.052   1.812   0.953
 6119SOL    HW219257   0.047   1.969   0.906
 6120SOL     OW19258   2.213   0.412   5.174
 6120SOL    HW119259   2.198   0.482   5.244
 6120SOL    HW219260   2.161   0.330   5.197
 6121SOL     OW19261   0.658   2.993   4.537
 6121SOL    HW119262   0.749   3.024   4.509
 6121SOL    HW219263   0.667   2.908   4.590
 6122SOL     OW19264   5.325   5.288   6.060
 6122SOL    HW119265   5.393   5.361   6.054
 6122SOL    HW219266   5.233   5.326   6.050
 6123SOL     OW19267   5.338   1.701   5.026
 6123SOL    HW119268   5.357   1.662   4.936
 6123SOL    HW219269   5.417   1.751   5.059
 6124SOL     OW19270   2.697   6.586   3.973
 6124SOL    HW119271   2.771   6.641   3.932
 6124SOL    HW219272   2.701   6.493   3.936
 6125SOL     OW19273   2.172   2.421   6.837
 6125SOL    HW119274   2.227   2.387   6.913
 6125SOL    HW219275   2.095   2.359   6.822
 6126SOL     OW19276   6.213   2.857   5.531
 6126SOL    HW119277   6.120   2.880   5.560
 6126SOL    HW219278   6.277   2.877   5.605
 6127SOL     OW19279   3.964   2.242   1.856
 6127SOL    HW119280   3.870   2.269   1.875
 6127SOL    HW219281   4.001   2.192   1.935
 6128SOL     OW19282   5.937   5.671   0.648
 6128SOL    HW119283   6.024   5.632   0.617
 6128SOL    HW219284   5.869   5.598   0.658
 6129SOL     OW19285   1.499   5.488   2.658
 6129SOL    HW119286   1.487   5.587   2.657
 6129SOL    HW219287   1.594   5.465   2.641
 6130SOL     OW19288   5.958   2.392   0.526
 6130SOL    HW119289   5.929   2.387   0.622
 6130SOL    HW219290   5.970   2.299   0.491
 6131SOL     OW19291   6.505   1.587   2.540
 6131SOL    HW119292   6.555   1.501   2.526
 6131SOL    HW219293   6.561   1.651   2.591
 6132SOL     OW19294   3.556   1.295   6.650
 6132SOL    HW119295   3.521   1.387   6.666
 6132SOL    HW219296   3.616   1.295   6.570
 6133SOL     OW19297   1.780   1.497   3.904
 6133SOL    HW119298   1.803   1.411   3.949
 6133SOL    HW219299   1.825   1.502   3.816
 6134SOL     OW19300   5.836   6.691   6.638
 6134SOL    HW119301   5.912   6.754   6.622
 6134SOL    HW219302   5.802   6.657   6.551
 6135SOL     OW19303   6.452   6.980   0.060
 6135SOL    HW119304   6.363   6.934   0.058
 6135SOL    HW219305   6.475   7.013   6.990
 6136SOL     OW19306   1.963   3.172   2.719
 6136SOL    HW119307   2.053   3.140   2.750
 6136SOL    HW219308   1.951   3.148   2.622
 6137SOL     OW19309   6.732   4.308   2.029
 6137SOL    HW119310   6.775   4.227   1.988
 6137SOL    HW219311   6.665   4.345   1.965
 6138SOL     OW19312   3.795   0.154   1.871
 6138SOL    HW119313   3.754   0.202   1.793
 6138SOL    HW219314   3.793   0.213   1.951
 6139SOL     OW19315   1.557   0.509   5.966
 6139SOL    HW119316   1.579   0.459   5.882
 6139SOL    HW219317   1.565   0.607   5.949
 6140SOL     OW19318   1.416   0.138   3.253
 6140SOL    HW119319   1.406   0.044   3.285
 6140SOL    HW219320   1.326   0.181   3.245
 6141SOL     OW19321   0.222   1.001   5.891
 6141SOL    HW119322   0.195   1.038   5.802
 6141SOL    HW219323   0.188   1.061   5.964
 6142SOL     OW19324   0.228   0.377   1.344
 6142SOL    HW119325   0.131   0.385   1.323
 6142SOL    HW219326   0.275   0.328   1.271
 6143SOL     OW19327   0.116   4.147   5.403
 6143SOL    HW119328   0.127   4.227   5.344
 6143SOL    HW219329   0.154   4.066   5.358
 6144SOL     OW19330   4.090   5.057   3.179
 6144SOL    HW119331   4.156   5.131   3.174
 6144SOL    HW219332   4.061   5.031   3.087
 6145SOL     OW19333   5.138   2.822   4.288
 6145SOL    HW119334   5.085   2.776   4.217
 6145SOL    HW219335   5.081   2.891   4.333
 6146SOL     OW19336   5.189   0.059   5.071
 6146SOL    HW119337   5.238   6.999   5.041
 6146SOL    HW219338   5.132   0.036   5.149
 6147SOL     OW19339   1.838   2.432   3.792
 6147SOL    HW119340   1.880   2.410   3.704
 6147SOL    HW219341   1.907   2.432   3.864
 6148SOL     OW19342   3.299   5.778   0.115
 6148SOL    HW119343   3.351   5.796   0.032
 6148SOL    HW219344   3.289   5.863   0.168
 6149SOL     OW19345   2.914   0.241   1.651
 6149SOL    HW119346   2.848   0.203   1.586
 6149SOL    HW219347   2.997   0.269   1.601
 6150SOL     OW19348   6.700   4.155   6.024
 6150SOL    HW119349   6.739   4.080   5.970
 6150SOL    HW219350   6.759   4.236   6.015
 6151SOL     OW19351   4.447   4.687   4.319
 6151SOL    HW119352   4.470   4.609   4.261
 6151SOL    HW219353   4.350   4.683   4.342
 6152SOL     OW19354   0.936   5.021   4.067
 6152SOL    HW119355   0.991   4.978   4.138
 6152SOL    HW219356   0.839   5.002   4.083
 6153SOL     OW19357   5.196   5.212   1.143
 6153SOL    HW119358   5.176   5.131   1.088
 6153SOL    HW219359   5.288   5.245   1.122
 6154SOL     OW19360   5.927   3.115   2.057
 6154SOL    HW119361   5.923   3.094   1.959
 6154SOL    HW219362   5.902   3.210   2.072
 6155SOL     OW19363   1.703   1.753   3.107
 6155SOL    HW119364   1.783   1.798   3.145
 6155SOL    HW219365   1.629   1.819   3.097
 6156SOL     OW19366   5.139   4.693   1.495
 6156SOL    HW119367   5.057   4.644   1.524
 6156SOL    HW219368   5.220   4.644   1.528
 6157SOL     OW19369   1.284   2.416   2.205
 6157SOL    HW119370   1.286   2.464   2.293
 6157SOL    HW219371   1.220   2.462   2.144
 6158SOL     OW19372   2.972   2.803   5.647
 6158SOL    HW119373   3.065   2.786   5.615
 6158SOL    HW219374   2.920   2.717   5.647
 6159SOL     OW19375   6.070   2.653   0.476
 6159SOL    HW119376   6.027   2.565   0.495
 6159SOL    HW219377   6.053   2.680   0.381
 6160SOL     OW19378   0.840   0.344   0.120
 6160SOL    HW119379   0.881   0.256   0.095
 6160SOL    HW219380   0.752   0.328   0.165
 6161SOL     OW19381   4.624   3.132   6.523
 6161SOL    HW119382   4.631   3.119   6.424
 6161SOL    HW219383   4.697   3.193   6.554
 6162SOL     OW19384   6.136   5.434   2.935
 6162SOL    HW119385   6.200   5.420   2.860
 6162SOL    HW219386   6.185   5.423   3.022
 6163SOL     OW19387   5.217   5.676   3.602
 6163SOL    HW119388   5.288   5.745   3.587
 6163SOL    HW219389   5.222   5.644   3.696
 6164SOL     OW19390   3.778   4.102   4.659
 6164SOL    HW119391   3.838   4.116   4.738
 6164SOL    HW219392   3.693   4.153   4.672
 6165SOL     OW19393   3.857   1.730   0.653
 6165SOL    HW119394   3.763   1.754   0.627
 6165SOL    HW219395   3.883   1.646   0.605
 6166SOL     OW19396   1.623   1.943   6.701
 6166SOL    HW119397   1.579   2.011   6.642
 6166SOL    HW219398   1.650   1.986   6.787
 6167SOL     OW19399   1.214   4.045   3.219
 6167SOL    HW119400   1.127   4.026   3.265
 6167SOL    HW219401   1.262   4.118   3.267
 6168SOL     OW19402   0.426   3.955   4.222
 6168SOL    HW119403   0.341   3.958   4.170
 6168SOL    HW219404   0.409   3.917   4.313
 6169SOL     OW19405   2.447   6.910   0.375
 6169SOL    HW119406   2.384   6.916   0.298
 6169SOL    HW219407   2.508   6.990   0.376
 6170SOL     OW19408   3.564   4.823   0.090
 6170SOL    HW119409   3.556   4.767   0.173
 6170SOL    HW219410   3.481   4.813   0.035
 6171SOL     OW19411   1.886   4.355   2.337
 6171SOL    HW119412   1.914   4.354   2.240
 6171SOL    HW219413   1.944   4.419   2.387
 6172SOL     OW19414   1.352   6.233   2.673
 6172SOL    HW119415   1.257   6.262   2.671
 6172SOL    HW219416   1.357   6.135   2.650
 6173SOL     OW19417   1.239   5.872   2.963
 6173SOL    HW119418   1.206   5.785   3.000
 6173SOL    HW219419   1.232   5.943   3.033
 6174SOL     OW19420   5.648   5.125   3.150
 6174SOL    HW119421   5.700   5.190   3.093
 6174SOL    HW219422   5.593   5.066   3.091
 6175SOL     OW19423   5.072   0.174   3.198
 6175SOL    HW119424   5.087   0.190   3.296
 6175SOL    HW219425   5.072   0.261   3.150
 6176SOL     OW19426   6.437   3.565   5.601
 6176SOL    HW119427   6.376   3.644   5.597
 6176SOL    HW219428   6.386   3.483   5.574
 6177SOL     OW19429   5.796   2.534   6.989
 6177SOL    HW119430   5.768   2.611   6.932
 6177SOL    HW219431   5.888   2.506   6.964
 6178SOL     OW19432   6.066   3.432   0.927
 6178SOL    HW119433   6.104   3.511   0.975
 6178SOL    HW219434   6.084   3.349   0.979
 6179SOL     OW19435   6.919   2.324   5.966
 6179SOL    HW119436   6.974   2.243   5.948
 6179SOL    HW219437   6.977   2.405   5.962
 6180SOL     OW19438   4.259   6.804   0.837
 6180SOL    HW119439   4.202   6.731   0.875
 6180SOL    HW219440   4.258   6.883   0.899
 6181SOL     OW19441   4.920   6.427   6.834
 6181SOL    HW119442   4.916   6.327   6.833
 6181SOL    HW219443   5.006   6.458   6.794
 6182SOL     OW19444   4.754   6.585   6.523
 6182SOL    HW119445   4.761   6.488   6.501
 6182SOL    HW219446   4.690   6.628   6.459
 6183SOL     OW19447   3.600   0.779   3.315
 6183SOL    HW119448   3.685   0.827   3.294
 6183SOL    HW219449   3.604   0.687   3.278
 6184SOL     OW19450   0.254   0.094   6.509
 6184SOL    HW119451   0.188   0.029   6.546
 6184SOL    HW219452   0.221   0.128   6.421
 6185SOL     OW19453   6.881   3.396   5.841
 6185SOL    HW119454   6.802   3.345   5.875
 6185SOL    HW219455   6.937   3.426   5.919
 6186SOL     OW19456   5.394   0.402   4.898
 6186SOL    HW119457   5.391   0.406   4.998
 6186SOL    HW219458   5.381   0.493   4.859
 6187SOL     OW19459   4.491   4.785   3.788
 6187SOL    HW119460   4.534   4.857   3.734
 6187SOL    HW219461   4.515   4.797   3.884
 6188SOL     OW19462   2.583   6.486   1.202
 6188SOL    HW119463   2.495   6.450   1.172
 6188SOL    HW219464   2.612   6.560   1.141
 6189SOL     OW19465   5.358   5.310   3.589
 6189SOL    HW119466   5.319   5.260   3.512
 6189SOL    HW219467   5.365   5.250   3.668
 6190SOL     OW19468   5.468   2.547   6.789
 6190SOL    HW119469   5.383   2.600   6.798
 6190SOL    HW219470   5.530   2.594   6.725
 6191SOL     OW19471   6.234   1.642   6.832
 6191SOL    HW119472   6.153   1.701   6.828
 6191SOL    HW219473   6.212   1.553   6.792
 6192SOL     OW19474   2.785   2.759   6.359
 6192SOL    HW119475   2.834   2.833   6.404
 6192SOL    HW219476   2.851   2.693   6.322
 6193SOL     OW19477   4.825   0.526   1.589
 6193SOL    HW119478   4.769   0.446   1.565
 6193SOL    HW219479   4.921   0.498   1.597
 6194SOL     OW19480   2.265   0.844   0.465
 6194SOL    HW119481   2.221   0.809   0.383
 6194SOL    HW219482   2.356   0.878   0.441
 6195SOL     OW19483   3.169   0.718   6.501
 6195SOL    HW119484   3.164   0.700   6.403
 6195SOL    HW219485   3.089   0.770   6.529
 6196SOL     OW19486   0.556   1.252   6.235
 6196SOL    HW119487   0.605   1.253   6.322
 6196SOL    HW219488   0.606   1.308   6.168
 6197SOL     OW19489   2.332   3.660   0.466
 6197SOL    HW119490   2.302   3.727   0.398
 6197SOL    HW219491   2.430   3.646   0.457
 6198SOL     OW19492   3.816   5.034   2.383
 6198SOL    HW119493   3.746   4.990   2.327
 6198SOL    HW219494   3.799   5.133   2.385
 6199SOL     OW19495   1.517   6.785   0.041
 6199SOL    HW119496   1.578   6.822   0.112
 6199SOL    HW219497   1.567   6.777   6.977
 6200SOL     OW19498   4.094   0.841   6.306
 6200SOL    HW119499   4.030   0.834   6.382
 6200SOL    HW219500   4.056   0.904   6.237
 6201SOL     OW19501   2.144   4.202   5.770
 6201SOL    HW119502   2.241   4.205   5.795
 6201SOL    HW219503   2.094   4.271   5.822
 6202SOL     OW19504   3.408   1.788   0.688
 6202SOL    HW119505   3.408   1.871   0.744
 6202SOL    HW219506   3.367   1.713   0.739
 6203SOL     OW19507   5.057   1.375   4.095
 6203SOL    HW119508   4.975   1.377   4.151
 6203SOL    HW219509   5.033   1.392   3.999
 6204SOL     OW19510   2.107   6.343   5.784
 6204SOL    HW119511   2.202   6.371   5.766
 6204SOL    HW219512   2.071   6.396   5.861
 6205SOL     OW19513   5.191   6.010   6.931
 6205SOL    HW119514   5.141   6.075   6.988
 6205SOL    HW219515   5.143   5.922   6.932
 6206SOL     OW19516   5.546   6.990   2.463
 6206SOL    HW119517   5.629   6.974   2.411
 6206SOL    HW219518   5.498   0.048   2.427
 6207SOL     OW19519   1.568   4.067   4.970
 6207SOL    HW119520   1.554   3.968   4.965
 6207SOL    HW219521   1.488   4.114   4.932
 6208SOL     OW19522   5.885   6.612   6.003
 6208SOL    HW119523   5.786   6.601   6.018
 6208SOL    HW219524   5.930   6.628   6.090
 6209SOL     OW19525   3.985   6.737   0.705
 6209SOL    HW119526   3.952   6.831   0.718
 6209SOL    HW219527   4.004   6.696   0.795
 6210SOL     OW19528   5.731   4.412   3.673
 6210SOL    HW119529   5.644   4.386   3.631
 6210SOL    HW219530   5.804   4.352   3.639
 6211SOL     OW19531   2.838   0.035   4.627
 6211SOL    HW119532   2.840   0.125   4.672
 6211SOL    HW219533   2.745   7.022   4.626
 6212SOL     OW19534   6.754   6.806   4.049
 6212SOL    HW119535   6.670   6.760   4.019
 6212SOL    HW219536   6.800   6.749   4.117
 6213SOL     OW19537   6.408   0.572   6.707
 6213SOL    HW119538   6.313   0.580   6.738
 6213SOL    HW219539   6.430   0.650   6.648
 6214SOL     OW19540   6.652   4.333   2.680
 6214SOL    HW119541   6.684   4.292   2.765
 6214SOL    HW219542   6.688   4.426   2.672
 6215SOL     OW19543   3.226   2.925   1.058
 6215SOL    HW119544   3.145   2.914   1.115
 6215SOL    HW219545   3.279   2.840   1.058
 6216SOL     OW19546   5.694   1.750   2.049
 6216SOL    HW119547   5.778   1.797   2.022
 6216SOL    HW219548   5.703   1.652   2.029
 6217SOL     OW19549   5.240   2.664   1.118
 6217SOL    HW119550   5.224   2.566   1.107
 6217SOL    HW219551   5.194   2.696   1.201
 6218SOL     OW19552   2.575   5.216   4.613
 6218SOL    HW119553   2.674   5.228   4.622
 6218SOL    HW219554   2.552   5.194   4.519
 6219SOL     OW19555   0.940   2.337   5.253
 6219SOL    HW119556   0.933   2.434   5.276
 6219SOL    HW219557   1.008   2.293   5.313
 6220SOL     OW19558   1.923   4.440   5.111
 6220SOL    HW119559   1.859   4.364   5.097
 6220SOL    HW219560   1.906   4.482   5.200
 6221SOL     OW19561   3.822   5.152   4.403
 6221SOL    HW119562   3.881   5.215   4.351
 6221SOL    HW219563   3.870   5.066   4.417
 6222SOL     OW19564   6.841   6.996   1.284
 6222SOL    HW119565   6.914   6.930   1.268
 6222SOL    HW219566   6.841   0.002   1.380
 6223SOL     OW19567   4.987   3.038   4.768
 6223SOL    HW119568   4.964   3.031   4.865
 6223SOL    HW219569   5.021   2.951   4.735
 6224SOL     OW19570   2.588   1.585   5.312
 6224SOL    HW119571   2.664   1.588   5.248
 6224SOL    HW219572   2.622   1.581   5.406
 6225SOL     OW19573   3.806   3.059   0.465
 6225SOL    HW119574   3.832   3.015   0.379
 6225SOL    HW219575   3.887   3.069   0.523
 6226SOL     OW19576   5.488   0.816   4.748
 6226SOL    HW119577   5.467   0.914   4.745
 6226SOL    HW219578   5.586   0.803   4.760
 6227SOL     OW19579   3.520   4.557   5.997
 6227SOL    HW119580   3.553   4.637   6.047
 6227SOL    HW219581   3.506   4.580   5.901
 6228SOL     OW19582   0.075   1.011   2.995
 6228SOL    HW119583   0.052   1.101   3.033
 6228SOL    HW219584   0.003   0.946   3.016
 6229SOL     OW19585   2.423   2.654   2.359
 6229SOL    HW119586   2.398   2.560   2.381
 6229SOL    HW219587   2.522   2.666   2.371
 6230SOL     OW19588   2.419   2.161   4.107
 6230SOL    HW119589   2.386   2.118   4.191
 6230SOL    HW219590   2.414   2.095   4.032
 6231SOL     OW19591   0.218   5.311   1.743
 6231SOL    HW119592   0.292   5.313   1.675
 6231SOL    HW219593   0.255   5.278   1.830
 6232SOL     OW19594   0.364   0.597   0.763
 6232SOL    HW119595   0.367   0.529   0.690
 6232SOL    HW219596   0.437   0.664   0.749
 6233SOL     OW19597   4.471   2.116   6.833
 6233SOL    HW119598   4.375   2.130   6.856
 6233SOL    HW219599   4.501   2.026   6.864
 6234SOL     OW19600   2.103   1.790   4.014
 6234SOL    HW119601   2.129   1.738   4.096
 6234SOL    HW219602   2.023   1.847   4.035
 6235SOL     OW19603   2.506   0.342   2.711
 6235SOL    HW119604   2.516   0.419   2.648
 6235SOL    HW219605   2.416   0.346   2.755
 6236SOL     OW19606   6.931   4.193   0.464
 6236SOL    HW119607   7.013   4.239   0.498
 6236SOL    HW219608   6.877   4.160   0.541
 6237SOL     OW19609   4.226   7.004   1.015
 6237SOL    HW119610   4.308   0.037   1.033
 6237SOL    HW219611   4.179   6.985   1.101
 6238SOL     OW19612   4.595   5.471   0.975
 6238SOL    HW119613   4.683   5.498   1.014
 6238SOL    HW219614   4.521   5.516   1.025
 6239SOL     OW19615   2.321   0.039   3.067
 6239SOL    HW119616   2.402   0.046   3.008
 6239SOL    HW219617   2.279   6.971   3.054
 6240SOL     OW19618   1.820   3.315   0.517
 6240SOL    HW119619   1.786   3.321   0.611
 6240SOL    HW219620   1.799   3.399   0.468
 6241SOL     OW19621   3.602   6.883   1.724
 6241SOL    HW119622   3.509   6.851   1.740
 6241SOL    HW219623   3.619   6.966   1.777
 6242SOL     OW19624   4.821   2.544   3.865
 6242SOL    HW119625   4.760   2.623   3.869
 6242SOL    HW219626   4.894   2.561   3.798
 6243SOL     OW19627   5.378   6.058   4.413
 6243SOL    HW119628   5.299   6.045   4.473
 6243SOL    HW219629   5.374   6.149   4.372
 6244SOL     OW19630   2.625   2.118   1.794
 6244SOL    HW119631   2.672   2.125   1.882
 6244SOL    HW219632   2.534   2.160   1.801
 6245SOL     OW19633   3.019   4.901   1.174
 6245SOL    HW119634   3.063   4.980   1.131
 6245SOL    HW219635   2.922   4.900   1.151
 6246SOL     OW19636   2.695   2.241   5.680
 6246SOL    HW119637   2.642   2.246   5.764
 6246SOL    HW219638   2.660   2.307   5.614
 6247SOL     OW19639   0.126   6.262   3.133
 6247SOL    HW119640   0.116   6.324   3.055
 6247SOL    HW219641   0.156   6.314   3.213
 6248SOL     OW19642   0.629   4.839   1.163
 6248SOL    HW119643   0.543   4.790   1.149
 6248SOL    HW219644   0.616   4.911   1.232
 6249SOL     OW19645   6.602   4.089   6.530
 6249SOL    HW119646   6.566   3.997   6.518
 6249SOL    HW219647   6.616   4.107   6.628
 6250SOL     OW19648   6.197   6.075   0.035
 6250SOL    HW119649   6.289   6.099   0.065
 6250SOL    HW219650   6.137   6.155   0.041
 6251SOL     OW19651   4.724   1.682   0.498
 6251SOL    HW119652   4.680   1.768   0.525
 6251SOL    HW219653   4.768   1.694   0.410
 6252SOL     OW19654   3.052   6.296   5.024
 6252SOL    HW119655   2.959   6.308   4.991
 6252SOL    HW219656   3.115   6.345   4.964
 6253SOL     OW19657   2.204   3.892   2.017
 6253SOL    HW119658   2.120   3.938   2.046
 6253SOL    HW219659   2.243   3.940   1.939
 6254SOL     OW19660   5.441   0.120   0.278
 6254SOL    HW119661   5.446   0.049   0.348
 6254SOL    HW219662   5.502   0.196   0.302
 6255SOL     OW19663   0.373   1.394   2.467
 6255SOL    HW119664   0.321   1.313   2.441
 6255SOL    HW219665   0.471   1.374   2.463
 6256SOL     OW19666   3.812   4.975   2.664
 6256SOL    HW119667   3.785   5.048   2.727
 6256SOL    HW219668   3.780   4.997   2.572
 6257SOL     OW19669   5.530   2.801   0.258
 6257SOL    HW119670   5.600   2.787   0.328
 6257SOL    HW219671   5.444   2.828   0.302
 6258SOL     OW19672   4.751   2.049   2.278
 6258SOL    HW119673   4.831   2.102   2.305
 6258SOL    HW219674   4.705   2.012   2.359
 6259SOL     OW19675   3.028   2.260   1.720
 6259SOL    HW119676   2.953   2.215   1.672
 6259SOL    HW219677   2.992   2.310   1.799
 6260SOL     OW19678   3.940   3.921   0.138
 6260SOL    HW119679   3.969   3.826   0.144
 6260SOL    HW219680   4.007   3.974   0.085
 6261SOL     OW19681   3.925   1.488   0.525
 6261SOL    HW119682   4.016   1.475   0.485
 6261SOL    HW219683   3.860   1.428   0.478
 6262SOL     OW19684   1.124   4.640   6.577
 6262SOL    HW119685   1.138   4.555   6.627
 6262SOL    HW219686   1.180   4.712   6.617
 6263SOL     OW19687   6.742   6.902   0.415
 6263SOL    HW119688   6.785   6.965   0.479
 6263SOL    HW219689   6.659   6.944   0.378
 6264SOL     OW19690   2.568   1.810   0.713
 6264SOL    HW119691   2.472   1.809   0.742
 6264SOL    HW219692   2.606   1.902   0.728
 6265SOL     OW19693   4.255   3.248   1.557
 6265SOL    HW119694   4.194   3.199   1.620
 6265SOL    HW219695   4.202   3.278   1.477
 6266SOL     OW19696   2.940   0.204   3.217
 6266SOL    HW119697   3.035   0.174   3.225
 6266SOL    HW219698   2.929   0.259   3.135
 6267SOL     OW19699   3.338   0.281   6.174
 6267SOL    HW119700   3.286   0.339   6.237
 6267SOL    HW219701   3.399   0.222   6.226
 6268SOL     OW19702   3.796   5.148   2.876
 6268SOL    HW119703   3.774   5.106   2.963
 6268SOL    HW219704   3.847   5.233   2.892
 6269SOL     OW19705   6.020   5.241   1.436
 6269SOL    HW119706   6.039   5.339   1.439
 6269SOL    HW219707   5.990   5.210   1.527
 6270SOL     OW19708   0.887   0.569   4.622
 6270SOL    HW119709   0.805   0.549   4.568
 6270SOL    HW219710   0.878   0.660   4.663
 6271SOL     OW19711   6.936   1.344   0.633
 6271SOL    HW119712   6.874   1.268   0.652
 6271SOL    HW219713   7.009   1.313   0.572
 6272SOL     OW19714   2.330   2.346   3.451
 6272SOL    HW119715   2.267   2.285   3.403
 6272SOL    HW219716   2.351   2.308   3.541
 6273SOL     OW19717   3.633   1.382   1.441
 6273SOL    HW119718   3.574   1.331   1.378
 6273SOL    HW219719   3.723   1.393   1.399
 6274SOL     OW19720   3.909   6.777   5.647
 6274SOL    HW119721   3.856   6.694   5.668
 6274SOL    HW219722   3.923   6.829   5.731
 6275SOL     OW19723   1.743   0.026   4.880
 6275SOL    HW119724   1.718   0.063   4.790
 6275SOL    HW219725   1.764   6.951   4.872
 6276SOL     OW19726   1.474   5.426   3.786
 6276SOL    HW119727   1.507   5.487   3.858
 6276SOL    HW219728   1.477   5.474   3.698
 6277SOL     OW19729   5.252   3.183   3.071
 6277SOL    HW119730   5.298   3.271   3.063
 6277SOL    HW219731   5.297   3.127   3.141
 6278SOL     OW19732   5.588   0.179   4.258
 6278SOL    HW119733   5.601   0.185   4.357
 6278SOL    HW219734   5.525   0.251   4.228
 6279SOL     OW19735   3.996   1.928   0.540
 6279SOL    HW119736   3.958   1.841   0.571
 6279SOL    HW219737   3.938   2.003   0.572
 6280SOL     OW19738   0.690   4.846   5.655
 6280SOL    HW119739   0.626   4.773   5.678
 6280SOL    HW219740   0.767   4.844   5.719
 6281SOL     OW19741   2.049   0.032   4.929
 6281SOL    HW119742   2.050   6.959   4.898
 6281SOL    HW219743   1.955   0.064   4.937
 6282SOL     OW19744   2.178   6.604   4.212
 6282SOL    HW119745   2.089   6.603   4.259
 6282SOL    HW219746   2.166   6.567   4.119
 6283SOL     OW19747   6.755   2.771   5.089
 6283SOL    HW119748   6.844   2.769   5.045
 6283SOL    HW219749   6.735   2.863   5.121
 6284SOL     OW19750   1.446   3.993   5.504
 6284SOL    HW119751   1.515   3.964   5.571
 6284SOL    HW219752   1.475   3.967   5.412
 6285SOL     OW19753   1.526   3.990   3.098
 6285SOL    HW119754   1.452   3.924   3.104
 6285SOL    HW219755   1.596   3.968   3.166
 6286SOL     OW19756   5.295   0.646   3.326
 6286SOL    HW119757   5.326   0.634   3.421
 6286SOL    HW219758   5.214   0.704   3.325
 6287SOL     OW19759   4.746   4.140   1.812
 6287SOL    HW119760   4.766   4.062   1.871
 6287SOL    HW219761   4.651   4.168   1.825
 6288SOL     OW19762   5.619   3.769   0.571
 6288SOL    HW119763   5.637   3.671   0.578
 6288SOL    HW219764   5.554   3.796   0.643
 6289SOL     OW19765   1.504   1.488   3.904
 6289SOL    HW119766   1.603   1.494   3.918
 6289SOL    HW219767   1.461   1.575   3.929
 6290SOL     OW19768   4.844   3.829   3.260
 6290SOL    HW119769   4.760   3.883   3.261
 6290SOL    HW219770   4.916   3.881   3.213
 6291SOL     OW19771   3.357   4.041   3.405
 6291SOL    HW119772   3.305   3.957   3.422
 6291SOL    HW219773   3.428   4.051   3.474
 6292SOL     OW19774   1.262   1.722   2.062
 6292SOL    HW119775   1.294   1.678   1.978
 6292SOL    HW219776   1.337   1.725   2.128
 6293SOL     OW19777   4.660   6.956   0.220
 6293SOL    HW119778   4.725   6.979   0.292
 6293SOL    HW219779   4.571   6.936   0.260
 6294SOL     OW19780   4.451   5.190   3.015
 6294SOL    HW119781   4.516   5.155   3.083
 6294SOL    HW219782   4.370   5.226   3.063
 6295SOL     OW19783   5.708   6.137   6.284
 6295SOL    HW119784   5.697   6.040   6.302
 6295SOL    HW219785   5.634   6.189   6.327
 6296SOL     OW19786   6.240   1.010   3.063
 6296SOL    HW119787   6.226   0.911   3.062
 6296SOL    HW219788   6.271   1.040   2.972
 6297SOL     OW19789   5.735   6.500   5.588
 6297SOL    HW119790   5.716   6.424   5.651
 6297SOL    HW219791   5.677   6.491   5.507
 6298SOL     OW19792   0.856   2.812   5.003
 6298SOL    HW119793   0.932   2.786   4.943
 6298SOL    HW219794   0.822   2.732   5.051
 6299SOL     OW19795   6.384   3.008   6.898
 6299SOL    HW119796   6.425   2.928   6.942
 6299SOL    HW219797   6.456   3.064   6.857
 6300SOL     OW19798   4.903   0.640   3.660
 6300SOL    HW119799   4.923   0.712   3.594
 6300SOL    HW219800   4.976   0.572   3.658
 6301SOL     OW19801   3.155   6.894   0.898
 6301SOL    HW119802   3.084   6.842   0.944
 6301SOL    HW219803   3.131   6.907   0.802
 6302SOL     OW19804   1.458   1.194   3.329
 6302SOL    HW119805   1.506   1.161   3.248
 6302SOL    HW219806   1.440   1.118   3.391
 6303SOL     OW19807   1.833   6.031   5.029
 6303SOL    HW119808   1.865   6.109   5.082
 6303SOL    HW219809   1.762   5.982   5.080
 6304SOL     OW19810   2.786   1.246   6.720
 6304SOL    HW119811   2.706   1.188   6.737
 6304SOL    HW219812   2.847   1.244   6.799
 6305SOL     OW19813   6.686   0.165   1.143
 6305SOL    HW119814   6.717   0.126   1.056
 6305SOL    HW219815   6.692   0.095   1.215
 6306SOL     OW19816   6.448   3.075   3.505
 6306SOL    HW119817   6.444   3.024   3.419
 6306SOL    HW219818   6.369   3.053   3.561
 6307SOL     OW19819   2.183   5.138   0.394
 6307SOL    HW119820   2.147   5.047   0.372
 6307SOL    HW219821   2.271   5.150   0.349
 6308SOL     OW19822   3.172   2.070   5.192
 6308SOL    HW119823   3.155   1.990   5.135
 6308SOL    HW219824   3.134   2.151   5.147
 6309SOL     OW19825   5.305   2.042   4.113
 6309SOL    HW119826   5.207   2.060   4.101
 6309SOL    HW219827   5.341   1.998   4.031
 6310SOL     OW19828   1.877   5.000   4.628
 6310SOL    HW119829   1.840   4.930   4.688
 6310SOL    HW219830   1.927   4.957   4.552
 6311SOL     OW19831   5.835   0.596   5.055
 6311SOL    HW119832   5.828   0.696   5.061
 6311SOL    HW219833   5.845   0.557   5.147
 6312SOL     OW19834   3.840   4.843   5.623
 6312SOL    HW119835   3.758   4.808   5.578
 6312SOL    HW219836   3.819   4.860   5.720
 6313SOL     OW19837   2.444   5.645   3.329
 6313SOL    HW119838   2.497   5.693   3.259
 6313SOL    HW219839   2.428   5.551   3.300
 6314SOL     OW19840   3.022   6.369   3.066
 6314SOL    HW119841   2.994   6.278   3.094
 6314SOL    HW219842   3.005   6.381   2.968
 6315SOL     OW19843   3.287   3.545   0.363
 6315SOL    HW119844   3.217   3.615   0.349
 6315SOL    HW219845   3.274   3.471   0.296
 6316SOL     OW19846   4.362   2.660   5.586
 6316SOL    HW119847   4.342   2.686   5.491
 6316SOL    HW219848   4.287   2.603   5.621
 6317SOL     OW19849   5.183   6.699   4.298
 6317SOL    HW119850   5.209   6.650   4.215
 6317SOL    HW219851   5.243   6.779   4.310
 6318SOL     OW19852   2.295   2.151   4.928
 6318SOL    HW119853   2.356   2.092   4.980
 6318SOL    HW219854   2.200   2.120   4.940
 6319SOL     OW19855   0.461   1.670   3.783
 6319SOL    HW119856   0.526   1.630   3.718
 6319SOL    HW219857   0.512   1.713   3.858
 6320SOL     OW19858   5.821   3.798   2.943
 6320SOL    HW119859   5.798   3.702   2.932
 6320SOL    HW219860   5.737   3.853   2.942
 6321SOL     OW19861   2.676   4.328   0.337
 6321SOL    HW119862   2.593   4.313   0.283
 6321SOL    HW219863   2.653   4.376   0.421
 6322SOL     OW19864   0.847   0.978   6.460
 6322SOL    HW119865   0.900   1.020   6.533
 6322SOL    HW219866   0.814   0.888   6.489
 6323SOL     OW19867   3.640   2.853   0.631
 6323SOL    HW119868   3.564   2.844   0.567
 6323SOL    HW219869   3.709   2.914   0.593
 6324SOL     OW19870   4.263   1.311   6.258
 6324SOL    HW119871   4.335   1.370   6.222
 6324SOL    HW219872   4.288   1.215   6.245
 6325SOL     OW19873   0.897   2.307   2.719
 6325SOL    HW119874   0.946   2.289   2.633
 6325SOL    HW219875   0.842   2.228   2.744
 6326SOL     OW19876   4.981   5.841   1.710
 6326SOL    HW119877   4.999   5.829   1.612
 6326SOL    HW219878   5.011   5.760   1.760
 6327SOL     OW19879   5.737   5.573   5.572
 6327SOL    HW119880   5.658   5.632   5.590
 6327SOL    HW219881   5.723   5.523   5.486
 6328SOL     OW19882   3.173   3.821   6.536
 6328SOL    HW119883   3.265   3.823   6.574
 6328SOL    HW219884   3.178   3.797   6.439
 6329SOL     OW19885   0.806   1.688   3.327
 6329SOL    HW119886   0.757   1.771   3.353
 6329SOL    HW219887   0.905   1.705   3.333
 6330SOL     OW19888   3.761   1.197   0.203
 6330SOL    HW119889   3.743   1.262   0.129
 6330SOL    HW219890   3.737   1.105   0.173
 6331SOL     OW19891   6.493   2.419   1.724
 6331SOL    HW119892   6.513   2.406   1.626
 6331SOL    HW219893   6.528   2.341   1.775
 6332SOL     OW19894   6.083   5.544   1.444
 6332SOL    HW119895   6.148   5.539   1.519
 6332SOL    HW219896   6.048   5.637   1.435
 6333SOL     OW19897   3.869   5.092   3.326
 6333SOL    HW119898   3.880   5.053   3.418
 6333SOL    HW219899   3.943   5.060   3.267
 6334SOL     OW19900   1.619   0.982   2.505
 6334SOL    HW119901   1.658   0.983   2.597
 6334SOL    HW219902   1.686   0.943   2.441
 6335SOL     OW19903   6.759   1.428   6.695
 6335SOL    HW119904   6.843   1.378   6.676
 6335SOL    HW219905   6.769   1.479   6.781
 6336SOL     OW19906   6.949   2.735   4.733
 6336SOL    HW119907   6.924   2.817   4.680
 6336SOL    HW219908   6.989   2.667   4.672
 6337SOL     OW19909   6.410   4.954   5.682
 6337SOL    HW119910   6.360   5.027   5.635
 6337SOL    HW219911   6.363   4.930   5.766
 6338SOL     OW19912   3.763   1.224   3.358
 6338SOL    HW119913   3.756   1.242   3.260
 6338SOL    HW219914   3.856   1.195   3.380
 6339SOL     OW19915   0.254   1.870   3.894
 6339SOL    HW119916   0.158   1.851   3.913
 6339SOL    HW219917   0.302   1.783   3.876
 6340SOL     OW19918   2.403   5.346   4.290
 6340SOL    HW119919   2.306   5.322   4.292
 6340SOL    HW219920   2.413   5.445   4.301
 6341SOL     OW19921   0.287   4.571   3.380
 6341SOL    HW119922   0.334   4.605   3.462
 6341SOL    HW219923   0.331   4.609   3.299
 6342SOL     OW19924   0.866   2.742   1.033
 6342SOL    HW119925   0.838   2.762   0.939
 6342SOL    HW219926   0.937   2.806   1.062
 6343SOL     OW19927   3.674   1.169   6.861
 6343SOL    HW119928   3.626   1.221   6.790
 6343SOL    HW219929   3.674   1.072   6.838
 6344SOL     OW19930   0.894   4.501   4.193
 6344SOL    HW119931   0.865   4.595   4.215
 6344SOL    HW219932   0.894   4.489   4.094
 6345SOL     OW19933   3.686   1.485   2.085
 6345SOL    HW119934   3.741   1.526   2.157
 6345SOL    HW219935   3.685   1.544   2.005
 6346SOL     OW19936   0.565   4.305   3.595
 6346SOL    HW119937   0.579   4.206   3.597
 6346SOL    HW219938   0.467   4.324   3.588
 6347SOL     OW19939   2.993   0.172   1.175
 6347SOL    HW119940   2.947   0.150   1.090
 6347SOL    HW219941   2.935   0.232   1.230
 6348SOL     OW19942   0.857   3.297   4.378
 6348SOL    HW119943   0.790   3.264   4.312
 6348SOL    HW219944   0.820   3.375   4.428
 6349SOL     OW19945   2.743   0.836   0.427
 6349SOL    HW119946   2.797   0.779   0.365
 6349SOL    HW219947   2.652   0.852   0.388
 6350SOL     OW19948   1.573   5.818   2.287
 6350SOL    HW119949   1.585   5.916   2.271
 6350SOL    HW219950   1.578   5.769   2.199
 6351SOL     OW19951   6.863   1.849   2.457
 6351SOL    HW119952   6.803   1.843   2.377
 6351SOL    HW219953   6.816   1.811   2.537
 6352SOL     OW19954   0.404   5.625   1.848
 6352SOL    HW119955   0.487   5.568   1.846
 6352SOL    HW219956   0.324   5.568   1.830
 6353SOL     OW19957   0.367   7.008   0.852
 6353SOL    HW119958   0.429   6.947   0.802
 6353SOL    HW219959   0.319   6.957   0.923
 6354SOL     OW19960   0.423   6.591   3.332
 6354SOL    HW119961   0.510   6.616   3.374
 6354SOL    HW219962   0.418   6.491   3.322
 6355SOL     OW19963   1.945   2.499   3.281
 6355SOL    HW119964   1.905   2.469   3.194
 6355SOL    HW219965   2.015   2.568   3.263
 6356SOL     OW19966   3.440   3.992   1.580
 6356SOL    HW119967   3.348   3.995   1.541
 6356SOL    HW219968   3.497   3.930   1.526
 6357SOL     OW19969   4.251   1.983   0.475
 6357SOL    HW119970   4.237   2.004   0.378
 6357SOL    HW219971   4.163   1.962   0.517
 6358SOL     OW19972   6.958   2.085   3.345
 6358SOL    HW119973   6.916   2.140   3.418
 6358SOL    HW219974   0.017   2.132   3.309
 6359SOL     OW19975   6.873   0.739   6.768
 6359SOL    HW119976   6.809   0.743   6.692
 6359SOL    HW219977   6.929   0.822   6.770
 6360SOL     OW19978   3.296   5.489   4.253
 6360SOL    HW119979   3.254   5.417   4.308
 6360SOL    HW219980   3.261   5.485   4.160
 6361SOL     OW19981   4.263   6.037   5.932
 6361SOL    HW119982   4.277   5.943   5.963
 6361SOL    HW219983   4.320   6.098   5.986
 6362SOL     OW19984   5.990   5.408   6.383
 6362SOL    HW119985   5.946   5.417   6.294
 6362SOL    HW219986   6.070   5.468   6.386
 6363SOL     OW19987   1.297   5.736   4.178
 6363SOL    HW119988   1.236   5.660   4.156
 6363SOL    HW219989   1.364   5.707   4.246
 6364SOL     OW19990   2.335   2.551   5.543
 6364SOL    HW119991   2.306   2.634   5.590
 6364SOL    HW219992   2.256   2.501   5.510
 6365SOL     OW19993   4.905   6.321   3.089
 6365SOL    HW119994   4.852   6.301   3.007
 6365SOL    HW219995   4.942   6.236   3.127
 6366SOL     OW19996   0.266   5.413   5.189
 6366SOL    HW119997   0.236   5.491   5.244
 6366SOL    HW219998   0.199   5.339   5.196
 6367SOL     OW19999   5.488   6.634   4.189
 6367SOL    HW120000   5.477   6.733   4.192
 6367SOL    HW220001   5.502   6.599   4.281
 6368SOL     OW20002   2.962   0.023   4.376
 6368SOL    HW120003   3.039   0.086   4.391
 6368SOL    HW220004   2.905   0.021   4.458
 6369SOL     OW20005   2.638   5.057   4.130
 6369SOL    HW120006   2.723   5.008   4.148
 6369SOL    HW220007   2.571   4.994   4.091
 6370SOL     OW20008   6.146   2.624   1.513
 6370SOL    HW120009   6.110   2.577   1.432
 6370SOL    HW220010   6.214   2.692   1.485
 6371SOL     OW20011   4.944   2.409   2.274
 6371SOL    HW120012   4.872   2.357   2.228
 6371SOL    HW220013   5.015   2.434   2.208
 6372SOL     OW20014   2.907   6.022   2.171
 6372SOL    HW120015   2.951   5.992   2.087
 6372SOL    HW220016   2.899   5.945   2.234
 6373SOL     OW20017   4.396   4.233   6.678
 6373SOL    HW120018   4.396   4.314   6.619
 6373SOL    HW220019   4.487   4.190   6.675
 6374SOL     OW20020   3.061   3.238   2.757
 6374SOL    HW120021   3.093   3.143   2.760
 6374SOL    HW220022   3.012   3.260   2.841
 6375SOL     OW20023   1.474   6.303   2.907
 6375SOL    HW120024   1.442   6.265   2.820
 6375SOL    HW220025   1.494   6.400   2.895
 6376SOL     OW20026   6.712   2.586   5.284
 6376SOL    HW120027   6.792   2.600   5.343
 6376SOL    HW220028   6.714   2.653   5.210
 6377SOL     OW20029   0.533   1.318   4.483
 6377SOL    HW120030   0.574   1.273   4.563
 6377SOL    HW220031   0.567   1.412   4.477
 6378SOL     OW20032   4.648   4.376   3.951
 6378SOL    HW120033   4.622   4.365   3.855
 6378SOL    HW220034   4.684   4.290   3.987
 6379SOL     OW20035   2.426   4.384   3.243
 6379SOL    HW120036   2.367   4.345   3.314
 6379SOL    HW220037   2.370   4.437   3.179
 6380SOL     OW20038   0.098   0.731   5.929
 6380SOL    HW120039   0.102   0.822   5.887
 6380SOL    HW220040   0.069   0.739   6.024
 6381SOL     OW20041   3.185   3.950   2.903
 6381SOL    HW120042   3.144   3.998   2.981
 6381SOL    HW220043   3.162   3.997   2.818
 6382SOL     OW20044   1.393   3.471   5.570
 6382SOL    HW120045   1.376   3.563   5.605
 6382SOL    HW220046   1.428   3.476   5.477
 6383SOL     OW20047   2.688   0.931   4.333
 6383SOL    HW120048   2.640   1.001   4.281
 6383SOL    HW220049   2.637   0.845   4.328
 6384SOL     OW20050   6.893   4.648   3.036
 6384SOL    HW120051   6.956   4.715   3.075
 6384SOL    HW220052   6.942   4.563   3.019
 6385SOL     OW20053   0.164   5.319   4.392
 6385SOL    HW120054   0.089   5.295   4.330
 6385SOL    HW220055   0.251   5.304   4.346
 6386SOL     OW20056   2.921   4.839   1.480
 6386SOL    HW120057   2.951   4.754   1.525
 6386SOL    HW220058   2.977   4.854   1.398
 6387SOL     OW20059   6.334   0.715   5.413
 6387SOL    HW120060   6.405   0.663   5.365
 6387SOL    HW220061   6.330   0.684   5.509
 6388SOL     OW20062   3.043   4.890   2.495
 6388SOL    HW120063   3.078   4.867   2.586
 6388SOL    HW220064   3.107   4.858   2.425
 6389SOL     OW20065   1.045   5.501   3.434
 6389SOL    HW120066   1.054   5.599   3.421
 6389SOL    HW220067   1.119   5.454   3.386
 6390SOL     OW20068   0.646   3.250   3.910
 6390SOL    HW120069   0.671   3.156   3.885
 6390SOL    HW220070   0.666   3.266   4.006
 6391SOL     OW20071   2.886   1.637   0.230
 6391SOL    HW120072   2.838   1.616   0.145
 6391SOL    HW220073   2.933   1.555   0.263
 6392SOL     OW20074   1.827   6.811   4.189
 6392SOL    HW120075   1.879   6.731   4.160
 6392SOL    HW220076   1.800   6.864   4.108
 6393SOL     OW20077   6.029   5.825   0.237
 6393SOL    HW120078   6.106   5.813   0.174
 6393SOL    HW220079   6.063   5.841   0.329
 6394SOL     OW20080   2.615   5.075   0.319
 6394SOL    HW120081   2.691   5.138   0.304
 6394SOL    HW220082   2.529   5.123   0.303
 6395SOL     OW20083   6.564   1.721   0.818
 6395SOL    HW120084   6.600   1.645   0.764
 6395SOL    HW220085   6.483   1.759   0.773
 6396SOL     OW20086   4.996   4.391   5.558
 6396SOL    HW120087   5.001   4.413   5.461
 6396SOL    HW220088   5.087   4.397   5.599
 6397SOL     OW20089   0.096   1.266   0.922
 6397SOL    HW120090   0.153   1.319   0.859
 6397SOL    HW220091   0.011   1.316   0.940
 6398SOL     OW20092   3.306   1.412   1.520
 6398SOL    HW120093   3.320   1.395   1.618
 6398SOL    HW220094   3.394   1.433   1.477
 6399SOL     OW20095   2.366   5.667   6.994
 6399SOL    HW120096   2.395   5.762   6.985
 6399SOL    HW220097   2.281   5.653   6.943
 6400SOL     OW20098   2.581   5.539   3.816
 6400SOL    HW120099   2.578   5.451   3.864
 6400SOL    HW220100   2.667   5.586   3.836
 6401SOL     OW20101   0.506   4.803   4.003
 6401SOL    HW120102   0.436   4.806   4.075
 6401SOL    HW220103   0.526   4.896   3.972
 6402SOL     OW20104   2.584   0.906   2.898
 6402SOL    HW120105   2.646   0.838   2.937
 6402SOL    HW220106   2.624   0.942   2.814
 6403SOL     OW20107   0.455   5.580   0.128
 6403SOL    HW120108   0.388   5.515   0.091
 6403SOL    HW220109   0.507   5.537   0.201
 6404SOL     OW20110   5.385   1.325   3.591
 6404SOL    HW120111   5.393   1.240   3.538
 6404SOL    HW220112   5.379   1.403   3.529
 6405SOL     OW20113   2.520   1.459   2.530
 6405SOL    HW120114   2.479   1.371   2.505
 6405SOL    HW220115   2.619   1.451   2.527
 6406SOL     OW20116   2.619   1.701   4.143
 6406SOL    HW120117   2.566   1.661   4.068
 6406SOL    HW220118   2.663   1.785   4.111
 6407SOL     OW20119   3.765   5.193   5.981
 6407SOL    HW120120   3.826   5.200   5.903
 6407SOL    HW220121   3.675   5.229   5.958
 6408SOL     OW20122   6.054   1.427   6.717
 6408SOL    HW120123   5.964   1.421   6.674
 6408SOL    HW220124   6.046   1.407   6.815
 6409SOL     OW20125   0.812   4.111   2.027
 6409SOL    HW120126   0.892   4.063   1.992
 6409SOL    HW220127   0.778   4.065   2.109
 6410SOL     OW20128   1.374   1.316   0.914
 6410SOL    HW120129   1.400   1.221   0.895
 6410SOL    HW220130   1.424   1.349   0.994
 6411SOL     OW20131   0.710   1.044   3.441
 6411SOL    HW120132   0.718   0.958   3.493
 6411SOL    HW220133   0.801   1.080   3.423
 6412SOL     OW20134   0.157   2.390   5.268
 6412SOL    HW120135   0.067   2.377   5.226
 6412SOL    HW220136   0.227   2.349   5.209
 6413SOL     OW20137   0.163   4.493   0.401
 6413SOL    HW120138   0.136   4.437   0.480
 6413SOL    HW220139   0.097   4.568   0.390
 6414SOL     OW20140   5.786   6.158   2.515
 6414SOL    HW120141   5.719   6.186   2.446
 6414SOL    HW220142   5.758   6.191   2.605
 6415SOL     OW20143   1.631   1.490   1.780
 6415SOL    HW120144   1.572   1.439   1.718
 6415SOL    HW220145   1.582   1.510   1.865
 6416SOL     OW20146   1.136   0.996   6.125
 6416SOL    HW120147   1.203   0.925   6.143
 6416SOL    HW220148   1.044   0.956   6.122
 6417SOL     OW20149   0.684   6.929   3.277
 6417SOL    HW120150   0.702   7.002   3.343
 6417SOL    HW220151   0.594   6.944   3.235
 6418SOL     OW20152   6.464   6.000   2.083
 6418SOL    HW120153   6.431   5.969   2.173
 6418SOL    HW220154   6.505   6.091   2.093
 6419SOL     OW20155   3.457   4.849   1.501
 6419SOL    HW120156   3.458   4.949   1.510
 6419SOL    HW220157   3.417   4.809   1.582
 6420SOL     OW20158   2.388   4.383   6.693
 6420SOL    HW120159   2.406   4.290   6.660
 6420SOL    HW220160   2.395   4.448   6.617
 6421SOL     OW20161   5.734   1.449   1.283
 6421SOL    HW120162   5.685   1.407   1.207
 6421SOL    HW220163   5.670   1.464   1.359
 6422SOL     OW20164   5.874   1.412   3.409
 6422SOL    HW120165   5.776   1.388   3.409
 6422SOL    HW220166   5.928   1.329   3.423
 6423SOL     OW20167   5.023   3.624   0.240
 6423SOL    HW120168   4.957   3.617   0.315
 6423SOL    HW220169   5.098   3.560   0.255
 6424SOL     OW20170   6.879   4.532   5.570
 6424SOL    HW120171   6.867   4.540   5.471
 6424SOL    HW220172   6.789   4.525   5.614
 6425SOL     OW20173   1.015   4.894   2.166
 6425SOL    HW120174   1.057   4.891   2.257
 6425SOL    HW220175   1.030   4.807   2.119
 6426SOL     OW20176   0.941   2.727   3.476
 6426SOL    HW120177   0.993   2.668   3.413
 6426SOL    HW220178   0.938   2.685   3.566
 6427SOL     OW20179   1.866   3.555   5.168
 6427SOL    HW120180   1.906   3.556   5.259
 6427SOL    HW220181   1.902   3.632   5.114
 6428SOL     OW20182   6.918   3.905   2.320
 6428SOL    HW120183   6.907   3.828   2.382
 6428SOL    HW220184   6.828   3.940   2.294
 6429SOL     OW20185   1.260   0.186   3.663
 6429SOL    HW120186   1.334   0.179   3.596
 6429SOL    HW220187   1.231   0.281   3.671
 6430SOL     OW20188   5.927   2.676   0.772
 6430SOL    HW120189   5.975   2.589   0.781
 6430SOL    HW220190   5.987   2.744   0.731
 6431SOL     OW20191   5.428   6.760   2.375
 6431SOL    HW120192   5.477   6.844   2.399
 6431SOL    HW220193   5.331   6.780   2.367
 6432SOL     OW20194   4.966   3.374   0.761
 6432SOL    HW120195   4.927   3.460   0.729
 6432SOL    HW220196   5.051   3.393   0.811
 6433SOL     OW20197   2.771   3.918   1.692
 6433SOL    HW120198   2.783   3.954   1.599
 6433SOL    HW220199   2.808   3.826   1.697
 6434SOL     OW20200   1.442   4.222   0.826
 6434SOL    HW120201   1.431   4.321   0.811
 6434SOL    HW220202   1.507   4.206   0.900
 6435SOL     OW20203   4.544   3.963   6.430
 6435SOL    HW120204   4.642   3.962   6.450
 6435SOL    HW220205   4.514   3.871   6.407
 6436SOL     OW20206   1.725   2.824   3.515
 6436SOL    HW120207   1.690   2.731   3.528
 6436SOL    HW220208   1.649   2.885   3.492
 6437SOL     OW20209   1.248   0.360   6.656
 6437SOL    HW120210   1.305   0.333   6.579
 6437SOL    HW220211   1.289   0.438   6.703
 6438SOL     OW20212   0.979   3.695   3.841
 6438SOL    HW120213   1.075   3.718   3.858
 6438SOL    HW220214   0.974   3.632   3.763
 6439SOL     OW20215   1.422   6.756   1.207
 6439SOL    HW120216   1.456   6.721   1.295
 6439SOL    HW220217   1.322   6.750   1.206
 6440SOL     OW20218   1.433   1.641   2.685
 6440SOL    HW120219   1.435   1.713   2.754
 6440SOL    HW220220   1.411   1.554   2.728
 6441SOL     OW20221   2.257   1.108   3.462
 6441SOL    HW120222   2.175   1.115   3.519
 6441SOL    HW220223   2.248   1.028   3.401
 6442SOL     OW20224   2.733   1.603   4.357
 6442SOL    HW120225   2.693   1.646   4.277
 6442SOL    HW220226   2.813   1.549   4.330
 6443SOL     OW20227   2.688   2.050   0.740
 6443SOL    HW120228   2.608   2.106   0.763
 6443SOL    HW220229   2.770   2.092   0.779
 6444SOL     OW20230   0.498   1.228   3.065
 6444SOL    HW120231   0.456   1.314   3.093
 6444SOL    HW220232   0.592   1.245   3.034
 6445SOL     OW20233   3.892   3.265   5.507
 6445SOL    HW120234   3.930   3.284   5.598
 6445SOL    HW220235   3.809   3.319   5.494
 6446SOL     OW20236   6.667   1.248   0.333
 6446SOL    HW120237   6.643   1.206   0.245
 6446SOL    HW220238   6.699   1.341   0.318
 6447SOL     OW20239   1.531   0.427   2.658
 6447SOL    HW120240   1.599   0.443   2.730
 6447SOL    HW220241   1.531   0.504   2.594
 6448SOL     OW20242   5.618   2.314   3.198
 6448SOL    HW120243   5.534   2.261   3.207
 6448SOL    HW220244   5.683   2.285   3.268
 6449SOL     OW20245   3.154   3.178   0.749
 6449SOL    HW120246   3.125   3.085   0.727
 6449SOL    HW220247   3.251   3.189   0.726
 6450SOL     OW20248   6.190   3.452   0.691
 6450SOL    HW120249   6.140   3.425   0.774
 6450SOL    HW220250   6.226   3.544   0.703
 6451SOL     OW20251   2.759   6.339   4.986
 6451SOL    HW120252   2.688   6.386   5.039
 6451SOL    HW220253   2.738   6.241   4.982
 6452SOL     OW20254   3.605   6.400   3.947
 6452SOL    HW120255   3.687   6.451   3.973
 6452SOL    HW220256   3.579   6.424   3.854
 6453SOL     OW20257   1.738   5.876   6.310
 6453SOL    HW120258   1.822   5.822   6.317
 6453SOL    HW220259   1.717   5.917   6.399
 6454SOL     OW20260   3.379   1.473   4.596
 6454SOL    HW120261   3.426   1.556   4.626
 6454SOL    HW220262   3.281   1.482   4.614
 6455SOL     OW20263   5.712   2.699   5.319
 6455SOL    HW120264   5.646   2.741   5.257
 6455SOL    HW220265   5.784   2.654   5.265
 6456SOL     OW20266   0.119   0.322   3.304
 6456SOL    HW120267   0.173   0.360   3.380
 6456SOL    HW220268   0.049   0.388   3.277
 6457SOL     OW20269   6.620   2.543   0.693
 6457SOL    HW120270   6.676   2.482   0.636
 6457SOL    HW220271   6.592   2.496   0.776
 6458SOL     OW20272   1.448   5.706   3.230
 6458SOL    HW120273   1.373   5.668   3.175
 6458SOL    HW220274   1.517   5.635   3.244
 6459SOL     OW20275   5.426   4.625   6.719
 6459SOL    HW120276   5.448   4.661   6.628
 6459SOL    HW220277   5.327   4.612   6.727
 6460SOL     OW20278   3.474   4.918   6.304
 6460SOL    HW120279   3.395   4.858   6.319
 6460SOL    HW220280   3.472   4.953   6.211
 6461SOL     OW20281   3.600   4.939   4.658
 6461SOL    HW120282   3.597   5.038   4.667
 6461SOL    HW220283   3.551   4.912   4.574
 6462SOL     OW20284   2.013   3.760   4.697
 6462SOL    HW120285   1.999   3.664   4.723
 6462SOL    HW220286   2.081   3.801   4.758
 6463SOL     OW20287   1.739   4.038   6.209
 6463SOL    HW120288   1.792   4.042   6.124
 6463SOL    HW220289   1.766   3.958   6.262
 6464SOL     OW20290   0.447   5.535   2.877
 6464SOL    HW120291   0.541   5.565   2.859
 6464SOL    HW220292   0.418   5.473   2.804
 6465SOL     OW20293   6.518   1.359   3.250
 6465SOL    HW120294   6.506   1.307   3.335
 6465SOL    HW220295   6.542   1.296   3.176
 6466SOL     OW20296   6.910   2.343   5.231
 6466SOL    HW120297   6.893   2.427   5.179
 6466SOL    HW220298   6.830   2.322   5.288
 6467SOL     OW20299   2.639   0.944   6.281
 6467SOL    HW120300   2.706   1.017   6.270
 6467SOL    HW220301   2.549   0.975   6.251
 6468SOL     OW20302   5.080   5.485   0.926
 6468SOL    HW120303   5.150   5.555   0.940
 6468SOL    HW220304   5.004   5.502   0.989
 6469SOL     OW20305   6.892   1.232   5.385
 6469SOL    HW120306   6.893   1.314   5.443
 6469SOL    HW220307   6.947   1.249   5.303
 6470SOL     OW20308   6.304   6.963   6.040
 6470SOL    HW120309   6.266   7.000   5.955
 6470SOL    HW220310   6.236   6.968   6.113
 6471SOL     OW20311   5.755   5.027   6.038
 6471SOL    HW120312   5.783   4.932   6.037
 6471SOL    HW220313   5.800   5.074   6.114
 6472SOL     OW20314   1.017   5.953   2.036
 6472SOL    HW120315   1.032   6.017   2.112
 6472SOL    HW220316   0.993   6.005   1.954
 6473SOL     OW20317   2.001   1.979   6.532
 6473SOL    HW120318   2.017   1.888   6.571
 6473SOL    HW220319   1.906   1.986   6.501
 6474SOL     OW20320   1.709   3.039   5.069
 6474SOL    HW120321   1.678   2.974   5.138
 6474SOL    HW220322   1.702   3.132   5.106
 6475SOL     OW20323   4.014   6.255   4.303
 6475SOL    HW120324   3.985   6.337   4.254
 6475SOL    HW220325   3.935   6.200   4.328
 6476SOL     OW20326   4.587   4.809   2.458
 6476SOL    HW120327   4.519   4.879   2.480
 6476SOL    HW220328   4.650   4.844   2.388
 6477SOL     OW20329   6.686   5.757   0.218
 6477SOL    HW120330   6.633   5.747   0.302
 6477SOL    HW220331   6.742   5.675   0.204
 6478SOL     OW20332   4.999   6.544   1.328
 6478SOL    HW120333   5.062   6.616   1.355
 6478SOL    HW220334   5.050   6.460   1.307
 6479SOL     OW20335   4.105   5.304   2.297
 6479SOL    HW120336   4.127   5.311   2.395
 6479SOL    HW220337   4.038   5.375   2.273
 6480SOL     OW20338   2.985   2.396   0.312
 6480SOL    HW120339   3.085   2.397   0.303
 6480SOL    HW220340   2.959   2.444   0.396
 6481SOL     OW20341   4.366   0.859   1.377
 6481SOL    HW120342   4.273   0.829   1.356
 6481SOL    HW220343   4.369   0.959   1.381
 6482SOL     OW20344   6.866   0.212   6.538
 6482SOL    HW120345   6.910   0.128   6.568
 6482SOL    HW220346   6.935   0.283   6.525
 6483SOL     OW20347   1.423   6.816   2.894
 6483SOL    HW120348   1.446   6.736   2.949
 6483SOL    HW220349   1.477   6.816   2.810
 6484SOL     OW20350   4.752   6.874   3.514
 6484SOL    HW120351   4.669   6.882   3.569
 6484SOL    HW220352   4.733   6.900   3.420
 6485SOL     OW20353   2.031   2.234   2.993
 6485SOL    HW120354   2.128   2.251   3.013
 6485SOL    HW220355   2.003   2.147   3.034
 6486SOL     OW20356   1.635   3.385   3.634
 6486SOL    HW120357   1.679   3.473   3.616
 6486SOL    HW220358   1.648   3.360   3.730
 6487SOL     OW20359   5.677   6.399   4.131
 6487SOL    HW120360   5.635   6.316   4.093
 6487SOL    HW220361   5.625   6.479   4.101
 6488SOL     OW20362   3.252   5.377   5.795
 6488SOL    HW120363   3.175   5.426   5.755
 6488SOL    HW220364   3.260   5.401   5.892
 6489SOL     OW20365   2.077   1.946   5.353
 6489SOL    HW120366   2.147   1.902   5.410
 6489SOL    HW220367   1.988   1.940   5.399
 6490SOL     OW20368   3.523   1.546   0.524
 6490SOL    HW120369   3.576   1.622   0.559
 6490SOL    HW220370   3.425   1.565   0.534
 6491SOL     OW20371   3.948   2.033   6.791
 6491SOL    HW120372   3.934   2.017   6.693
 6491SOL    HW220373   3.874   1.991   6.843
 6492SOL     OW20374   5.819   5.965   0.098
 6492SOL    HW120375   5.891   5.941   0.164
 6492SOL    HW220376   5.860   5.988   0.010
 6493SOL     OW20377   1.156   6.534   6.187
 6493SOL    HW120378   1.057   6.518   6.189
 6493SOL    HW220379   1.185   6.573   6.274
 6494SOL     OW20380   0.875   0.469   3.640
 6494SOL    HW120381   0.929   0.396   3.682
 6494SOL    HW220382   0.933   0.548   3.622
 6495SOL     OW20383   5.680   4.898   2.772
 6495SOL    HW120384   5.629   4.880   2.856
 6495SOL    HW220385   5.616   4.903   2.695
 6496SOL     OW20386   0.848   0.254   2.407
 6496SOL    HW120387   0.894   0.195   2.473
 6496SOL    HW220388   0.915   0.289   2.341
 6497SOL     OW20389   1.727   4.456   0.320
 6497SOL    HW120390   1.708   4.535   0.379
 6497SOL    HW220391   1.690   4.473   0.229
 6498SOL     OW20392   2.422   4.411   3.856
 6498SOL    HW120393   2.399   4.378   3.765
 6498SOL    HW220394   2.342   4.406   3.915
 6499SOL     OW20395   5.637   1.242   3.747
 6499SOL    HW120396   5.577   1.309   3.703
 6499SOL    HW220397   5.629   1.251   3.847
 6500SOL     OW20398   4.908   4.987   3.598
 6500SOL    HW120399   4.849   4.910   3.621
 6500SOL    HW220400   4.997   4.976   3.642
 6501SOL     OW20401   6.642   4.186   0.960
 6501SOL    HW120402   6.603   4.277   0.949
 6501SOL    HW220403   6.737   4.187   0.928
 6502SOL     OW20404   0.903   5.359   3.077
 6502SOL    HW120405   0.834   5.305   3.029
 6502SOL    HW220406   0.866   5.392   3.164
 6503SOL     OW20407   4.366   6.783   4.507
 6503SOL    HW120408   4.309   6.865   4.508
 6503SOL    HW220409   4.343   6.725   4.585
 6504SOL     OW20410   3.005   0.965   0.737
 6504SOL    HW120411   3.103   0.979   0.718
 6504SOL    HW220412   2.982   0.869   0.720
 6505SOL     OW20413   6.291   4.817   1.278
 6505SOL    HW120414   6.339   4.780   1.358
 6505SOL    HW220415   6.248   4.904   1.302
 6506SOL     OW20416   2.183   2.722   1.084
 6506SOL    HW120417   2.099   2.711   1.136
 6506SOL    HW220418   2.257   2.671   1.128
 6507SOL     OW20419   1.992   6.930   1.621
 6507SOL    HW120420   1.921   6.871   1.659
 6507SOL    HW220421   1.971   0.004   1.642
 6508SOL     OW20422   2.363   1.917   3.001
 6508SOL    HW120423   2.432   1.976   3.042
 6508SOL    HW220424   2.334   1.848   3.067
 6509SOL     OW20425   0.686   2.705   4.314
 6509SOL    HW120426   0.636   2.641   4.371
 6509SOL    HW220427   0.768   2.737   4.362
 6510SOL     OW20428   6.089   4.587   6.115
 6510SOL    HW120429   6.120   4.522   6.185
 6510SOL    HW220430   6.103   4.548   6.025
 6511SOL     OW20431   6.598   6.380   6.633
 6511SOL    HW120432   6.622   6.386   6.536
 6511SOL    HW220433   6.672   6.333   6.682
 6512SOL     OW20434   4.867   6.448   3.786
 6512SOL    HW120435   4.890   6.418   3.879
 6512SOL    HW220436   4.824   6.539   3.791
 6513SOL     OW20437   3.526   6.574   2.556
 6513SOL    HW120438   3.530   6.536   2.463
 6513SOL    HW220439   3.532   6.674   2.551
 6514SOL     OW20440   3.938   0.061   4.117
 6514SOL    HW120441   3.991   0.005   4.054
 6514SOL    HW220442   3.934   0.155   4.081
 6515SOL     OW20443   0.607   0.223   5.119
 6515SOL    HW120444   0.518   0.236   5.163
 6515SOL    HW220445   0.595   0.217   5.020
 6516SOL     OW20446   0.714   1.684   5.474
 6516SOL    HW120447   0.717   1.602   5.530
 6516SOL    HW220448   0.636   1.678   5.411
 6517SOL     OW20449   1.092   1.457   0.243
 6517SOL    HW120450   0.993   1.469   0.241
 6517SOL    HW220451   1.133   1.522   0.307
 6518SOL     OW20452   6.463   6.497   1.256
 6518SOL    HW120453   6.371   6.464   1.274
 6518SOL    HW220454   6.507   6.439   1.187
 6519SOL     OW20455   2.059   2.077   4.375
 6519SOL    HW120456   2.025   1.983   4.375
 6519SOL    HW220457   2.041   2.119   4.286
 6520SOL     OW20458   5.763   5.540   1.422
 6520SOL    HW120459   5.691   5.611   1.421
 6520SOL    HW220460   5.851   5.583   1.443
 6521SOL     OW20461   0.079   1.510   5.049
 6521SOL    HW120462   0.169   1.507   5.093
 6521SOL    HW220463   0.058   1.605   5.024
 6522SOL     OW20464   2.319   5.503   6.199
 6522SOL    HW120465   2.376   5.434   6.153
 6522SOL    HW220466   2.283   5.567   6.132
 6523SOL     OW20467   2.262   2.152   5.946
 6523SOL    HW120468   2.350   2.198   5.962
 6523SOL    HW220469   2.264   2.061   5.988
 6524SOL     OW20470   4.114   3.561   3.597
 6524SOL    HW120471   4.034   3.539   3.541
 6524SOL    HW220472   4.144   3.479   3.646
 6525SOL     OW20473   0.630   2.761   3.669
 6525SOL    HW120474   0.550   2.757   3.609
 6525SOL    HW220475   0.624   2.843   3.726
 6526SOL     OW20476   1.138   6.294   5.156
 6526SOL    HW120477   1.100   6.357   5.089
 6526SOL    HW220478   1.067   6.233   5.190
 6527SOL     OW20479   1.442   0.070   4.650
 6527SOL    HW120480   1.376   0.141   4.623
 6527SOL    HW220481   1.456   0.007   4.573
 6528SOL     OW20482   0.116   1.290   4.639
 6528SOL    HW120483   0.110   1.243   4.551
 6528SOL    HW220484   0.151   1.227   4.708
 6529SOL     OW20485   0.105   1.789   1.657
 6529SOL    HW120486   0.132   1.694   1.673
 6529SOL    HW220487   0.011   1.803   1.690
 6530SOL     OW20488   0.220   1.849   0.697
 6530SOL    HW120489   0.305   1.805   0.725
 6530SOL    HW220490   0.156   1.850   0.774
 6531SOL     OW20491   4.753   2.875   4.287
 6531SOL    HW120492   4.703   2.867   4.373
 6531SOL    HW220493   4.819   2.950   4.293
 6532SOL     OW20494   6.868   1.671   6.308
 6532SOL    HW120495   6.823   1.584   6.286
 6532SOL    HW220496   6.814   1.721   6.375
 6533SOL     OW20497   4.580   0.198   1.288
 6533SOL    HW120498   4.564   0.238   1.197
 6533SOL    HW220499   4.662   0.238   1.328
 6534SOL     OW20500   2.264   3.842   1.174
 6534SOL    HW120501   2.332   3.915   1.181
 6534SOL    HW220502   2.228   3.839   1.081
 6535SOL     OW20503   0.832   3.712   5.554
 6535SOL    HW120504   0.898   3.667   5.615
 6535SOL    HW220505   0.739   3.694   5.585
 6536SOL     OW20506   6.218   2.093   6.970
 6536SOL    HW120507   6.284   2.127   0.015
 6536SOL    HW220508   6.217   2.153   6.890
 6537SOL     OW20509   0.984   0.043   0.141
 6537SOL    HW120510   0.934   6.979   0.156
 6537SOL    HW220511   1.073   0.023   0.100
 6538SOL     OW20512   2.918   3.307   0.068
 6538SOL    HW120513   3.016   3.306   0.088
 6538SOL    HW220514   2.894   3.225   0.017
 6539SOL     OW20515   2.442   1.724   6.968
 6539SOL    HW120516   2.503   1.680   0.012
 6539SOL    HW220517   2.390   1.654   6.918
 6540SOL     OW20518   2.714   1.544   4.993
 6540SOL    HW120519   2.715   1.642   4.976
 6540SOL    HW220520   2.623   1.508   4.973
 6541SOL     OW20521   2.126   2.519   6.124
 6541SOL    HW120522   2.110   2.590   6.055
 6541SOL    HW220523   2.039   2.480   6.152
 6542SOL     OW20524   6.046   4.191   4.018
 6542SOL    HW120525   5.969   4.227   4.070
 6542SOL    HW220526   6.013   4.122   3.953
 6543SOL     OW20527   6.391   5.963   6.761
 6543SOL    HW120528   6.381   5.977   6.662
 6543SOL    HW220529   6.382   5.866   6.781
 6544SOL     OW20530   6.181   6.676   4.449
 6544SOL    HW120531   6.268   6.684   4.498
 6544SOL    HW220532   6.168   6.582   4.419
 6545SOL     OW20533   4.908   1.695   5.716
 6545SOL    HW120534   4.933   1.706   5.812
 6545SOL    HW220535   4.972   1.746   5.658
 6546SOL     OW20536   2.835   4.539   6.157
 6546SOL    HW120537   2.772   4.578   6.225
 6546SOL    HW220538   2.819   4.440   6.150
 6547SOL     OW20539   5.022   2.087   0.050
 6547SOL    HW120540   4.977   2.176   0.043
 6547SOL    HW220541   4.977   2.022   7.012
 6548SOL     OW20542   6.733   4.792   5.469
 6548SOL    HW120543   6.820   4.756   5.434
 6548SOL    HW220544   6.749   4.881   5.513
 6549SOL     OW20545   3.406   1.966   0.900
 6549SOL    HW120546   3.506   1.968   0.894
 6549SOL    HW220547   3.374   2.050   0.944
 6550SOL     OW20548   0.487   5.930   3.466
 6550SOL    HW120549   0.562   5.864   3.467
 6550SOL    HW220550   0.524   6.022   3.454
 6551SOL     OW20551   2.160   4.931   1.986
 6551SOL    HW120552   2.140   4.942   2.083
 6551SOL    HW220553   2.220   5.005   1.955
 6552SOL     OW20554   3.219   5.228   5.554
 6552SOL    HW120555   3.271   5.272   5.481
 6552SOL    HW220556   3.263   5.248   5.642
 6553SOL     OW20557   0.985   3.307   2.747
 6553SOL    HW120558   0.927   3.227   2.734
 6553SOL    HW220559   0.979   3.337   2.843
 6554SOL     OW20560   6.906   2.552   5.526
 6554SOL    HW120561   7.004   2.535   5.517
 6554SOL    HW220562   6.892   2.640   5.571
 6555SOL     OW20563   0.582   1.118   1.889
 6555SOL    HW120564   0.654   1.183   1.866
 6555SOL    HW220565   0.528   1.153   1.966
 6556SOL     OW20566   3.962   5.986   4.782
 6556SOL    HW120567   3.904   6.036   4.717
 6556SOL    HW220568   4.041   5.949   4.734
 6557SOL     OW20569   6.780   5.122   0.955
 6557SOL    HW120570   6.716   5.199   0.960
 6557SOL    HW220571   6.857   5.140   1.016
 6558SOL     OW20572   6.448   5.711   6.811
 6558SOL    HW120573   6.503   5.757   6.882
 6558SOL    HW220574   6.477   5.615   6.804
 6559SOL     OW20575   4.169   3.749   0.693
 6559SOL    HW120576   4.164   3.728   0.791
 6559SOL    HW220577   4.097   3.814   0.669
 6560SOL     OW20578   3.963   2.297   0.211
 6560SOL    HW120579   4.015   2.229   0.159
 6560SOL    HW220580   4.014   2.322   0.293
 6561SOL     OW20581   4.005   3.294   3.373
 6561SOL    HW120582   4.051   3.261   3.291
 6561SOL    HW220583   4.067   3.289   3.451
 6562SOL     OW20584   6.459   3.727   6.169
 6562SOL    HW120585   6.441   3.696   6.076
 6562SOL    HW220586   6.432   3.823   6.178
 6563SOL     OW20587   1.066   5.399   1.910
 6563SOL    HW120588   1.051   5.389   1.812
 6563SOL    HW220589   1.004   5.468   1.947
 6564SOL     OW20590   0.938   5.144   2.074
 6564SOL    HW120591   1.014   5.210   2.078
 6564SOL    HW220592   0.972   5.054   2.100
 6565SOL     OW20593   6.762   2.842   5.987
 6565SOL    HW120594   6.748   2.903   6.064
 6565SOL    HW220595   6.691   2.771   5.987
 6566SOL     OW20596   3.524   6.796   1.014
 6566SOL    HW120597   3.447   6.750   0.971
 6566SOL    HW220598   3.519   6.786   1.113
 6567SOL     OW20599   5.431   2.696   1.531
 6567SOL    HW120600   5.457   2.761   1.460
 6567SOL    HW220601   5.406   2.609   1.488
 6568SOL     OW20602   4.156   4.183   1.496
 6568SOL    HW120603   4.090   4.111   1.478
 6568SOL    HW220604   4.230   4.179   1.428
 6569SOL     OW20605   0.921   4.358   6.675
 6569SOL    HW120606   1.005   4.394   6.716
 6569SOL    HW220607   0.842   4.404   6.717
 6570SOL     OW20608   6.078   2.347   1.377
 6570SOL    HW120609   6.039   2.435   1.349
 6570SOL    HW220610   6.117   2.301   1.296
 6571SOL     OW20611   2.638   5.732   3.518
 6571SOL    HW120612   2.571   5.693   3.454
 6571SOL    HW220613   2.723   5.680   3.513
 6572SOL     OW20614   0.754   4.206   5.888
 6572SOL    HW120615   0.757   4.108   5.908
 6572SOL    HW220616   0.685   4.223   5.817
 6573SOL     OW20617   2.097   1.331   2.300
 6573SOL    HW120618   2.000   1.311   2.287
 6573SOL    HW220619   2.108   1.426   2.329
 6574SOL     OW20620   3.242   4.924   3.086
 6574SOL    HW120621   3.341   4.926   3.098
 6574SOL    HW220622   3.198   4.892   3.170
 6575SOL     OW20623   0.653   1.837   2.744
 6575SOL    HW120624   0.604   1.774   2.684
 6575SOL    HW220625   0.748   1.846   2.712
 6576SOL     OW20626   1.135   6.149   6.575
 6576SOL    HW120627   1.121   6.050   6.566
 6576SOL    HW220628   1.233   6.168   6.585
 6577SOL     OW20629   6.684   2.485   3.711
 6577SOL    HW120630   6.678   2.385   3.718
 6577SOL    HW220631   6.780   2.511   3.696
 6578SOL     OW20632   6.332   5.042   3.949
 6578SOL    HW120633   6.301   4.972   4.013
 6578SOL    HW220634   6.324   5.008   3.856
 6579SOL     OW20635   0.119   4.046   3.154
 6579SOL    HW120636   0.137   4.142   3.131
 6579SOL    HW220637   0.113   4.036   3.254
 6580SOL     OW20638   6.146   2.280   1.960
 6580SOL    HW120639   6.155   2.369   1.917
 6580SOL    HW220640   6.133   2.210   1.890
 6581SOL     OW20641   2.910   1.627   6.453
 6581SOL    HW120642   2.858   1.712   6.463
 6581SOL    HW220643   2.995   1.646   6.403
 6582SOL     OW20644   6.175   0.236   3.028
 6582SOL    HW120645   6.172   0.141   3.058
 6582SOL    HW220646   6.198   0.239   2.931
 6583SOL     OW20647   5.427   1.311   5.963
 6583SOL    HW120648   5.462   1.343   5.875
 6583SOL    HW220649   5.444   1.213   5.973
 6584SOL     OW20650   6.101   1.549   6.420
 6584SOL    HW120651   6.133   1.494   6.497
 6584SOL    HW220652   6.173   1.614   6.394
 6585SOL     OW20653   1.331   1.423   6.910
 6585SOL    HW120654   1.275   1.465   6.839
 6585SOL    HW220655   1.416   1.388   6.869
 6586SOL     OW20656   6.241   2.180   5.896
 6586SOL    HW120657   6.285   2.090   5.902
 6586SOL    HW220658   6.166   2.185   5.962
 6587SOL     OW20659   2.147   6.504   3.440
 6587SOL    HW120660   2.077   6.440   3.408
 6587SOL    HW220661   2.222   6.506   3.374
 6588SOL     OW20662   1.312   3.189   0.238
 6588SOL    HW120663   1.356   3.224   0.155
 6588SOL    HW220664   1.256   3.110   0.214
 6589SOL     OW20665   4.157   1.749   5.505
 6589SOL    HW120666   4.176   1.660   5.464
 6589SOL    HW220667   4.078   1.742   5.565
 6590SOL     OW20668   7.012   1.273   5.120
 6590SOL    HW120669   6.922   1.265   5.076
 6590SOL    HW220670   0.022   1.367   5.113
 6591SOL     OW20671   5.833   0.933   3.114
 6591SOL    HW120672   5.856   0.844   3.076
 6591SOL    HW220673   5.900   1.001   3.082
 6592SOL     OW20674   4.885   5.587   4.772
 6592SOL    HW120675   4.857   5.499   4.809
 6592SOL    HW220676   4.840   5.661   4.822
 6593SOL     OW20677   3.487   1.392   2.247
 6593SOL    HW120678   3.478   1.445   2.332
 6593SOL    HW220679   3.548   1.441   2.184
 6594SOL     OW20680   5.428   0.115   6.590
 6594SOL    HW120681   5.453   0.118   6.493
 6594SOL    HW220682   5.486   0.178   6.641
 6595SOL     OW20683   1.655   3.673   1.031
 6595SOL    HW120684   1.583   3.664   1.100
 6595SOL    HW220685   1.690   3.766   1.031
 6596SOL     OW20686   4.262   6.986   5.188
 6596SOL    HW120687   4.296   6.936   5.108
 6596SOL    HW220688   4.170   7.019   5.169
 6597SOL     OW20689   0.439   5.194   5.231
 6597SOL    HW120690   0.453   5.163   5.137
 6597SOL    HW220691   0.392   5.282   5.230
 6598SOL     OW20692   1.734   5.765   5.563
 6598SOL    HW120693   1.790   5.824   5.506
 6598SOL    HW220694   1.755   5.669   5.543
 6599SOL     OW20695   4.115   4.491   5.619
 6599SOL    HW120696   4.187   4.463   5.683
 6599SOL    HW220697   4.120   4.435   5.536
 6600SOL     OW20698   4.589   5.812   3.968
 6600SOL    HW120699   4.664   5.809   3.903
 6600SOL    HW220700   4.619   5.775   4.056
 6601SOL     OW20701   0.577   0.271   0.063
 6601SOL    HW120702   0.616   0.260   6.994
 6601SOL    HW220703   0.478   0.279   0.056
 6602SOL     OW20704   6.565   1.575   1.704
 6602SOL    HW120705   6.612   1.653   1.746
 6602SOL    HW220706   6.588   1.492   1.754
 6603SOL     OW20707   2.093   3.605   3.316
 6603SOL    HW120708   2.162   3.641   3.378
 6603SOL    HW220709   2.073   3.672   3.245
 6604SOL     OW20710   3.596   5.660   2.361
 6604SOL    HW120711   3.516   5.633   2.414
 6604SOL    HW220712   3.677   5.659   2.420
 6605SOL     OW20713   5.818   5.671   0.284
 6605SOL    HW120714   5.886   5.728   0.236
 6605SOL    HW220715   5.769   5.727   0.350
 6606SOL     OW20716   5.192   0.968   2.504
 6606SOL    HW120717   5.203   0.884   2.451
 6606SOL    HW220718   5.280   1.016   2.510
 6607SOL     OW20719   1.205   1.945   2.440
 6607SOL    HW120720   1.256   1.864   2.411
 6607SOL    HW220721   1.113   1.942   2.400
 6608SOL     OW20722   5.934   3.499   4.023
 6608SOL    HW120723   5.949   3.567   4.096
 6608SOL    HW220724   5.980   3.530   3.940
 6609SOL     OW20725   5.577   1.615   6.416
 6609SOL    HW120726   5.537   1.524   6.413
 6609SOL    HW220727   5.583   1.652   6.323
 6610SOL     OW20728   2.045   0.711   6.701
 6610SOL    HW120729   2.061   0.612   6.702
 6610SOL    HW220730   1.949   0.729   6.723
 6611SOL     OW20731   5.930   2.283   2.873
 6611SOL    HW120732   5.910   2.185   2.885
 6611SOL    HW220733   5.862   2.324   2.812
 6612SOL     OW20734   1.792   6.449   6.728
 6612SOL    HW120735   1.816   6.542   6.756
 6612SOL    HW220736   1.763   6.449   6.633
 6613SOL     OW20737   5.032   4.935   1.728
 6613SOL    HW120738   5.056   4.896   1.817
 6613SOL    HW220739   4.949   4.892   1.693
 6614SOL     OW20740   4.822   5.894   6.315
 6614SOL    HW120741   4.814   5.851   6.405
 6614SOL    HW220742   4.791   5.831   6.244
 6615SOL     OW20743   0.857   3.820   5.304
 6615SOL    HW120744   0.870   3.919   5.311
 6615SOL    HW220745   0.862   3.779   5.395
 6616SOL     OW20746   5.016   0.351   4.591
 6616SOL    HW120747   5.100   0.332   4.541
 6616SOL    HW220748   5.034   0.344   4.689
 6617SOL     OW20749   3.969   0.333   5.520
 6617SOL    HW120750   3.949   0.254   5.577
 6617SOL    HW220751   3.982   0.414   5.578
 6618SOL     OW20752   0.919   4.247   1.479
 6618SOL    HW120753   0.871   4.160   1.471
 6618SOL    HW220754   0.936   4.267   1.575
 6619SOL     OW20755   4.861   5.765   2.357
 6619SOL    HW120756   4.802   5.717   2.292
 6619SOL    HW220757   4.905   5.698   2.418
 6620SOL     OW20758   1.631   2.649   5.218
 6620SOL    HW120759   1.665   2.598   5.296
 6620SOL    HW220760   1.590   2.735   5.250
 6621SOL     OW20761   2.611   4.022   0.185
 6621SOL    HW120762   2.544   4.082   0.228
 6621SOL    HW220763   2.653   4.069   0.107
 6622SOL     OW20764   6.890   6.199   0.336
 6622SOL    HW120765   6.985   6.206   0.309
 6622SOL    HW220766   6.847   6.121   0.290
 6623SOL     OW20767   3.270   3.249   2.381
 6623SOL    HW120768   3.277   3.325   2.315
 6623SOL    HW220769   3.290   3.283   2.473
 6624SOL     OW20770   4.188   4.765   4.403
 6624SOL    HW120771   4.190   4.754   4.502
 6624SOL    HW220772   4.136   4.847   4.379
 6625SOL     OW20773   6.216   0.494   0.328
 6625SOL    HW120774   6.170   0.571   0.283
 6625SOL    HW220775   6.149   0.440   0.379
 6626SOL     OW20776   3.695   5.446   3.708
 6626SOL    HW120777   3.789   5.454   3.675
 6626SOL    HW220778   3.632   5.487   3.642
 6627SOL     OW20779   1.894   6.736   1.063
 6627SOL    HW120780   1.880   6.815   1.123
 6627SOL    HW220781   1.826   6.665   1.085
 6628SOL     OW20782   4.082   5.674   3.146
 6628SOL    HW120783   4.045   5.741   3.210
 6628SOL    HW220784   4.125   5.600   3.197
 6629SOL     OW20785   3.104   5.068   0.730
 6629SOL    HW120786   3.041   5.060   0.654
 6629SOL    HW220787   3.164   5.147   0.716
 6630SOL     OW20788   3.231   1.879   0.293
 6630SOL    HW120789   3.266   1.802   0.348
 6630SOL    HW220790   3.227   1.961   0.350
 6631SOL     OW20791   5.308   0.871   2.030
 6631SOL    HW120792   5.289   0.776   2.052
 6631SOL    HW220793   5.281   0.890   1.935
 6632SOL     OW20794   0.226   1.484   1.390
 6632SOL    HW120795   0.259   1.504   1.483
 6632SOL    HW220796   0.300   1.496   1.325
 6633SOL     OW20797   1.092   6.727   1.227
 6633SOL    HW120798   1.029   6.649   1.234
 6633SOL    HW220799   1.042   6.812   1.243
 6634SOL     OW20800   0.109   2.871   6.267
 6634SOL    HW120801   0.051   2.952   6.260
 6634SOL    HW220802   0.062   2.801   6.320
 6635SOL     OW20803   4.603   4.506   3.259
 6635SOL    HW120804   4.558   4.479   3.174
 6635SOL    HW220805   4.654   4.591   3.244
 6636SOL     OW20806   2.164   2.572   4.160
 6636SOL    HW120807   2.252   2.524   4.166
 6636SOL    HW220808   2.180   2.669   4.145
 6637SOL     OW20809   6.950   0.401   0.661
 6637SOL    HW120810   6.893   0.479   0.691
 6637SOL    HW220811   6.947   0.330   0.731
 6638SOL     OW20812   2.351   5.807   5.825
 6638SOL    HW120813   2.331   5.853   5.739
 6638SOL    HW220814   2.442   5.765   5.821
 6639SOL     OW20815   5.503   5.430   6.886
 6639SOL    HW120816   5.596   5.395   6.876
 6639SOL    HW220817   5.485   5.454   6.981
 6640SOL     OW20818   6.115   2.451   2.981
 6640SOL    HW120819   6.080   2.367   2.938
 6640SOL    HW220820   6.149   2.430   3.072
 6641SOL     OW20821   1.937   4.772   6.002
 6641SOL    HW120822   1.878   4.709   6.053
 6641SOL    HW220823   2.017   4.795   6.058
 6642SOL     OW20824   0.502   5.863   0.190
 6642SOL    HW120825   0.566   5.923   0.142
 6642SOL    HW220826   0.496   5.775   0.143
 6643SOL     OW20827   5.008   4.840   6.561
 6643SOL    HW120828   5.107   4.849   6.550
 6643SOL    HW220829   4.972   4.921   6.607
 6644SOL     OW20830   3.060   4.775   2.143
 6644SOL    HW120831   3.146   4.811   2.105
 6644SOL    HW220832   3.017   4.716   2.075
 6645SOL     OW20833   0.684   5.137   5.668
 6645SOL    HW120834   0.771   5.185   5.677
 6645SOL    HW220835   0.694   5.043   5.700
 6646SOL     OW20836   2.463   5.600   4.333
 6646SOL    HW120837   2.477   5.698   4.320
 6646SOL    HW220838   2.537   5.563   4.390
 6647SOL     OW20839   3.142   1.995   1.787
 6647SOL    HW120840   3.064   1.960   1.838
 6647SOL    HW220841   3.124   2.089   1.758
 6648SOL     OW20842   4.994   5.695   2.061
 6648SOL    HW120843   4.982   5.794   2.066
 6648SOL    HW220844   4.925   5.651   2.119
 6649SOL     OW20845   3.935   2.308   6.474
 6649SOL    HW120846   3.950   2.269   6.383
 6649SOL    HW220847   3.903   2.402   6.464
 6650SOL     OW20848   3.864   1.900   3.165
 6650SOL    HW120849   3.785   1.946   3.125
 6650SOL    HW220850   3.929   1.877   3.092
 6651SOL     OW20851   0.555   2.480   6.741
 6651SOL    HW120852   0.520   2.554   6.798
 6651SOL    HW220853   0.614   2.518   6.670
 6652SOL     OW20854   6.848   5.667   2.320
 6652SOL    HW120855   6.780   5.716   2.374
 6652SOL    HW220856   6.822   5.668   2.224
 6653SOL     OW20857   3.360   3.837   3.900
 6653SOL    HW120858   3.264   3.851   3.873
 6653SOL    HW220859   3.412   3.804   3.822
 6654SOL     OW20860   2.269   3.226   1.760
 6654SOL    HW120861   2.277   3.317   1.801
 6654SOL    HW220862   2.359   3.183   1.756
 6655SOL     OW20863   2.396   6.609   2.013
 6655SOL    HW120864   2.451   6.528   2.033
 6655SOL    HW220865   2.429   6.651   1.928
 6656SOL     OW20866   6.627   2.610   1.309
 6656SOL    HW120867   6.534   2.614   1.273
 6656SOL    HW220868   6.653   2.699   1.346
 6657SOL     OW20869   3.171   6.269   6.277
 6657SOL    HW120870   3.162   6.301   6.183
 6657SOL    HW220871   3.264   6.234   6.292
 6658SOL     OW20872   5.323   0.992   5.245
 6658SOL    HW120873   5.350   0.992   5.341
 6658SOL    HW220874   5.238   1.045   5.235
 6659SOL     OW20875   1.997   2.733   6.863
 6659SOL    HW120876   2.079   2.781   6.833
 6659SOL    HW220877   1.974   2.762   6.956
 6660SOL     OW20878   6.931   6.803   3.016
 6660SOL    HW120879   6.992   6.750   3.076
 6660SOL    HW220880   6.864   6.852   3.072
 6661SOL     OW20881   0.444   6.135   3.672
 6661SOL    HW120882   0.363   6.076   3.665
 6661SOL    HW220883   0.524   6.078   3.691
 6662SOL     OW20884   1.778   1.963   6.996
 6662SOL    HW120885   1.738   2.030   0.036
 6662SOL    HW220886   1.876   1.980   6.987
 6663SOL     OW20887   0.228   5.799   2.497
 6663SOL    HW120888   0.142   5.847   2.515
 6663SOL    HW220889   0.301   5.866   2.483
 6664SOL     OW20890   1.589   1.092   3.107
 6664SOL    HW120891   1.683   1.067   3.130
 6664SOL    HW220892   1.586   1.128   3.014
 6665SOL     OW20893   2.509   6.698   3.027
 6665SOL    HW120894   2.571   6.705   2.948
 6665SOL    HW220895   2.557   6.727   3.110
 6666SOL     OW20896   6.121   0.545   6.734
 6666SOL    HW120897   6.053   0.471   6.727
 6666SOL    HW220898   6.074   0.633   6.742
 6667SOL     OW20899   0.030   4.424   4.860
 6667SOL    HW120900   6.982   4.368   4.814
 6667SOL    HW220901   0.082   4.366   4.923
 6668SOL     OW20902   0.855   4.849   1.673
 6668SOL    HW120903   0.936   4.885   1.721
 6668SOL    HW220904   0.781   4.834   1.739
 6669SOL     OW20905   2.019   5.895   2.760
 6669SOL    HW120906   2.115   5.880   2.736
 6669SOL    HW220907   2.012   5.906   2.859
 6670SOL     OW20908   3.340   5.084   0.212
 6670SOL    HW120909   3.294   5.053   0.295
 6670SOL    HW220910   3.439   5.076   0.223
 6671SOL     OW20911   6.638   3.156   4.454
 6671SOL    HW120912   6.630   3.180   4.357
 6671SOL    HW220913   6.734   3.150   4.480
 6672SOL     OW20914   1.270   1.110   5.814
 6672SOL    HW120915   1.205   1.147   5.880
 6672SOL    HW220916   1.361   1.107   5.856
 6673SOL     OW20917   4.685   4.453   1.623
 6673SOL    HW120918   4.677   4.371   1.566
 6673SOL    HW220919   4.666   4.431   1.718
 6674SOL     OW20920   0.704   6.970   4.005
 6674SOL    HW120921   0.758   6.887   3.997
 6674SOL    HW220922   0.751   0.014   4.063
 6675SOL     OW20923   5.998   4.747   0.384
 6675SOL    HW120924   5.932   4.730   0.457
 6675SOL    HW220925   6.035   4.659   0.351
 6676SOL     OW20926   0.925   2.334   6.264
 6676SOL    HW120927   0.843   2.389   6.250
 6676SOL    HW220928   0.950   2.289   6.179
 6677SOL     OW20929   0.678   3.009   0.332
 6677SOL    HW120930   0.634   2.952   0.264
 6677SOL    HW220931   0.625   3.092   0.346
 6678SOL     OW20932   0.713   2.696   5.714
 6678SOL    HW120933   0.752   2.764   5.777
 6678SOL    HW220934   0.614   2.691   5.728
 6679SOL     OW20935   2.076   2.208   4.621
 6679SOL    HW120936   2.108   2.302   4.615
 6679SOL    HW220937   2.068   2.169   4.529
 6680SOL     OW20938   3.231   6.654   6.361
 6680SOL    HW120939   3.253   6.594   6.284
 6680SOL    HW220940   3.297   6.728   6.366
 6681SOL     OW20941   5.409   5.050   0.641
 6681SOL    HW120942   5.403   5.149   0.654
 6681SOL    HW220943   5.326   5.006   0.675
 6682SOL     OW20944   0.151   6.058   1.745
 6682SOL    HW120945   0.246   6.088   1.755
 6682SOL    HW220946   0.141   5.965   1.780
 6683SOL     OW20947   5.263   1.652   4.132
 6683SOL    HW120948   5.230   1.624   4.042
 6683SOL    HW220949   5.213   1.600   4.202
 6684SOL     OW20950   2.266   6.706   2.915
 6684SOL    HW120951   2.230   6.617   2.941
 6684SOL    HW220952   2.353   6.722   2.962
 6685SOL     OW20953   5.276   3.443   6.588
 6685SOL    HW120954   5.183   3.479   6.585
 6685SOL    HW220955   5.298   3.418   6.682
 6686SOL     OW20956   6.558   4.109   3.030
 6686SOL    HW120957   6.496   4.100   2.952
 6686SOL    HW220958   6.652   4.119   2.997
 6687SOL     OW20959   1.346   2.565   0.482
 6687SOL    HW120960   1.401   2.543   0.563
 6687SOL    HW220961   1.260   2.606   0.510
 6688SOL     OW20962   0.761   4.859   2.561
 6688SOL    HW120963   0.737   4.762   2.553
 6688SOL    HW220964   0.815   4.887   2.482
 6689SOL     OW20965   4.716   4.799   0.239
 6689SOL    HW120966   4.693   4.725   0.175
 6689SOL    HW220967   4.632   4.831   0.283
 6690SOL     OW20968   1.994   2.615   0.676
 6690SOL    HW120969   2.033   2.534   0.633
 6690SOL    HW220970   2.055   2.693   0.662
 6691SOL     OW20971   2.246   4.456   1.454
 6691SOL    HW120972   2.255   4.492   1.546
 6691SOL    HW220973   2.162   4.491   1.412
 6692SOL     OW20974   3.393   3.931   5.406
 6692SOL    HW120975   3.377   3.899   5.312
 6692SOL    HW220976   3.325   3.892   5.467
 6693SOL     OW20977   4.142   3.536   5.230
 6693SOL    HW120978   4.190   3.461   5.186
 6693SOL    HW220979   4.203   3.583   5.294
 6694SOL     OW20980   3.659   5.733   0.791
 6694SOL    HW120981   3.598   5.808   0.816
 6694SOL    HW220982   3.714   5.706   0.870
 6695SOL     OW20983   1.876   1.646   6.903
 6695SOL    HW120984   1.801   1.610   6.959
 6695SOL    HW220985   1.933   1.706   6.960
 6696SOL     OW20986   1.918   2.904   1.850
 6696SOL    HW120987   1.985   2.845   1.804
 6696SOL    HW220988   1.956   2.995   1.862
 6697SOL     OW20989   4.793   0.912   3.296
 6697SOL    HW120990   4.754   0.910   3.204
 6697SOL    HW220991   4.721   0.894   3.363
 6698SOL     OW20992   3.899   3.639   0.250
 6698SOL    HW120993   3.809   3.680   0.235
 6698SOL    HW220994   3.920   3.639   0.348
 6699SOL     OW20995   1.816   4.223   0.140
 6699SOL    HW120996   1.903   4.203   0.185
 6699SOL    HW220997   1.743   4.224   0.208
 6700SOL     OW20998   6.938   5.641   0.467
 6700SOL    HW120999   6.905   5.718   0.412
 6700SOL    HW221000   0.005   5.611   0.432
 6701SOL     OW21001   0.699   2.074   0.401
 6701SOL    HW121002   0.686   2.166   0.364
 6701SOL    HW221003   0.717   2.080   0.500
 6702SOL     OW21004   2.955   1.792   1.242
 6702SOL    HW121005   2.946   1.813   1.145
 6702SOL    HW221006   2.907   1.706   1.262
 6703SOL     OW21007   0.288   1.559   6.728
 6703SOL    HW121008   0.322   1.500   6.801
 6703SOL    HW221009   0.250   1.502   6.654
 6704SOL     OW21010   5.539   1.732   2.338
 6704SOL    HW121011   5.571   1.763   2.249
 6704SOL    HW221012   5.526   1.633   2.336
 6705SOL     OW21013   5.631   1.671   0.160
 6705SOL    HW121014   5.552   1.729   0.140
 6705SOL    HW221015   5.712   1.707   0.114
 6706SOL     OW21016   0.450   4.360   6.293
 6706SOL    HW121017   0.357   4.328   6.275
 6706SOL    HW221018   0.497   4.378   6.207
 6707SOL     OW21019   1.358   5.919   2.712
 6707SOL    HW121020   1.416   5.849   2.670
 6707SOL    HW221021   1.323   5.886   2.799
 6708SOL     OW21022   1.858   6.191   1.489
 6708SOL    HW121023   1.867   6.092   1.491
 6708SOL    HW221024   1.792   6.220   1.558
 6709SOL     OW21025   4.662   1.279   2.763
 6709SOL    HW121026   4.567   1.305   2.777
 6709SOL    HW221027   4.685   1.286   2.666
 6710SOL     OW21028   3.285   2.449   0.524
 6710SOL    HW121029   3.265   2.547   0.519
 6710SOL    HW221030   3.382   2.437   0.546
 6711SOL     OW21031   4.036   4.563   0.571
 6711SOL    HW121032   3.980   4.484   0.546
 6711SOL    HW221033   4.051   4.563   0.670
 6712SOL     OW21034   3.945   5.754   0.086
 6712SOL    HW121035   3.861   5.790   0.127
 6712SOL    HW221036   3.962   5.801   7.021
 6713SOL     OW21037   1.921   2.068   1.851
 6713SOL    HW121038   1.943   2.054   1.947
 6713SOL    HW221039   1.910   2.165   1.832
 6714SOL     OW21040   6.020   0.816   4.467
 6714SOL    HW121041   5.941   0.795   4.525
 6714SOL    HW221042   6.005   0.780   4.375
 6715SOL     OW21043   0.579   1.307   0.960
 6715SOL    HW121044   0.616   1.222   0.923
 6715SOL    HW221045   0.486   1.291   0.994
 6716SOL     OW21046   2.280   6.239   0.880
 6716SOL    HW121047   2.380   6.234   0.887
 6716SOL    HW221048   2.250   6.330   0.908
 6717SOL     OW21049   3.550   1.664   6.946
 6717SOL    HW121050   3.474   1.727   6.961
 6717SOL    HW221051   3.523   1.596   6.878
 6718SOL     OW21052   2.995   0.200   0.454
 6718SOL    HW121053   3.005   0.220   0.356
 6718SOL    HW221054   3.066   0.247   0.505
 6719SOL     OW21055   6.987   0.053   5.264
 6719SOL    HW121056   6.959   6.980   5.274
 6719SOL    HW221057   0.042   0.059   5.200
 6720SOL     OW21058   2.152   4.575   1.676
 6720SOL    HW121059   2.059   4.560   1.645
 6720SOL    HW221060   2.154   4.576   1.776
 6721SOL     OW21061   5.584   5.912   3.758
 6721SOL    HW121062   5.596   5.982   3.688
 6721SOL    HW221063   5.487   5.887   3.763
 6722SOL     OW21064   4.495   3.546   6.637
 6722SOL    HW121065   4.431   3.576   6.707
 6722SOL    HW221066   4.476   3.451   6.612
 6723SOL     OW21067   4.237   6.111   2.457
 6723SOL    HW121068   4.194   6.191   2.497
 6723SOL    HW221069   4.170   6.059   2.404
 6724SOL     OW21070   3.244   5.157   5.203
 6724SOL    HW121071   3.231   5.103   5.120
 6724SOL    HW221072   3.341   5.164   5.224
 6725SOL     OW21073   0.344   4.354   2.368
 6725SOL    HW121074   0.265   4.326   2.313
 6725SOL    HW221075   0.353   4.453   2.365
 6726SOL     OW21076   2.531   2.286   3.010
 6726SOL    HW121077   2.563   2.222   2.940
 6726SOL    HW221078   2.606   2.348   3.035
 6727SOL     OW21079   4.088   3.625   6.618
 6727SOL    HW121080   4.159   3.560   6.642
 6727SOL    HW221081   4.129   3.709   6.582
 6728SOL     OW21082   4.519   1.595   3.749
 6728SOL    HW121083   4.517   1.666   3.679
 6728SOL    HW221084   4.492   1.508   3.708
 6729SOL     OW21085   5.558   0.403   2.191
 6729SOL    HW121086   5.560   0.376   2.095
 6729SOL    HW221087   5.567   0.503   2.197
 6730SOL     OW21088   2.227   0.883   0.937
 6730SOL    HW121089   2.217   0.829   0.854
 6730SOL    HW221090   2.252   0.977   0.913
 6731SOL     OW21091   2.675   4.684   1.775
 6731SOL    HW121092   2.755   4.655   1.827
 6731SOL    HW221093   2.637   4.767   1.815
 6732SOL     OW21094   2.271   4.804   1.191
 6732SOL    HW121095   2.185   4.822   1.240
 6732SOL    HW221096   2.285   4.874   1.122
 6733SOL     OW21097   5.185   5.882   5.394
 6733SOL    HW121098   5.200   5.784   5.405
 6733SOL    HW221099   5.086   5.900   5.392
 6734SOL     OW21100   2.418   3.517   5.654
 6734SOL    HW121101   2.458   3.479   5.571
 6734SOL    HW221102   2.370   3.445   5.704
 6735SOL     OW21103   0.037   5.446   6.041
 6735SOL    HW121104   0.110   5.403   5.987
 6735SOL    HW221105   0.050   5.423   6.138
 6736SOL     OW21106   2.122   3.821   2.584
 6736SOL    HW121107   2.156   3.887   2.517
 6736SOL    HW221108   2.072   3.748   2.537
 6737SOL     OW21109   2.121   0.854   1.443
 6737SOL    HW121110   2.028   0.842   1.408
 6737SOL    HW221111   2.184   0.871   1.367
 6738SOL     OW21112   3.207   1.545   2.272
 6738SOL    HW121113   3.179   1.451   2.249
 6738SOL    HW221114   3.135   1.589   2.326
 6739SOL     OW21115   3.663   6.157   4.783
 6739SOL    HW121116   3.623   6.196   4.701
 6739SOL    HW221117   3.621   6.068   4.802
 6740SOL     OW21118   6.924   2.197   4.148
 6740SOL    HW121119   6.839   2.245   4.171
 6740SOL    HW221120   6.939   2.123   4.213
 6741SOL     OW21121   6.223   0.171   6.460
 6741SOL    HW121122   6.206   0.177   6.362
 6741SOL    HW221123   6.146   0.211   6.509
 6742SOL     OW21124   6.152   6.067   6.349
 6742SOL    HW121125   6.177   6.116   6.266
 6742SOL    HW221126   6.119   6.133   6.417
 6743SOL     OW21127   4.819   2.834   0.910
 6743SOL    HW121128   4.759   2.805   0.985
 6743SOL    HW221129   4.826   2.934   0.912
 6744SOL     OW21130   4.875   5.173   5.645
 6744SOL    HW121131   4.881   5.081   5.608
 6744SOL    HW221132   4.782   5.190   5.679
 6745SOL     OW21133   0.063   4.533   3.555
 6745SOL    HW121134   6.998   4.569   3.523
 6745SOL    HW221135   0.136   4.559   3.492
 6746SOL     OW21136   0.658   1.519   1.126
 6746SOL    HW121137   0.693   1.453   1.058
 6746SOL    HW221138   0.732   1.543   1.189
 6747SOL     OW21139   5.611   6.599   6.074
 6747SOL    HW121140   5.558   6.680   6.099
 6747SOL    HW221141   5.549   6.524   6.052
 6748SOL     OW21142   0.275   0.202   2.004
 6748SOL    HW121143   0.177   0.186   2.007
 6748SOL    HW221144   0.310   0.212   2.097
 6749SOL     OW21145   3.446   6.331   1.013
 6749SOL    HW121146   3.401   6.395   1.075
 6749SOL    HW221147   3.412   6.345   0.920
 6750SOL     OW21148   2.655   3.226   5.351
 6750SOL    HW121149   2.670   3.174   5.435
 6750SOL    HW221150   2.617   3.165   5.281
 6751SOL     OW21151   3.426   2.043   5.561
 6751SOL    HW121152   3.346   2.055   5.503
 6751SOL    HW221153   3.454   2.131   5.599
 6752SOL     OW21154   6.494   1.807   0.372
 6752SOL    HW121155   6.564   1.835   0.307
 6752SOL    HW221156   6.423   1.755   0.324
 6753SOL     OW21157   5.005   2.046   6.592
 6753SOL    HW121158   4.992   2.131   6.642
 6753SOL    HW221159   5.066   1.985   6.644
 6754SOL     OW21160   5.811   0.489   0.216
 6754SOL    HW121161   5.827   0.443   0.128
 6754SOL    HW221162   5.738   0.442   0.265
 6755SOL     OW21163   4.765   1.992   3.321
 6755SOL    HW121164   4.745   2.045   3.403
 6755SOL    HW221165   4.829   1.919   3.343
 6756SOL     OW21166   5.324   4.504   4.382
 6756SOL    HW121167   5.329   4.405   4.367
 6756SOL    HW221168   5.407   4.534   4.429
 6757SOL     OW21169   5.498   5.161   1.612
 6757SOL    HW121170   5.405   5.126   1.600
 6757SOL    HW221171   5.539   5.179   1.523
 6758SOL     OW21172   5.506   2.284   2.785
 6758SOL    HW121173   5.549   2.221   2.851
 6758SOL    HW221174   5.577   2.339   2.741
 6759SOL     OW21175   0.145   4.846   3.447
 6759SOL    HW121176   0.201   4.780   3.497
 6759SOL    HW221177   0.062   4.866   3.500
 6760SOL     OW21178   0.404   3.953   4.767
 6760SOL    HW121179   0.374   4.048   4.767
 6760SOL    HW221180   0.337   3.897   4.815
 6761SOL     OW21181   5.534   3.442   6.442
 6761SOL    HW121182   5.477   3.489   6.510
 6761SOL    HW221183   5.549   3.503   6.364
 6762SOL     OW21184   5.768   4.750   4.344
 6762SOL    HW121185   5.785   4.814   4.270
 6762SOL    HW221186   5.673   4.760   4.375
 6763SOL     OW21187   5.062   6.302   5.633
 6763SOL    HW121188   5.080   6.304   5.732
 6763SOL    HW221189   5.136   6.349   5.585
 6764SOL     OW21190   2.223   3.726   6.859
 6764SOL    HW121191   2.210   3.700   6.763
 6764SOL    HW221192   2.320   3.744   6.876
 6765SOL     OW21193   5.365   5.233   2.504
 6765SOL    HW121194   5.358   5.268   2.597
 6765SOL    HW221195   5.461   5.227   2.478
 6766SOL     OW21196   1.335   1.145   5.558
 6766SOL    HW121197   1.288   1.154   5.647
 6766SOL    HW221198   1.434   1.148   5.572
 6767SOL     OW21199   0.532   2.167   6.048
 6767SOL    HW121200   0.463   2.167   5.976
 6767SOL    HW221201   0.506   2.233   6.118
 6768SOL     OW21202   0.034   0.305   5.593
 6768SOL    HW121203   7.009   0.219   5.572
 6768SOL    HW221204   0.028   0.322   5.692
 6769SOL     OW21205   2.144   3.172   6.392
 6769SOL    HW121206   2.061   3.149   6.444
 6769SOL    HW221207   2.131   3.147   6.296
 6770SOL     OW21208   0.095   1.732   3.567
 6770SOL    HW121209   0.103   1.632   3.578
 6770SOL    HW221210   0.182   1.775   3.594
 6771SOL     OW21211   4.140   1.222   2.609
 6771SOL    HW121212   4.117   1.319   2.615
 6771SOL    HW221213   4.056   1.168   2.605
 6772SOL     OW21214   0.688   0.926   2.138
 6772SOL    HW121215   0.599   0.949   2.099
 6772SOL    HW221216   0.676   0.862   2.213
 6773SOL     OW21217   0.964   0.138   1.057
 6773SOL    HW121218   0.978   0.058   1.115
 6773SOL    HW221219   1.052   0.166   1.018
 6774SOL     OW21220   2.758   1.930   5.823
 6774SOL    HW121221   2.766   1.913   5.725
 6774SOL    HW221222   2.741   2.027   5.839
 6775SOL     OW21223   0.525   2.936   4.852
 6775SOL    HW121224   0.478   2.868   4.909
 6775SOL    HW221225   0.456   2.992   4.805
 6776SOL     OW21226   3.580   3.830   3.356
 6776SOL    HW121227   3.484   3.828   3.329
 6776SOL    HW221228   3.592   3.781   3.442
 6777SOL     OW21229   0.101   6.376   6.294
 6777SOL    HW121230   0.180   6.370   6.233
 6777SOL    HW221231   0.131   6.365   6.388
 6778SOL     OW21232   5.847   6.105   1.903
 6778SOL    HW121233   5.845   6.205   1.910
 6778SOL    HW221234   5.912   6.078   1.832
 6779SOL     OW21235   5.108   4.483   6.367
 6779SOL    HW121236   5.124   4.390   6.398
 6779SOL    HW221237   5.196   4.529   6.351
 6780SOL     OW21238   3.646   1.785   2.470
 6780SOL    HW121239   3.570   1.800   2.406
 6780SOL    HW221240   3.661   1.868   2.524
 6781SOL     OW21241   6.095   2.026   3.319
 6781SOL    HW121242   6.116   2.110   3.371
 6781SOL    HW221243   6.027   1.973   3.369
 6782SOL     OW21244   6.797   2.086   3.086
 6782SOL    HW121245   6.790   1.987   3.093
 6782SOL    HW221246   6.816   2.125   3.176
 6783SOL     OW21247   0.409   5.626   6.327
 6783SOL    HW121248   0.338   5.695   6.309
 6783SOL    HW221249   0.499   5.665   6.307
 6784SOL     OW21250   1.479   4.367   1.285
 6784SOL    HW121251   1.578   4.370   1.273
 6784SOL    HW221252   1.457   4.326   1.374
 6785SOL     OW21253   5.648   5.135   3.976
 6785SOL    HW121254   5.734   5.100   3.938
 6785SOL    HW221255   5.664   5.224   4.018
 6786SOL     OW21256   5.706   2.202   5.780
 6786SOL    HW121257   5.672   2.232   5.691
 6786SOL    HW221258   5.635   2.148   5.826
 6787SOL     OW21259   3.058   2.045   0.538
 6787SOL    HW121260   3.073   1.948   0.556
 6787SOL    HW221261   2.972   2.057   0.489
 6788SOL     OW21262   0.513   4.460   1.285
 6788SOL    HW121263   0.580   4.522   1.245
 6788SOL    HW221264   0.539   4.366   1.267
 6789SOL     OW21265   5.681   4.728   3.103
 6789SOL    HW121266   5.645   4.645   3.060
 6789SOL    HW221267   5.780   4.722   3.110
 6790SOL     OW21268   0.563   5.119   6.919
 6790SOL    HW121269   0.469   5.124   6.952
 6790SOL    HW221270   0.587   5.024   6.900
 6791SOL     OW21271   2.888   6.639   2.727
 6791SOL    HW121272   2.928   6.548   2.715
 6791SOL    HW221273   2.955   6.708   2.699
 6792SOL     OW21274   3.955   6.866   5.918
 6792SOL    HW121275   4.025   6.937   5.928
 6792SOL    HW221276   3.899   6.863   6.001
 6793SOL     OW21277   2.062   3.628   6.198
 6793SOL    HW121278   2.061   3.720   6.237
 6793SOL    HW221279   2.028   3.631   6.105
 6794SOL     OW21280   6.185   2.278   5.303
 6794SOL    HW121281   6.280   2.284   5.336
 6794SOL    HW221282   6.139   2.365   5.321
 6795SOL     OW21283   0.926   1.094   1.553
 6795SOL    HW121284   0.977   1.091   1.639
 6795SOL    HW221285   0.987   1.071   1.478
 6796SOL     OW21286   6.686   1.764   2.691
 6796SOL    HW121287   6.607   1.816   2.724
 6796SOL    HW221288   6.734   1.722   2.768
 6797SOL     OW21289   1.099   3.096   0.802
 6797SOL    HW121290   1.191   3.088   0.765
 6797SOL    HW221291   1.077   3.192   0.817
 6798SOL     OW21292   5.166   1.191   2.075
 6798SOL    HW121293   5.109   1.246   2.135
 6798SOL    HW221294   5.243   1.247   2.042
 6799SOL     OW21295   6.027   6.830   3.177
 6799SOL    HW121296   6.026   6.889   3.257
 6799SOL    HW221297   5.937   6.789   3.164
 6800SOL     OW21298   6.233   3.404   1.249
 6800SOL    HW121299   6.220   3.331   1.182
 6800SOL    HW221300   6.154   3.409   1.310
 6801SOL     OW21301   0.872   6.559   0.065
 6801SOL    HW121302   0.831   6.491   0.005
 6801SOL    HW221303   0.847   6.651   0.034
 6802SOL     OW21304   3.075   4.718   1.824
 6802SOL    HW121305   3.046   4.814   1.819
 6802SOL    HW221306   3.002   4.664   1.868
 6803SOL     OW21307   5.066   5.449   6.119
 6803SOL    HW121308   5.104   5.512   6.052
 6803SOL    HW221309   4.969   5.432   6.098
 6804SOL     OW21310   3.645   5.253   2.644
 6804SOL    HW121311   3.554   5.264   2.604
 6804SOL    HW221312   3.638   5.256   2.744
 6805SOL     OW21313   0.463   4.244   4.531
 6805SOL    HW121314   0.454   4.327   4.585
 6805SOL    HW221315   0.528   4.182   4.575
 6806SOL     OW21316   5.965   3.283   1.538
 6806SOL    HW121317   6.009   3.198   1.506
 6806SOL    HW221318   5.978   3.355   1.470
 6807SOL     OW21319   2.970   3.846   2.129
 6807SOL    HW121320   2.945   3.752   2.105
 6807SOL    HW221321   3.017   3.889   2.053
 6808SOL     OW21322   3.376   0.681   4.127
 6808SOL    HW121323   3.402   0.684   4.030
 6808SOL    HW221324   3.381   0.773   4.166
 6809SOL     OW21325   5.958   2.880   6.625
 6809SOL    HW121326   5.906   2.857   6.544
 6809SOL    HW221327   5.950   2.978   6.644
 6810SOL     OW21328   3.007   0.675   4.729
 6810SOL    HW121329   2.940   0.653   4.800
 6810SOL    HW221330   3.096   0.640   4.756
 6811SOL     OW21331   6.340   0.497   0.990
 6811SOL    HW121332   6.351   0.399   1.001
 6811SOL    HW221333   6.428   0.538   0.965
 6812SOL     OW21334   3.425   4.775   5.342
 6812SOL    HW121335   3.335   4.732   5.335
 6812SOL    HW221336   3.496   4.710   5.314
 6813SOL     OW21337   0.183   3.708   2.348
 6813SOL    HW121338   0.137   3.646   2.412
 6813SOL    HW221339   0.133   3.710   2.262
 6814SOL     OW21340   6.039   1.055   0.680
 6814SOL    HW121341   6.102   1.133   0.676
 6814SOL    HW221342   6.045   1.013   0.770
 6815SOL     OW21343   0.836   5.613   6.780
 6815SOL    HW121344   0.793   5.571   6.700
 6815SOL    HW221345   0.782   5.590   6.862
 6816SOL     OW21346   6.762   0.191   4.093
 6816SOL    HW121347   6.666   0.169   4.109
 6816SOL    HW221348   6.775   0.290   4.100
 6817SOL     OW21349   4.093   1.808   1.318
 6817SOL    HW121350   4.136   1.817   1.229
 6817SOL    HW221351   4.151   1.852   1.387
 6818SOL     OW21352   0.984   6.912   4.838
 6818SOL    HW121353   1.006   6.871   4.927
 6818SOL    HW221354   0.928   6.994   4.852
 6819SOL     OW21355   4.689   4.455   1.896
 6819SOL    HW121356   4.781   4.450   1.934
 6819SOL    HW221357   4.634   4.380   1.934
 6820SOL     OW21358   2.497   5.051   1.674
 6820SOL    HW121359   2.467   5.001   1.593
 6820SOL    HW221360   2.454   5.011   1.755
 6821SOL     OW21361   3.640   3.006   5.232
 6821SOL    HW121362   3.545   2.976   5.221
 6821SOL    HW221363   3.701   2.928   5.222
 6822SOL     OW21364   5.601   3.402   5.265
 6822SOL    HW121365   5.658   3.409   5.183
 6822SOL    HW221366   5.658   3.375   5.343
 6823SOL     OW21367   0.230   3.095   5.193
 6823SOL    HW121368   0.225   2.996   5.191
 6823SOL    HW221369   0.316   3.123   5.236
 6824SOL     OW21370   0.746   6.963   5.329
 6824SOL    HW121371   0.690   6.880   5.321
 6824SOL    HW221372   0.690   0.015   5.367
 6825SOL     OW21373   4.338   4.202   1.274
 6825SOL    HW121374   4.256   4.229   1.224
 6825SOL    HW221375   4.416   4.257   1.243
 6826SOL     OW21376   6.013   6.906   3.864
 6826SOL    HW121377   5.917   6.910   3.892
 6826SOL    HW221378   6.071   6.942   3.938
 6827SOL     OW21379   4.792   5.793   4.933
 6827SOL    HW121380   4.816   5.786   5.029
 6827SOL    HW221381   4.727   5.868   4.919
 6828SOL     OW21382   3.374   2.034   2.636
 6828SOL    HW121383   3.297   2.000   2.581
 6828SOL    HW221384   3.415   1.958   2.686
 6829SOL     OW21385   3.984   6.959   2.732
 6829SOL    HW121386   4.071   6.966   2.780
 6829SOL    HW221387   3.934   0.023   2.741
 6830SOL     OW21388   4.025   4.854   2.364
 6830SOL    HW121389   3.949   4.919   2.364
 6830SOL    HW221390   4.055   4.838   2.458
 6831SOL     OW21391   1.572   1.819   6.309
 6831SOL    HW121392   1.569   1.818   6.210
 6831SOL    HW221393   1.483   1.848   6.345
 6832SOL     OW21394   2.703   2.377   6.506
 6832SOL    HW121395   2.681   2.361   6.603
 6832SOL    HW221396   2.618   2.381   6.453
 6833SOL     OW21397   3.872   5.158   6.220
 6833SOL    HW121398   3.835   5.161   6.127
 6833SOL    HW221399   3.865   5.065   6.256
 6834SOL     OW21400   6.276   6.507   6.654
 6834SOL    HW121401   6.283   6.412   6.688
 6834SOL    HW221402   6.345   6.563   6.700
 6835SOL     OW21403   2.596   0.707   4.081
 6835SOL    HW121404   2.569   0.695   3.986
 6835SOL    HW221405   2.591   0.804   4.106
 6836SOL     OW21406   1.395   5.162   6.547
 6836SOL    HW121407   1.321   5.221   6.579
 6836SOL    HW221408   1.479   5.186   6.595
 6837SOL     OW21409   6.021   0.547   2.226
 6837SOL    HW121410   5.946   0.599   2.185
 6837SOL    HW221411   6.002   0.449   2.221
 6838SOL     OW21412   2.756   4.014   5.322
 6838SOL    HW121413   2.705   3.932   5.295
 6838SOL    HW221414   2.693   4.082   5.359
 6839SOL     OW21415   6.103   3.203   4.577
 6839SOL    HW121416   6.106   3.277   4.645
 6839SOL    HW221417   6.183   3.210   4.517
 6840SOL     OW21418   2.971   6.577   4.640
 6840SOL    HW121419   2.962   6.672   4.669
 6840SOL    HW221420   3.068   6.552   4.635
 6841SOL     OW21421   4.976   6.853   1.112
 6841SOL    HW121422   4.878   6.858   1.094
 6841SOL    HW221423   5.006   6.758   1.109
 6842SOL     OW21424   0.542   3.700   4.797
 6842SOL    HW121425   0.476   3.775   4.793
 6842SOL    HW221426   0.595   3.706   4.882
 6843SOL     OW21427   4.319   2.118   1.302
 6843SOL    HW121428   4.308   2.045   1.370
 6843SOL    HW221429   4.359   2.199   1.346
 6844SOL     OW21430   3.597   5.508   4.517
 6844SOL    HW121431   3.567   5.560   4.437
 6844SOL    HW221432   3.612   5.413   4.492
 6845SOL     OW21433   3.858   4.588   1.154
 6845SOL    HW121434   3.820   4.580   1.062
 6845SOL    HW221435   3.955   4.610   1.149
 6846SOL     OW21436   3.654   2.943   2.571
 6846SOL    HW121437   3.558   2.918   2.556
 6846SOL    HW221438   3.707   2.925   2.488
 6847SOL     OW21439   6.258   3.831   1.590
 6847SOL    HW121440   6.337   3.810   1.531
 6847SOL    HW221441   6.235   3.749   1.643
 6848SOL     OW21442   6.506   6.658   3.944
 6848SOL    HW121443   6.475   6.575   3.990
 6848SOL    HW221444   6.455   6.670   3.859
 6849SOL     OW21445   3.332   6.716   4.380
 6849SOL    HW121446   3.316   6.618   4.367
 6849SOL    HW221447   3.245   6.762   4.394
 6850SOL     OW21448   5.351   3.269   1.090
 6850SOL    HW121449   5.319   3.358   1.122
 6850SOL    HW221450   5.278   3.201   1.104
 6851SOL     OW21451   1.614   5.917   5.207
 6851SOL    HW121452   1.525   5.954   5.181
 6851SOL    HW221453   1.615   5.818   5.192
 6852SOL     OW21454   0.420   4.799   1.701
 6852SOL    HW121455   0.330   4.758   1.715
 6852SOL    HW221456   0.422   4.846   1.613
 6853SOL     OW21457   6.445   3.845   5.138
 6853SOL    HW121458   6.492   3.757   5.124
 6853SOL    HW221459   6.363   3.831   5.193
 6854SOL     OW21460   0.557   1.726   6.736
 6854SOL    HW121461   0.567   1.824   6.755
 6854SOL    HW221462   0.479   1.690   6.788
 6855SOL     OW21463   3.096   6.215   1.784
 6855SOL    HW121464   3.047   6.177   1.863
 6855SOL    HW221465   3.049   6.189   1.700
 6856SOL     OW21466   0.407   4.592   4.961
 6856SOL    HW121467   0.476   4.661   4.940
 6856SOL    HW221468   0.327   4.636   5.001
 6857SOL     OW21469   4.444   1.483   5.861
 6857SOL    HW121470   4.400   1.394   5.869
 6857SOL    HW221471   4.441   1.513   5.766
 6858SOL     OW21472   3.780   2.763   5.237
 6858SOL    HW121473   3.833   2.711   5.304
 6858SOL    HW221474   3.818   2.747   5.146
 6859SOL     OW21475   3.667   0.435   0.175
 6859SOL    HW121476   3.589   0.496   0.160
 6859SOL    HW221477   3.650   0.379   0.256
 6860SOL     OW21478   4.846   4.536   6.969
 6860SOL    HW121479   4.759   4.522   7.016
 6860SOL    HW221480   4.882   4.449   6.936
 6861SOL     OW21481   5.504   4.483   0.426
 6861SOL    HW121482   5.489   4.530   0.339
 6861SOL    HW221483   5.480   4.386   0.416
 6862SOL     OW21484   3.503   5.780   3.636
 6862SOL    HW121485   3.557   5.788   3.720
 6862SOL    HW221486   3.514   5.688   3.598
 6863SOL     OW21487   0.558   2.810   4.089
 6863SOL    HW121488   0.627   2.810   4.016
 6863SOL    HW221489   0.600   2.775   4.173
 6864SOL     OW21490   4.249   5.598   5.734
 6864SOL    HW121491   4.217   5.618   5.827
 6864SOL    HW221492   4.316   5.666   5.706
 6865SOL     OW21493   5.601   3.123   4.378
 6865SOL    HW121494   5.612   3.057   4.452
 6865SOL    HW221495   5.509   3.161   4.381
 6866SOL     OW21496   0.413   3.716   2.104
 6866SOL    HW121497   0.405   3.622   2.071
 6866SOL    HW221498   0.411   3.716   2.204
 6867SOL     OW21499   2.321   4.822   2.277
 6867SOL    HW121500   2.358   4.858   2.363
 6867SOL    HW221501   2.225   4.851   2.267
 6868SOL     OW21502   1.934   5.072   4.916
 6868SOL    HW121503   1.901   5.055   5.009
 6868SOL    HW221504   1.862   5.053   4.850
 6869SOL     OW21505   6.151   3.667   4.896
 6869SOL    HW121506   6.241   3.684   4.855
 6869SOL    HW221507   6.130   3.738   4.962
 6870SOL     OW21508   5.301   3.798   2.901
 6870SOL    HW121509   5.274   3.703   2.886
 6870SOL    HW221510   5.253   3.858   2.837
 6871SOL     OW21511   5.012   0.667   1.877
 6871SOL    HW121512   4.974   0.622   1.795
 6871SOL    HW221513   5.061   0.599   1.931
 6872SOL     OW21514   3.046   3.689   6.971
 6872SOL    HW121515   3.061   3.747   6.890
 6872SOL    HW221516   3.011   3.600   6.942
 6873SOL     OW21517   5.090   4.374   5.980
 6873SOL    HW121518   5.138   4.427   6.049
 6873SOL    HW221519   5.156   4.337   5.914
 6874SOL     OW21520   0.514   2.692   5.410
 6874SOL    HW121521   0.538   2.605   5.367
 6874SOL    HW221522   0.583   2.761   5.389
 6875SOL     OW21523   2.646   1.874   4.451
 6875SOL    HW121524   2.663   1.848   4.356
 6875SOL    HW221525   2.609   1.796   4.501
 6876SOL     OW21526   3.545   6.388   6.027
 6876SOL    HW121527   3.491   6.415   5.948
 6876SOL    HW221528   3.562   6.289   6.023
 6877SOL     OW21529   2.609   4.302   6.808
 6877SOL    HW121530   2.602   4.243   6.728
 6877SOL    HW221531   2.524   4.354   6.818
 6878SOL     OW21532   1.560   1.865   4.888
 6878SOL    HW121533   1.596   1.794   4.827
 6878SOL    HW221534   1.609   1.861   4.976
 6879SOL     OW21535   0.951   1.368   5.865
 6879SOL    HW121536   1.007   1.338   5.943
 6879SOL    HW221537   0.878   1.303   5.849
 6880SOL     OW21538   1.778   4.517   4.867
 6880SOL    HW121539   1.687   4.505   4.906
 6880SOL    HW221540   1.846   4.517   4.941
 6881SOL     OW21541   6.679   4.805   1.656
 6881SOL    HW121542   6.740   4.875   1.619
 6881SOL    HW221543   6.596   4.799   1.600
 6882SOL     OW21544   1.805   0.329   5.388
 6882SOL    HW121545   1.812   0.391   5.311
 6882SOL    HW221546   1.716   0.340   5.432
 6883SOL     OW21547   3.496   5.568   1.434
 6883SOL    HW121548   3.423   5.604   1.491
 6883SOL    HW221549   3.506   5.624   1.352
 6884SOL     OW21550   2.903   4.883   2.988
 6884SOL    HW121551   2.936   4.930   3.070
 6884SOL    HW221552   2.980   4.853   2.932
 6885SOL     OW21553   3.395   5.498   5.039
 6885SOL    HW121554   3.465   5.551   5.086
 6885SOL    HW221555   3.310   5.500   5.093
 6886SOL     OW21556   5.255   2.223   2.712
 6886SOL    HW121557   5.354   2.235   2.713
 6886SOL    HW221558   5.219   2.249   2.623
 6887SOL     OW21559   5.329   0.396   4.540
 6887SOL    HW121560   5.288   0.477   4.581
 6887SOL    HW221561   5.426   0.392   4.565
 6888SOL     OW21562   5.343   5.990   4.716
 6888SOL    HW121563   5.430   6.032   4.692
 6888SOL    HW221564   5.358   5.921   4.787
 6889SOL     OW21565   1.795   4.206   5.748
 6889SOL    HW121566   1.715   4.147   5.740
 6889SOL    HW221567   1.805   4.261   5.665
 6890SOL     OW21568   2.280   0.797   6.996
 6890SOL    HW121569   2.269   0.808   6.898
 6890SOL    HW221570   2.371   0.762   7.017
 6891SOL     OW21571   3.219   4.928   4.535
 6891SOL    HW121572   3.314   4.936   4.508
 6891SOL    HW221573   3.161   4.980   4.473
 6892SOL     OW21574   3.932   1.028   3.705
 6892SOL    HW121575   3.995   1.023   3.628
 6892SOL    HW221576   3.899   0.937   3.728
 6893SOL     OW21577   5.965   6.967   2.179
 6893SOL    HW121578   6.051   6.993   2.223
 6893SOL    HW221579   5.973   6.979   2.080
 6894SOL     OW21580   6.158   4.188   6.004
 6894SOL    HW121581   6.079   4.127   6.007
 6894SOL    HW221582   6.154   4.251   6.082
 6895SOL     OW21583   4.078   5.197   6.519
 6895SOL    HW121584   3.996   5.252   6.535
 6895SOL    HW221585   4.099   5.196   6.422
 6896SOL     OW21586   4.507   6.592   3.321
 6896SOL    HW121587   4.424   6.544   3.348
 6896SOL    HW221588   4.483   6.682   3.286
 6897SOL     OW21589   3.555   2.058   0.386
 6897SOL    HW121590   3.617   2.136   0.384
 6897SOL    HW221591   3.463   2.089   0.411
 6898SOL     OW21592   4.188   1.497   2.689
 6898SOL    HW121593   4.226   1.540   2.607
 6898SOL    HW221594   4.088   1.500   2.685
 6899SOL     OW21595   5.357   6.409   0.107
 6899SOL    HW121596   5.265   6.375   0.128
 6899SOL    HW221597   5.351   6.484   0.041
 6900SOL     OW21598   4.050   1.541   4.881
 6900SOL    HW121599   4.030   1.509   4.974
 6900SOL    HW221600   3.970   1.525   4.823
 6901SOL     OW21601   1.408   0.576   6.800
 6901SOL    HW121602   1.338   0.583   6.871
 6901SOL    HW221603   1.423   0.666   6.759
 6902SOL     OW21604   6.617   5.312   1.510
 6902SOL    HW121605   6.619   5.241   1.439
 6902SOL    HW221606   6.583   5.398   1.470
 6903SOL     OW21607   4.451   3.628   0.997
 6903SOL    HW121608   4.477   3.648   0.902
 6903SOL    HW221609   4.481   3.702   1.056
 6904SOL     OW21610   0.052   1.618   3.179
 6904SOL    HW121611   6.992   1.561   3.166
 6904SOL    HW221612   0.134   1.561   3.174
 6905SOL     OW21613   4.406   4.956   1.047
 6905SOL    HW121614   4.435   5.049   1.027
 6905SOL    HW221615   4.367   4.952   1.139
 6906SOL     OW21616   4.266   6.224   3.832
 6906SOL    HW121617   4.202   6.147   3.835
 6906SOL    HW221618   4.279   6.252   3.737
 6907SOL     OW21619   3.741   1.671   1.620
 6907SOL    HW121620   3.775   1.584   1.583
 6907SOL    HW221621   3.647   1.685   1.590
 6908SOL     OW21622   0.498   6.932   6.487
 6908SOL    HW121623   0.429   7.003   6.495
 6908SOL    HW221624   0.464   6.858   6.430
 6909SOL     OW21625   4.949   3.363   6.858
 6909SOL    HW121626   5.014   3.368   6.934
 6909SOL    HW221627   4.990   3.402   6.776
 6910SOL     OW21628   6.676   1.711   2.267
 6910SOL    HW121629   6.744   1.648   2.304
 6910SOL    HW221630   6.611   1.661   2.209
 6911SOL     OW21631   3.914   0.779   5.072
 6911SOL    HW121632   3.993   0.799   5.014
 6911SOL    HW221633   3.884   0.685   5.056
 6912SOL     OW21634   4.938   5.224   0.897
 6912SOL    HW121635   4.904   5.156   0.962
 6912SOL    HW221636   5.001   5.287   0.944
 6913SOL     OW21637   5.204   5.458   5.291
 6913SOL    HW121638   5.150   5.538   5.268
 6913SOL    HW221639   5.264   5.479   5.369
 6914SOL     OW21640   6.347   5.174   0.650
 6914SOL    HW121641   6.266   5.133   0.610
 6914SOL    HW221642   6.369   5.259   0.603
 6915SOL     OW21643   0.795   5.679   1.119
 6915SOL    HW121644   0.695   5.677   1.124
 6915SOL    HW221645   0.824   5.675   1.024
 6916SOL     OW21646   0.173   1.117   6.738
 6916SOL    HW121647   0.144   1.173   6.816
 6916SOL    HW221648   0.273   1.116   6.734
 6917SOL     OW21649   4.748   0.102   6.887
 6917SOL    HW121650   4.743   0.176   6.955
 6917SOL    HW221651   4.682   0.031   6.911
 6918SOL     OW21652   2.255   2.909   3.629
 6918SOL    HW121653   2.218   2.998   3.600
 6918SOL    HW221654   2.303   2.867   3.552
 6919SOL     OW21655   1.696   6.544   3.611
 6919SOL    HW121656   1.724   6.452   3.585
 6919SOL    HW221657   1.596   6.553   3.604
 6920SOL     OW21658   4.759   6.281   5.037
 6920SOL    HW121659   4.707   6.268   4.953
 6920SOL    HW221660   4.795   6.374   5.040
 6921SOL     OW21661   0.062   0.016   2.959
 6921SOL    HW121662   0.083   0.021   3.057
 6921SOL    HW221663   0.006   6.957   2.941
 6922SOL     OW21664   1.475   5.435   0.132
 6922SOL    HW121665   1.508   5.529   0.142
 6922SOL    HW221666   1.464   5.413   0.035
 6923SOL     OW21667   4.735   6.725   4.412
 6923SOL    HW121668   4.679   6.783   4.353
 6923SOL    HW221669   4.692   6.719   4.503
 6924SOL     OW21670   6.995   6.101   1.123
 6924SOL    HW121671   6.968   6.076   1.216
 6924SOL    HW221672   6.930   6.168   1.087
 6925SOL     OW21673   5.920   5.908   2.687
 6925SOL    HW121674   5.878   5.905   2.777
 6925SOL    HW221675   5.928   5.816   2.650
 6926SOL     OW21676   2.862   3.707   4.923
 6926SOL    HW121677   2.777   3.739   4.966
 6926SOL    HW221678   2.909   3.784   4.879
 6927SOL     OW21679   4.729   3.661   6.142
 6927SOL    HW121680   4.822   3.666   6.106
 6927SOL    HW221681   4.673   3.732   6.099
 6928SOL     OW21682   6.025   6.957   6.623
 6928SOL    HW121683   5.976   7.009   6.693
 6928SOL    HW221684   6.109   6.921   6.662
 6929SOL     OW21685   3.174   5.334   0.180
 6929SOL    HW121686   3.138   5.409   0.124
 6929SOL    HW221687   3.250   5.291   0.132
 6930SOL     OW21688   1.236   6.314   3.435
 6930SOL    HW121689   1.254   6.216   3.442
 6930SOL    HW221690   1.306   6.365   3.483
 6931SOL     OW21691   1.296   1.226   1.419
 6931SOL    HW121692   1.237   1.259   1.492
 6931SOL    HW221693   1.391   1.225   1.451
 6932SOL     OW21694   2.829   2.563   0.715
 6932SOL    HW121695   2.862   2.655   0.737
 6932SOL    HW221696   2.825   2.552   0.616
 6933SOL     OW21697   3.918   6.606   6.823
 6933SOL    HW121698   3.931   6.593   6.725
 6933SOL    HW221699   3.974   6.683   6.854
 6934SOL     OW21700   6.121   3.619   6.060
 6934SOL    HW121701   6.200   3.617   5.999
 6934SOL    HW221702   6.102   3.714   6.086
 6935SOL     OW21703   4.522   5.587   3.318
 6935SOL    HW121704   4.524   5.533   3.402
 6935SOL    HW221705   4.443   5.649   3.321
 6936SOL     OW21706   1.824   4.247   1.609
 6936SOL    HW121707   1.854   4.171   1.667
 6936SOL    HW221708   1.788   4.211   1.523
 6937SOL     OW21709   4.314   6.846   5.910
 6937SOL    HW121710   4.233   6.887   5.869
 6937SOL    HW221711   4.288   6.768   5.967
 6938SOL     OW21712   5.085   2.028   4.717
 6938SOL    HW121713   5.175   2.070   4.712
 6938SOL    HW221714   5.061   2.009   4.812
 6939SOL     OW21715   0.926   4.684   2.776
 6939SOL    HW121716   0.932   4.600   2.721
 6939SOL    HW221717   0.849   4.739   2.743
 6940SOL     OW21718   3.884   0.813   5.354
 6940SOL    HW121719   3.890   0.721   5.394
 6940SOL    HW221720   3.909   0.808   5.257
 6941SOL     OW21721   3.910   3.011   3.104
 6941SOL    HW121722   3.870   2.994   3.014
 6941SOL    HW221723   4.008   2.989   3.102
 6942SOL     OW21724   6.603   1.668   0.039
 6942SOL    HW121725   6.510   1.633   0.035
 6942SOL    HW221726   6.602   1.763   0.068
 6943SOL     OW21727   4.787   6.290   6.558
 6943SOL    HW121728   4.866   6.269   6.501
 6943SOL    HW221729   4.801   6.253   6.650
 6944SOL     OW21730   1.588   6.618   6.147
 6944SOL    HW121731   1.520   6.545   6.150
 6944SOL    HW221732   1.551   6.697   6.097
 6945SOL     OW21733   5.164   2.437   5.815
 6945SOL    HW121734   5.254   2.424   5.858
 6945SOL    HW221735   5.095   2.388   5.868
 6946SOL     OW21736   6.308   4.205   3.483
 6946SOL    HW121737   6.220   4.204   3.436
 6946SOL    HW221738   6.303   4.267   3.562
 6947SOL     OW21739   3.617   6.810   2.873
 6947SOL    HW121740   3.694   6.814   2.937
 6947SOL    HW221741   3.621   6.888   2.810
 6948SOL     OW21742   3.914   1.799   4.624
 6948SOL    HW121743   4.003   1.830   4.592
 6948SOL    HW221744   3.898   1.705   4.594
 6949SOL     OW21745   5.314   0.504   2.621
 6949SOL    HW121746   5.389   0.488   2.557
 6949SOL    HW221747   5.287   0.418   2.664
 6950SOL     OW21748   1.981   0.821   3.368
 6950SOL    HW121749   2.002   0.808   3.465
 6950SOL    HW221750   1.906   0.761   3.341
 6951SOL     OW21751   5.943   5.261   5.876
 6951SOL    HW121752   5.914   5.173   5.838
 6951SOL    HW221753   5.886   5.334   5.838
 6952SOL     OW21754   0.939   4.942   4.645
 6952SOL    HW121755   0.993   4.869   4.688
 6952SOL    HW221756   0.886   4.989   4.715
 6953SOL     OW21757   5.257   1.544   4.782
 6953SOL    HW121758   5.341   1.586   4.749
 6953SOL    HW221759   5.241   1.458   4.734
 6954SOL     OW21760   0.903   4.309   3.016
 6954SOL    HW121761   0.837   4.374   3.056
 6954SOL    HW221762   0.917   4.233   3.080
 6955SOL     OW21763   6.353   5.340   2.128
 6955SOL    HW121764   6.281   5.374   2.189
 6955SOL    HW221765   6.395   5.416   2.080
 6956SOL     OW21766   3.339   4.762   1.749
 6956SOL    HW121767   3.422   4.732   1.795
 6956SOL    HW221768   3.259   4.740   1.805
 6957SOL     OW21769   0.761   3.953   0.377
 6957SOL    HW121770   0.746   3.954   0.476
 6957SOL    HW221771   0.760   4.047   0.343
 6958SOL     OW21772   2.373   3.740   6.374
 6958SOL    HW121773   2.309   3.802   6.330
 6958SOL    HW221774   2.460   3.787   6.390
 6959SOL     OW21775   3.069   0.874   4.301
 6959SOL    HW121776   3.050   0.888   4.398
 6959SOL    HW221777   3.098   0.961   4.260
 6960SOL     OW21778   7.015   5.044   6.932
 6960SOL    HW121779   0.022   5.044   6.836
 6960SOL    HW221780   0.047   4.977   6.983
 6961SOL     OW21781   6.798   1.620   2.903
 6961SOL    HW121782   6.833   1.640   2.994
 6961SOL    HW221783   6.755   1.530   2.902
 6962SOL     OW21784   4.549   3.531   0.347
 6962SOL    HW121785   4.591   3.441   0.355
 6962SOL    HW221786   4.461   3.532   0.395
 6963SOL     OW21787   6.283   5.661   1.915
 6963SOL    HW121788   6.297   5.758   1.892
 6963SOL    HW221789   6.305   5.648   2.012
 6964SOL     OW21790   3.934   6.500   5.206
 6964SOL    HW121791   4.028   6.511   5.174
 6964SOL    HW221792   3.926   6.537   5.298
 6965SOL     OW21793   6.753   2.969   6.233
 6965SOL    HW121794   6.700   2.975   6.318
 6965SOL    HW221795   6.848   2.998   6.251
 6966SOL     OW21796   4.616   2.714   3.887
 6966SOL    HW121797   4.539   2.691   3.829
 6966SOL    HW221798   4.678   2.776   3.839
 6967SOL     OW21799   2.274   0.860   6.277
 6967SOL    HW121800   2.177   0.883   6.291
 6967SOL    HW221801   2.313   0.827   6.363
 6968SOL     OW21802   5.177   0.240   2.129
 6968SOL    HW121803   5.142   0.333   2.115
 6968SOL    HW221804   5.192   0.225   2.227
 6969SOL     OW21805   3.496   1.781   1.544
 6969SOL    HW121806   3.412   1.792   1.597
 6969SOL    HW221807   3.475   1.795   1.447
 6970SOL     OW21808   4.837   3.560   0.412
 6970SOL    HW121809   4.745   3.564   0.372
 6970SOL    HW221810   4.832   3.514   0.501
 6971SOL     OW21811   5.575   0.669   2.273
 6971SOL    HW121812   5.643   0.690   2.203
 6971SOL    HW221813   5.559   0.750   2.329
 6972SOL     OW21814   5.517   4.572   4.844
 6972SOL    HW121815   5.524   4.474   4.866
 6972SOL    HW221816   5.532   4.584   4.745
 6973SOL     OW21817   2.040   4.723   3.623
 6973SOL    HW121818   2.093   4.802   3.592
 6973SOL    HW221819   2.025   4.661   3.545
 6974SOL     OW21820   3.689   3.939   5.069
 6974SOL    HW121821   3.720   3.874   5.000
 6974SOL    HW221822   3.692   3.896   5.159
 6975SOL     OW21823   3.915   1.446   5.834
 6975SOL    HW121824   3.818   1.452   5.811
 6975SOL    HW221825   3.944   1.532   5.877
 6976SOL     OW21826   2.064   5.248   6.759
 6976SOL    HW121827   2.116   5.191   6.696
 6976SOL    HW221828   2.126   5.305   6.812
 6977SOL     OW21829   3.748   2.093   2.975
 6977SOL    HW121830   3.696   2.147   2.909
 6977SOL    HW221831   3.834   2.063   2.935
 6978SOL     OW21832   6.221   0.330   3.413
 6978SOL    HW121833   6.296   0.341   3.478
 6978SOL    HW221834   6.150   0.274   3.455
 6979SOL     OW21835   0.645   4.624   2.923
 6979SOL    HW121836   0.743   4.629   2.904
 6979SOL    HW221837   0.604   4.715   2.912
 6980SOL     OW21838   3.435   1.062   4.760
 6980SOL    HW121839   3.531   1.073   4.784
 6980SOL    HW221840   3.410   0.965   4.765
 6981SOL     OW21841   2.732   4.682   6.407
 6981SOL    HW121842   2.749   4.723   6.497
 6981SOL    HW221843   2.651   4.723   6.366
 6982SOL     OW21844   0.292   6.943   4.893
 6982SOL    HW121845   0.245   6.979   4.812
 6982SOL    HW221846   0.379   6.903   4.866
 6983SOL     OW21847   6.146   0.760   4.057
 6983SOL    HW121848   6.065   0.732   4.109
 6983SOL    HW221849   6.213   0.685   4.059
 6984SOL     OW21850   1.991   1.466   6.409
 6984SOL    HW121851   1.941   1.411   6.342
 6984SOL    HW221852   2.034   1.543   6.362
 6985SOL     OW21853   5.113   6.078   1.738
 6985SOL    HW121854   5.200   6.056   1.694
 6985SOL    HW221855   5.046   6.007   1.718
 6986SOL     OW21856   2.067   6.753   4.824
 6986SOL    HW121857   2.145   6.694   4.848
 6986SOL    HW221858   2.076   6.783   4.729
 6987SOL     OW21859   0.471   3.329   6.380
 6987SOL    HW121860   0.373   3.346   6.390
 6987SOL    HW221861   0.522   3.400   6.428
 6988SOL     OW21862   5.177   0.660   4.224
 6988SOL    HW121863   5.198   0.630   4.131
 6988SOL    HW221864   5.215   0.751   4.239
 6989SOL     OW21865   1.823   2.712   4.121
 6989SOL    HW121866   1.876   2.630   4.142
 6989SOL    HW221867   1.872   2.766   4.051
 6990SOL     OW21868   4.077   3.116   0.346
 6990SOL    HW121869   4.012   3.177   0.392
 6990SOL    HW221870   4.107   3.158   0.259
 6991SOL     OW21871   3.869   4.441   5.337
 6991SOL    HW121872   3.950   4.392   5.369
 6991SOL    HW221873   3.787   4.390   5.361
 6992SOL     OW21874   5.217   6.889   5.491
 6992SOL    HW121875   5.261   6.977   5.506
 6992SOL    HW221876   5.277   6.816   5.522
 6993SOL     OW21877   0.244   0.209   3.003
 6993SOL    HW121878   0.176   0.144   2.968
 6993SOL    HW221879   0.331   0.196   2.957
 6994SOL     OW21880   1.381   2.493   6.858
 6994SOL    HW121881   1.409   2.578   6.903
 6994SOL    HW221882   1.306   2.450   6.909
 6995SOL     OW21883   0.362   5.702   3.077
 6995SOL    HW121884   0.377   5.628   3.011
 6995SOL    HW221885   0.436   5.768   3.070
 6996SOL     OW21886   2.305   6.753   6.166
 6996SOL    HW121887   2.375   6.825   6.160
 6996SOL    HW221888   2.317   6.689   6.089
 6997SOL     OW21889   4.518   0.276   4.657
 6997SOL    HW121890   4.586   0.349   4.649
 6997SOL    HW221891   4.556   0.191   4.623
 6998SOL     OW21892   1.520   2.943   3.347
 6998SOL    HW121893   1.565   2.867   3.299
 6998SOL    HW221894   1.515   3.022   3.285
 6999SOL     OW21895   3.522   1.812   6.629
 6999SOL    HW121896   3.469   1.821   6.545
 6999SOL    HW221897   3.514   1.896   6.682
 7000SOL     OW21898   0.153   6.392   1.959
 7000SOL    HW121899   0.080   6.325   1.966
 7000SOL    HW221900   0.131   6.472   2.015
 7001SOL     OW21901   2.909   2.279   5.818
 7001SOL    HW121902   2.995   2.240   5.783
 7001SOL    HW221903   2.837   2.265   5.751
 7002SOL     OW21904   1.535   4.811   3.124
 7002SOL    HW121905   1.550   4.713   3.110
 7002SOL    HW221906   1.550   4.860   3.038
 7003SOL     OW21907   3.197   6.035   0.268
 7003SOL    HW121908   3.214   6.096   0.190
 7003SOL    HW221909   3.191   6.089   0.352
 7004SOL     OW21910   1.217   4.745   0.871
 7004SOL    HW121911   1.164   4.689   0.934
 7004SOL    HW221912   1.158   4.779   0.799
 7005SOL     OW21913   5.513   6.897   5.501
 7005SOL    HW121914   5.439   6.958   5.528
 7005SOL    HW221915   5.476   6.819   5.450
 7006SOL     OW21916   4.482   4.792   4.931
 7006SOL    HW121917   4.426   4.711   4.913
 7006SOL    HW221918   4.423   4.868   4.957
 7007SOL     OW21919   4.969   5.089   2.439
 7007SOL    HW121920   4.969   5.063   2.535
 7007SOL    HW221921   4.938   5.184   2.430
 7008SOL     OW21922   0.510   4.706   4.331
 7008SOL    HW121923   0.493   4.638   4.261
 7008SOL    HW221924   0.578   4.672   4.395
 7009SOL     OW21925   0.093   4.869   2.461
 7009SOL    HW121926   0.077   4.810   2.540
 7009SOL    HW221927   0.005   4.894   2.420
 7010SOL     OW21928   4.159   4.751   6.462
 7010SOL    HW121929   4.240   4.804   6.436
 7010SOL    HW221930   4.078   4.809   6.454
 7011SOL     OW21931   2.215   1.587   5.002
 7011SOL    HW121932   2.169   1.505   4.969
 7011SOL    HW221933   2.162   1.626   5.078
 7012SOL     OW21934   1.208   1.050   2.476
 7012SOL    HW121935   1.176   0.976   2.417
 7012SOL    HW221936   1.131   1.107   2.504
 7013SOL     OW21937   0.913   0.530   2.240
 7013SOL    HW121938   0.908   0.554   2.337
 7013SOL    HW221939   0.828   0.559   2.194
 7014SOL     OW21940   2.697   4.960   1.422
 7014SOL    HW121941   2.783   4.926   1.461
 7014SOL    HW221942   2.623   4.897   1.444
 7015SOL     OW21943   4.817   2.694   2.323
 7015SOL    HW121944   4.813   2.635   2.404
 7015SOL    HW221945   4.805   2.789   2.351
 7016SOL     OW21946   3.318   5.287   0.952
 7016SOL    HW121947   3.242   5.248   1.005
 7016SOL    HW221948   3.286   5.310   0.860
 7017SOL     OW21949   3.901   1.570   4.081
 7017SOL    HW121950   3.995   1.592   4.055
 7017SOL    HW221951   3.871   1.488   4.032
 7018SOL     OW21952   0.324   5.335   4.026
 7018SOL    HW121953   0.321   5.330   3.926
 7018SOL    HW221954   0.237   5.370   4.060
 7019SOL     OW21955   2.217   6.230   6.880
 7019SOL    HW121956   2.219   6.279   6.967
 7019SOL    HW221957   2.176   6.288   6.810
 7020SOL     OW21958   6.265   6.461   6.251
 7020SOL    HW121959   6.307   6.548   6.226
 7020SOL    HW221960   6.184   6.478   6.308
 7021SOL     OW21961   2.846   1.368   5.726
 7021SOL    HW121962   2.860   1.302   5.652
 7021SOL    HW221963   2.813   1.454   5.688
 7022SOL     OW21964   5.234   5.191   6.847
 7022SOL    HW121965   5.196   5.212   6.937
 7022SOL    HW221966   5.220   5.269   6.786
 7023SOL     OW21967   6.303   4.170   2.652
 7023SOL    HW121968   6.287   4.241   2.720
 7023SOL    HW221969   6.338   4.212   2.568
 7024SOL     OW21970   0.134   6.328   0.290
 7024SOL    HW121971   0.137   6.368   0.382
 7024SOL    HW221972   0.188   6.244   0.289
 7025SOL     OW21973   2.523   0.848   5.888
 7025SOL    HW121974   2.551   0.848   5.792
 7025SOL    HW221975   2.596   0.811   5.944
 7026SOL     OW21976   4.073   2.498   0.963
 7026SOL    HW121977   4.004   2.443   1.010
 7026SOL    HW221978   4.163   2.456   0.975
 7027SOL     OW21979   4.586   6.942   4.557
 7027SOL    HW121980   4.637   6.968   4.475
 7027SOL    HW221981   4.513   6.878   4.532
 7028SOL     OW21982   3.701   6.906   4.628
 7028SOL    HW121983   3.728   6.868   4.539
 7028SOL    HW221984   3.603   6.924   4.627
 7029SOL     OW21985   3.077   0.839   5.326
 7029SOL    HW121986   3.096   0.856   5.422
 7029SOL    HW221987   3.078   0.741   5.309
 7030SOL     OW21988   1.743   4.142   4.642
 7030SOL    HW121989   1.732   4.105   4.734
 7030SOL    HW221990   1.673   4.104   4.582
 7031SOL     OW21991   2.161   6.340   4.935
 7031SOL    HW121992   2.128   6.307   4.847
 7031SOL    HW221993   2.224   6.274   4.975
 7032SOL     OW21994   6.027   1.158   2.487
 7032SOL    HW121995   6.018   1.108   2.401
 7032SOL    HW221996   5.997   1.253   2.474
 7033SOL     OW21997   6.624   0.450   3.903
 7033SOL    HW121998   6.633   0.376   3.836
 7033SOL    HW221999   6.633   0.538   3.857
 7034SOL     OW22000   6.248   6.016   3.021
 7034SOL    HW122001   6.164   6.052   3.062
 7034SOL    HW222002   6.318   6.087   3.019
 7035SOL     OW22003   6.788   5.455   1.724
 7035SOL    HW122004   6.865   5.402   1.760
 7035SOL    HW222005   6.754   5.412   1.640
 7036SOL     OW22006   6.492   4.279   1.384
 7036SOL    HW122007   6.437   4.287   1.301
 7036SOL    HW222008   6.438   4.233   1.455
 7037SOL     OW22009   1.439   6.894   6.357
 7037SOL    HW122010   1.472   6.897   6.263
 7037SOL    HW222011   1.356   6.837   6.361
 7038SOL     OW22012   1.408   4.511   4.045
 7038SOL    HW122013   1.321   4.464   4.056
 7038SOL    HW222014   1.447   4.488   3.956
 7039SOL     OW22015   4.065   1.271   0.027
 7039SOL    HW122016   4.081   1.232   6.958
 7039SOL    HW222017   3.991   1.338   0.023
 7040SOL     OW22018   4.457   2.619   6.140
 7040SOL    HW122019   4.409   2.532   6.156
 7040SOL    HW222020   4.470   2.667   6.227
 7041SOL     OW22021   2.594   1.772   2.524
 7041SOL    HW122022   2.646   1.703   2.575
 7041SOL    HW222023   2.498   1.747   2.523
 7042SOL     OW22024   2.639   0.272   6.308
 7042SOL    HW122025   2.694   0.302   6.386
 7042SOL    HW222026   2.567   0.209   6.340
 7043SOL     OW22027   1.825   2.019   2.870
 7043SOL    HW122028   1.772   2.104   2.880
 7043SOL    HW222029   1.779   1.959   2.804
 7044SOL     OW22030   4.914   6.194   2.188
 7044SOL    HW122031   4.911   6.173   2.286
 7044SOL    HW222032   4.988   6.143   2.144
 7045SOL     OW22033   5.489   5.578   0.854
 7045SOL    HW122034   5.555   5.643   0.818
 7045SOL    HW222035   5.509   5.487   0.817
 7046SOL     OW22036   2.320   0.635   5.038
 7046SOL    HW122037   2.352   0.611   4.947
 7046SOL    HW222038   2.277   0.555   5.080
 7047SOL     OW22039   1.883   1.287   4.047
 7047SOL    HW122040   1.970   1.310   4.090
 7047SOL    HW222041   1.863   1.190   4.060
 7048SOL     OW22042   6.490   6.401   0.185
 7048SOL    HW122043   6.494   6.499   0.168
 7048SOL    HW222044   6.478   6.385   0.283
 7049SOL     OW22045   2.259   1.166   0.874
 7049SOL    HW122046   2.238   1.250   0.924
 7049SOL    HW222047   2.358   1.156   0.866
 7050SOL     OW22048   4.007   4.083   5.119
 7050SOL    HW122049   4.077   4.101   5.188
 7050SOL    HW222050   3.919   4.121   5.149
 7051SOL     OW22051   6.207   6.824   2.443
 7051SOL    HW122052   6.261   6.819   2.528
 7051SOL    HW222053   6.191   6.732   2.409
 7052SOL     OW22054   6.483   2.263   3.374
 7052SOL    HW122055   6.406   2.213   3.415
 7052SOL    HW222056   6.485   2.246   3.275
 7053SOL     OW22057   0.224   4.745   6.596
 7053SOL    HW122058   0.193   4.698   6.513
 7053SOL    HW222059   0.146   4.791   6.639
 7054SOL     OW22060   6.891   0.004   1.550
 7054SOL    HW122061   6.846   7.003   1.636
 7054SOL    HW222062   6.961   0.074   1.566
 7055SOL     OW22063   3.503   0.052   5.125
 7055SOL    HW122064   3.547   0.141   5.134
 7055SOL    HW222065   3.568   7.008   5.087
 7056SOL     OW22066   4.551   5.169   3.652
 7056SOL    HW122067   4.506   5.200   3.569
 7056SOL    HW222068   4.647   5.147   3.632
 7057SOL     OW22069   0.815   5.989   3.363
 7057SOL    HW122070   0.769   6.078   3.360
 7057SOL    HW222071   0.874   5.980   3.283
 7058SOL     OW22072   0.714   5.207   5.352
 7058SOL    HW122073   0.619   5.206   5.319
 7058SOL    HW222074   0.759   5.290   5.319
 7059SOL     OW22075   1.830   0.396   2.704
 7059SOL    HW122076   1.821   0.470   2.637
 7059SOL    HW222077   1.897   0.330   2.672
 7060SOL     OW22078   2.942   6.690   1.250
 7060SOL    HW122079   2.970   6.600   1.283
 7060SOL    HW222080   3.009   6.758   1.279
 7061SOL     OW22081   0.172   1.183   2.412
 7061SOL    HW122082   0.150   1.215   2.320
 7061SOL    HW222083   0.091   1.190   2.470
 7062SOL     OW22084   5.705   2.234   4.881
 7062SOL    HW122085   5.671   2.201   4.793
 7062SOL    HW222086   5.798   2.203   4.896
 7063SOL     OW22087   2.969   6.148   1.551
 7063SOL    HW122088   2.959   6.153   1.451
 7063SOL    HW222089   2.884   6.116   1.591
 7064SOL     OW22090   4.095   2.379   0.438
 7064SOL    HW122091   4.120   2.334   0.524
 7064SOL    HW222092   4.155   2.458   0.424
 7065SOL     OW22093   4.443   3.982   1.413
 7065SOL    HW122094   4.414   4.068   1.370
 7065SOL    HW222095   4.420   3.984   1.510
 7066SOL     OW22096   3.742   6.202   0.331
 7066SOL    HW122097   3.693   6.128   0.284
 7066SOL    HW222098   3.776   6.168   0.418
 7067SOL     OW22099   0.436   4.178   5.352
 7067SOL    HW122100   0.413   4.272   5.327
 7067SOL    HW222101   0.411   4.117   5.277
 7068SOL     OW22102   1.172   0.610   3.226
 7068SOL    HW122103   1.212   0.520   3.208
 7068SOL    HW222104   1.072   0.604   3.223
 7069SOL     OW22105   1.520   4.475   4.982
 7069SOL    HW122106   1.530   4.418   5.064
 7069SOL    HW222107   1.434   4.524   4.987
 7070SOL     OW22108   6.300   5.410   4.715
 7070SOL    HW122109   6.260   5.454   4.796
 7070SOL    HW222110   6.371   5.469   4.678
 7071SOL     OW22111   1.228   6.572   5.685
 7071SOL    HW122112   1.262   6.655   5.641
 7071SOL    HW222113   1.197   6.507   5.615
 7072SOL     OW22114   0.329   6.388   6.134
 7072SOL    HW122115   0.429   6.379   6.139
 7072SOL    HW222116   0.303   6.421   6.043
 7073SOL     OW22117   0.403   0.796   5.875
 7073SOL    HW122118   0.351   0.874   5.909
 7073SOL    HW222119   0.342   0.719   5.858
 7074SOL     OW22120   3.666   2.276   1.621
 7074SOL    HW122121   3.678   2.280   1.720
 7074SOL    HW222122   3.610   2.197   1.597
 7075SOL     OW22123   1.172   5.657   3.115
 7075SOL    HW122124   1.187   5.560   3.097
 7075SOL    HW222125   1.128   5.668   3.204
 7076SOL     OW22126   2.677   2.334   6.797
 7076SOL    HW122127   2.657   2.309   6.891
 7076SOL    HW222128   2.613   2.404   6.766
 7077SOL     OW22129   2.057   5.456   5.785
 7077SOL    HW122130   2.075   5.517   5.708
 7077SOL    HW222131   2.098   5.366   5.767
 7078SOL     OW22132   5.752   0.599   3.370
 7078SOL    HW122133   5.850   0.611   3.384
 7078SOL    HW222134   5.733   0.592   3.272
 7079SOL     OW22135   5.969   5.835   5.477
 7079SOL    HW122136   6.007   5.878   5.396
 7079SOL    HW222137   5.876   5.868   5.492
 7080SOL     OW22138   4.728   0.216   4.073
 7080SOL    HW122139   4.798   0.162   4.120
 7080SOL    HW222140   4.718   0.183   3.979
 7081SOL     OW22141   3.883   0.979   4.312
 7081SOL    HW122142   3.887   1.043   4.389
 7081SOL    HW222143   3.848   0.891   4.344
 7082SOL     OW22144   5.322   0.541   6.372
 7082SOL    HW122145   5.249   0.481   6.403
 7082SOL    HW222146   5.301   0.635   6.397
 7083SOL     OW22147   3.311   0.358   5.919
 7083SOL    HW122148   3.336   0.316   6.006
 7083SOL    HW222149   3.218   0.331   5.894
 7084SOL     OW22150   6.773   6.275   6.301
 7084SOL    HW122151   6.676   6.267   6.277
 7084SOL    HW222152   6.802   6.370   6.294
 7085SOL     OW22153   2.635   2.348   1.254
 7085SOL    HW122154   2.623   2.264   1.202
 7085SOL    HW222155   2.618   2.330   1.351
 7086SOL     OW22156   6.206   0.898   6.522
 7086SOL    HW122157   6.203   0.947   6.609
 7086SOL    HW222158   6.117   0.853   6.506
 7087SOL     OW22159   1.391   3.222   4.113
 7087SOL    HW122160   1.365   3.160   4.038
 7087SOL    HW222161   1.355   3.187   4.199
 7088SOL     OW22162   6.451   2.152   5.711
 7088SOL    HW122163   6.372   2.176   5.767
 7088SOL    HW222164   6.478   2.232   5.657
 7089SOL     OW22165   2.543   1.566   0.165
 7089SOL    HW122166   2.470   1.498   0.161
 7089SOL    HW222167   2.563   1.589   0.260
 7090SOL     OW22168   2.394   2.324   4.733
 7090SOL    HW122169   2.373   2.295   4.640
 7090SOL    HW222170   2.348   2.262   4.798
 7091SOL     OW22171   0.138   5.965   6.767
 7091SOL    HW122172   0.195   5.896   6.722
 7091SOL    HW222173   0.193   6.045   6.790
 7092SOL     OW22174   3.470   3.979   0.581
 7092SOL    HW122175   3.423   4.023   0.505
 7092SOL    HW222176   3.516   3.897   0.549
 7093SOL     OW22177   3.298   3.389   4.961
 7093SOL    HW122178   3.215   3.441   4.982
 7093SOL    HW222179   3.295   3.357   4.867
 7094SOL     OW22180   0.399   0.364   5.740
 7094SOL    HW122181   0.476   0.380   5.678
 7094SOL    HW222182   0.426   0.301   5.812
 7095SOL     OW22183   0.984   3.092   6.722
 7095SOL    HW122184   1.021   3.139   6.802
 7095SOL    HW222185   0.885   3.090   6.727
 7096SOL     OW22186   4.952   1.575   2.658
 7096SOL    HW122187   4.970   1.532   2.746
 7096SOL    HW222188   5.006   1.529   2.587
 7097SOL     OW22189   0.336   0.450   1.901
 7097SOL    HW122190   0.332   0.364   1.953
 7097SOL    HW222191   0.257   0.454   1.840
 7098SOL     OW22192   1.446   6.532   5.840
 7098SOL    HW122193   1.491   6.616   5.808
 7098SOL    HW222194   1.363   6.517   5.786
 7099SOL     OW22195   0.043   0.792   6.199
 7099SOL    HW122196   6.997   0.854   6.237
 7099SOL    HW222197   0.132   0.811   6.240
 7100SOL     OW22198   5.767   3.065   1.297
 7100SOL    HW122199   5.736   3.083   1.204
 7100SOL    HW222200   5.711   3.117   1.362
 7101SOL     OW22201   2.655   7.018   5.120
 7101SOL    HW122202   2.643   0.072   5.056
 7101SOL    HW222203   2.706   6.944   5.076
 7102SOL     OW22204   4.639   2.175   1.080
 7102SOL    HW122205   4.589   2.209   1.001
 7102SOL    HW222206   4.625   2.236   1.158
 7103SOL     OW22207   3.715   6.820   6.690
 7103SOL    HW122208   3.682   6.858   6.776
 7103SOL    HW222209   3.807   6.855   6.671
 7104SOL     OW22210   1.059   2.448   2.915
 7104SOL    HW122211   1.017   2.408   2.834
 7104SOL    HW222212   0.996   2.514   2.956
 7105SOL     OW22213   3.384   3.922   5.117
 7105SOL    HW122214   3.393   3.838   5.063
 7105SOL    HW222215   3.457   3.986   5.092
 7106SOL     OW22216   3.285   2.783   5.247
 7106SOL    HW122217   3.213   2.736   5.194
 7106SOL    HW222218   3.299   2.875   5.209
 7107SOL     OW22219   2.877   1.821   0.436
 7107SOL    HW122220   2.951   1.806   0.502
 7107SOL    HW222221   2.888   1.760   0.358
 7108SOL     OW22222   4.815   0.292   1.376
 7108SOL    HW122223   4.850   0.379   1.342
 7108SOL    HW222224   4.870   0.217   1.340
 7109SOL     OW22225   3.997   6.456   6.448
 7109SOL    HW122226   3.913   6.405   6.465
 7109SOL    HW222227   3.983   6.518   6.371
 7110SOL     OW22228   4.156   5.175   3.429
 7110SOL    HW122229   4.132   5.128   3.344
 7110SOL    HW222230   4.073   5.201   3.478
 7111SOL     OW22231   2.104   3.652   4.193
 7111SOL    HW122232   2.102   3.746   4.227
 7111SOL    HW222233   2.111   3.589   4.270
 7112SOL     OW22234   1.043   6.522   3.535
 7112SOL    HW122235   1.128   6.475   3.509
 7112SOL    HW222236   0.965   6.475   3.494
 7113SOL     OW22237   4.051   3.801   4.203
 7113SOL    HW122238   4.146   3.831   4.194
 7113SOL    HW222239   4.039   3.714   4.154
 7114SOL     OW22240   3.401   0.968   0.505
 7114SOL    HW122241   3.325   0.927   0.555
 7114SOL    HW222242   3.405   0.929   0.413
 7115SOL     OW22243   4.834   1.687   1.352
 7115SOL    HW122244   4.859   1.707   1.257
 7115SOL    HW222245   4.781   1.763   1.389
 7116SOL     OW22246   5.486   3.888   3.114
 7116SOL    HW122247   5.445   3.872   3.024
 7116SOL    HW222248   5.458   3.978   3.147
 7117SOL     OW22249   5.958   6.538   1.770
 7117SOL    HW122250   5.871   6.583   1.751
 7117SOL    HW222251   5.987   6.486   1.689
 7118SOL     OW22252   6.511   3.294   1.221
 7118SOL    HW122253   6.424   3.342   1.232
 7118SOL    HW222254   6.585   3.361   1.216
 7119SOL     OW22255   6.619   2.209   3.639
 7119SOL    HW122256   6.601   2.261   3.555
 7119SOL    HW222257   6.544   2.146   3.656
 7120SOL     OW22258   5.085   0.419   3.075
 7120SOL    HW122259   5.013   0.487   3.088
 7120SOL    HW222260   5.174   0.466   3.071
 7121SOL     OW22261   3.173   6.605   2.238
 7121SOL    HW122262   3.108   6.582   2.165
 7121SOL    HW222263   3.265   6.612   2.199
 7122SOL     OW22264   6.094   1.027   6.293
 7122SOL    HW122265   6.124   1.007   6.387
 7122SOL    HW222266   6.117   1.122   6.271
 7123SOL     OW22267   2.403   5.359   1.400
 7123SOL    HW122268   2.496   5.393   1.405
 7123SOL    HW222269   2.340   5.436   1.385
 7124SOL     OW22270   0.518   4.842   0.600
 7124SOL    HW122271   0.456   4.856   0.677
 7124SOL    HW222272   0.564   4.754   0.609
 7125SOL     OW22273   5.943   6.307   2.802
 7125SOL    HW122274   5.970   6.211   2.797
 7125SOL    HW222275   6.023   6.365   2.783
 7126SOL     OW22276   1.357   4.498   0.477
 7126SOL    HW122277   1.366   4.490   0.378
 7126SOL    HW222278   1.324   4.589   0.500
 7127SOL     OW22279   3.525   6.660   4.784
 7127SOL    HW122280   3.530   6.730   4.856
 7127SOL    HW222281   3.440   6.608   4.794
 7128SOL     OW22282   2.981   3.984   1.414
 7128SOL    HW122283   2.887   4.013   1.400
 7128SOL    HW222284   3.012   3.931   1.334
 7129SOL     OW22285   2.715   0.136   1.483
 7129SOL    HW122286   2.706   0.046   1.441
 7129SOL    HW222287   2.625   0.167   1.514
 7130SOL     OW22288   2.275   4.733   3.052
 7130SOL    HW122289   2.214   4.805   3.020
 7130SOL    HW222290   2.359   4.734   2.998
 7131SOL     OW22291   2.615   0.736   3.323
 7131SOL    HW122292   2.695   0.684   3.294
 7131SOL    HW222293   2.626   0.832   3.299
 7132SOL     OW22294   3.471   4.110   3.154
 7132SOL    HW122295   3.568   4.110   3.176
 7132SOL    HW222296   3.418   4.082   3.234
 7133SOL     OW22297   5.368   5.227   2.947
 7133SOL    HW122298   5.316   5.143   2.929
 7133SOL    HW222299   5.362   5.287   2.868
 7134SOL     OW22300   5.266   4.034   4.034
 7134SOL    HW122301   5.194   3.966   4.048
 7134SOL    HW222302   5.327   4.034   4.113
 7135SOL     OW22303   0.857   2.102   4.875
 7135SOL    HW122304   0.853   2.198   4.903
 7135SOL    HW222305   0.945   2.085   4.829
 7136SOL     OW22306   2.142   1.655   0.218
 7136SOL    HW122307   2.107   1.563   0.235
 7136SOL    HW222308   2.212   1.678   0.285
 7137SOL     OW22309   4.079   0.644   4.378
 7137SOL    HW122310   4.105   0.585   4.301
 7137SOL    HW222311   4.160   0.667   4.432
 7138SOL     OW22312   2.310   4.157   0.775
 7138SOL    HW122313   2.350   4.099   0.704
 7138SOL    HW222314   2.384   4.196   0.831
 7139SOL     OW22315   3.885   2.619   1.454
 7139SOL    HW122316   3.925   2.579   1.536
 7139SOL    HW222317   3.789   2.644   1.472
 7140SOL     OW22318   6.521   3.615   5.019
 7140SOL    HW122319   6.553   3.520   5.017
 7140SOL    HW222320   6.478   3.637   4.931
 7141SOL     OW22321   2.814   6.932   0.511
 7141SOL    HW122322   2.793   6.843   0.551
 7141SOL    HW222323   2.889   6.975   0.561
 7142SOL     OW22324   3.953   5.810   4.309
 7142SOL    HW122325   4.005   5.798   4.393
 7142SOL    HW222326   4.001   5.874   4.248
 7143SOL     OW22327   2.016   3.741   5.076
 7143SOL    HW122328   2.051   3.692   4.996
 7143SOL    HW222329   2.023   3.840   5.059
 7144SOL     OW22330   0.857   2.519   3.626
 7144SOL    HW122331   0.820   2.499   3.717
 7144SOL    HW222332   0.784   2.512   3.558
 7145SOL     OW22333   4.605   0.214   0.087
 7145SOL    HW122334   4.536   0.202   0.158
 7145SOL    HW222335   4.612   0.311   0.063
 7146SOL     OW22336   3.300   4.969   0.465
 7146SOL    HW122337   3.255   4.922   0.541
 7146SOL    HW222338   3.399   4.963   0.476
 7147SOL     OW22339   0.364   0.496   3.409
 7147SOL    HW122340   0.421   0.438   3.468
 7147SOL    HW222341   0.402   0.588   3.407
 7148SOL     OW22342   0.935   0.686   1.738
 7148SOL    HW122343   0.883   0.747   1.678
 7148SOL    HW222344   0.898   0.691   1.831
 7149SOL     OW22345   6.343   1.769   3.371
 7149SOL    HW122346   6.346   1.675   3.336
 7149SOL    HW222347   6.426   1.786   3.424
 7150SOL     OW22348   6.266   3.419   0.048
 7150SOL    HW122349   6.296   3.489   0.113
 7150SOL    HW222350   6.197   3.361   0.092
 7151SOL     OW22351   2.449   5.934   1.547
 7151SOL    HW122352   2.468   5.866   1.476
 7151SOL    HW222353   2.525   5.999   1.551
 7152SOL     OW22354   1.426   2.624   3.976
 7152SOL    HW122355   1.422   2.544   3.917
 7152SOL    HW222356   1.459   2.597   4.067
 7153SOL     OW22357   3.507   1.373   3.676
 7153SOL    HW122358   3.555   1.442   3.730
 7153SOL    HW222359   3.452   1.315   3.737
 7154SOL     OW22360   5.090   5.813   4.154
 7154SOL    HW122361   5.025   5.753   4.201
 7154SOL    HW222362   5.182   5.799   4.191
 7155SOL     OW22363   2.731   6.903   1.139
 7155SOL    HW122364   2.821   6.861   1.154
 7155SOL    HW222365   2.676   6.896   1.221
 7156SOL     OW22366   0.105   5.954   4.902
 7156SOL    HW122367   0.025   5.913   4.859
 7156SOL    HW222368   0.116   6.048   4.870
 7157SOL     OW22369   4.496   4.633   1.462
 7157SOL    HW122370   4.547   4.570   1.520
 7157SOL    HW222371   4.403   4.598   1.449
 7158SOL     OW22372   6.422   6.797   4.191
 7158SOL    HW122373   6.326   6.782   4.213
 7158SOL    HW222374   6.442   6.757   4.101
 7159SOL     OW22375   0.813   5.285   7.004
 7159SOL    HW122376   0.769   5.287   6.914
 7159SOL    HW222377   0.882   5.213   7.005
 7160SOL     OW22378   5.624   0.363   1.925
 7160SOL    HW122379   5.531   0.329   1.910
 7160SOL    HW222380   5.654   0.416   1.846
 7161SOL     OW22381   3.458   3.244   3.907
 7161SOL    HW122382   3.400   3.167   3.882
 7161SOL    HW222383   3.438   3.272   4.001
 7162SOL     OW22384   3.468   4.982   3.415
 7162SOL    HW122385   3.542   4.993   3.480
 7162SOL    HW222386   3.385   4.953   3.463
 7163SOL     OW22387   2.756   0.394   2.789
 7163SOL    HW122388   2.761   0.493   2.775
 7163SOL    HW222389   2.667   0.360   2.758
 7164SOL     OW22390   2.448   1.089   3.066
 7164SOL    HW122391   2.408   0.997   3.076
 7164SOL    HW222392   2.379   1.151   3.029
 7165SOL     OW22393   4.949   1.229   1.291
 7165SOL    HW122394   4.907   1.232   1.200
 7165SOL    HW222395   4.905   1.295   1.350
 7166SOL     OW22396   4.936   4.544   1.615
 7166SOL    HW122397   4.845   4.518   1.582
 7166SOL    HW222398   4.984   4.462   1.646
 7167SOL     OW22399   4.747   2.603   4.992
 7167SOL    HW122400   4.802   2.685   5.011
 7167SOL    HW222401   4.778   2.528   5.050
 7168SOL     OW22402   1.371   0.829   3.701
 7168SOL    HW122403   1.389   0.748   3.646
 7168SOL    HW222404   1.292   0.813   3.760
 7169SOL     OW22405   1.607   2.345   5.329
 7169SOL    HW122406   1.626   2.415   5.398
 7169SOL    HW222407   1.539   2.379   5.264
 7170SOL     OW22408   6.477   4.755   4.376
 7170SOL    HW122409   6.461   4.665   4.419
 7170SOL    HW222410   6.470   4.746   4.277
 7171SOL     OW22411   4.246   3.290   5.202
 7171SOL    HW122412   4.321   3.278   5.136
 7171SOL    HW222413   4.167   3.236   5.173
 7172SOL     OW22414   1.734   6.981   0.580
 7172SOL    HW122415   1.759   6.991   0.676
 7172SOL    HW222416   1.635   6.974   0.572
 7173SOL     OW22417   6.765   6.150   5.906
 7173SOL    HW122418   6.687   6.105   5.862
 7173SOL    HW222419   6.847   6.135   5.851
 7174SOL     OW22420   1.754   5.118   0.456
 7174SOL    HW122421   1.697   5.122   0.538
 7174SOL    HW222422   1.744   5.203   0.404
 7175SOL     OW22423   6.884   3.960   5.886
 7175SOL    HW122424   6.866   4.031   5.817
 7175SOL    HW222425   6.887   3.870   5.841
 7176SOL     OW22426   6.015   3.685   1.630
 7176SOL    HW122427   5.993   3.651   1.722
 7176SOL    HW222428   5.957   3.763   1.609
 7177SOL     OW22429   0.635   6.443   1.863
 7177SOL    HW122430   0.565   6.500   1.820
 7177SOL    HW222431   0.640   6.355   1.817
 7178SOL     OW22432   0.715   2.566   6.517
 7178SOL    HW122433   0.777   2.639   6.490
 7178SOL    HW222434   0.680   2.520   6.435
 7179SOL     OW22435   2.762   3.624   6.203
 7179SOL    HW122436   2.698   3.605   6.129
 7179SOL    HW222437   2.742   3.564   6.281
 7180SOL     OW22438   0.019   6.358   2.279
 7180SOL    HW122439   7.022   6.280   2.220
 7180SOL    HW222440   0.056   6.433   2.224
 7181SOL     OW22441   5.190   1.050   1.835
 7181SOL    HW122442   5.154   1.084   1.923
 7181SOL    HW222443   5.286   1.076   1.826
 7182SOL     OW22444   2.939   3.763   5.792
 7182SOL    HW122445   3.000   3.820   5.847
 7182SOL    HW222446   2.977   3.671   5.786
 7183SOL     OW22447   1.027   5.549   2.500
 7183SOL    HW122448   1.024   5.568   2.598
 7183SOL    HW222449   1.115   5.579   2.463
 7184SOL     OW22450   2.525   6.374   3.515
 7184SOL    HW122451   2.503   6.422   3.600
 7184SOL    HW222452   2.624   6.378   3.499
 7185SOL     OW22453   4.921   2.242   6.762
 7185SOL    HW122454   4.962   2.307   6.826
 7185SOL    HW222455   4.835   2.279   6.728
 7186SOL     OW22456   0.502   6.745   4.576
 7186SOL    HW122457   0.429   6.700   4.629
 7186SOL    HW222458   0.566   6.676   4.543
 7187SOL     OW22459   2.036   4.552   1.344
 7187SOL    HW122460   1.972   4.560   1.420
 7187SOL    HW222461   2.033   4.635   1.289
 7188SOL     OW22462   5.287   1.411   1.487
 7188SOL    HW122463   5.304   1.506   1.514
 7188SOL    HW222464   5.374   1.368   1.462
 7189SOL     OW22465   5.974   1.096   5.045
 7189SOL    HW122466   5.977   1.189   5.082
 7189SOL    HW222467   6.001   1.097   4.949
 7190SOL     OW22468   4.762   4.740   3.279
 7190SOL    HW122469   4.817   4.709   3.357
 7190SOL    HW222470   4.821   4.781   3.210
 7191SOL     OW22471   1.854   3.296   2.098
 7191SOL    HW122472   1.906   3.344   2.028
 7191SOL    HW222473   1.829   3.360   2.170
 7192SOL     OW22474   2.804   4.495   5.878
 7192SOL    HW122475   2.855   4.555   5.815
 7192SOL    HW222476   2.836   4.511   5.972
 7193SOL     OW22477   4.379   1.841   3.362
 7193SOL    HW122478   4.293   1.800   3.391
 7193SOL    HW222479   4.421   1.785   3.290
 7194SOL     OW22480   2.751   1.626   2.224
 7194SOL    HW122481   2.795   1.605   2.311
 7194SOL    HW222482   2.712   1.718   2.228
 7195SOL     OW22483   1.090   5.739   1.263
 7195SOL    HW122484   1.173   5.692   1.232
 7195SOL    HW222485   1.018   5.727   1.194
 7196SOL     OW22486   3.442   3.047   2.294
 7196SOL    HW122487   3.535   3.083   2.298
 7196SOL    HW222488   3.378   3.114   2.330
 7197SOL     OW22489   0.310   2.194   5.853
 7197SOL    HW122490   0.292   2.278   5.802
 7197SOL    HW222491   0.224   2.153   5.881
 7198SOL     OW22492   1.345   6.293   6.933
 7198SOL    HW122493   1.299   6.264   6.849
 7198SOL    HW222494   1.278   6.297   7.007
 7199SOL     OW22495   6.537   6.551   3.059
 7199SOL    HW122496   6.616   6.492   3.072
 7199SOL    HW222497   6.453   6.496   3.061
 7200SOL     OW22498   1.803   0.690   1.392
 7200SOL    HW122499   1.746   0.722   1.316
 7200SOL    HW222500   1.755   0.707   1.478
 7201SOL     OW22501   2.346   4.396   3.594
 7201SOL    HW122502   2.261   4.449   3.605
 7201SOL    HW222503   2.332   4.326   3.524
 7202SOL     OW22504   3.813   1.084   6.499
 7202SOL    HW122505   3.868   1.104   6.580
 7202SOL    HW222506   3.818   1.161   6.435
 7203SOL     OW22507   5.447   0.922   6.925
 7203SOL    HW122508   5.501   1.001   6.951
 7203SOL    HW222509   5.449   0.854   6.998
 7204SOL     OW22510   6.245   1.494   2.986
 7204SOL    HW122511   6.204   1.578   3.022
 7204SOL    HW222512   6.178   1.446   2.929
 7205SOL     OW22513   2.092   4.946   2.259
 7205SOL    HW122514   2.006   4.898   2.278
 7205SOL    HW222515   2.079   5.044   2.276
 7206SOL     OW22516   6.177   1.195   1.473
 7206SOL    HW122517   6.120   1.228   1.397
 7206SOL    HW222518   6.131   1.216   1.560
 7207SOL     OW22519   3.544   7.010   1.985
 7207SOL    HW122520   3.558   0.087   1.997
 7207SOL    HW222521   3.599   6.961   2.052
 7208SOL     OW22522   3.195   0.366   5.334
 7208SOL    HW122523   3.189   0.441   5.400
 7208SOL    HW222524   3.136   0.291   5.363
 7209SOL     OW22525   4.003   3.689   4.478
 7209SOL    HW122526   3.998   3.703   4.379
 7209SOL    HW222527   4.045   3.768   4.521
 7210SOL     OW22528   4.127   0.614   4.072
 7210SOL    HW122529   4.089   0.703   4.097
 7210SOL    HW222530   4.219   0.606   4.110
 7211SOL     OW22531   1.284   5.369   3.313
 7211SOL    HW122532   1.319   5.332   3.398
 7211SOL    HW222533   1.327   5.324   3.235
 7212SOL     OW22534   5.417   6.313   4.321
 7212SOL    HW122535   5.467   6.313   4.235
 7212SOL    HW222536   5.422   6.405   4.362
 7213SOL     OW22537   5.449   1.230   5.603
 7213SOL    HW122538   5.350   1.240   5.589
 7213SOL    HW222539   5.477   1.138   5.575
 7214SOL     OW22540   1.752   4.788   4.786
 7214SOL    HW122541   1.782   4.695   4.804
 7214SOL    HW222542   1.664   4.786   4.738
 7215SOL     OW22543   1.302   4.011   3.616
 7215SOL    HW122544   1.341   3.930   3.571
 7215SOL    HW222545   1.293   3.993   3.714
 7216SOL     OW22546   2.234   0.783   1.687
 7216SOL    HW122547   2.293   0.731   1.625
 7216SOL    HW222548   2.154   0.817   1.637
 7217SOL     OW22549   0.953   3.067   2.336
 7217SOL    HW122550   0.929   2.978   2.297
 7217SOL    HW222551   0.921   3.071   2.431
 7218SOL     OW22552   5.181   2.726   5.526
 7218SOL    HW122553   5.219   2.756   5.438
 7218SOL    HW222554   5.092   2.768   5.541
 7219SOL     OW22555   3.792   1.206   2.124
 7219SOL    HW122556   3.881   1.191   2.082
 7219SOL    HW222557   3.752   1.291   2.091
 7220SOL     OW22558   6.674   1.167   3.090
 7220SOL    HW122559   6.749   1.150   3.154
 7220SOL    HW222560   6.638   1.080   3.058
 7221SOL     OW22561   5.873   5.873   5.990
 7221SOL    HW122562   5.942   5.865   5.918
 7221SOL    HW222563   5.894   5.808   6.063
 7222SOL     OW22564   0.323   5.985   1.992
 7222SOL    HW122565   0.268   6.059   1.955
 7222SOL    HW222566   0.289   5.958   2.082
 7223SOL     OW22567   3.187   1.120   5.473
 7223SOL    HW122568   3.132   1.183   5.418
 7223SOL    HW222569   3.251   1.071   5.413
 7224SOL     OW22570   4.771   0.153   4.511
 7224SOL    HW122571   4.858   0.111   4.487
 7224SOL    HW222572   4.785   0.221   4.583
 7225SOL     OW22573   2.508   6.371   6.991
 7225SOL    HW122574   2.553   6.449   0.013
 7225SOL    HW222575   2.472   6.309   0.039
 7226SOL     OW22576   6.642   7.006   0.917
 7226SOL    HW122577   6.570   6.979   0.853
 7226SOL    HW222578   6.691   6.925   0.949
 7227SOL     OW22579   6.049   2.321   6.507
 7227SOL    HW122580   6.034   2.248   6.441
 7227SOL    HW222581   6.119   2.383   6.473
 7228SOL     OW22582   1.206   0.851   3.334
 7228SOL    HW122583   1.180   0.771   3.280
 7228SOL    HW222584   1.247   0.920   3.275
 7229SOL     OW22585   0.645   0.582   3.715
 7229SOL    HW122586   0.582   0.511   3.748
 7229SOL    HW222587   0.719   0.539   3.663
 7230SOL     OW22588   5.582   3.902   2.842
 7230SOL    HW122589   5.484   3.880   2.847
 7230SOL    HW222590   5.616   3.883   2.751
 7231SOL     OW22591   5.170   1.147   6.581
 7231SOL    HW122592   5.196   1.132   6.485
 7231SOL    HW222593   5.139   1.061   6.621
 7232SOL     OW22594   3.414   4.479   1.464
 7232SOL    HW122595   3.333   4.517   1.510
 7232SOL    HW222596   3.486   4.463   1.531
 7233SOL     OW22597   6.598   2.118   6.229
 7233SOL    HW122598   6.635   2.139   6.139
 7233SOL    HW222599   6.653   2.162   6.299
 7234SOL     OW22600   6.077   1.846   2.453
 7234SOL    HW122601   6.159   1.859   2.509
 7234SOL    HW222602   6.103   1.843   2.357
 7235SOL     OW22603   5.802   3.486   5.020
 7235SOL    HW122604   5.796   3.571   4.968
 7235SOL    HW222605   5.894   3.476   5.058
 7236SOL     OW22606   3.254   0.607   3.116
 7236SOL    HW122607   3.260   0.697   3.158
 7236SOL    HW222608   3.267   0.615   3.017
 7237SOL     OW22609   6.237   5.848   5.829
 7237SOL    HW122610   6.297   5.771   5.808
 7237SOL    HW222611   6.145   5.828   5.796
 7238SOL     OW22612   1.308   1.049   1.213
 7238SOL    HW122613   1.310   1.106   1.295
 7238SOL    HW222614   1.346   1.101   1.136
 7239SOL     OW22615   3.909   1.429   1.851
 7239SOL    HW122616   3.970   1.426   1.772
 7239SOL    HW222617   3.873   1.522   1.861
 7240SOL     OW22618   3.026   4.544   0.527
 7240SOL    HW122619   2.993   4.481   0.456
 7240SOL    HW222620   3.113   4.584   0.498
 7241SOL     OW22621   3.276   0.381   5.084
 7241SOL    HW122622   3.252   0.359   5.179
 7241SOL    HW222623   3.374   0.399   5.078
 7242SOL     OW22624   4.513   4.414   6.930
 7242SOL    HW122625   4.416   4.416   6.957
 7242SOL    HW222626   4.528   4.482   6.858
 7243SOL     OW22627   0.166   5.679   6.980
 7243SOL    HW122628   0.123   5.620   0.026
 7243SOL    HW222629   0.182   5.769   7.020
 7244SOL     OW22630   5.789   1.348   0.960
 7244SOL    HW122631   5.691   1.345   0.978
 7244SOL    HW222632   5.809   1.294   0.878
 7245SOL     OW22633   0.210   2.080   3.748
 7245SOL    HW122634   0.140   2.134   3.794
 7245SOL    HW222635   0.219   1.991   3.793
 7246SOL     OW22636   0.566   5.912   5.757
 7246SOL    HW122637   0.499   5.838   5.763
 7246SOL    HW222638   0.525   5.997   5.789
 7247SOL     OW22639   3.441   5.341   2.867
 7247SOL    HW122640   3.493   5.357   2.951
 7247SOL    HW222641   3.390   5.255   2.876
 7248SOL     OW22642   3.070   0.905   4.581
 7248SOL    HW122643   3.144   0.946   4.634
 7248SOL    HW222644   3.049   0.815   4.618
 7249SOL     OW22645   6.036   5.615   7.017
 7249SOL    HW122646   6.108   5.634   0.062
 7249SOL    HW222647   6.071   5.555   6.946
 7250SOL     OW22648   2.949   4.294   6.369
 7250SOL    HW122649   3.036   4.264   6.329
 7250SOL    HW222650   2.879   4.297   6.297
 7251SOL     OW22651   5.364   0.470   5.164
 7251SOL    HW122652   5.343   0.568   5.161
 7251SOL    HW222653   5.429   0.452   5.238
 7252SOL     OW22654   3.978   3.808   5.101
 7252SOL    HW122655   4.002   3.903   5.119
 7252SOL    HW222656   4.016   3.780   5.012
 7253SOL     OW22657   5.290   5.677   0.969
 7253SOL    HW122658   5.354   5.636   0.904
 7253SOL    HW222659   5.238   5.750   0.924
 7254SOL     OW22660   4.736   6.497   5.403
 7254SOL    HW122661   4.661   6.562   5.417
 7254SOL    HW222662   4.787   6.487   5.488
 7255SOL     OW22663   3.725   3.729   2.298
 7255SOL    HW122664   3.738   3.826   2.321
 7255SOL    HW222665   3.733   3.674   2.381
 7256SOL     OW22666   4.945   4.876   4.227
 7256SOL    HW122667   4.963   4.974   4.217
 7256SOL    HW222668   4.847   4.858   4.218
 7257SOL     OW22669   5.890   4.198   3.509
 7257SOL    HW122670   5.817   4.146   3.464
 7257SOL    HW222671   5.907   4.282   3.457
 7258SOL     OW22672   3.726   0.106   4.914
 7258SOL    HW122673   3.764   0.016   4.932
 7258SOL    HW222674   3.629   0.098   4.890
 7259SOL     OW22675   2.217   5.602   5.956
 7259SOL    HW122676   2.160   5.563   5.884
 7259SOL    HW222677   2.278   5.671   5.916
 7260SOL     OW22678   3.736   1.934   1.975
 7260SOL    HW122679   3.774   1.962   1.887
 7260SOL    HW222680   3.703   2.014   2.025
 7261SOL     OW22681   1.499   3.721   1.655
 7261SOL    HW122682   1.436   3.775   1.712
 7261SOL    HW222683   1.452   3.640   1.622
 7262SOL     OW22684   6.371   2.161   5.089
 7262SOL    HW122685   6.290   2.188   5.036
 7262SOL    HW222686   6.439   2.234   5.085
 7263SOL     OW22687   3.976   6.605   1.909
 7263SOL    HW122688   3.905   6.653   1.857
 7263SOL    HW222689   3.992   6.515   1.869
 7264SOL     OW22690   1.062   6.806   5.080
 7264SOL    HW122691   1.014   6.748   5.147
 7264SOL    HW222692   1.156   6.821   5.110
 7265SOL     OW22693   4.187   4.079   5.961
 7265SOL    HW122694   4.152   4.051   6.050
 7265SOL    HW222695   4.150   4.169   5.938
 7266SOL     OW22696   5.519   1.636   1.645
 7266SOL    HW122697   5.511   1.690   1.562
 7266SOL    HW222698   5.435   1.643   1.699
 7267SOL     OW22699   0.166   3.459   4.465
 7267SOL    HW122700   0.118   3.528   4.518
 7267SOL    HW222701   0.194   3.497   4.377
 7268SOL     OW22702   3.191   6.752   1.358
 7268SOL    HW122703   3.282   6.791   1.373
 7268SOL    HW222704   3.190   6.657   1.386
 7269SOL     OW22705   1.593   6.989   1.801
 7269SOL    HW122706   1.608   0.065   1.815
 7269SOL    HW222707   1.558   6.973   1.708
 7270SOL     OW22708   3.260   1.246   2.241
 7270SOL    HW122709   3.334   1.301   2.204
 7270SOL    HW222710   3.285   1.149   2.234
 7271SOL     OW22711   6.376   4.374   3.986
 7271SOL    HW122712   6.384   4.289   4.038
 7271SOL    HW222713   6.453   4.434   4.008
 7272SOL     OW22714   5.742   2.071   1.246
 7272SOL    HW122715   5.723   2.169   1.251
 7272SOL    HW222716   5.661   2.023   1.212
 7273SOL     OW22717   6.026   5.796   6.415
 7273SOL    HW122718   6.036   5.896   6.406
 7273SOL    HW222719   6.014   5.772   6.511
 7274SOL     OW22720   0.113   4.222   5.022
 7274SOL    HW122721   0.131   4.266   5.110
 7274SOL    HW222722   0.043   4.152   5.034
 7275SOL     OW22723   5.917   0.029   1.330
 7275SOL    HW122724   5.913   0.126   1.307
 7275SOL    HW222725   5.962   0.018   1.418
 7276SOL     OW22726   2.711   2.162   4.080
 7276SOL    HW122727   2.620   2.200   4.095
 7276SOL    HW222728   2.720   2.131   3.985
 7277SOL     OW22729   5.222   1.847   4.547
 7277SOL    HW122730   5.146   1.903   4.581
 7277SOL    HW222731   5.187   1.757   4.522
 7278SOL     OW22732   2.416   1.547   3.403
 7278SOL    HW122733   2.474   1.492   3.342
 7278SOL    HW222734   2.455   1.547   3.495
 7279SOL     OW22735   4.377   4.605   1.139
 7279SOL    HW122736   4.419   4.546   1.070
 7279SOL    HW222737   4.448   4.657   1.187
 7280SOL     OW22738   6.275   2.070   5.499
 7280SOL    HW122739   6.330   2.010   5.440
 7280SOL    HW222740   6.323   2.085   5.586
 7281SOL     OW22741   3.861   5.556   1.639
 7281SOL    HW122742   3.954   5.522   1.630
 7281SOL    HW222743   3.799   5.480   1.658
 7282SOL     OW22744   6.427   3.796   2.263
 7282SOL    HW122745   6.351   3.810   2.326
 7282SOL    HW222746   6.489   3.727   2.300
 7283SOL     OW22747   4.736   4.807   2.800
 7283SOL    HW122748   4.774   4.889   2.757
 7283SOL    HW222749   4.784   4.790   2.886
 7284SOL     OW22750   0.085   1.729   2.388
 7284SOL    HW122751   0.035   1.643   2.376
 7284SOL    HW222752   0.024   1.797   2.428
 7285SOL     OW22753   4.923   3.155   1.745
 7285SOL    HW122754   4.935   3.223   1.818
 7285SOL    HW222755   4.869   3.078   1.780
 7286SOL     OW22756   6.593   1.775   3.485
 7286SOL    HW122757   6.598   1.692   3.540
 7286SOL    HW222758   6.686   1.811   3.471
 7287SOL     OW22759   2.737   1.541   2.926
 7287SOL    HW122760   2.829   1.542   2.966
 7287SOL    HW222761   2.704   1.635   2.916
 7288SOL     OW22762   2.492   1.562   2.112
 7288SOL    HW122763   2.588   1.572   2.140
 7288SOL    HW222764   2.432   1.594   2.185
 7289SOL     OW22765   6.963   1.755   1.257
 7289SOL    HW122766   0.015   1.801   1.306
 7289SOL    HW222767   6.889   1.820   1.238
 7290SOL     OW22768   3.925   1.117   4.549
 7290SOL    HW122769   3.959   1.211   4.551
 7290SOL    HW222770   3.999   1.054   4.573
 7291SOL     OW22771   2.519   1.135   0.909
 7291SOL    HW122772   2.551   1.230   0.911
 7291SOL    HW222773   2.589   1.076   0.948
 7292SOL     OW22774   2.941   0.351   2.584
 7292SOL    HW122775   2.893   0.397   2.510
 7292SOL    HW222776   2.884   0.350   2.666
 7293SOL     OW22777   6.993   1.807   4.020
 7293SOL    HW122778   7.013   1.723   4.069
 7293SOL    HW222779   6.900   1.837   4.042
 7294SOL     OW22780   3.450   6.011   2.013
 7294SOL    HW122781   3.479   6.054   2.099
 7294SOL    HW222782   3.465   6.075   1.938
 7295SOL     OW22783   5.694   4.286   0.817
 7295SOL    HW122784   5.769   4.226   0.790
 7295SOL    HW222785   5.649   4.248   0.898
 7296SOL     OW22786   4.659   4.998   2.009
 7296SOL    HW122787   4.681   4.926   1.942
 7296SOL    HW222788   4.620   5.077   1.962
 7297SOL     OW22789   4.343   0.012   1.370
 7297SOL    HW122790   4.374   0.106   1.355
 7297SOL    HW222791   4.423   6.975   1.384
 7298SOL     OW22792   4.076   4.927   0.364
 7298SOL    HW122793   4.138   5.005   0.365
 7298SOL    HW222794   4.068   4.891   0.272
 7299SOL     OW22795   1.257   3.055   6.401
 7299SOL    HW122796   1.277   3.101   6.488
 7299SOL    HW222797   1.238   2.958   6.418
 7300SOL     OW22798   0.322   5.167   2.008
 7300SOL    HW122799   0.297   5.236   2.076
 7300SOL    HW222800   0.403   5.197   1.958
 7301SOL     OW22801   4.358   2.075   6.278
 7301SOL    HW122802   4.285   2.139   6.301
 7301SOL    HW222803   4.339   2.033   6.190
 7302SOL     OW22804   5.780   2.020   6.101
 7302SOL    HW122805   5.782   2.120   6.091
 7302SOL    HW222806   5.724   1.995   6.180
 7303SOL     OW22807   2.671   1.862   2.127
 7303SOL    HW122808   2.676   1.962   2.121
 7303SOL    HW222809   2.666   1.823   2.035
 7304SOL     OW22810   2.562   5.754   0.815
 7304SOL    HW122811   2.515   5.749   0.727
 7304SOL    HW222812   2.637   5.819   0.809
 7305SOL     OW22813   6.223   1.141   0.315
 7305SOL    HW122814   6.283   1.133   0.394
 7305SOL    HW222815   6.236   1.230   0.271
 7306SOL     OW22816   0.970   2.918   1.729
 7306SOL    HW122817   0.940   2.957   1.816
 7306SOL    HW222818   1.069   2.913   1.727
 7307SOL     OW22819   1.762   0.326   0.615
 7307SOL    HW122820   1.698   0.275   0.672
 7307SOL    HW222821   1.854   0.321   0.655
 7308SOL     OW22822   4.400   1.329   2.810
 7308SOL    HW122823   4.399   1.368   2.902
 7308SOL    HW222824   4.318   1.358   2.761
 7309SOL     OW22825   2.537   5.246   3.785
 7309SOL    HW122826   2.587   5.161   3.770
 7309SOL    HW222827   2.502   5.248   3.878
 7310SOL     OW22828   2.564   2.827   6.090
 7310SOL    HW122829   2.622   2.777   6.025
 7310SOL    HW222830   2.621   2.867   6.161
 7311SOL     OW22831   0.169   6.002   6.189
 7311SOL    HW122832   0.156   6.048   6.277
 7311SOL    HW222833   0.161   6.068   6.115
 7312SOL     OW22834   6.521   2.128   4.027
 7312SOL    HW122835   6.614   2.101   4.002
 7312SOL    HW222836   6.510   2.121   4.127
 7313SOL     OW22837   2.706   0.650   2.703
 7313SOL    HW122838   2.638   0.652   2.630
 7313SOL    HW222839   2.776   0.719   2.685
 7314SOL     OW22840   1.111   4.609   5.550
 7314SOL    HW122841   1.181   4.678   5.569
 7314SOL    HW222842   1.057   4.593   5.633
 7315SOL     OW22843   1.738   4.786   2.712
 7315SOL    HW122844   1.735   4.693   2.677
 7315SOL    HW222845   1.647   4.827   2.707
 7316SOL     OW22846   3.725   1.828   1.231
 7316SOL    HW122847   3.770   1.896   1.289
 7316SOL    HW222848   3.757   1.736   1.256
 7317SOL     OW22849   3.930   1.990   0.278
 7317SOL    HW122850   3.935   1.960   0.374
 7317SOL    HW222851   3.985   1.928   0.222
 7318SOL     OW22852   5.535   6.422   0.653
 7318SOL    HW122853   5.506   6.327   0.638
 7318SOL    HW222854   5.506   6.452   0.744
 7319SOL     OW22855   5.439   5.976   6.441
 7319SOL    HW122856   5.425   6.016   6.350
 7319SOL    HW222857   5.499   6.035   6.495
 7320SOL     OW22858   0.781   2.457   0.883
 7320SOL    HW122859   0.753   2.517   0.808
 7320SOL    HW222860   0.705   2.448   0.948
 7321SOL     OW22861   1.547   1.437   6.539
 7321SOL    HW122862   1.633   1.465   6.495
 7321SOL    HW222863   1.507   1.516   6.585
 7322SOL     OW22864   1.010   3.268   3.382
 7322SOL    HW122865   1.088   3.316   3.342
 7322SOL    HW222866   1.043   3.184   3.426
 7323SOL     OW22867   0.741   2.581   0.629
 7323SOL    HW122868   0.772   2.517   0.559
 7323SOL    HW222869   0.707   2.664   0.586
 7324SOL     OW22870   5.443   4.106   3.794
 7324SOL    HW122871   5.346   4.126   3.790
 7324SOL    HW222872   5.470   4.094   3.890
 7325SOL     OW22873   4.339   1.233   5.824
 7325SOL    HW122874   4.331   1.157   5.888
 7325SOL    HW222875   4.248   1.254   5.786
 7326SOL     OW22876   3.802   0.949   0.655
 7326SOL    HW122877   3.802   1.039   0.700
 7326SOL    HW222878   3.730   0.892   0.695
 7327SOL     OW22879   1.711   4.280   3.085
 7327SOL    HW122880   1.627   4.228   3.069
 7327SOL    HW222881   1.741   4.322   3.000
 7328SOL     OW22882   4.706   4.911   5.009
 7328SOL    HW122883   4.784   4.899   4.948
 7328SOL    HW222884   4.626   4.865   4.972
 7329SOL     OW22885   3.273   3.377   1.398
 7329SOL    HW122886   3.289   3.392   1.300
 7329SOL    HW222887   3.194   3.318   1.410
 7330SOL     OW22888   2.765   3.209   1.776
 7330SOL    HW122889   2.672   3.172   1.781
 7330SOL    HW222890   2.769   3.278   1.704
 7331SOL     OW22891   5.127   2.847   2.282
 7331SOL    HW122892   5.032   2.852   2.313
 7331SOL    HW222893   5.182   2.914   2.331
 7332SOL     OW22894   3.100   6.384   6.028
 7332SOL    HW122895   3.005   6.387   6.061
 7332SOL    HW222896   3.115   6.460   5.964
 7333SOL     OW22897   0.590   0.901   1.125
 7333SOL    HW122898   0.651   0.840   1.175
 7333SOL    HW222899   0.560   0.975   1.186
 7334SOL     OW22900   2.667   6.266   4.061
 7334SOL    HW122901   2.571   6.293   4.048
 7334SOL    HW222902   2.688   6.190   3.998
 7335SOL     OW22903   0.031   4.055   2.069
 7335SOL    HW122904   0.110   3.999   2.044
 7335SOL    HW222905   7.010   4.018   2.151
 7336SOL     OW22906   2.318   6.362   2.308
 7336SOL    HW122907   2.349   6.350   2.214
 7336SOL    HW222908   2.223   6.332   2.316
 7337SOL     OW22909   2.586   1.371   3.127
 7337SOL    HW122910   2.550   1.278   3.131
 7337SOL    HW222911   2.594   1.400   3.031
 7338SOL     OW22912   5.162   3.749   1.074
 7338SOL    HW122913   5.160   3.817   1.000
 7338SOL    HW222914   5.102   3.778   1.148
 7339SOL     OW22915   6.944   6.303   4.624
 7339SOL    HW122916   0.011   6.286   4.580
 7339SOL    HW222917   6.958   6.360   4.705
 7340SOL     OW22918   3.088   6.990   0.583
 7340SOL    HW122919   3.055   0.041   0.523
 7340SOL    HW222920   3.165   6.944   0.541
 7341SOL     OW22921   6.812   5.302   4.622
 7341SOL    HW122922   6.717   5.291   4.651
 7341SOL    HW222923   6.817   5.298   4.522
 7342SOL     OW22924   1.402   4.964   0.874
 7342SOL    HW122925   1.474   4.969   0.944
 7342SOL    HW222926   1.339   4.890   0.896
 7343SOL     OW22927   5.135   2.906   2.657
 7343SOL    HW122928   5.128   2.807   2.667
 7343SOL    HW222929   5.114   2.950   2.745
 7344SOL     OW22930   2.464   1.067   0.127
 7344SOL    HW122931   2.435   1.105   0.039
 7344SOL    HW222932   2.546   1.114   0.158
 7345SOL     OW22933   3.510   5.267   0.487
 7345SOL    HW122934   3.545   5.288   0.396
 7345SOL    HW222935   3.581   5.287   0.555
 7346SOL     OW22936   3.793   4.726   1.686
 7346SOL    HW122937   3.718   4.676   1.730
 7346SOL    HW222938   3.877   4.716   1.739
 7347SOL     OW22939   6.778   2.955   2.606
 7347SOL    HW122940   6.795   2.980   2.701
 7347SOL    HW222941   6.686   2.985   2.580
 7348SOL     OW22942   0.763   1.963   5.101
 7348SOL    HW122943   0.787   1.994   5.009
 7348SOL    HW222944   0.838   1.984   5.163
 7349SOL     OW22945   3.531   1.192   0.547
 7349SOL    HW122946   3.509   1.097   0.525
 7349SOL    HW222947   3.629   1.208   0.535
 7350SOL     OW22948   2.119   1.164   2.835
 7350SOL    HW122949   2.086   1.210   2.918
 7350SOL    HW222950   2.118   1.229   2.759
 7351SOL     OW22951   4.258   4.420   0.012
 7351SOL    HW122952   4.185   4.471   6.988
 7351SOL    HW222953   4.218   4.357   0.078
 7352SOL     OW22954   6.770   1.202   3.549
 7352SOL    HW122955   6.674   1.177   3.546
 7352SOL    HW222956   6.825   1.125   3.582
 7353SOL     OW22957   4.844   2.199   4.946
 7353SOL    HW122958   4.876   2.116   4.992
 7353SOL    HW222959   4.868   2.194   4.849
 7354SOL     OW22960   6.385   4.294   5.162
 7354SOL    HW122961   6.390   4.311   5.261
 7354SOL    HW222962   6.455   4.347   5.115
 7355SOL     OW22963   1.030   4.349   1.974
 7355SOL    HW122964   0.951   4.381   1.922
 7355SOL    HW222965   1.114   4.380   1.929
 7356SOL     OW22966   6.183   0.934   5.390
 7356SOL    HW122967   6.137   0.948   5.478
 7356SOL    HW222968   6.242   0.853   5.395
 7357SOL     OW22969   6.721   1.540   0.681
 7357SOL    HW122970   6.791   1.612   0.683
 7357SOL    HW222971   6.765   1.450   0.685
 7358SOL     OW22972   2.974   0.606   3.983
 7358SOL    HW122973   3.009   0.598   4.076
 7358SOL    HW222974   2.901   0.538   3.969
 7359SOL     OW22975   3.524   3.163   3.045
 7359SOL    HW122976   3.597   3.231   3.043
 7359SOL    HW222977   3.560   3.076   3.078
 7360SOL     OW22978   0.362   3.029   5.517
 7360SOL    HW122979   0.303   3.095   5.562
 7360SOL    HW222980   0.447   3.019   5.570
 7361SOL     OW22981   5.131   6.996   2.104
 7361SOL    HW122982   5.100   6.961   2.016
 7361SOL    HW222983   5.110   0.072   2.110
 7362SOL     OW22984   1.852   6.823   6.021
 7362SOL    HW122985   1.809   6.914   6.025
 7362SOL    HW222986   1.787   6.757   5.983
 7363SOL     OW22987   5.232   2.679   6.049
 7363SOL    HW122988   5.173   2.599   6.062
 7363SOL    HW222989   5.176   2.762   6.044
 7364SOL     OW22990   5.540   0.768   1.793
 7364SOL    HW122991   5.520   0.790   1.698
 7364SOL    HW222992   5.553   0.669   1.803
 7365SOL     OW22993   3.354   1.000   2.187
 7365SOL    HW122994   3.444   1.003   2.143
 7365SOL    HW222995   3.307   0.915   2.162
 7366SOL     OW22996   0.865   5.417   0.245
 7366SOL    HW122997   0.821   5.380   0.163
 7366SOL    HW222998   0.964   5.402   0.239
 7367SOL     OW22999   5.274   3.331   6.835
 7367SOL    HW123000   5.325   3.246   6.853
 7367SOL    HW223001   5.218   3.353   6.915
 7368SOL     OW23002   3.322   3.479   3.808
 7368SOL    HW123003   3.239   3.533   3.827
 7368SOL    HW223004   3.365   3.452   3.894
 7369SOL     OW23005   4.705   2.532   6.590
 7369SOL    HW123006   4.666   2.566   6.504
 7369SOL    HW223007   4.688   2.433   6.597
 7370SOL     OW23008   1.718   6.576   1.174
 7370SOL    HW123009   1.743   6.482   1.150
 7370SOL    HW223010   1.623   6.578   1.204
 7371SOL     OW23011   2.446   4.886   4.585
 7371SOL    HW123012   2.468   4.790   4.596
 7371SOL    HW223013   2.469   4.936   4.669
 7372SOL     OW23014   3.409   6.768   5.932
 7372SOL    HW123015   3.361   6.714   6.001
 7372SOL    HW223016   3.508   6.755   5.943
 7373SOL     OW23017   3.982   0.754   1.671
 7373SOL    HW123018   4.080   0.738   1.657
 7373SOL    HW223019   3.959   0.847   1.645
 7374SOL     OW23020   1.842   3.433   6.265
 7374SOL    HW123021   1.877   3.340   6.249
 7374SOL    HW223022   1.910   3.500   6.235
 7375SOL     OW23023   1.291   0.005   2.957
 7375SOL    HW123024   1.330   6.944   2.915
 7375SOL    HW223025   1.241   7.002   3.039
 7376SOL     OW23026   2.680   3.776   5.870
 7376SOL    HW123027   2.635   3.762   5.782
 7376SOL    HW223028   2.777   3.794   5.856
 7377SOL     OW23029   4.785   4.821   1.576
 7377SOL    HW123030   4.758   4.790   1.667
 7377SOL    HW223031   4.830   4.747   1.526
 7378SOL     OW23032   6.508   2.362   5.978
 7378SOL    HW123033   6.424   2.310   5.961
 7378SOL    HW223034   6.584   2.298   5.992
 7379SOL     OW23035   4.046   1.252   1.332
 7379SOL    HW123036   4.099   1.335   1.350
 7379SOL    HW223037   3.969   1.273   1.273
 7380SOL     OW23038   7.000   2.793   4.980
 7380SOL    HW123039   0.033   2.876   4.972
 7380SOL    HW223040   6.975   2.761   4.888
 7381SOL     OW23041   5.466   2.520   0.333
 7381SOL    HW123042   5.499   2.607   0.297
 7381SOL    HW223043   5.513   2.444   0.287
 7382SOL     OW23044   6.725   5.933   3.767
 7382SOL    HW123045   6.810   5.910   3.718
 7382SOL    HW223046   6.673   5.849   3.784
 7383SOL     OW23047   6.741   6.180   3.883
 7383SOL    HW123048   6.829   6.177   3.930
 7383SOL    HW223049   6.722   6.091   3.841
 7384SOL     OW23050   5.705   1.210   1.838
 7384SOL    HW123051   5.685   1.293   1.889
 7384SOL    HW223052   5.798   1.180   1.858
 7385SOL     OW23053   4.726   0.201   1.698
 7385SOL    HW123054   4.775   0.133   1.643
 7385SOL    HW223055   4.791   0.250   1.755
 7386SOL     OW23056   0.176   2.738   5.767
 7386SOL    HW123057   0.193   2.803   5.841
 7386SOL    HW223058   0.127   2.782   5.693
 7387SOL     OW23059   3.787   5.606   3.454
 7387SOL    HW123060   3.768   5.511   3.427
 7387SOL    HW223061   3.763   5.668   3.379
 7388SOL     OW23062   6.474   4.635   4.709
 7388SOL    HW123063   6.429   4.716   4.670
 7388SOL    HW223064   6.541   4.664   4.778
 7389SOL     OW23065   0.822   3.994   5.610
 7389SOL    HW123066   0.831   4.036   5.520
 7389SOL    HW223067   0.808   3.895   5.600
 7390SOL     OW23068   2.088   6.560   5.550
 7390SOL    HW123069   2.131   6.622   5.484
 7390SOL    HW223070   2.082   6.468   5.510
 7391SOL     OW23071   6.884   3.296   0.183
 7391SOL    HW123072   6.923   3.259   0.099
 7391SOL    HW223073   6.924   3.250   0.262
 7392SOL     OW23074   2.574   5.023   3.263
 7392SOL    HW123075   2.538   4.931   3.275
 7392SOL    HW223076   2.571   5.048   3.167
 7393SOL     OW23077   0.658   3.714   1.294
 7393SOL    HW123078   0.643   3.636   1.234
 7393SOL    HW223079   0.630   3.690   1.387
 7394SOL     OW23080   2.796   3.529   6.500
 7394SOL    HW123081   2.719   3.507   6.560
 7394SOL    HW223082   2.851   3.447   6.484
 7395SOL     OW23083   1.380   6.465   0.318
 7395SOL    HW123084   1.297   6.425   0.355
 7395SOL    HW223085   1.446   6.481   0.392
 7396SOL     OW23086   1.124   0.126   0.698
 7396SOL    HW123087   1.121   0.098   0.602
 7396SOL    HW223088   1.159   0.220   0.704
 7397SOL     OW23089   6.634   4.730   4.909
 7397SOL    HW123090   6.724   4.686   4.906
 7397SOL    HW223091   6.612   4.752   5.004
 7398SOL     OW23092   3.890   5.806   3.623
 7398SOL    HW123093   3.880   5.761   3.534
 7398SOL    HW223094   3.983   5.792   3.657
 7399SOL     OW23095   4.996   4.041   5.056
 7399SOL    HW123096   4.929   4.014   4.987
 7399SOL    HW223097   5.087   4.047   5.015
 7400SOL     OW23098   2.496   5.190   6.764
 7400SOL    HW123099   2.480   5.095   6.737
 7400SOL    HW223100   2.552   5.191   6.848
 7401SOL     OW23101   5.911   1.389   4.250
 7401SOL    HW123102   5.975   1.454   4.208
 7401SOL    HW223103   5.840   1.439   4.300
 7402SOL     OW23104   1.948   6.872   3.647
 7402SOL    HW123105   2.022   6.811   3.616
 7402SOL    HW223106   1.988   6.955   3.686
 7403SOL     OW23107   1.925   3.527   1.496
 7403SOL    HW123108   1.912   3.430   1.475
 7403SOL    HW223109   1.935   3.579   1.411
 7404SOL     OW23110   1.368   1.380   2.804
 7404SOL    HW123111   1.379   1.350   2.899
 7404SOL    HW223112   1.422   1.322   2.744
 7405SOL     OW23113   2.627   4.739   5.983
 7405SOL    HW123114   2.679   4.660   5.950
 7405SOL    HW223115   2.607   4.728   6.080
 7406SOL     OW23116   0.609   5.439   1.756
 7406SOL    HW123117   0.688   5.409   1.703
 7406SOL    HW223118   0.552   5.359   1.779
 7407SOL     OW23119   1.701   0.453   6.230
 7407SOL    HW123120   1.612   0.417   6.201
 7407SOL    HW223121   1.736   0.397   6.305
 7408SOL     OW23122   1.123   3.318   5.477
 7408SOL    HW123123   1.207   3.370   5.465
 7408SOL    HW223124   1.044   3.378   5.460
 7409SOL     OW23125   2.822   5.739   5.967
 7409SOL    HW123126   2.920   5.752   5.957
 7409SOL    HW223127   2.774   5.816   5.927
 7410SOL     OW23128   5.799   5.436   0.712
 7410SOL    HW123129   5.727   5.381   0.754
 7410SOL    HW223130   5.868   5.375   0.672
 7411SOL     OW23131   4.565   6.018   5.337
 7411SOL    HW123132   4.508   5.968   5.272
 7411SOL    HW223133   4.594   6.105   5.296
 7412SOL     OW23134   1.330   2.241   7.011
 7412SOL    HW123135   1.409   2.297   0.013
 7412SOL    HW223136   1.346   2.197   6.922
 7413SOL     OW23137   6.872   3.205   4.173
 7413SOL    HW123138   6.925   3.289   4.181
 7413SOL    HW223139   6.774   3.226   4.173
 7414SOL     OW23140   6.752   5.759   3.066
 7414SOL    HW123141   6.676   5.813   3.103
 7414SOL    HW223142   6.792   5.807   2.988
 7415SOL     OW23143   2.302   1.632   2.584
 7415SOL    HW123144   2.365   1.555   2.575
 7415SOL    HW223145   2.331   1.691   2.659
 7416SOL     OW23146   4.950   6.402   4.064
 7416SOL    HW123147   5.035   6.452   4.052
 7416SOL    HW223148   4.917   6.414   4.158
 7417SOL     OW23149   0.526   6.187   0.468
 7417SOL    HW123150   0.459   6.258   0.491
 7417SOL    HW223151   0.532   6.121   0.543
 7418SOL     OW23152   1.434   3.585   0.514
 7418SOL    HW123153   1.413   3.577   0.611
 7418SOL    HW223154   1.529   3.614   0.502
 7419SOL     OW23155   5.836   1.214   4.679
 7419SOL    HW123156   5.904   1.178   4.744
 7419SOL    HW223157   5.746   1.212   4.721
 7420SOL     OW23158   0.150   5.391   2.109
 7420SOL    HW123159   0.064   5.409   2.061
 7420SOL    HW223160   0.159   5.454   2.186
 7421SOL     OW23161   4.128   2.980   1.431
 7421SOL    HW123162   4.211   3.024   1.398
 7421SOL    HW223163   4.147   2.931   1.516
 7422SOL     OW23164   0.677   2.941   0.846
 7422SOL    HW123165   0.611   2.867   0.861
 7422SOL    HW223166   0.739   2.916   0.771
 7423SOL     OW23167   2.016   6.018   6.883
 7423SOL    HW123168   1.999   5.960   6.803
 7423SOL    HW223169   2.079   6.091   6.858
 7424SOL     OW23170   6.251   1.397   4.398
 7424SOL    HW123171   6.190   1.346   4.459
 7424SOL    HW223172   6.227   1.378   4.303
 7425SOL     OW23173   4.026   6.373   6.013
 7425SOL    HW123174   3.996   6.308   5.944
 7425SOL    HW223175   4.055   6.325   6.095
 7426SOL     OW23176   0.979   1.041   6.701
 7426SOL    HW123177   0.975   1.112   6.772
 7426SOL    HW223178   0.998   0.952   6.744
 7427SOL     OW23179   4.351   5.750   4.298
 7427SOL    HW123180   4.278   5.787   4.355
 7427SOL    HW223181   4.440   5.781   4.332
 7428SOL     OW23182   2.980   2.080   6.251
 7428SOL    HW123183   3.073   2.083   6.215
 7428SOL    HW223184   2.948   2.173   6.267
 7429SOL     OW23185   6.036   6.816   3.572
 7429SOL    HW123186   6.113   6.876   3.552
 7429SOL    HW223187   6.005   6.831   3.666
 7430SOL     OW23188   0.708   4.130   5.133
 7430SOL    HW123189   0.770   4.147   5.057
 7430SOL    HW223190   0.628   4.190   5.125
 7431SOL     OW23191   0.781   4.412   2.340
 7431SOL    HW123192   0.807   4.325   2.381
 7431SOL    HW223193   0.758   4.398   2.243
 7432SOL     OW23194   0.818   6.104   4.980
 7432SOL    HW123195   0.897   6.044   4.966
 7432SOL    HW223196   0.734   6.050   4.969
 7433SOL     OW23197   6.639   5.624   0.929
 7433SOL    HW123198   6.609   5.686   1.003
 7433SOL    HW223199   6.738   5.631   0.919
 7434SOL     OW23200   4.746   0.362   6.422
 7434SOL    HW123201   4.844   0.350   6.433
 7434SOL    HW223202   4.708   0.283   6.373
 7435SOL     OW23203   1.511   5.844   0.445
 7435SOL    HW123204   1.568   5.874   0.368
 7435SOL    HW223205   1.566   5.790   0.508
 7436SOL     OW23206   5.230   2.675   6.763
 7436SOL    HW123207   5.155   2.714   6.816
 7436SOL    HW223208   5.195   2.639   6.676
 7437SOL     OW23209   0.271   5.817   5.789
 7437SOL    HW123210   0.259   5.724   5.822
 7437SOL    HW223211   0.224   5.880   5.851
 7438SOL     OW23212   6.399   4.162   2.017
 7438SOL    HW123213   6.345   4.246   2.013
 7438SOL    HW223214   6.439   4.144   1.927
 7439SOL     OW23215   1.269   6.545   3.856
 7439SOL    HW123216   1.322   6.605   3.916
 7439SOL    HW223217   1.310   6.454   3.855
 7440SOL     OW23218   0.742   2.206   4.143
 7440SOL    HW123219   0.824   2.156   4.115
 7440SOL    HW223220   0.696   2.157   4.217
 7441SOL     OW23221   4.918   0.110   4.247
 7441SOL    HW123222   4.939   0.051   4.326
 7441SOL    HW223223   4.972   0.193   4.252
 7442SOL     OW23224   1.739   1.143   6.940
 7442SOL    HW123225   1.834   1.162   6.914
 7442SOL    HW223226   1.679   1.169   6.865
 7443SOL     OW23227   6.843   1.174   1.186
 7443SOL    HW123228   6.906   1.149   1.259
 7443SOL    HW223229   6.795   1.258   1.211
 7444SOL     OW23230   0.107   2.500   6.308
 7444SOL    HW123231   0.124   2.547   6.221
 7444SOL    HW223232   0.080   2.405   6.289
 7445SOL     OW23233   5.584   2.590   2.463
 7445SOL    HW123234   5.574   2.686   2.490
 7445SOL    HW223235   5.496   2.543   2.472
 7446SOL     OW23236   6.955   3.377   1.160
 7446SOL    HW123237   6.932   3.355   1.065
 7446SOL    HW223238   0.013   3.323   1.188
 7447SOL     OW23239   0.637   4.201   6.140
 7447SOL    HW123240   0.681   4.273   6.192
 7447SOL    HW223241   0.655   4.215   6.042
 7448SOL     OW23242   6.992   6.460   5.843
 7448SOL    HW123243   6.993   6.543   5.788
 7448SOL    HW223244   6.902   6.447   5.884
 7449SOL     OW23245   5.006   1.387   2.239
 7449SOL    HW123246   5.035   1.352   2.329
 7449SOL    HW223247   4.924   1.444   2.251
 7450SOL     OW23248   3.488   0.439   2.633
 7450SOL    HW123249   3.477   0.527   2.587
 7450SOL    HW223250   3.400   0.392   2.635
 7451SOL     OW23251   1.725   0.985   3.528
 7451SOL    HW123252   1.780   0.902   3.540
 7451SOL    HW223253   1.741   1.047   3.605
 7452SOL     OW23254   1.271   6.749   5.251
 7452SOL    HW123255   1.286   6.831   5.307
 7452SOL    HW223256   1.334   6.677   5.281
 7453SOL     OW23257   5.478   6.149   5.047
 7453SOL    HW123258   5.380   6.164   5.063
 7453SOL    HW223259   5.508   6.210   4.974
 7454SOL     OW23260   0.384   3.539   0.519
 7454SOL    HW123261   0.459   3.476   0.501
 7454SOL    HW223262   0.302   3.487   0.545
 7455SOL     OW23263   5.490   1.923   0.187
 7455SOL    HW123264   5.522   1.967   0.270
 7455SOL    HW223265   5.391   1.933   0.180
 7456SOL     OW23266   2.004   3.465   5.454
 7456SOL    HW123267   2.018   3.548   5.509
 7456SOL    HW223268   2.073   3.397   5.477
 7457SOL     OW23269   5.902   0.302   6.081
 7457SOL    HW123270   5.960   0.344   6.152
 7457SOL    HW223271   5.930   0.208   6.067
 7458SOL     OW23272   2.494   0.854   0.278
 7458SOL    HW123273   2.495   0.771   0.222
 7458SOL    HW223274   2.476   0.933   0.219
 7459SOL     OW23275   4.678   0.656   4.551
 7459SOL    HW123276   4.593   0.650   4.499
 7459SOL    HW223277   4.751   0.694   4.493
 7460SOL     OW23278   0.875   4.956   0.079
 7460SOL    HW123279   0.965   4.981   0.113
 7460SOL    HW223280   0.808   5.023   0.109
 7461SOL     OW23281   4.704   0.557   3.827
 7461SOL    HW123282   4.727   0.522   3.918
 7461SOL    HW223283   4.787   0.581   3.778
 7462SOL     OW23284   1.813   1.283   2.301
 7462SOL    HW123285   1.734   1.335   2.333
 7462SOL    HW223286   1.807   1.273   2.201
 7463SOL     OW23287   3.395   3.820   2.450
 7463SOL    HW123288   3.452   3.887   2.497
 7463SOL    HW223289   3.301   3.852   2.447
 7464SOL     OW23290   5.260   6.009   6.674
 7464SOL    HW123291   5.208   6.013   6.759
 7464SOL    HW223292   5.334   5.943   6.684
 7465SOL     OW23293   3.210   0.543   1.672
 7465SOL    HW123294   3.171   0.578   1.757
 7465SOL    HW223295   3.145   0.482   1.627
 7466SOL     OW23296   1.053   0.615   6.395
 7466SOL    HW123297   1.103   0.538   6.354
 7466SOL    HW223298   1.117   0.674   6.443
 7467SOL     OW23299   6.574   1.701   1.254
 7467SOL    HW123300   6.559   1.695   1.353
 7467SOL    HW223301   6.620   1.787   1.233
 7468SOL     OW23302   6.392   3.564   3.540
 7468SOL    HW123303   6.476   3.523   3.575
 7468SOL    HW223304   6.373   3.528   3.449
 7469SOL     OW23305   0.184   1.254   1.814
 7469SOL    HW123306   0.210   1.275   1.908
 7469SOL    HW223307   0.091   1.286   1.798
 7470SOL     OW23308   0.097   2.778   2.342
 7470SOL    HW123309   0.078   2.724   2.260
 7470SOL    HW223310   0.018   2.777   2.402
 7471SOL     OW23311   6.381   5.948   6.084
 7471SOL    HW123312   6.313   5.894   6.033
 7471SOL    HW223313   6.443   5.886   6.132
 7472SOL     OW23314   3.230   5.776   3.129
 7472SOL    HW123315   3.144   5.772   3.079
 7472SOL    HW223316   3.243   5.867   3.167
 7473SOL     OW23317   0.339   3.605   5.053
 7473SOL    HW123318   0.312   3.561   5.138
 7473SOL    HW223319   0.408   3.550   5.006
 7474SOL     OW23320   4.017   0.920   2.723
 7474SOL    HW123321   3.990   0.874   2.807
 7474SOL    HW223322   4.117   0.926   2.719
 7475SOL     OW23323   4.075   1.771   0.147
 7475SOL    HW123324   4.006   1.713   0.190
 7475SOL    HW223325   4.118   1.722   0.071
 7476SOL     OW23326   3.457   0.208   4.766
 7476SOL    HW123327   3.458   0.115   4.728
 7476SOL    HW223328   3.364   0.230   4.796
 7477SOL     OW23329   4.826   2.267   3.465
 7477SOL    HW123330   4.902   2.332   3.460
 7477SOL    HW223331   4.744   2.309   3.427
 7478SOL     OW23332   2.154   5.149   1.134
 7478SOL    HW123333   2.178   5.096   1.053
 7478SOL    HW223334   2.144   5.245   1.109
 7479SOL     OW23335   4.674   0.456   6.663
 7479SOL    HW123336   4.669   0.379   6.726
 7479SOL    HW223337   4.699   0.422   6.572
 7480SOL     OW23338   0.083   4.812   0.926
 7480SOL    HW123339   0.165   4.779   0.879
 7480SOL    HW223340   0.032   4.872   0.864
 7481SOL     OW23341   6.159   5.438   0.830
 7481SOL    HW123342   6.229   5.472   0.893
 7481SOL    HW223343   6.080   5.406   0.881
 7482SOL     OW23344   4.919   0.650   4.333
 7482SOL    HW123345   5.012   0.644   4.298
 7482SOL    HW223346   4.882   0.741   4.314
 7483SOL     OW23347   3.365   0.786   6.032
 7483SOL    HW123348   3.351   0.884   6.016
 7483SOL    HW223349   3.303   0.755   6.104
 7484SOL     OW23350   2.172   6.852   2.177
 7484SOL    HW123351   2.200   6.923   2.113
 7484SOL    HW223352   2.231   6.853   2.258
 7485SOL     OW23353   1.681   6.403   6.460
 7485SOL    HW123354   1.748   6.415   6.387
 7485SOL    HW223355   1.618   6.329   6.436
 7486SOL     OW23356   1.900   0.103   5.604
 7486SOL    HW123357   1.931   0.198   5.604
 7486SOL    HW223358   1.952   0.051   5.673
 7487SOL     OW23359   4.024   5.518   3.537
 7487SOL    HW123360   4.085   5.576   3.590
 7487SOL    HW223361   3.942   5.569   3.513
 7488SOL     OW23362   3.693   1.308   6.041
 7488SOL    HW123363   3.789   1.291   6.065
 7488SOL    HW223364   3.635   1.249   6.098
 7489SOL     OW23365   6.113   3.668   3.253
 7489SOL    HW123366   6.069   3.739   3.198
 7489SOL    HW223367   6.198   3.639   3.209
 7490SOL     OW23368   5.781   1.705   1.721
 7490SOL    HW123369   5.693   1.659   1.713
 7490SOL    HW223370   5.778   1.792   1.671
 7491SOL     OW23371   6.536   5.577   6.287
 7491SOL    HW123372   6.525   5.626   6.373
 7491SOL    HW223373   6.465   5.507   6.279
 7492SOL     OW23374   2.325   2.860   4.517
 7492SOL    HW123375   2.337   2.788   4.586
 7492SOL    HW223376   2.349   2.824   4.427
 7493SOL     OW23377   5.355   3.593   7.008
 7493SOL    HW123378   5.355   3.682   0.031
 7493SOL    HW223379   5.446   3.552   7.016
 7494SOL     OW23380   5.251   1.679   1.448
 7494SOL    HW123381   5.311   1.657   1.371
 7494SOL    HW223382   5.206   1.767   1.432
 7495SOL     OW23383   0.707   1.959   2.174
 7495SOL    HW123384   0.617   1.918   2.183
 7495SOL    HW223385   0.711   2.043   2.229
 7496SOL     OW23386   1.024   4.649   5.295
 7496SOL    HW123387   0.968   4.589   5.238
 7496SOL    HW223388   1.059   4.599   5.373
 7497SOL     OW23389   2.305   4.807   1.653
 7497SOL    HW123390   2.363   4.804   1.734
 7497SOL    HW223391   2.238   4.733   1.657
 7498SOL     OW23392   4.143   1.646   4.338
 7498SOL    HW123393   4.223   1.682   4.290
 7498SOL    HW223394   4.064   1.645   4.277
 7499SOL     OW23395   5.384   5.488   4.158
 7499SOL    HW123396   5.461   5.431   4.129
 7499SOL    HW223397   5.418   5.572   4.200
 7500SOL     OW23398   5.245   4.377   1.389
 7500SOL    HW123399   5.205   4.360   1.479
 7500SOL    HW223400   5.181   4.347   1.318
 7501SOL     OW23401   0.141   4.489   3.863
 7501SOL    HW123402   0.104   4.473   3.771
 7501SOL    HW223403   0.179   4.403   3.898
 7502SOL     OW23404   1.930   1.331   4.639
 7502SOL    HW123405   1.972   1.376   4.718
 7502SOL    HW223406   1.863   1.392   4.598
 7503SOL     OW23407   2.189   2.475   5.817
 7503SOL    HW123408   2.244   2.425   5.884
 7503SOL    HW223409   2.199   2.573   5.831
 7504SOL     OW23410   4.162   5.739   3.715
 7504SOL    HW123411   4.236   5.690   3.761
 7504SOL    HW223412   4.166   5.836   3.740
 7505SOL     OW23413   1.295   1.651   4.647
 7505SOL    HW123414   1.273   1.749   4.655
 7505SOL    HW223415   1.216   1.597   4.676
 7506SOL     OW23416   3.662   1.483   3.466
 7506SOL    HW123417   3.590   1.466   3.533
 7506SOL    HW223418   3.684   1.397   3.420
 7507SOL     OW23419   1.124   5.965   6.173
 7507SOL    HW123420   1.133   6.060   6.204
 7507SOL    HW223421   1.114   5.963   6.074
 7508SOL     OW23422   4.919   0.276   3.511
 7508SOL    HW123423   4.993   0.209   3.518
 7508SOL    HW223424   4.952   0.365   3.544
 7509SOL     OW23425   4.652   3.763   5.699
 7509SOL    HW123426   4.666   3.766   5.798
 7509SOL    HW223427   4.574   3.822   5.675
 7510SOL     OW23428   3.754   4.201   5.197
 7510SOL    HW123429   3.782   4.288   5.158
 7510SOL    HW223430   3.687   4.158   5.137
 7511SOL     OW23431   1.248   0.627   2.513
 7511SOL    HW123432   1.341   0.662   2.530
 7511SOL    HW223433   1.219   0.656   2.422
 7512SOL     OW23434   1.866   2.778   2.145
 7512SOL    HW123435   1.939   2.844   2.162
 7512SOL    HW223436   1.846   2.774   2.048
 7513SOL     OW23437   1.126   2.784   6.451
 7513SOL    HW123438   1.051   2.771   6.386
 7513SOL    HW223439   1.091   2.818   6.538
 7514SOL     OW23440   2.612   5.763   3.121
 7514SOL    HW123441   2.685   5.695   3.126
 7514SOL    HW223442   2.600   5.792   3.026
 7515SOL     OW23443   6.312   5.624   2.515
 7515SOL    HW123444   6.217   5.591   2.511
 7515SOL    HW223445   6.313   5.717   2.553
 7516SOL     OW23446   0.521   1.057   2.824
 7516SOL    HW123447   0.428   1.078   2.795
 7516SOL    HW223448   0.549   1.121   2.895
 7517SOL     OW23449   0.453   3.941   1.582
 7517SOL    HW123450   0.488   3.945   1.675
 7517SOL    HW223451   0.474   4.027   1.535
 7518SOL     OW23452   4.988   5.556   3.990
 7518SOL    HW123453   5.005   5.485   3.922
 7518SOL    HW223454   4.934   5.518   4.065
 7519SOL     OW23455   2.294   5.822   4.059
 7519SOL    HW123456   2.362   5.814   4.132
 7519SOL    HW223457   2.302   5.744   3.997
 7520SOL     OW23458   2.180   6.825   4.592
 7520SOL    HW123459   2.103   6.873   4.550
 7520SOL    HW223460   2.254   6.817   4.525
 7521SOL     OW23461   4.817   4.421   5.837
 7521SOL    HW123462   4.877   4.425   5.757
 7521SOL    HW223463   4.859   4.469   5.913
 7522SOL     OW23464   1.701   0.709   1.642
 7522SOL    HW123465   1.628   0.655   1.684
 7522SOL    HW223466   1.721   0.788   1.699
 7523SOL     OW23467   6.023   6.511   6.761
 7523SOL    HW123468   5.951   6.564   6.716
 7523SOL    HW223469   6.112   6.542   6.729
 7524SOL     OW23470   6.983   1.379   4.821
 7524SOL    HW123471   0.038   1.354   4.762
 7524SOL    HW223472   7.013   1.445   4.890
 7525SOL     OW23473   1.790   6.956   0.864
 7525SOL    HW123474   1.794   0.014   0.924
 7525SOL    HW223475   1.718   6.894   0.897
 7526SOL     OW23476   3.675   3.270   5.161
 7526SOL    HW123477   3.672   3.173   5.189
 7526SOL    HW223478   3.690   3.276   5.062
 7527SOL     OW23479   5.492   4.871   3.003
 7527SOL    HW123480   5.551   4.805   3.050
 7527SOL    HW223481   5.436   4.919   3.071
 7528SOL     OW23482   6.927   3.545   6.453
 7528SOL    HW123483   6.972   3.556   6.541
 7528SOL    HW223484   6.875   3.628   6.432
 7529SOL     OW23485   3.088   1.428   5.860
 7529SOL    HW123486   2.999   1.436   5.904
 7529SOL    HW223487   3.119   1.332   5.863
 7530SOL     OW23488   0.372   3.298   2.525
 7530SOL    HW123489   0.273   3.284   2.531
 7530SOL    HW223490   0.405   3.344   2.608
 7531SOL     OW23491   3.759   1.921   3.598
 7531SOL    HW123492   3.686   1.954   3.538
 7531SOL    HW223493   3.798   1.999   3.649
 7532SOL     OW23494   5.052   4.854   2.582
 7532SOL    HW123495   5.147   4.880   2.566
 7532SOL    HW223496   5.016   4.809   2.500
 7533SOL     OW23497   3.899   0.363   4.373
 7533SOL    HW123498   3.823   0.329   4.430
 7533SOL    HW223499   3.925   0.454   4.405
 7534SOL     OW23500   5.162   6.796   4.778
 7534SOL    HW123501   5.106   6.750   4.847
 7534SOL    HW223502   5.115   6.792   4.690
 7535SOL     OW23503   3.203   3.514   6.366
 7535SOL    HW123504   3.146   3.548   6.440
 7535SOL    HW223505   3.193   3.415   6.360
 7536SOL     OW23506   3.308   6.474   4.309
 7536SOL    HW123507   3.271   6.507   4.223
 7536SOL    HW223508   3.248   6.404   4.348
 7537SOL     OW23509   2.329   4.824   5.683
 7537SOL    HW123510   2.243   4.773   5.686
 7537SOL    HW223511   2.358   4.847   5.776
 7538SOL     OW23512   3.064   3.076   2.349
 7538SOL    HW123513   3.136   3.143   2.365
 7538SOL    HW223514   3.089   2.988   2.392
 7539SOL     OW23515   1.859   2.984   4.740
 7539SOL    HW123516   1.927   2.914   4.765
 7539SOL    HW223517   1.881   3.070   4.786
 7540SOL     OW23518   2.330   1.655   0.417
 7540SOL    HW123519   2.319   1.557   0.405
 7540SOL    HW223520   2.427   1.677   0.427
 7541SOL     OW23521   6.564   2.654   6.016
 7541SOL    HW123522   6.530   2.560   6.013
 7541SOL    HW223523   6.557   2.689   6.109
 7542SOL     OW23524   1.661   6.897   6.838
 7542SOL    HW123525   1.707   6.985   6.835
 7542SOL    HW223526   1.625   6.874   6.748
 7543SOL     OW23527   3.704   3.190   0.108
 7543SOL    HW123528   3.750   3.115   0.061
 7543SOL    HW223529   3.768   3.266   0.119
 7544SOL     OW23530   2.312   2.364   2.413
 7544SOL    HW123531   2.262   2.336   2.331
 7544SOL    HW223532   2.250   2.413   2.475
 7545SOL     OW23533   4.989   6.376   4.378
 7545SOL    HW123534   5.025   6.285   4.357
 7545SOL    HW223535   5.059   6.428   4.427
 7546SOL     OW23536   4.959   0.578   6.702
 7546SOL    HW123537   4.873   0.538   6.671
 7546SOL    HW223538   4.994   0.526   6.779
 7547SOL     OW23539   3.482   0.132   0.264
 7547SOL    HW123540   3.460   0.098   0.172
 7547SOL    HW223541   3.444   0.224   0.274
 7548SOL     OW23542   1.535   2.660   1.190
 7548SOL    HW123543   1.464   2.625   1.251
 7548SOL    HW223544   1.596   2.720   1.242
 7549SOL     OW23545   6.217   2.203   2.420
 7549SOL    HW123546   6.246   2.123   2.472
 7549SOL    HW223547   6.177   2.270   2.483
 7550SOL     OW23548   1.994   5.624   1.144
 7550SOL    HW123549   2.021   5.625   1.048
 7550SOL    HW223550   1.930   5.699   1.161
 7551SOL     OW23551   5.163   3.693   6.250
 7551SOL    HW123552   5.066   3.697   6.274
 7551SOL    HW223553   5.218   3.726   6.327
 7552SOL     OW23554   3.606   5.129   4.055
 7552SOL    HW123555   3.597   5.203   4.121
 7552SOL    HW223556   3.622   5.167   3.964
 7553SOL     OW23557   4.159   4.905   5.909
 7553SOL    HW123558   4.236   4.847   5.883
 7553SOL    HW223559   4.142   4.972   5.837
 7554SOL     OW23560   6.302   1.061   1.054
 7554SOL    HW123561   6.261   1.152   1.046
 7554SOL    HW223562   6.387   1.067   1.107
 7555SOL     OW23563   1.189   5.735   5.110
 7555SOL    HW123564   1.183   5.803   5.183
 7555SOL    HW223565   1.151   5.648   5.143
 7556SOL     OW23566   0.286   3.096   4.785
 7556SOL    HW123567   0.240   3.183   4.801
 7556SOL    HW223568   0.302   3.084   4.687
 7557SOL     OW23569   4.607   3.547   6.991
 7557SOL    HW123570   4.674   3.620   7.006
 7557SOL    HW223571   4.653   3.458   6.994
 7558SOL     OW23572   1.397   3.271   3.594
 7558SOL    HW123573   1.483   3.321   3.598
 7558SOL    HW223574   1.416   3.173   3.596
 7559SOL     OW23575   0.626   4.240   1.204
 7559SOL    HW123576   0.593   4.146   1.209
 7559SOL    HW223577   0.711   4.243   1.152
 7560SOL     OW23578   4.331   6.721   6.713
 7560SOL    HW123579   4.343   6.631   6.670
 7560SOL    HW223580   4.296   6.709   6.806
 7561SOL     OW23581   0.382   2.836   0.922
 7561SOL    HW123582   0.302   2.784   0.893
 7561SOL    HW223583   0.359   2.933   0.929
 7562SOL     OW23584   4.978   5.605   5.191
 7562SOL    HW123585   4.970   5.576   5.095
 7562SOL    HW223586   4.912   5.677   5.209
 7563SOL     OW23587   2.062   0.874   2.553
 7563SOL    HW123588   2.062   0.928   2.469
 7563SOL    HW223589   2.155   0.865   2.587
 7564SOL     OW23590   4.907   5.890   3.946
 7564SOL    HW123591   4.853   5.972   3.962
 7564SOL    HW223592   4.966   5.872   4.025
 7565SOL     OW23593   4.949   4.736   0.854
 7565SOL    HW123594   4.930   4.817   0.798
 7565SOL    HW223595   4.897   4.658   0.818
 7566SOL     OW23596   1.447   6.201   4.816
 7566SOL    HW123597   1.541   6.228   4.833
 7566SOL    HW223598   1.440   6.159   4.726
 7567SOL     OW23599   3.102   3.719   0.273
 7567SOL    HW123600   3.032   3.716   0.202
 7567SOL    HW223601   3.067   3.770   0.352
 7568SOL     OW23602   4.884   4.484   3.097
 7568SOL    HW123603   4.934   4.446   3.176
 7568SOL    HW223604   4.801   4.430   3.082
 7569SOL     OW23605   4.365   0.132   0.683
 7569SOL    HW123606   4.270   0.159   0.670
 7569SOL    HW223607   4.377   0.037   0.655
 7570SOL     OW23608   6.694   4.935   4.437
 7570SOL    HW123609   6.630   4.865   4.405
 7570SOL    HW223610   6.732   4.908   4.525
 7571SOL     OW23611   5.333   4.185   2.139
 7571SOL    HW123612   5.325   4.087   2.156
 7571SOL    HW223613   5.429   4.212   2.141
 7572SOL     OW23614   2.459   1.689   4.671
 7572SOL    HW123615   2.424   1.596   4.686
 7572SOL    HW223616   2.440   1.745   4.752
 7573SOL     OW23617   2.177   5.964   4.791
 7573SOL    HW123618   2.129   6.049   4.769
 7573SOL    HW223619   2.212   5.969   4.885
 7574SOL     OW23620   5.290   6.542   2.490
 7574SOL    HW123621   5.349   6.596   2.431
 7574SOL    HW223622   5.271   6.454   2.447
 7575SOL     OW23623   4.188   2.244   4.831
 7575SOL    HW123624   4.197   2.304   4.910
 7575SOL    HW223625   4.179   2.149   4.862
 7576SOL     OW23626   6.117   2.959   0.929
 7576SOL    HW123627   6.126   3.015   0.847
 7576SOL    HW223628   6.026   2.972   0.969
 7577SOL     OW23629   4.664   0.655   5.195
 7577SOL    HW123630   4.570   0.662   5.228
 7577SOL    HW223631   4.727   0.653   5.273
 7578SOL     OW23632   2.535   4.753   4.265
 7578SOL    HW123633   2.520   4.733   4.362
 7578SOL    HW223634   2.447   4.771   4.221
 7579SOL     OW23635   3.719   1.485   2.853
 7579SOL    HW123636   3.676   1.398   2.832
 7579SOL    HW223637   3.654   1.544   2.902
 7580SOL     OW23638   1.727   3.904   3.263
 7580SOL    HW123639   1.818   3.939   3.284
 7580SOL    HW223640   1.660   3.944   3.326
 7581SOL     OW23641   6.076   0.478   0.892
 7581SOL    HW123642   6.174   0.488   0.906
 7581SOL    HW223643   6.029   0.556   0.934
 7582SOL     OW23644   2.692   0.906   0.992
 7582SOL    HW123645   2.626   0.907   1.067
 7582SOL    HW223646   2.782   0.934   1.025
 7583SOL     OW23647   0.044   3.559   2.494
 7583SOL    HW123648   0.054   3.554   2.593
 7583SOL    HW223649   0.062   3.469   2.454
 7584SOL     OW23650   2.405   0.642   1.515
 7584SOL    HW123651   2.484   0.683   1.469
 7584SOL    HW223652   2.343   0.604   1.446
 7585SOL     OW23653   1.790   4.992   5.917
 7585SOL    HW123654   1.844   4.908   5.916
 7585SOL    HW223655   1.744   5.002   6.006
 7586SOL     OW23656   2.604   0.908   2.243
 7586SOL    HW123657   2.595   1.007   2.234
 7586SOL    HW223658   2.532   0.873   2.302
 7587SOL     OW23659   1.612   1.381   6.117
 7587SOL    HW123660   1.670   1.310   6.076
 7587SOL    HW223661   1.600   1.456   6.053
 7588SOL     OW23662   0.069   4.489   1.472
 7588SOL    HW123663   0.167   4.508   1.478
 7588SOL    HW223664   0.053   4.414   1.408
 7589SOL     OW23665   5.804   6.066   0.508
 7589SOL    HW123666   5.832   6.159   0.485
 7589SOL    HW223667   5.775   6.063   0.604
 7590SOL     OW23668   1.694   0.950   6.094
 7590SOL    HW123669   1.792   0.963   6.110
 7590SOL    HW223670   1.661   0.877   6.153
 7591SOL     OW23671   6.655   4.983   0.398
 7591SOL    HW123672   6.651   5.039   0.481
 7591SOL    HW223673   6.748   4.951   0.383
 7592SOL     OW23674   5.543   5.513   0.524
 7592SOL    HW123675   5.486   5.575   0.469
 7592SOL    HW223676   5.620   5.564   0.563
 7593SOL     OW23677   5.885   2.529   6.568
 7593SOL    HW123678   5.926   2.438   6.579
 7593SOL    HW223679   5.942   2.597   6.613
 7594SOL     OW23680   1.502   5.933   4.104
 7594SOL    HW123681   1.469   5.977   4.021
 7594SOL    HW223682   1.435   5.865   4.134
 7595SOL     OW23683   6.136   2.700   0.175
 7595SOL    HW123684   6.217   2.674   0.227
 7595SOL    HW223685   6.150   2.790   0.134
 7596SOL     OW23686   5.496   4.530   1.986
 7596SOL    HW123687   5.433   4.608   1.996
 7596SOL    HW223688   5.517   4.493   2.076
 7597SOL     OW23689   3.370   5.145   1.552
 7597SOL    HW123690   3.430   5.215   1.589
 7597SOL    HW223691   3.293   5.130   1.614
 7598SOL     OW23692   6.478   1.230   3.478
 7598SOL    HW123693   6.475   1.235   3.578
 7598SOL    HW223694   6.399   1.178   3.445
 7599SOL     OW23695   6.345   2.189   2.170
 7599SOL    HW123696   6.275   2.184   2.098
 7599SOL    HW223697   6.302   2.170   2.258
 7600SOL     OW23698   1.627   1.720   1.425
 7600SOL    HW123699   1.676   1.778   1.490
 7600SOL    HW223700   1.692   1.671   1.367
 7601SOL     OW23701   2.293   6.600   4.885
 7601SOL    HW123702   2.330   6.509   4.903
 7601SOL    HW223703   2.315   6.660   4.962
 7602SOL     OW23704   1.186   3.670   4.930
 7602SOL    HW123705   1.091   3.651   4.955
 7602SOL    HW223706   1.238   3.694   5.012
 7603SOL     OW23707   0.755   6.917   1.404
 7603SOL    HW123708   0.808   6.876   1.478
 7603SOL    HW223709   0.668   6.950   1.440
 7604SOL     OW23710   4.841   6.491   5.951
 7604SOL    HW123711   4.841   6.518   5.855
 7604SOL    HW223712   4.748   6.465   5.978
 7605SOL     OW23713   6.129   4.321   6.273
 7605SOL    HW123714   6.195   4.331   6.347
 7605SOL    HW223715   6.038   4.307   6.312
 7606SOL     OW23716   5.843   1.801   2.782
 7606SOL    HW123717   5.767   1.856   2.818
 7606SOL    HW223718   5.929   1.848   2.802
 7607SOL     OW23719   4.868   6.869   6.504
 7607SOL    HW123720   4.857   6.882   6.406
 7607SOL    HW223721   4.779   6.847   6.545
 7608SOL     OW23722   3.465   3.009   3.621
 7608SOL    HW123723   3.424   3.099   3.635
 7608SOL    HW223724   3.489   2.997   3.525
 7609SOL     OW23725   1.549   3.078   4.442
 7609SOL    HW123726   1.621   3.060   4.375
 7609SOL    HW223727   1.577   3.043   4.531
 7610SOL     OW23728   5.393   0.003   1.244
 7610SOL    HW123729   5.477   6.978   1.272
 7610SOL    HW223730   5.366   6.993   1.153
 7611SOL     OW23731   1.694   1.926   1.053
 7611SOL    HW123732   1.744   1.861   1.109
 7611SOL    HW223733   1.750   1.955   0.975
 7612SOL     OW23734   4.318   1.883   2.718
 7612SOL    HW123735   4.292   1.950   2.787
 7612SOL    HW223736   4.366   1.807   2.763
 7613SOL     OW23737   4.714   1.249   2.116
 7613SOL    HW123738   4.773   1.297   2.051
 7613SOL    HW223739   4.667   1.316   2.174
 7614SOL     OW23740   4.110   2.304   0.684
 7614SOL    HW123741   4.087   2.375   0.750
 7614SOL    HW223742   4.207   2.282   0.692
 7615SOL     OW23743   3.609   5.087   5.698
 7615SOL    HW123744   3.686   5.056   5.753
 7615SOL    HW223745   3.606   5.035   5.613
 7616SOL     OW23746   6.101   4.348   3.638
 7616SOL    HW123747   6.078   4.329   3.734
 7616SOL    HW223748   6.040   4.297   3.578
 7617SOL     OW23749   3.215   5.796   2.305
 7617SOL    HW123750   3.234   5.714   2.360
 7617SOL    HW223751   3.266   5.873   2.343
 7618SOL     OW23752   1.419   2.733   0.699
 7618SOL    HW123753   1.498   2.771   0.746
 7618SOL    HW223754   1.389   2.797   0.628
 7619SOL     OW23755   5.499   3.403   5.696
 7619SOL    HW123756   5.519   3.358   5.783
 7619SOL    HW223757   5.566   3.475   5.680
 7620SOL     OW23758   3.107   6.777   1.938
 7620SOL    HW123759   3.157   6.833   2.004
 7620SOL    HW223760   3.068   6.698   1.984
 7621SOL     OW23761   2.249   1.387   2.021
 7621SOL    HW123762   2.248   1.406   2.119
 7621SOL    HW223763   2.323   1.438   1.978
 7622SOL     OW23764   4.463   2.375   0.345
 7622SOL    HW123765   4.500   2.366   0.252
 7622SOL    HW223766   4.397   2.450   0.347
 7623SOL     OW23767   4.825   0.610   5.888
 7623SOL    HW123768   4.762   0.538   5.860
 7623SOL    HW223769   4.816   0.625   5.987
 7624SOL     OW23770   0.516   0.726   3.338
 7624SOL    HW123771   0.485   0.817   3.309
 7624SOL    HW223772   0.597   0.735   3.396
 7625SOL     OW23773   4.511   0.275   1.546
 7625SOL    HW123774   4.527   0.231   1.458
 7625SOL    HW223775   4.578   0.243   1.613
 7626SOL     OW23776   1.697   5.530   4.876
 7626SOL    HW123777   1.634   5.456   4.899
 7626SOL    HW223778   1.742   5.509   4.789
 7627SOL     OW23779   0.022   2.418   0.078
 7627SOL    HW123780   0.096   2.354   0.056
 7627SOL    HW223781   0.020   2.434   0.176
 7628SOL     OW23782   3.224   1.876   1.087
 7628SOL    HW123783   3.131   1.907   1.067
 7628SOL    HW223784   3.274   1.865   1.001
 7629SOL     OW23785   6.478   5.601   3.382
 7629SOL    HW123786   6.401   5.560   3.432
 7629SOL    HW223787   6.465   5.700   3.377
 7630SOL     OW23788   6.351   0.719   2.419
 7630SOL    HW123789   6.356   0.621   2.404
 7630SOL    HW223790   6.400   0.743   2.503
 7631SOL     OW23791   0.684   2.150   3.627
 7631SOL    HW123792   0.648   2.239   3.602
 7631SOL    HW223793   0.671   2.086   3.550
 7632SOL     OW23794   4.403   1.458   0.035
 7632SOL    HW123795   4.373   1.537   0.089
 7632SOL    HW223796   4.346   1.450   6.975
 7633SOL     OW23797   5.446   4.008   6.864
 7633SOL    HW123798   5.389   3.961   6.930
 7633SOL    HW223799   5.504   3.942   6.816
 7634SOL     OW23800   1.003   1.630   2.100
 7634SOL    HW123801   1.006   1.608   2.002
 7634SOL    HW223802   1.091   1.670   2.128
 7635SOL     OW23803   2.939   4.649   5.695
 7635SOL    HW123804   3.017   4.616   5.642
 7635SOL    HW223805   2.911   4.739   5.660
 7636SOL     OW23806   1.037   0.388   4.031
 7636SOL    HW123807   0.974   0.399   4.108
 7636SOL    HW223808   1.098   0.467   4.026
 7637SOL     OW23809   1.738   5.732   4.001
 7637SOL    HW123810   1.803   5.694   3.935
 7637SOL    HW223811   1.779   5.732   4.092
 7638SOL     OW23812   5.088   5.045   2.143
 7638SOL    HW123813   5.185   5.072   2.147
 7638SOL    HW223814   5.040   5.081   2.223
 7639SOL     OW23815   0.781   1.842   4.770
 7639SOL    HW123816   0.749   1.763   4.822
 7639SOL    HW223817   0.880   1.848   4.776
 7640SOL     OW23818   2.430   2.094   6.799
 7640SOL    HW123819   2.513   2.061   6.756
 7640SOL    HW223820   2.358   2.103   6.730
 7641SOL     OW23821   6.204   3.532   2.396
 7641SOL    HW123822   6.288   3.548   2.345
 7641SOL    HW223823   6.190   3.434   2.408
 7642SOL     OW23824   2.756   1.884   2.938
 7642SOL    HW123825   2.691   1.840   3.000
 7642SOL    HW223826   2.716   1.968   2.901
 7643SOL     OW23827   5.029   3.168   3.235
 7643SOL    HW123828   5.040   3.234   3.309
 7643SOL    HW223829   5.084   3.196   3.157
 7644SOL     OW23830   0.210   3.393   3.259
 7644SOL    HW123831   0.142   3.453   3.302
 7644SOL    HW223832   0.166   3.341   3.186
 7645SOL     OW23833   4.796   3.886   6.518
 7645SOL    HW123834   4.867   3.948   6.552
 7645SOL    HW223835   4.837   3.818   6.458
 7646SOL     OW23836   1.954   1.973   2.114
 7646SOL    HW123837   1.873   1.921   2.141
 7646SOL    HW223838   2.023   1.910   2.077
 7647SOL     OW23839   2.332   4.048   1.567
 7647SOL    HW123840   2.257   4.103   1.604
 7647SOL    HW223841   2.417   4.070   1.616
 7648SOL     OW23842   4.300   0.852   3.417
 7648SOL    HW123843   4.364   0.776   3.424
 7648SOL    HW223844   4.337   0.922   3.356
 7649SOL     OW23845   3.123   0.874   1.609
 7649SOL    HW123846   3.084   0.854   1.700
 7649SOL    HW223847   3.130   0.973   1.596
 7650SOL     OW23848   6.368   4.776   2.453
 7650SOL    HW123849   6.351   4.871   2.482
 7650SOL    HW223850   6.341   4.714   2.527
 7651SOL     OW23851   3.965   1.453   6.522
 7651SOL    HW123852   3.873   1.419   6.506
 7651SOL    HW223853   3.960   1.548   6.555
 7652SOL     OW23854   1.223   3.208   2.424
 7652SOL    HW123855   1.281   3.159   2.489
 7652SOL    HW223856   1.155   3.145   2.387
 7653SOL     OW23857   3.122   2.139   1.191
 7653SOL    HW123858   3.146   2.100   1.280
 7653SOL    HW223859   3.143   2.237   1.190
 7654SOL     OW23860   5.184   4.110   3.661
 7654SOL    HW123861   5.198   4.102   3.562
 7654SOL    HW223862   5.093   4.148   3.679
 7655SOL     OW23863   4.470   6.601   5.163
 7655SOL    HW123864   4.492   6.624   5.258
 7655SOL    HW223865   4.370   6.604   5.152
 7656SOL     OW23866   0.877   6.282   4.785
 7656SOL    HW123867   0.853   6.212   4.852
 7656SOL    HW223868   0.936   6.351   4.828
 7657SOL     OW23869   3.793   1.334   3.833
 7657SOL    HW123870   3.738   1.251   3.828
 7657SOL    HW223871   3.890   1.310   3.824
 7658SOL     OW23872   3.995   0.667   6.031
 7658SOL    HW123873   3.938   0.699   5.955
 7658SOL    HW223874   4.072   0.730   6.043
 7659SOL     OW23875   5.926   0.267   0.969
 7659SOL    HW123876   5.977   0.181   0.977
 7659SOL    HW223877   5.989   0.340   0.942
 7660SOL     OW23878   6.094   4.840   4.301
 7660SOL    HW123879   6.072   4.829   4.397
 7660SOL    HW223880   6.188   4.808   4.284
 7661SOL     OW23881   5.946   3.010   3.226
 7661SOL    HW123882   6.033   2.994   3.181
 7661SOL    HW223883   5.875   3.026   3.157
 7662SOL     OW23884   0.030   5.022   2.050
 7662SOL    HW123885   0.125   5.025   2.018
 7662SOL    HW223886   6.990   5.025   1.972
 7663SOL     OW23887   6.851   5.523   0.208
 7663SOL    HW123888   6.935   5.545   0.158
 7663SOL    HW223889   6.874   5.499   0.303
 7664SOL     OW23890   2.517   5.310   4.034
 7664SOL    HW123891   2.460   5.320   4.116
 7664SOL    HW223892   2.577   5.232   4.044
 7665SOL     OW23893   2.839   6.825   5.010
 7665SOL    HW123894   2.906   6.776   5.065
 7665SOL    HW223895   2.774   6.760   4.971
 7666SOL     OW23896   0.987   0.692   1.210
 7666SOL    HW123897   1.023   0.778   1.246
 7666SOL    HW223898   1.023   0.616   1.263
 7667SOL     OW23899   4.474   5.729   6.287
 7667SOL    HW123900   4.426   5.816   6.279
 7667SOL    HW223901   4.559   5.743   6.338
 7668SOL     OW23902   3.475   3.734   1.000
 7668SOL    HW123903   3.461   3.833   0.990
 7668SOL    HW223904   3.489   3.712   1.096
 7669SOL     OW23905   4.756   6.431   4.490
 7669SOL    HW123906   4.697   6.490   4.435
 7669SOL    HW223907   4.837   6.406   4.437
 7670SOL     OW23908   1.764   4.874   0.904
 7670SOL    HW123909   1.750   4.800   0.839
 7670SOL    HW223910   1.727   4.847   0.993
 7671SOL     OW23911   6.071   2.213   4.703
 7671SOL    HW123912   6.157   2.230   4.752
 7671SOL    HW223913   6.014   2.295   4.705
 7672SOL     OW23914   5.524   0.926   2.528
 7672SOL    HW123915   5.505   0.922   2.430
 7672SOL    HW223916   5.615   0.966   2.542
 7673SOL     OW23917   0.965   4.484   1.267
 7673SOL    HW123918   0.885   4.529   1.228
 7673SOL    HW223919   0.936   4.413   1.331
 7674SOL     OW23920   5.568   1.224   4.713
 7674SOL    HW123921   5.529   1.313   4.690
 7674SOL    HW223922   5.591   1.222   4.810
 7675SOL     OW23923   4.362   6.289   3.561
 7675SOL    HW123924   4.390   6.216   3.498
 7675SOL    HW223925   4.443   6.328   3.604
 7676SOL     OW23926   1.812   0.161   1.006
 7676SOL    HW123927   1.752   0.176   0.928
 7676SOL    HW223928   1.887   0.228   1.004
 7677SOL     OW23929   2.262   2.877   2.717
 7677SOL    HW123930   2.238   2.972   2.739
 7677SOL    HW223931   2.239   2.858   2.622
 7678SOL     OW23932   5.823   6.655   0.369
 7678SOL    HW123933   5.836   6.587   0.298
 7678SOL    HW223934   5.848   6.617   0.458
 7679SOL     OW23935   1.285   4.825   5.199
 7679SOL    HW123936   1.294   4.888   5.121
 7679SOL    HW223937   1.202   4.847   5.250
 7680SOL     OW23938   4.125   2.525   0.142
 7680SOL    HW123939   4.145   2.610   0.094
 7680SOL    HW223940   4.027   2.504   0.134
 7681SOL     OW23941   3.072   1.601   6.924
 7681SOL    HW123942   2.981   1.590   6.965
 7681SOL    HW223943   3.064   1.654   6.839
 7682SOL     OW23944   3.283   0.047   1.549
 7682SOL    HW123945   3.266   0.043   1.451
 7682SOL    HW223946   3.261   6.980   1.590
 7683SOL     OW23947   5.507   1.960   3.660
 7683SOL    HW123948   5.466   2.024   3.596
 7683SOL    HW223949   5.547   1.883   3.609
 7684SOL     OW23950   4.141   2.222   6.337
 7684SOL    HW123951   4.106   2.305   6.293
 7684SOL    HW223952   4.131   2.230   6.436
 7685SOL     OW23953   3.385   2.729   1.187
 7685SOL    HW123954   3.337   2.729   1.275
 7685SOL    HW223955   3.459   2.663   1.190
 7686SOL     OW23956   3.644   0.099   3.934
 7686SOL    HW123957   3.647   0.182   3.989
 7686SOL    HW223958   3.595   0.117   3.848
 7687SOL     OW23959   5.284   5.212   5.361
 7687SOL    HW123960   5.248   5.289   5.310
 7687SOL    HW223961   5.210   5.149   5.385
 7688SOL     OW23962   0.099   6.590   4.516
 7688SOL    HW123963   0.158   6.632   4.447
 7688SOL    HW223964   0.134   6.498   4.537
 7689SOL     OW23965   4.012   6.252   4.610
 7689SOL    HW123966   4.040   6.341   4.575
 7689SOL    HW223967   4.021   6.252   4.710
 7690SOL     OW23968   0.262   5.769   3.311
 7690SOL    HW123969   0.333   5.833   3.341
 7690SOL    HW223970   0.291   5.724   3.227
 7691SOL     OW23971   4.905   3.471   4.397
 7691SOL    HW123972   4.908   3.379   4.436
 7691SOL    HW223973   4.919   3.466   4.298
 7692SOL     OW23974   2.447   6.325   2.072
 7692SOL    HW123975   2.436   6.234   2.034
 7692SOL    HW223976   2.544   6.341   2.093
 7693SOL     OW23977   5.135   1.573   6.391
 7693SOL    HW123978   5.081   1.492   6.412
 7693SOL    HW223979   5.209   1.582   6.457
 7694SOL     OW23980   0.006   5.182   4.202
 7694SOL    HW123981   6.976   5.185   4.116
 7694SOL    HW223982   0.044   5.091   4.215
 7695SOL     OW23983   3.691   0.204   0.621
 7695SOL    HW123984   3.610   0.231   0.674
 7695SOL    HW223985   3.748   0.285   0.605
 7696SOL     OW23986   0.299   3.225   5.921
 7696SOL    HW123987   0.369   3.184   5.980
 7696SOL    HW223988   0.255   3.154   5.867
 7697SOL     OW23989   3.963   1.832   2.154
 7697SOL    HW123990   3.885   1.843   2.091
 7697SOL    HW223991   3.967   1.910   2.216
 7698SOL     OW23992   6.833   3.083   5.908
 7698SOL    HW123993   6.843   2.988   5.939
 7698SOL    HW223994   6.737   3.101   5.887
 7699SOL     OW23995   2.395   4.944   6.671
 7699SOL    HW123996   2.406   4.849   6.642
 7699SOL    HW223997   2.372   4.947   6.768
 7700SOL     OW23998   4.934   6.553   4.705
 7700SOL    HW123999   4.853   6.517   4.660
 7700SOL    HW224000   4.912   6.580   4.798
 7701SOL     OW24001   6.154   2.136   4.444
 7701SOL    HW124002   6.108   2.155   4.530
 7701SOL    HW224003   6.238   2.190   4.438
 7702SOL     OW24004   2.589   6.819   5.952
 7702SOL    HW124005   2.686   6.836   5.963
 7702SOL    HW224006   2.570   6.789   5.858
 7703SOL     OW24007   0.115   1.381   6.232
 7703SOL    HW124008   0.166   1.375   6.318
 7703SOL    HW224009   0.104   1.477   6.206
 7704SOL     OW24010   4.576   4.146   0.039
 7704SOL    HW124011   4.535   4.234   0.016
 7704SOL    HW224012   4.538   4.113   0.126
 7705SOL     OW24013   3.299   4.937   4.978
 7705SOL    HW124014   3.316   4.838   4.974
 7705SOL    HW224015   3.218   4.958   4.922
 7706SOL     OW24016   6.933   1.065   4.871
 7706SOL    HW124017   6.875   1.119   4.810
 7706SOL    HW224018   7.004   1.123   4.911
 7707SOL     OW24019   0.431   4.857   5.918
 7707SOL    HW124020   0.479   4.782   5.871
 7707SOL    HW224021   0.358   4.892   5.859
 7708SOL     OW24022   4.278   6.374   4.215
 7708SOL    HW124023   4.182   6.368   4.242
 7708SOL    HW224024   4.308   6.469   4.218
 7709SOL     OW24025   4.073   2.163   2.481
 7709SOL    HW124026   4.077   2.065   2.500
 7709SOL    HW224027   4.002   2.181   2.413
 7710SOL     OW24028   2.327   1.508   6.813
 7710SOL    HW124029   2.230   1.504   6.837
 7710SOL    HW224030   2.372   1.423   6.842
 7711SOL     OW24031   5.203   6.295   5.879
 7711SOL    HW124032   5.244   6.216   5.833
 7711SOL    HW224033   5.274   6.347   5.926
 7712SOL     OW24034   5.428   5.399   1.152
 7712SOL    HW124035   5.523   5.379   1.176
 7712SOL    HW224036   5.421   5.494   1.121
 7713SOL     OW24037   1.311   4.300   6.367
 7713SOL    HW124038   1.242   4.370   6.348
 7713SOL    HW224039   1.294   4.220   6.310
 7714SOL     OW24040   5.475   4.271   4.129
 7714SOL    HW124041   5.489   4.348   4.067
 7714SOL    HW224042   5.533   4.194   4.101
 7715SOL     OW24043   4.845   1.104   1.024
 7715SOL    HW124044   4.777   1.040   1.061
 7715SOL    HW224045   4.879   1.069   0.936
 7716SOL     OW24046   4.513   1.910   3.000
 7716SOL    HW124047   4.524   1.962   2.915
 7716SOL    HW224048   4.461   1.964   3.066
 7717SOL     OW24049   3.277   1.665   5.943
 7717SOL    HW124050   3.323   1.705   5.863
 7717SOL    HW224051   3.192   1.621   5.913
 7718SOL     OW24052   3.161   6.276   4.058
 7718SOL    HW124053   3.206   6.201   4.106
 7718SOL    HW224054   3.070   6.291   4.098
 7719SOL     OW24055   6.592   1.906   4.449
 7719SOL    HW124056   6.568   1.830   4.389
 7719SOL    HW224057   6.549   1.892   4.539
 7720SOL     OW24058   5.897   5.600   1.718
 7720SOL    HW124059   5.931   5.637   1.804
 7720SOL    HW224060   5.971   5.548   1.673
 7721SOL     OW24061   1.883   4.089   2.327
 7721SOL    HW124062   1.894   4.186   2.344
 7721SOL    HW224063   1.855   4.043   2.412
 7722SOL     OW24064   0.076   5.519   4.077
 7722SOL    HW124065   0.138   5.597   4.073
 7722SOL    HW224066   0.043   5.497   3.985
 7723SOL     OW24067   6.323   3.045   0.319
 7723SOL    HW124068   6.341   3.053   0.417
 7723SOL    HW224069   6.410   3.041   0.269
 7724SOL     OW24070   1.564   4.956   1.079
 7724SOL    HW124071   1.580   5.003   1.166
 7724SOL    HW224072   1.567   4.857   1.093
 7725SOL     OW24073   4.960   3.231   4.563
 7725SOL    HW124074   4.980   3.317   4.610
 7725SOL    HW224075   4.956   3.157   4.630
 7726SOL     OW24076   0.161   4.366   3.213
 7726SOL    HW124077   0.197   4.443   3.265
 7726SOL    HW224078   0.171   4.384   3.115
 7727SOL     OW24079   6.582   2.830   2.061
 7727SOL    HW124080   6.554   2.774   1.982
 7727SOL    HW224081   6.661   2.787   2.104
 7728SOL     OW24082   2.957   2.205   2.860
 7728SOL    HW124083   2.985   2.236   2.769
 7728SOL    HW224084   3.032   2.154   2.902
 7729SOL     OW24085   5.397   2.211   0.685
 7729SOL    HW124086   5.444   2.194   0.598
 7729SOL    HW224087   5.384   2.309   0.697
 7730SOL     OW24088   5.799   0.716   2.128
 7730SOL    HW124089   5.793   0.814   2.110
 7730SOL    HW224090   5.819   0.668   2.042
 7731SOL     OW24091   5.843   1.336   6.580
 7731SOL    HW124092   5.761   1.349   6.635
 7731SOL    HW224093   5.818   1.302   6.489
 7732SOL     OW24094   4.613   5.498   0.704
 7732SOL    HW124095   4.609   5.489   0.803
 7732SOL    HW224096   4.703   5.470   0.671
 7733SOL     OW24097   3.312   0.482   2.110
 7733SOL    HW124098   3.243   0.530   2.056
 7733SOL    HW224099   3.393   0.541   2.120
 7734SOL     OW24100   2.012   1.954   3.071
 7734SOL    HW124101   1.950   1.962   2.994
 7734SOL    HW224102   2.088   1.895   3.047
 7735SOL     OW24103   4.836   4.111   6.962
 7735SOL    HW124104   4.890   4.073   0.016
 7735SOL    HW224105   4.744   4.134   6.995
 7736SOL     OW24106   6.474   4.811   6.382
 7736SOL    HW124107   6.421   4.865   6.448
 7736SOL    HW224108   6.503   4.726   6.425
 7737SOL     OW24109   4.978   1.219   0.623
 7737SOL    HW124110   4.978   1.134   0.675
 7737SOL    HW224111   4.977   1.297   0.686
 7738SOL     OW24112   2.795   5.099   6.592
 7738SOL    HW124113   2.891   5.072   6.593
 7738SOL    HW224114   2.778   5.164   6.666
 7739SOL     OW24115   6.080   3.034   1.273
 7739SOL    HW124116   6.100   3.035   1.371
 7739SOL    HW224117   5.983   3.052   1.259
 7740SOL     OW24118   0.336   6.761   3.099
 7740SOL    HW124119   0.375   6.709   3.175
 7740SOL    HW224120   0.396   6.837   3.076
 7741SOL     OW24121   2.346   5.570   4.647
 7741SOL    HW124122   2.426   5.588   4.590
 7741SOL    HW224123   2.338   5.471   4.663
 7742SOL     OW24124   6.520   1.466   4.108
 7742SOL    HW124125   6.582   1.454   4.030
 7742SOL    HW224126   6.426   1.467   4.076
 7743SOL     OW24127   4.495   2.474   3.366
 7743SOL    HW124128   4.398   2.447   3.369
 7743SOL    HW224129   4.536   2.461   3.456
 7744SOL     OW24130   6.707   0.352   4.690
 7744SOL    HW124131   6.764   0.280   4.651
 7744SOL    HW224132   6.739   0.441   4.659
 7745SOL     OW24133   4.671   3.890   5.953
 7745SOL    HW124134   4.588   3.935   5.920
 7745SOL    HW224135   4.731   3.958   5.995
 7746SOL     OW24136   1.392   0.727   0.554
 7746SOL    HW124137   1.372   0.730   0.652
 7746SOL    HW224138   1.474   0.781   0.535
 7747SOL     OW24139   5.506   6.002   1.236
 7747SOL    HW124140   5.567   6.009   1.314
 7747SOL    HW224141   5.531   5.922   1.181
 7748SOL     OW24142   3.501   4.177   6.730
 7748SOL    HW124143   3.555   4.152   6.650
 7748SOL    HW224144   3.426   4.238   6.701
 7749SOL     OW24145   5.791   3.300   5.841
 7749SOL    HW124146   5.711   3.243   5.860
 7749SOL    HW224147   5.846   3.309   5.923
 7750SOL     OW24148   5.915   4.828   2.420
 7750SOL    HW124149   5.927   4.927   2.428
 7750SOL    HW224150   5.991   4.782   2.466
 7751SOL     OW24151   0.780   2.552   2.124
 7751SOL    HW124152   0.773   2.535   2.222
 7751SOL    HW224153   0.864   2.513   2.089
 7752SOL     OW24154   4.839   2.113   3.677
 7752SOL    HW124155   4.871   2.174   3.605
 7752SOL    HW224156   4.739   2.115   3.680
 7753SOL     OW24157   3.099   1.821   4.437
 7753SOL    HW124158   3.075   1.726   4.458
 7753SOL    HW224159   3.196   1.826   4.412
 7754SOL     OW24160   4.884   6.456   2.050
 7754SOL    HW124161   4.893   6.369   2.098
 7754SOL    HW224162   4.965   6.511   2.065
 7755SOL     OW24163   0.491   4.887   5.016
 7755SOL    HW124164   0.437   4.968   4.991
 7755SOL    HW224165   0.558   4.912   5.086
 7756SOL     OW24166   2.637   5.098   2.018
 7756SOL    HW124167   2.650   5.186   1.973
 7756SOL    HW224168   2.713   5.080   2.080
 7757SOL     OW24169   7.006   4.441   2.042
 7757SOL    HW124170   6.906   4.435   2.038
 7757SOL    HW224171   0.021   4.447   1.950
 7758SOL     OW24172   1.281   1.541   5.030
 7758SOL    HW124173   1.348   1.472   5.006
 7758SOL    HW224174   1.292   1.621   4.972
 7759SOL     OW24175   2.500   2.220   0.841
 7759SOL    HW124176   2.476   2.234   0.745
 7759SOL    HW224177   2.571   2.285   0.867
 7760SOL     OW24178   4.704   2.546   0.208
 7760SOL    HW124179   4.621   2.595   0.235
 7760SOL    HW224180   4.774   2.612   0.180
 7761SOL     OW24181   4.768   5.473   4.492
 7761SOL    HW124182   4.710   5.537   4.543
 7761SOL    HW224183   4.810   5.520   4.415
 7762SOL     OW24184   6.270   1.761   2.278
 7762SOL    HW124185   6.237   1.690   2.340
 7762SOL    HW224186   6.349   1.806   2.317
 7763SOL     OW24187   2.356   0.285   4.608
 7763SOL    HW124188   2.260   0.263   4.589
 7763SOL    HW224189   2.389   0.228   4.683
 7764SOL     OW24190   2.446   4.165   6.295
 7764SOL    HW124191   2.496   4.095   6.244
 7764SOL    HW224192   2.365   4.191   6.244
 7765SOL     OW24193   5.925   3.053   5.185
 7765SOL    HW124194   5.978   2.991   5.243
 7765SOL    HW224195   5.986   3.123   5.147
 7766SOL     OW24196   5.936   3.611   6.281
 7766SOL    HW124197   6.012   3.585   6.221
 7766SOL    HW224198   5.850   3.580   6.241
 7767SOL     OW24199   3.164   0.431   3.657
 7767SOL    HW124200   3.170   0.527   3.681
 7767SOL    HW224201   3.230   0.411   3.584
 7768SOL     OW24202   4.297   5.032   3.642
 7768SOL    HW124203   4.245   5.082   3.573
 7768SOL    HW224204   4.390   5.068   3.646
 7769SOL     OW24205   3.518   3.146   5.515
 7769SOL    HW124206   3.420   3.143   5.538
 7769SOL    HW224207   3.530   3.185   5.424
 7770SOL     OW24208   1.947   3.183   4.522
 7770SOL    HW124209   1.936   3.213   4.617
 7770SOL    HW224210   1.895   3.100   4.507
 7771SOL     OW24211   2.513   2.910   6.627
 7771SOL    HW124212   2.539   2.818   6.598
 7771SOL    HW224213   2.486   2.963   6.548
 7772SOL     OW24214   5.502   0.200   1.456
 7772SOL    HW124215   5.545   0.155   1.378
 7772SOL    HW224216   5.481   0.132   1.526
 7773SOL     OW24217   3.215   6.047   6.930
 7773SOL    HW124218   3.232   6.122   6.994
 7773SOL    HW224219   3.298   5.993   6.919
 7774SOL     OW24220   5.112   1.208   2.710
 7774SOL    HW124221   5.031   1.215   2.768
 7774SOL    HW224222   5.162   1.124   2.733
 7775SOL     OW24223   2.579   1.842   1.282
 7775SOL    HW124224   2.488   1.866   1.249
 7775SOL    HW224225   2.635   1.924   1.287
 7776SOL     OW24226   1.496   1.399   4.415
 7776SOL    HW124227   1.529   1.388   4.509
 7776SOL    HW224228   1.568   1.439   4.358
 7777SOL     OW24229   6.118   5.483   4.435
 7777SOL    HW124230   6.104   5.530   4.522
 7777SOL    HW224231   6.075   5.392   4.439
 7778SOL     OW24232   6.618   4.711   3.027
 7778SOL    HW124233   6.706   4.669   3.050
 7778SOL    HW224234   6.607   4.715   2.928
 7779SOL     OW24235   4.559   6.092   1.852
 7779SOL    HW124236   4.592   6.023   1.789
 7779SOL    HW224237   4.630   6.162   1.866
 7780SOL     OW24238   5.920   6.724   4.865
 7780SOL    HW124239   5.902   6.786   4.941
 7780SOL    HW224240   5.899   6.769   4.779
 7781SOL     OW24241   1.622   2.967   0.916
 7781SOL    HW124242   1.691   2.974   0.989
 7781SOL    HW224243   1.668   2.971   0.827
 7782SOL     OW24244   5.366   2.708   4.218
 7782SOL    HW124245   5.449   2.764   4.205
 7782SOL    HW224246   5.293   2.766   4.255
 7783SOL     OW24247   1.582   6.575   4.863
 7783SOL    HW124248   1.482   6.570   4.865
 7783SOL    HW224249   1.620   6.495   4.909
 7784SOL     OW24250   1.412   1.737   1.610
 7784SOL    HW124251   1.363   1.813   1.569
 7784SOL    HW224252   1.496   1.719   1.559
 7785SOL     OW24253   0.084   6.671   3.191
 7785SOL    HW124254   0.169   6.714   3.161
 7785SOL    HW224255   0.101   6.576   3.216
 7786SOL     OW24256   3.914   1.091   4.990
 7786SOL    HW124257   4.006   1.100   4.952
 7786SOL    HW224258   3.910   1.010   5.049
 7787SOL     OW24259   2.522   2.599   1.735
 7787SOL    HW124260   2.492   2.601   1.831
 7787SOL    HW224261   2.601   2.539   1.726
 7788SOL     OW24262   6.905   4.675   1.749
 7788SOL    HW124263   6.818   4.701   1.707
 7788SOL    HW224264   6.920   4.577   1.739
 7789SOL     OW24265   3.226   1.967   5.940
 7789SOL    HW124266   3.176   1.880   5.941
 7789SOL    HW224267   3.192   2.025   5.866
 7790SOL     OW24268   4.322   4.350   1.657
 7790SOL    HW124269   4.262   4.283   1.612
 7790SOL    HW224270   4.382   4.303   1.722
 7791SOL     OW24271   2.780   5.531   2.648
 7791SOL    HW124272   2.769   5.628   2.627
 7791SOL    HW224273   2.845   5.490   2.584
 7792SOL     OW24274   0.761   1.714   2.970
 7792SOL    HW124275   0.689   1.723   3.038
 7792SOL    HW224276   0.723   1.729   2.879
 7793SOL     OW24277   5.189   0.579   0.236
 7793SOL    HW124278   5.146   0.505   0.184
 7793SOL    HW224279   5.120   0.647   0.261
 7794SOL     OW24280   0.919   6.836   3.174
 7794SOL    HW124281   0.986   6.910   3.178
 7794SOL    HW224282   0.828   6.873   3.193
 7795SOL     OW24283   2.735   5.495   0.643
 7795SOL    HW124284   2.807   5.439   0.601
 7795SOL    HW224285   2.685   5.544   0.571
 7796SOL     OW24286   3.164   3.075   0.460
 7796SOL    HW124287   3.123   2.991   0.424
 7796SOL    HW224288   3.093   3.134   0.496
 7797SOL     OW24289   0.702   6.036   3.701
 7797SOL    HW124290   0.748   6.113   3.657
 7797SOL    HW224291   0.759   6.001   3.775
 7798SOL     OW24292   1.418   3.196   0.555
 7798SOL    HW124293   1.352   3.269   0.574
 7798SOL    HW224294   1.461   3.211   0.466
 7799SOL     OW24295   2.933   5.991   3.556
 7799SOL    HW124296   2.872   6.026   3.627
 7799SOL    HW224297   2.971   5.903   3.585
 7800SOL     OW24298   0.313   6.508   2.408
 7800SOL    HW124299   0.358   6.451   2.476
 7800SOL    HW224300   0.258   6.451   2.347
 7801SOL     OW24301   1.548   1.630   2.004
 7801SOL    HW124302   1.523   1.658   2.096
 7801SOL    HW224303   1.552   1.711   1.945
 7802SOL     OW24304   6.823   4.050   4.422
 7802SOL    HW124305   6.847   4.071   4.327
 7802SOL    HW224306   6.845   4.128   4.481
 7803SOL     OW24307   2.963   2.407   5.527
 7803SOL    HW124308   3.062   2.405   5.541
 7803SOL    HW224309   2.942   2.374   5.435
 7804SOL     OW24310   3.443   1.799   5.165
 7804SOL    HW124311   3.532   1.756   5.155
 7804SOL    HW224312   3.384   1.773   5.089
 7805SOL     OW24313   5.284   3.493   0.313
 7805SOL    HW124314   5.382   3.513   0.307
 7805SOL    HW224315   5.254   3.506   0.407
 7806SOL     OW24316   6.633   1.155   5.728
 7806SOL    HW124317   6.606   1.079   5.669
 7806SOL    HW224318   6.701   1.212   5.681
 7807SOL     OW24319   1.544   4.825   6.477
 7807SOL    HW124320   1.612   4.874   6.422
 7807SOL    HW224321   1.453   4.862   6.458
 7808SOL     OW24322   6.775   3.632   3.046
 7808SOL    HW124323   6.722   3.560   3.002
 7808SOL    HW224324   6.726   3.663   3.128
 7809SOL     OW24325   4.931   5.370   2.438
 7809SOL    HW124326   4.862   5.429   2.478
 7809SOL    HW224327   4.910   5.355   2.341
 7810SOL     OW24328   3.032   6.844   6.011
 7810SOL    HW124329   2.965   6.915   5.992
 7810SOL    HW224330   3.010   6.799   6.098
 7811SOL     OW24331   1.636   6.061   3.419
 7811SOL    HW124332   1.600   6.046   3.326
 7811SOL    HW224333   1.713   6.000   3.435
 7812SOL     OW24334   3.170   1.668   6.288
 7812SOL    HW124335   3.123   1.739   6.236
 7812SOL    HW224336   3.265   1.661   6.257
 7813SOL     OW24337   5.041   0.372   0.424
 7813SOL    HW124338   5.022   0.354   0.327
 7813SOL    HW224339   5.103   0.451   0.432
 7814SOL     OW24340   6.691   3.155   2.335
 7814SOL    HW124341   6.754   3.114   2.269
 7814SOL    HW224342   6.743   3.193   2.411
 7815SOL     OW24343   6.389   4.286   5.427
 7815SOL    HW124344   6.485   4.283   5.454
 7815SOL    HW224345   6.355   4.379   5.437
 7816SOL     OW24346   0.743   1.458   5.704
 7816SOL    HW124347   0.830   1.429   5.743
 7816SOL    HW224348   0.671   1.448   5.773
 7817SOL     OW24349   3.833   2.608   6.864
 7817SOL    HW124350   3.802   2.646   6.952
 7817SOL    HW224351   3.822   2.508   6.866
 7818SOL     OW24352   5.806   0.083   4.087
 7818SOL    HW124353   5.735   0.141   4.127
 7818SOL    HW224354   5.802   0.089   3.987
 7819SOL     OW24355   1.216   3.119   4.659
 7819SOL    HW124356   1.300   3.165   4.633
 7819SOL    HW224357   1.146   3.187   4.683
 7820SOL     OW24358   0.964   6.937   5.524
 7820SOL    HW124359   0.956   0.003   5.570
 7820SOL    HW224360   0.896   6.931   5.450
 7821SOL     OW24361   4.082   6.893   0.402
 7821SOL    HW124362   3.991   6.926   0.428
 7821SOL    HW224363   4.106   6.929   0.312
 7822SOL     OW24364   0.388   1.509   4.814
 7822SOL    HW124365   0.373   1.430   4.872
 7822SOL    HW224366   0.484   1.537   4.819
 7823SOL     OW24367   2.506   3.438   5.408
 7823SOL    HW124368   2.439   3.461   5.338
 7823SOL    HW224369   2.568   3.368   5.374
 7824SOL     OW24370   5.686   3.120   3.225
 7824SOL    HW124371   5.684   3.074   3.314
 7824SOL    HW224372   5.715   3.215   3.236
 7825SOL     OW24373   3.755   3.507   2.492
 7825SOL    HW124374   3.808   3.493   2.575
 7825SOL    HW224375   3.803   3.465   2.415
 7826SOL     OW24376   6.687   7.022   1.777
 7826SOL    HW124377   6.661   6.958   1.849
 7826SOL    HW224378   6.612   0.010   1.712
 7827SOL     OW24379   4.515   3.338   0.653
 7827SOL    HW124380   4.418   3.330   0.631
 7827SOL    HW224381   4.566   3.268   0.603
 7828SOL     OW24382   0.296   5.781   0.349
 7828SOL    HW124383   0.287   5.838   0.431
 7828SOL    HW224384   0.382   5.802   0.303
 7829SOL     OW24385   4.029   3.254   2.840
 7829SOL    HW124386   4.044   3.179   2.775
 7829SOL    HW224387   4.083   3.334   2.812
 7830SOL     OW24388   6.150   2.986   0.066
 7830SOL    HW124389   6.208   3.013   7.011
 7830SOL    HW224390   6.205   2.982   0.150
 7831SOL     OW24391   1.821   2.396   6.740
 7831SOL    HW124392   1.861   2.339   6.812
 7831SOL    HW224393   1.877   2.389   6.657
 7832SOL     OW24394   2.629   2.587   5.266
 7832SOL    HW124395   2.601   2.556   5.175
 7832SOL    HW224396   2.608   2.515   5.333
 7833SOL     OW24397   1.507   6.719   0.696
 7833SOL    HW124398   1.491   6.811   0.660
 7833SOL    HW224399   1.549   6.725   0.786
 7834SOL     OW24400   0.162   0.490   1.717
 7834SOL    HW124401   0.149   0.579   1.673
 7834SOL    HW224402   0.092   0.426   1.684
 7835SOL     OW24403   2.678   2.130   4.382
 7835SOL    HW124404   2.658   2.039   4.418
 7835SOL    HW224405   2.708   2.123   4.287
 7836SOL     OW24406   1.727   0.820   6.450
 7836SOL    HW124407   1.653   0.804   6.385
 7836SOL    HW224408   1.688   0.842   6.540
 7837SOL     OW24409   5.306   6.443   3.243
 7837SOL    HW124410   5.267   6.408   3.158
 7837SOL    HW224411   5.353   6.529   3.227
 7838SOL     OW24412   3.472   6.680   3.997
 7838SOL    HW124413   3.557   6.630   4.012
 7838SOL    HW224414   3.398   6.615   3.980
 7839SOL     OW24415   0.409   4.961   4.293
 7839SOL    HW124416   0.433   4.865   4.307
 7839SOL    HW224417   0.312   4.969   4.270
 7840SOL     OW24418   5.561   3.200   5.882
 7840SOL    HW124419   5.524   3.112   5.852
 7840SOL    HW224420   5.542   3.211   5.980
 7841SOL     OW24421   1.189   1.908   6.344
 7841SOL    HW124422   1.256   1.945   6.279
 7841SOL    HW224423   1.145   1.984   6.393
 7842SOL     OW24424   2.820   1.413   2.548
 7842SOL    HW124425   2.854   1.333   2.499
 7842SOL    HW224426   2.892   1.450   2.607
 7843SOL     OW24427   6.463   3.469   0.931
 7843SOL    HW124428   6.418   3.542   0.880
 7843SOL    HW224429   6.498   3.505   1.018
 7844SOL     OW24430   3.790   1.235   4.278
 7844SOL    HW124431   3.837   1.272   4.198
 7844SOL    HW224432   3.787   1.135   4.272
 7845SOL     OW24433   0.607   0.818   4.032
 7845SOL    HW124434   0.593   0.900   3.978
 7845SOL    HW224435   0.689   0.829   4.089
 7846SOL     OW24436   3.453   6.692   2.212
 7846SOL    HW124437   3.410   6.749   2.281
 7846SOL    HW224438   3.543   6.729   2.189
 7847SOL     OW24439   6.829   0.386   0.401
 7847SOL    HW124440   6.885   0.439   0.465
 7847SOL    HW224441   6.884   0.362   0.321
 7848SOL     OW24442   4.438   4.298   0.783
 7848SOL    HW124443   4.521   4.244   0.776
 7848SOL    HW224444   4.359   4.241   0.761
 7849SOL     OW24445   5.682   4.056   5.003
 7849SOL    HW124446   5.769   4.036   5.048
 7849SOL    HW224447   5.697   4.067   4.905
 7850SOL     OW24448   0.835   0.862   4.203
 7850SOL    HW124449   0.896   0.909   4.140
 7850SOL    HW224450   0.826   0.915   4.287
 7851SOL     OW24451   4.620   6.557   0.179
 7851SOL    HW124452   4.706   6.606   0.190
 7851SOL    HW224453   4.585   6.529   0.269
 7852SOL     OW24454   1.849   6.690   6.805
 7852SOL    HW124455   1.805   6.780   6.801
 7852SOL    HW224456   1.929   6.690   6.745
 7853SOL     OW24457   2.406   2.869   0.736
 7853SOL    HW124458   2.427   2.966   0.726
 7853SOL    HW224459   2.460   2.830   0.812
 7854SOL     OW24460   3.408   4.023   2.652
 7854SOL    HW124461   3.334   4.074   2.609
 7854SOL    HW224462   3.431   4.065   2.740
 7855SOL     OW24463   3.515   0.168   5.817
 7855SOL    HW124464   3.419   0.165   5.845
 7855SOL    HW224465   3.570   0.112   5.879
 7856SOL     OW24466   4.872   3.291   6.238
 7856SOL    HW124467   4.777   3.260   6.233
 7856SOL    HW224468   4.905   3.280   6.332
 7857SOL     OW24469   0.544   1.998   4.764
 7857SOL    HW124470   0.500   1.930   4.706
 7857SOL    HW224471   0.638   1.972   4.783
 7858SOL     OW24472   5.874   4.708   3.347
 7858SOL    HW124473   5.904   4.750   3.261
 7858SOL    HW224474   5.948   4.714   3.413
 7859SOL     OW24475   0.867   5.909   6.770
 7859SOL    HW124476   0.855   5.823   6.819
 7859SOL    HW224477   0.943   5.960   6.810
 7860SOL     OW24478   3.420   0.193   1.768
 7860SOL    HW124479   3.374   0.146   1.693
 7860SOL    HW224480   3.504   0.234   1.735
 7861SOL     OW24481   5.444   4.212   0.428
 7861SOL    HW124482   5.348   4.197   0.452
 7861SOL    HW224483   5.501   4.147   0.477
 7862SOL     OW24484   3.213   4.288   1.658
 7862SOL    HW124485   3.223   4.388   1.664
 7862SOL    HW224486   3.120   4.263   1.682
 7863SOL     OW24487   6.372   5.954   2.348
 7863SOL    HW124488   6.300   5.915   2.406
 7863SOL    HW224489   6.361   6.053   2.345
 7864SOL     OW24490   0.845   5.573   4.392
 7864SOL    HW124491   0.927   5.627   4.375
 7864SOL    HW224492   0.786   5.621   4.456
 7865SOL     OW24493   3.115   0.608   1.954
 7865SOL    HW124494   3.049   0.547   1.909
 7865SOL    HW224495   3.097   0.702   1.928
 7866SOL     OW24496   2.207   2.856   4.169
 7866SOL    HW124497   2.155   2.924   4.221
 7866SOL    HW224498   2.245   2.898   4.087
 7867SOL     OW24499   5.693   4.409   2.765
 7867SOL    HW124500   5.628   4.334   2.775
 7867SOL    HW224501   5.684   4.471   2.843
 7868SOL     OW24502   5.538   6.882   0.734
 7868SOL    HW124503   5.525   6.786   0.757
 7868SOL    HW224504   5.536   6.893   0.635
 7869SOL     OW24505   0.232   2.460   3.326
 7869SOL    HW124506   0.203   2.556   3.329
 7869SOL    HW224507   0.250   2.428   3.418
 7870SOL     OW24508   0.173   6.424   3.351
 7870SOL    HW124509   0.237   6.480   3.403
 7870SOL    HW224510   0.086   6.418   3.400
 7871SOL     OW24511   5.618   3.592   3.912
 7871SOL    HW124512   5.609   3.565   3.816
 7871SOL    HW224513   5.691   3.540   3.955
 7872SOL     OW24514   6.742   3.417   3.872
 7872SOL    HW124515   6.787   3.333   3.903
 7872SOL    HW224516   6.650   3.421   3.910
 7873SOL     OW24517   6.777   5.131   4.973
 7873SOL    HW124518   6.701   5.117   4.909
 7873SOL    HW224519   6.753   5.092   5.062
 7874SOL     OW24520   6.238   0.643   0.577
 7874SOL    HW124521   6.311   0.592   0.622
 7874SOL    HW224522   6.223   0.605   0.485
 7875SOL     OW24523   4.779   3.605   6.702
 7875SOL    HW124524   4.704   3.584   6.639
 7875SOL    HW224525   4.758   3.689   6.752
 7876SOL     OW24526   6.519   0.525   4.340
 7876SOL    HW124527   6.583   0.513   4.264
 7876SOL    HW224528   6.489   0.436   4.373
 7877SOL     OW24529   6.448   2.669   2.401
 7877SOL    HW124530   6.433   2.590   2.342
 7877SOL    HW224531   6.403   2.750   2.362
 7878SOL     OW24532   4.776   4.175   1.530
 7878SOL    HW124533   4.807   4.099   1.474
 7878SOL    HW224534   4.745   4.141   1.619
 7879SOL     OW24535   5.010   0.652   5.182
 7879SOL    HW124536   4.986   0.560   5.150
 7879SOL    HW224537   5.100   0.677   5.147
 7880SOL     OW24538   0.826   6.478   5.886
 7880SOL    HW124539   0.864   6.569   5.869
 7880SOL    HW224540   0.859   6.444   5.974
 7881SOL     OW24541   0.615   5.296   4.024
 7881SOL    HW124542   0.521   5.300   4.058
 7881SOL    HW224543   0.679   5.299   4.100
 7882SOL     OW24544   0.421   4.109   2.014
 7882SOL    HW124545   0.410   4.202   1.979
 7882SOL    HW224546   0.488   4.110   2.089
 7883SOL     OW24547   3.324   1.788   3.735
 7883SOL    HW124548   3.309   1.711   3.673
 7883SOL    HW224549   3.422   1.798   3.753
 7884SOL     OW24550   0.874   3.803   4.367
 7884SOL    HW124551   0.874   3.764   4.276
 7884SOL    HW224552   0.854   3.901   4.362
 7885SOL     OW24553   5.809   5.364   3.986
 7885SOL    HW124554   5.743   5.433   4.017
 7885SOL    HW224555   5.864   5.401   3.911
 7886SOL     OW24556   4.999   3.753   3.492
 7886SOL    HW124557   5.092   3.787   3.483
 7886SOL    HW224558   4.942   3.791   3.419
 7887SOL     OW24559   2.121   3.007   1.038
 7887SOL    HW124560   2.172   2.921   1.049
 7887SOL    HW224561   2.094   3.041   1.128
 7888SOL     OW24562   5.679   1.859   4.682
 7888SOL    HW124563   5.660   1.775   4.631
 7888SOL    HW224564   5.778   1.866   4.700
 7889SOL     OW24565   5.848   4.529   6.978
 7889SOL    HW124566   5.801   4.618   6.975
 7889SOL    HW224567   5.802   4.471   0.024
 7890SOL     OW24568   1.877   3.569   4.399
 7890SOL    HW124569   1.859   3.656   4.354
 7890SOL    HW224570   1.790   3.519   4.411
 7891SOL     OW24571   6.794   1.876   4.181
 7891SOL    HW124572   6.698   1.882   4.153
 7891SOL    HW224573   6.806   1.797   4.241
 7892SOL     OW24574   0.715   1.947   5.473
 7892SOL    HW124575   0.702   1.848   5.470
 7892SOL    HW224576   0.691   1.980   5.565
 7893SOL     OW24577   5.716   6.861   0.232
 7893SOL    HW124578   5.770   6.940   0.262
 7893SOL    HW224579   5.759   6.777   0.264
 7894SOL     OW24580   3.808   1.943   6.579
 7894SOL    HW124581   3.777   2.007   6.509
 7894SOL    HW224582   3.728   1.901   6.623
 7895SOL     OW24583   5.353   6.637   2.930
 7895SOL    HW124584   5.259   6.631   2.962
 7895SOL    HW224585   5.414   6.649   3.009
 7896SOL     OW24586   2.660   2.960   1.257
 7896SOL    HW124587   2.709   3.045   1.279
 7896SOL    HW224588   2.621   2.922   1.341
 7897SOL     OW24589   3.487   3.060   1.071
 7897SOL    HW124590   3.394   3.025   1.064
 7897SOL    HW224591   3.545   3.016   1.002
 7898SOL     OW24592   5.381   6.190   3.324
 7898SOL    HW124593   5.338   6.177   3.413
 7898SOL    HW224594   5.367   6.284   3.292
 7899SOL     OW24595   6.481   4.950   3.472
 7899SOL    HW124596   6.492   4.918   3.378
 7899SOL    HW224597   6.566   4.933   3.522
 7900SOL     OW24598   0.798   4.014   1.414
 7900SOL    HW124599   0.705   4.023   1.378
 7900SOL    HW224600   0.846   3.942   1.363
 7901SOL     OW24601   6.995   0.966   6.820
 7901SOL    HW124602   6.959   1.005   6.905
 7901SOL    HW224603   0.054   1.018   6.791
 7902SOL     OW24604   1.284   6.986   2.498
 7902SOL    HW124605   1.359   7.010   2.559
 7902SOL    HW224606   1.235   6.907   2.533
 7903SOL     OW24607   2.853   2.238   4.969
 7903SOL    HW124608   2.952   2.246   4.978
 7903SOL    HW224609   2.819   2.305   4.903
 7904SOL     OW24610   4.950   1.006   2.309
 7904SOL    HW124611   4.936   0.963   2.220
 7904SOL    HW224612   5.048   1.012   2.328
 7905SOL     OW24613   5.260   1.327   1.126
 7905SOL    HW124614   5.220   1.418   1.138
 7905SOL    HW224615   5.232   1.269   1.203
 7906SOL     OW24616   1.512   5.396   0.729
 7906SOL    HW124617   1.415   5.395   0.755
 7906SOL    HW224618   1.541   5.303   0.708
 7907SOL     OW24619   6.195   6.995   3.010
 7907SOL    HW124620   6.151   6.954   3.090
 7907SOL    HW224621   6.129   6.999   2.935
 7908SOL     OW24622   0.769   0.269   6.172
 7908SOL    HW124623   0.682   0.226   6.198
 7908SOL    HW224624   0.835   0.198   6.148
 7909SOL     OW24625   5.964   4.238   2.074
 7909SOL    HW124626   5.943   4.281   2.161
 7909SOL    HW224627   5.939   4.141   2.077
 7910SOL     OW24628   0.912   4.054   6.842
 7910SOL    HW124629   0.931   4.003   6.758
 7910SOL    HW224630   0.988   4.116   6.861
 7911SOL     OW24631   0.322   4.229   6.747
 7911SOL    HW124632   0.263   4.161   6.789
 7911SOL    HW224633   0.339   4.203   6.651
 7912SOL     OW24634   6.192   4.914   0.813
 7912SOL    HW124635   6.198   4.906   0.713
 7912SOL    HW224636   6.281   4.894   0.854
 7913SOL     OW24637   1.224   4.598   1.572
 7913SOL    HW124638   1.318   4.563   1.561
 7913SOL    HW224639   1.192   4.633   1.484
 7914SOL     OW24640   6.381   6.586   4.982
 7914SOL    HW124641   6.373   6.528   5.063
 7914SOL    HW224642   6.477   6.608   4.966
 7915SOL     OW24643   3.773   5.687   2.549
 7915SOL    HW124644   3.820   5.602   2.572
 7915SOL    HW224645   3.835   5.765   2.565
 7916SOL     OW24646   1.193   6.991   4.306
 7916SOL    HW124647   1.117   6.933   4.277
 7916SOL    HW224648   1.224   6.963   4.397
 7917SOL     OW24649   4.410   3.379   0.938
 7917SOL    HW124650   4.470   3.346   0.865
 7917SOL    HW224651   4.419   3.478   0.948
 7918SOL     OW24652   2.104   2.029   3.650
 7918SOL    HW124653   2.190   2.020   3.600
 7918SOL    HW224654   2.117   2.090   3.729
 7919SOL     OW24655   1.864   6.425   4.747
 7919SOL    HW124656   1.786   6.483   4.723
 7919SOL    HW224657   1.947   6.479   4.749
 7920SOL     OW24658   5.067   0.231   1.019
 7920SOL    HW124659   4.987   0.226   0.960
 7920SOL    HW224660   5.107   0.323   1.015
 7921SOL     OW24661   5.740   2.358   0.977
 7921SOL    HW124662   5.674   2.430   0.957
 7921SOL    HW224663   5.735   2.335   1.075
 7922SOL     OW24664   1.477   5.982   1.465
 7922SOL    HW124665   1.553   5.941   1.516
 7922SOL    HW224666   1.395   5.925   1.476
 7923SOL     OW24667   5.519   0.848   0.329
 7923SOL    HW124668   5.581   0.849   0.408
 7923SOL    HW224669   5.442   0.908   0.347
 7924SOL     OW24670   6.678   6.077   0.533
 7924SOL    HW124671   6.754   6.108   0.477
 7924SOL    HW224672   6.641   5.993   0.495
 7925SOL     OW24673   1.471   5.907   6.596
 7925SOL    HW124674   1.411   5.919   6.675
 7925SOL    HW224675   1.428   5.948   6.516
 7926SOL     OW24676   4.997   5.138   0.436
 7926SOL    HW124677   4.900   5.155   0.452
 7926SOL    HW224678   5.009   5.049   0.392
 7927SOL     OW24679   4.409   6.830   2.494
 7927SOL    HW124680   4.458   6.903   2.445
 7927SOL    HW224681   4.311   6.838   2.477
 7928SOL     OW24682   6.149   2.258   3.458
 7928SOL    HW124683   6.150   2.289   3.362
 7928SOL    HW224684   6.142   2.337   3.518
 7929SOL     OW24685   4.242   4.531   5.999
 7929SOL    HW124686   4.151   4.491   6.013
 7929SOL    HW224687   4.291   4.535   6.086
 7930SOL     OW24688   4.258   6.418   5.828
 7930SOL    HW124689   4.190   6.395   5.897
 7930SOL    HW224690   4.349   6.411   5.868
 7931SOL     OW24691   4.023   2.242   1.298
 7931SOL    HW124692   3.965   2.171   1.339
 7931SOL    HW224693   4.072   2.204   1.219
 7932SOL     OW24694   1.713   3.897   2.151
 7932SOL    HW124695   1.647   3.971   2.139
 7932SOL    HW224696   1.754   3.903   2.242
 7933SOL     OW24697   0.938   1.152   6.951
 7933SOL    HW124698   0.972   1.069   6.994
 7933SOL    HW224699   0.971   1.232   7.001
 7934SOL     OW24700   0.894   5.230   0.928
 7934SOL    HW124701   0.913   5.323   0.896
 7934SOL    HW224702   0.966   5.202   0.991
 7935SOL     OW24703   5.021   3.318   3.447
 7935SOL    HW124704   4.969   3.376   3.510
 7935SOL    HW224705   5.066   3.245   3.498
 7936SOL     OW24706   3.364   5.951   4.014
 7936SOL    HW124707   3.425   6.030   4.009
 7936SOL    HW224708   3.294   5.968   4.083
 7937SOL     OW24709   3.306   1.021   6.986
 7937SOL    HW124710   3.252   1.003   6.904
 7937SOL    HW224711   3.248   1.063   0.034
 7938SOL     OW24712   3.077   6.814   4.430
 7938SOL    HW124713   3.046   6.901   4.393
 7938SOL    HW224714   3.010   6.780   4.496
 7939SOL     OW24715   0.561   1.629   4.106
 7939SOL    HW124716   0.635   1.659   4.046
 7939SOL    HW224717   0.511   1.709   4.139
 7940SOL     OW24718   5.684   1.044   3.566
 7940SOL    HW124719   5.679   1.121   3.629
 7940SOL    HW224720   5.723   1.074   3.479
 7941SOL     OW24721   3.504   6.806   1.346
 7941SOL    HW124722   3.524   6.710   1.367
 7941SOL    HW224723   3.560   6.865   1.404
 7942SOL     OW24724   1.553   5.109   0.661
 7942SOL    HW124725   1.478   5.047   0.680
 7942SOL    HW224726   1.605   5.126   0.745
 7943SOL     OW24727   1.387   6.150   5.984
 7943SOL    HW124728   1.321   6.087   5.943
 7943SOL    HW224729   1.453   6.179   5.915
 7944SOL     OW24730   1.358   2.591   1.415
 7944SOL    HW124731   1.392   2.524   1.481
 7944SOL    HW224732   1.264   2.569   1.390
 7945SOL     OW24733   6.213   4.593   3.564
 7945SOL    HW124734   6.162   4.674   3.594
 7945SOL    HW224735   6.172   4.511   3.604
 7946SOL     OW24736   3.688   1.329   6.413
 7946SOL    HW124737   3.637   1.261   6.361
 7946SOL    HW224738   3.720   1.401   6.351
 7947SOL     OW24739   0.839   3.728   6.317
 7947SOL    HW124740   0.923   3.739   6.263
 7947SOL    HW224741   0.782   3.810   6.308
 7948SOL     OW24742   1.480   4.875   2.688
 7948SOL    HW124743   1.443   4.842   2.602
 7948SOL    HW224744   1.517   4.967   2.676
 7949SOL     OW24745   3.786   6.265   6.460
 7949SOL    HW124746   3.754   6.311   6.377
 7949SOL    HW224747   3.820   6.174   6.437
 7950SOL     OW24748   5.925   4.291   5.012
 7950SOL    HW124749   5.891   4.348   5.087
 7950SOL    HW224750   5.995   4.341   4.962
 7951SOL     OW24751   4.117   5.721   2.740
 7951SOL    HW124752   4.113   5.622   2.734
 7951SOL    HW224753   4.050   5.753   2.808
 7952SOL     OW24754   6.192   3.991   6.528
 7952SOL    HW124755   6.098   3.969   6.555
 7952SOL    HW224756   6.248   4.000   6.611
 7953SOL     OW24757   2.883   0.708   0.633
 7953SOL    HW124758   2.807   0.680   0.693
 7953SOL    HW224759   2.852   0.780   0.572
 7954SOL     OW24760   4.247   3.853   6.583
 7954SOL    HW124761   4.321   3.872   6.518
 7954SOL    HW224762   4.181   3.928   6.582
 7955SOL     OW24763   1.739   1.707   6.638
 7955SOL    HW124764   1.801   1.690   6.715
 7955SOL    HW224765   1.724   1.805   6.628
 7956SOL     OW24766   6.434   5.935   0.330
 7956SOL    HW124767   6.441   5.837   0.351
 7956SOL    HW224768   6.400   5.984   0.410
 7957SOL     OW24769   4.631   0.925   5.928
 7957SOL    HW124770   4.585   0.890   5.846
 7957SOL    HW224771   4.700   0.993   5.900
 7958SOL     OW24772   6.286   2.315   0.319
 7958SOL    HW124773   6.370   2.345   0.275
 7958SOL    HW224774   6.262   2.377   0.393
 7959SOL     OW24775   6.016   1.084   6.655
 7959SOL    HW124776   5.978   1.175   6.635
 7959SOL    HW224777   5.942   1.020   6.674
 7960SOL     OW24778   0.208   1.085   5.564
 7960SOL    HW124779   0.171   1.176   5.547
 7960SOL    HW224780   0.264   1.057   5.486
 7961SOL     OW24781   6.474   6.104   0.111
 7961SOL    HW124782   6.493   6.067   0.202
 7961SOL    HW224783   6.489   6.203   0.112
 7962SOL     OW24784   5.732   6.915   5.682
 7962SOL    HW124785   5.666   6.895   5.610
 7962SOL    HW224786   5.735   6.838   5.746
 7963SOL     OW24787   6.906   0.066   4.313
 7963SOL    HW124788   6.976   7.018   4.299
 7963SOL    HW224789   6.855   0.079   4.228
 7964SOL     OW24790   6.579   4.146   1.714
 7964SOL    HW124791   6.598   4.241   1.741
 7964SOL    HW224792   6.487   4.140   1.677
 7965SOL     OW24793   3.830   2.814   6.280
 7965SOL    HW124794   3.800   2.870   6.202
 7965SOL    HW224795   3.798   2.721   6.268
 7966SOL     OW24796   4.922   3.713   4.808
 7966SOL    HW124797   5.013   3.725   4.848
 7966SOL    HW224798   4.853   3.721   4.879
 7967SOL     OW24799   1.479   4.492   1.623
 7967SOL    HW124800   1.481   4.497   1.723
 7967SOL    HW224801   1.495   4.398   1.594
 7968SOL     OW24802   0.099   3.023   4.953
 7968SOL    HW124803   0.100   3.074   5.038
 7968SOL    HW224804   0.178   3.048   4.897
 7969SOL     OW24805   4.779   5.096   0.206
 7969SOL    HW124806   4.752   5.029   0.275
 7969SOL    HW224807   4.778   5.053   0.116
 7970SOL     OW24808   6.077   2.729   2.958
 7970SOL    HW124809   6.092   2.634   2.987
 7970SOL    HW224810   6.119   2.791   3.024
 7971SOL     OW24811   2.894   1.240   6.964
 7971SOL    HW124812   2.846   1.207   0.024
 7971SOL    HW224813   2.991   1.250   6.985
 7972SOL     OW24814   4.044   3.817   3.542
 7972SOL    HW124815   4.065   3.719   3.548
 7972SOL    HW224816   4.124   3.866   3.507
 7973SOL     OW24817   6.463   4.305   2.459
 7973SOL    HW124818   6.522   4.345   2.389
 7973SOL    HW224819   6.501   4.324   2.549
 7974SOL     OW24820   6.735   2.786   6.497
 7974SOL    HW124821   6.732   2.882   6.522
 7974SOL    HW224822   6.718   2.730   6.578
 7975SOL     OW24823   5.824   0.688   1.231
 7975SOL    HW124824   5.733   0.649   1.247
 7975SOL    HW224825   5.828   0.780   1.271
 7976SOL     OW24826   0.702   7.001   1.013
 7976SOL    HW124827   0.796   6.999   1.046
 7976SOL    HW224828   0.650   6.927   1.056
 7977SOL     OW24829   5.524   5.405   3.785
 7977SOL    HW124830   5.518   5.326   3.845
 7977SOL    HW224831   5.472   5.387   3.701
 7978SOL     OW24832   0.115   4.455   1.764
 7978SOL    HW124833   0.092   4.480   1.670
 7978SOL    HW224834   0.214   4.442   1.771
 7979SOL     OW24835   1.865   2.447   4.117
 7979SOL    HW124836   1.805   2.409   4.188
 7979SOL    HW224837   1.939   2.382   4.098
 7980SOL     OW24838   4.083   5.519   0.097
 7980SOL    HW124839   4.040   5.453   0.159
 7980SOL    HW224840   4.030   5.604   0.097
 7981SOL     OW24841   1.946   4.234   3.232
 7981SOL    HW124842   1.966   4.137   3.226
 7981SOL    HW224843   1.876   4.259   3.165
 7982SOL     OW24844   6.182   1.738   5.357
 7982SOL    HW124845   6.242   1.798   5.304
 7982SOL    HW224846   6.222   1.647   5.364
 7983SOL     OW24847   4.919   1.078   1.970
 7983SOL    HW124848   4.831   1.103   2.011
 7983SOL    HW224849   4.992   1.130   2.014
 7984SOL     OW24850   0.640   2.359   3.216
 7984SOL    HW124851   0.606   2.268   3.237
 7984SOL    HW224852   0.634   2.376   3.118
 7985SOL     OW24853   2.670   2.880   5.385
 7985SOL    HW124854   2.683   2.783   5.363
 7985SOL    HW224855   2.649   2.930   5.301
 7986SOL     OW24856   3.424   0.953   4.104
 7986SOL    HW124857   3.397   0.997   4.190
 7986SOL    HW224858   3.365   0.984   4.030
 7987SOL     OW24859   1.012   3.866   0.076
 7987SOL    HW124860   0.939   3.889   0.011
 7987SOL    HW224861   1.041   3.948   0.124
 7988SOL     OW24862   6.683   1.760   1.856
 7988SOL    HW124863   6.683   1.820   1.936
 7988SOL    HW224864   6.749   1.793   1.789
 7989SOL     OW24865   0.548   4.566   0.620
 7989SOL    HW124866   0.506   4.570   0.530
 7989SOL    HW224867   0.635   4.516   0.614
 7990SOL     OW24868   3.930   5.685   5.280
 7990SOL    HW124869   3.933   5.733   5.193
 7990SOL    HW224870   3.928   5.751   5.355
 7991SOL     OW24871   5.710   1.546   5.522
 7991SOL    HW124872   5.752   1.461   5.555
 7991SOL    HW224873   5.622   1.525   5.479
 7992SOL     OW24874   2.956   6.734   6.604
 7992SOL    HW124875   2.982   6.827   6.580
 7992SOL    HW224876   2.976   6.673   6.527
 7993SOL     OW24877   6.323   5.874   1.386
 7993SOL    HW124878   6.371   5.960   1.405
 7993SOL    HW224879   6.351   5.805   1.452
 7994SOL     OW24880   5.718   6.830   3.892
 7994SOL    HW124881   5.638   6.770   3.887
 7994SOL    HW224882   5.713   6.885   3.975
 7995SOL     OW24883   0.940   4.958   1.263
 7995SOL    HW124884   1.004   4.904   1.318
 7995SOL    HW224885   0.949   5.055   1.286
 7996SOL     OW24886   3.143   0.505   2.868
 7996SOL    HW124887   3.180   0.415   2.848
 7996SOL    HW224888   3.122   0.553   2.782
 7997SOL     OW24889   1.756   1.990   6.414
 7997SOL    HW124890   1.693   1.916   6.391
 7997SOL    HW224891   1.706   2.064   6.460
 7998SOL     OW24892   1.961   0.988   1.115
 7998SOL    HW124893   1.908   1.002   1.031
 7998SOL    HW224894   2.000   0.896   1.116
 7999SOL     OW24895   0.854   0.420   4.323
 7999SOL    HW124896   0.911   0.343   4.351
 7999SOL    HW224897   0.776   0.429   4.384
 8000SOL     OW24898   4.417   5.124   0.117
 8000SOL    HW124899   4.458   5.069   0.045
 8000SOL    HW224900   4.384   5.211   0.079
 8001SOL     OW24901   4.489   5.955   1.147
 8001SOL    HW124902   4.496   6.032   1.210
 8001SOL    HW224903   4.579   5.934   1.109
 8002SOL     OW24904   0.819   0.399   5.356
 8002SOL    HW124905   0.780   0.464   5.421
 8002SOL    HW224906   0.825   0.442   5.266
 8003SOL     OW24907   2.267   5.429   2.283
 8003SOL    HW124908   2.356   5.473   2.295
 8003SOL    HW224909   2.278   5.342   2.235
 8004SOL     OW24910   1.591   2.835   3.982
 8004SOL    HW124911   1.526   2.759   3.990
 8004SOL    HW224912   1.677   2.811   4.026
 8005SOL     OW24913   2.193   6.936   3.363
 8005SOL    HW124914   2.292   6.931   3.351
 8005SOL    HW224915   2.165   6.873   3.435
 8006SOL     OW24916   3.997   4.720   5.350
 8006SOL    HW124917   3.981   4.621   5.343
 8006SOL    HW224918   3.947   4.756   5.429
 8007SOL     OW24919   6.012   0.040   6.879
 8007SOL    HW124920   6.104   0.063   6.912
 8007SOL    HW224921   5.948   0.040   6.956
 8008SOL     OW24922   5.421   6.597   6.867
 8008SOL    HW124923   5.474   6.678   6.841
 8008SOL    HW224924   5.464   6.515   6.829
 8009SOL     OW24925   5.316   1.588   6.878
 8009SOL    HW124926   5.288   1.502   6.920
 8009SOL    HW224927   5.236   1.647   6.867
 8010SOL     OW24928   3.076   1.509   5.567
 8010SOL    HW124929   3.111   1.596   5.601
 8010SOL    HW224930   3.045   1.453   5.644
 8011SOL     OW24931   3.888   1.760   2.716
 8011SOL    HW124932   3.922   1.673   2.679
 8011SOL    HW224933   3.930   1.836   2.667
 8012SOL     OW24934   6.873   1.543   4.628
 8012SOL    HW124935   6.912   1.459   4.667
 8012SOL    HW224936   6.777   1.551   4.656
 8013SOL     OW24937   3.437   1.855   2.340
 8013SOL    HW124938   3.475   1.927   2.283
 8013SOL    HW224939   3.354   1.889   2.386
 8014SOL     OW24940   2.125   1.895   2.450
 8014SOL    HW124941   2.154   1.915   2.544
 8014SOL    HW224942   2.198   1.920   2.386
 8015SOL     OW24943   3.353   0.159   5.578
 8015SOL    HW124944   3.254   0.168   5.565
 8015SOL    HW224945   3.400   0.185   5.494
 8016SOL     OW24946   3.023   1.526   5.006
 8016SOL    HW124947   2.949   1.529   5.072
 8016SOL    HW224948   3.002   1.589   4.930
 8017SOL     OW24949   6.565   6.079   1.091
 8017SOL    HW124950   6.516   6.164   1.071
 8017SOL    HW224951   6.630   6.059   1.017
 8018SOL     OW24952   4.108   2.177   6.998
 8018SOL    HW124953   4.183   2.239   6.976
 8018SOL    HW224954   4.067   2.141   6.914
 8019SOL     OW24955   2.696   3.518   1.089
 8019SOL    HW124956   2.787   3.504   1.051
 8019SOL    HW224957   2.658   3.429   1.116
 8020SOL     OW24958   6.772   0.983   5.369
 8020SOL    HW124959   6.825   1.066   5.386
 8020SOL    HW224960   6.755   0.974   5.271
 8021SOL     OW24961   1.503   2.148   1.318
 8021SOL    HW124962   1.551   2.156   1.231
 8021SOL    HW224963   1.414   2.192   1.311
 8022SOL     OW24964   5.302   1.483   2.460
 8022SOL    HW124965   5.272   1.500   2.367
 8022SOL    HW224966   5.400   1.464   2.461
 8023SOL     OW24967   5.317   6.076   1.943
 8023SOL    HW124968   5.396   6.027   1.907
 8023SOL    HW224969   5.254   6.096   1.867
 8024SOL     OW24970   2.425   0.831   6.512
 8024SOL    HW124971   2.473   0.908   6.555
 8024SOL    HW224972   2.488   0.782   6.452
 8025SOL     OW24973   1.235   5.776   2.306
 8025SOL    HW124974   1.137   5.792   2.300
 8025SOL    HW224975   1.283   5.829   2.236
 8026SOL     OW24976   0.554   5.661   6.718
 8026SOL    HW124977   0.629   5.696   6.661
 8026SOL    HW224978   0.584   5.580   6.767
 8027SOL     OW24979   3.283   1.008   6.412
 8027SOL    HW124980   3.280   1.073   6.488
 8027SOL    HW224981   3.355   0.940   6.429
 8028SOL     OW24982   3.204   5.448   5.208
 8028SOL    HW124983   3.230   5.479   5.299
 8028SOL    HW224984   3.204   5.348   5.205
 8029SOL     OW24985   0.378   6.949   0.039
 8029SOL    HW124986   0.285   6.982   0.054
 8029SOL    HW224987   0.407   6.971   6.968
 8030SOL     OW24988   0.563   3.866   0.793
 8030SOL    HW124989   0.513   3.951   0.778
 8030SOL    HW224990   0.584   3.823   0.705
 8031SOL     OW24991   0.148   0.651   3.270
 8031SOL    HW124992   0.246   0.638   3.279
 8031SOL    HW224993   0.128   0.748   3.256
 8032SOL     OW24994   6.736   3.068   1.085
 8032SOL    HW124995   6.683   2.987   1.060
 8032SOL    HW224996   6.674   3.138   1.120
 8033SOL     OW24997   4.581   3.539   1.283
 8033SOL    HW124998   4.505   3.513   1.224
 8033SOL    HW224999   4.657   3.574   1.227
 8034SOL     OW25000   6.075   0.676   5.938
 8034SOL    HW125001   5.994   0.721   5.973
 8034SOL    HW225002   6.151   0.688   6.003
 8035SOL     OW25003   5.987   1.704   3.119
 8035SOL    HW125004   6.073   1.755   3.114
 8035SOL    HW225005   6.006   1.607   3.130
 8036SOL     OW25006   5.859   2.408   4.124
 8036SOL    HW125007   5.904   2.356   4.051
 8036SOL    HW225008   5.817   2.490   4.086
 8037SOL     OW25009   1.349   1.436   5.688
 8037SOL    HW125010   1.285   1.363   5.714
 8037SOL    HW225011   1.297   1.516   5.656
 8038SOL     OW25012   6.917   4.931   2.272
 8038SOL    HW125013   6.821   4.961   2.274
 8038SOL    HW225014   6.961   4.966   2.189
 8039SOL     OW25015   1.354   2.583   5.762
 8039SOL    HW125016   1.366   2.559   5.858
 8039SOL    HW225017   1.270   2.635   5.751
 8040SOL     OW25018   1.888   5.062   6.881
 8040SOL    HW125019   1.841   4.988   6.832
 8040SOL    HW225020   1.934   5.122   6.816
 8041SOL     OW25021   3.313   1.470   3.017
 8041SOL    HW125022   3.357   1.409   3.083
 8041SOL    HW225023   3.307   1.562   3.055
 8042SOL     OW25024   4.370   4.181   5.605
 8042SOL    HW125025   4.438   4.208   5.537
 8042SOL    HW225026   4.347   4.260   5.662
 8043SOL     OW25027   5.067   5.559   6.826
 8043SOL    HW125028   5.110   5.469   6.827
 8043SOL    HW225029   5.018   5.572   6.740
 8044SOL     OW25030   2.508   3.555   1.712
 8044SOL    HW125031   2.446   3.516   1.781
 8044SOL    HW225032   2.589   3.591   1.758
 8045SOL     OW25033   6.556   2.644   3.519
 8045SOL    HW125034   6.627   2.599   3.574
 8045SOL    HW225035   6.585   2.737   3.497
 8046SOL     OW25036   6.673   5.079   2.314
 8046SOL    HW125037   6.613   5.015   2.267
 8046SOL    HW225038   6.659   5.171   2.279
 8047SOL     OW25039   3.603   6.442   6.601
 8047SOL    HW125040   3.685   6.397   6.565
 8047SOL    HW225041   3.529   6.375   6.607
 8048SOL     OW25042   3.815   2.554   5.932
 8048SOL    HW125043   3.733   2.574   5.879
 8048SOL    HW225044   3.861   2.474   5.894
 8049SOL     OW25045   1.667   1.722   0.458
 8049SOL    HW125046   1.686   1.804   0.512
 8049SOL    HW225047   1.587   1.676   0.495
 8050SOL     OW25048   0.567   4.842   5.406
 8050SOL    HW125049   0.482   4.890   5.423
 8050SOL    HW225050   0.629   4.854   5.484
 8051SOL     OW25051   4.022   5.858   3.370
 8051SOL    HW125052   4.121   5.872   3.370
 8051SOL    HW225053   3.976   5.942   3.340
 8052SOL     OW25054   2.627   2.027   2.397
 8052SOL    HW125055   2.634   1.939   2.444
 8052SOL    HW225056   2.570   2.089   2.451
 8053SOL     OW25057   2.175   2.882   6.521
 8053SOL    HW125058   2.086   2.836   6.516
 8053SOL    HW225059   2.194   2.927   6.434
 8054SOL     OW25060   4.703   3.335   5.311
 8054SOL    HW125061   4.663   3.403   5.250
 8054SOL    HW225062   4.800   3.354   5.325
 8055SOL     OW25063   5.775   0.478   6.776
 8055SOL    HW125064   5.828   0.415   6.832
 8055SOL    HW225065   5.744   0.555   6.832
 8056SOL     OW25066   2.285   1.028   4.706
 8056SOL    HW125067   2.359   0.972   4.667
 8056SOL    HW225068   2.222   0.969   4.757
 8057SOL     OW25069   2.720   2.118   2.054
 8057SOL    HW125070   2.649   2.183   2.081
 8057SOL    HW225071   2.807   2.167   2.043
 8058SOL     OW25072   3.325   6.903   2.307
 8058SOL    HW125073   3.282   6.983   2.349
 8058SOL    HW225074   3.346   6.923   2.211
 8059SOL     OW25075   2.744   2.675   5.928
 8059SOL    HW125076   2.745   2.679   5.828
 8059SOL    HW225077   2.772   2.585   5.959
 8060SOL     OW25078   5.896   0.819   6.074
 8060SOL    HW125079   5.806   0.779   6.058
 8060SOL    HW225080   5.906   0.903   6.020
 8061SOL     OW25081   0.136   0.459   2.725
 8061SOL    HW125082   0.123   0.516   2.643
 8061SOL    HW225083   0.234   0.443   2.740
 8062SOL     OW25084   3.763   5.501   5.395
 8062SOL    HW125085   3.767   5.495   5.495
 8062SOL    HW225086   3.836   5.561   5.362
 8063SOL     OW25087   3.493   5.480   3.535
 8063SOL    HW125088   3.553   5.417   3.486
 8063SOL    HW225089   3.414   5.501   3.477
 8064SOL     OW25090   6.331   1.727   0.620
 8064SOL    HW125091   6.412   1.744   0.562
 8064SOL    HW225092   6.299   1.633   0.606
 8065SOL     OW25093   4.200   5.676   6.572
 8065SOL    HW125094   4.189   5.655   6.669
 8065SOL    HW225095   4.127   5.738   6.543
 8066SOL     OW25096   6.967   0.045   5.585
 8066SOL    HW125097   6.922   7.002   5.647
 8066SOL    HW225098   6.939   0.027   5.491
 8067SOL     OW25099   5.028   2.624   3.706
 8067SOL    HW125100   4.988   2.682   3.635
 8067SOL    HW225101   5.093   2.676   3.760
 8068SOL     OW25102   5.892   4.113   1.148
 8068SOL    HW125103   5.989   4.124   1.123
 8068SOL    HW225104   5.871   4.170   1.227
 8069SOL     OW25105   2.603   5.292   3.289
 8069SOL    HW125106   2.618   5.332   3.380
 8069SOL    HW225107   2.570   5.198   3.299
 8070SOL     OW25108   4.377   4.728   0.716
 8070SOL    HW125109   4.448   4.748   0.784
 8070SOL    HW225110   4.406   4.653   0.658
 8071SOL     OW25111   2.291   0.131   6.174
 8071SOL    HW125112   2.386   0.102   6.164
 8071SOL    HW225113   2.245   0.072   6.240
 8072SOL     OW25114   1.380   1.941   5.736
 8072SOL    HW125115   1.467   1.936   5.785
 8072SOL    HW225116   1.309   1.896   5.791
 8073SOL     OW25117   4.095   0.754   6.684
 8073SOL    HW125118   4.015   0.768   6.627
 8073SOL    HW225119   4.172   0.807   6.648
 8074SOL     OW25120   1.279   0.714   5.877
 8074SOL    HW125121   1.246   0.787   5.818
 8074SOL    HW225122   1.323   0.643   5.822
 8075SOL     OW25123   0.144   6.835   0.608
 8075SOL    HW125124   0.142   6.779   0.524
 8075SOL    HW225125   0.080   6.911   0.598
 8076SOL     OW25126   6.749   6.072   0.830
 8076SOL    HW125127   6.742   6.172   0.828
 8076SOL    HW225128   6.711   6.034   0.745
 8077SOL     OW25129   4.764   4.583   0.711
 8077SOL    HW125130   4.700   4.602   0.785
 8077SOL    HW225131   4.716   4.539   0.635
 8078SOL     OW25132   0.708   0.768   2.382
 8078SOL    HW125133   0.751   0.700   2.441
 8078SOL    HW225134   0.682   0.848   2.436
 8079SOL     OW25135   1.045   1.716   6.130
 8079SOL    HW125136   0.998   1.775   6.196
 8079SOL    HW225137   1.138   1.698   6.162
 8080SOL     OW25138   1.531   3.171   3.210
 8080SOL    HW125139   1.448   3.202   3.163
 8080SOL    HW225140   1.606   3.233   3.190
 8081SOL     OW25141   5.891   6.294   5.020
 8081SOL    HW125142   5.974   6.349   5.015
 8081SOL    HW225143   5.857   6.276   4.928
 8082SOL     OW25144   4.134   1.759   2.349
 8082SOL    HW125145   4.233   1.744   2.353
 8082SOL    HW225146   4.103   1.749   2.254
 8083SOL     OW25147   5.698   2.017   4.287
 8083SOL    HW125148   5.645   1.955   4.345
 8083SOL    HW225149   5.676   2.112   4.310
 8084SOL     OW25150   3.762   1.841   5.921
 8084SOL    HW125151   3.665   1.848   5.899
 8084SOL    HW225152   3.773   1.790   6.007
 8085SOL     OW25153   1.367   6.313   4.338
 8085SOL    HW125154   1.301   6.311   4.263
 8085SOL    HW225155   1.459   6.294   4.303
 8086SOL     OW25156   6.712   0.671   2.390
 8086SOL    HW125157   6.801   0.656   2.347
 8086SOL    HW225158   6.644   0.610   2.349
 8087SOL     OW25159   0.626   0.661   0.090
 8087SOL    HW125160   0.643   0.746   0.140
 8087SOL    HW225161   0.656   0.583   0.145
 8088SOL     OW25162   6.269   0.321   4.530
 8088SOL    HW125163   6.361   0.294   4.559
 8088SOL    HW225164   6.209   0.329   4.609
 8089SOL     OW25165   6.334   1.904   5.957
 8089SOL    HW125166   6.318   1.923   6.054
 8089SOL    HW225167   6.281   1.824   5.930
 8090SOL     OW25168   4.157   1.840   5.168
 8090SOL    HW125169   4.192   1.761   5.218
 8090SOL    HW225170   4.063   1.858   5.197
 8091SOL     OW25171   1.857   4.991   4.241
 8091SOL    HW125172   1.896   5.076   4.206
 8091SOL    HW225173   1.921   4.950   4.306
 8092SOL     OW25174   4.549   1.805   5.746
 8092SOL    HW125175   4.528   1.715   5.708
 8092SOL    HW225176   4.590   1.862   5.675
 8093SOL     OW25177   3.549   6.178   2.236
 8093SOL    HW125178   3.596   6.122   2.305
 8093SOL    HW225179   3.615   6.207   2.167
 8094SOL     OW25180   2.132   4.424   3.957
 8094SOL    HW125181   2.150   4.340   4.009
 8094SOL    HW225182   2.071   4.483   4.010
 8095SOL     OW25183   1.366   4.771   5.651
 8095SOL    HW125184   1.319   4.846   5.605
 8095SOL    HW225185   1.457   4.801   5.680
 8096SOL     OW25186   0.988   5.954   1.741
 8096SOL    HW125187   0.999   5.936   1.644
 8096SOL    HW225188   1.029   5.879   1.794
 8097SOL     OW25189   4.010   5.995   5.311
 8097SOL    HW125190   4.092   5.945   5.285
 8097SOL    HW225191   3.991   5.979   5.408
 8098SOL     OW25192   1.741   5.663   5.126
 8098SOL    HW125193   1.742   5.624   5.035
 8098SOL    HW225194   1.835   5.674   5.159
 8099SOL     OW25195   2.513   5.090   2.992
 8099SOL    HW125196   2.555   5.046   2.913
 8099SOL    HW225197   2.415   5.101   2.976
 8100SOL     OW25198   0.202   0.470   7.007
 8100SOL    HW125199   0.187   0.449   0.082
 8100SOL    HW225200   0.278   0.534   6.999
 8101SOL     OW25201   2.376   6.249   1.317
 8101SOL    HW125202   2.355   6.343   1.290
 8101SOL    HW225203   2.317   6.185   1.268
 8102SOL     OW25204   1.727   3.335   5.127
 8102SOL    HW125205   1.646   3.335   5.068
 8102SOL    HW225206   1.778   3.420   5.112
 8103SOL     OW25207   3.560   1.091   1.391
 8103SOL    HW125208   3.640   1.031   1.380
 8103SOL    HW225209   3.547   1.146   1.308
 8104SOL     OW25210   2.113   6.391   0.300
 8104SOL    HW125211   2.159   6.414   0.386
 8104SOL    HW225212   2.154   6.310   0.260
 8105SOL     OW25213   6.941   0.508   3.229
 8105SOL    HW125214   6.856   0.530   3.277
 8105SOL    HW225215   6.998   0.590   3.224
 8106SOL     OW25216   2.099   6.717   5.778
 8106SOL    HW125217   2.086   6.642   5.713
 8106SOL    HW225218   2.035   6.705   5.854
 8107SOL     OW25219   1.817   6.247   6.164
 8107SOL    HW125220   1.740   6.183   6.158
 8107SOL    HW225221   1.782   6.340   6.174
 8108SOL     OW25222   0.674   1.134   6.885
 8108SOL    HW125223   0.756   1.078   6.891
 8108SOL    HW225224   0.695   1.222   6.843
 8109SOL     OW25225   6.389   2.972   0.864
 8109SOL    HW125226   6.379   3.071   0.866
 8109SOL    HW225227   6.300   2.929   0.882
 8110SOL     OW25228   4.062   4.996   1.114
 8110SOL    HW125229   4.002   5.054   1.169
 8110SOL    HW225230   4.063   5.029   1.020
 8111SOL     OW25231   6.443   1.290   2.759
 8111SOL    HW125232   6.426   1.302   2.661
 8111SOL    HW225233   6.416   1.198   2.787
 8112SOL     OW25234   1.307   3.710   5.996
 8112SOL    HW125235   1.364   3.729   6.076
 8112SOL    HW225236   1.226   3.659   6.024
 8113SOL     OW25237   5.459   2.910   6.279
 8113SOL    HW125238   5.444   3.009   6.276
 8113SOL    HW225239   5.372   2.864   6.296
 8114SOL     OW25240   2.006   4.276   1.243
 8114SOL    HW125241   2.073   4.231   1.184
 8114SOL    HW225242   2.013   4.375   1.233
 8115SOL     OW25243   2.082   1.703   6.296
 8115SOL    HW125244   2.023   1.783   6.283
 8115SOL    HW225245   2.177   1.728   6.276
 8116SOL     OW25246   3.852   3.702   1.072
 8116SOL    HW125247   3.938   3.662   1.041
 8116SOL    HW225248   3.816   3.763   1.002
 8117SOL     OW25249   2.920   6.728   3.031
 8117SOL    HW125250   3.007   6.699   2.993
 8117SOL    HW225251   2.846   6.674   2.991
 8118SOL     OW25252   6.788   2.923   0.428
 8118SOL    HW125253   6.793   2.827   0.399
 8118SOL    HW225254   6.766   2.927   0.525
 8119SOL     OW25255   6.266   5.726   0.150
 8119SOL    HW125256   6.303   5.707   0.241
 8119SOL    HW225257   6.339   5.759   0.091
 8120SOL     OW25258   2.767   6.310   1.266
 8120SOL    HW125259   2.743   6.218   1.235
 8120SOL    HW225260   2.687   6.370   1.259
 8121SOL     OW25261   0.958   3.563   3.181
 8121SOL    HW125262   1.028   3.617   3.228
 8121SOL    HW225263   0.868   3.596   3.208
 8122SOL     OW25264   1.084   4.614   2.051
 8122SOL    HW125265   1.020   4.541   2.026
 8122SOL    HW225266   1.116   4.660   1.969
 8123SOL     OW25267   0.627   1.796   6.340
 8123SOL    HW125268   0.619   1.863   6.266
 8123SOL    HW225269   0.540   1.749   6.353
 8124SOL     OW25270   5.261   4.557   4.932
 8124SOL    HW125271   5.270   4.536   5.029
 8124SOL    HW225272   5.351   4.578   4.894
 8125SOL     OW25273   1.594   6.378   3.289
 8125SOL    HW125274   1.637   6.317   3.223
 8125SOL    HW225275   1.627   6.357   3.381
 8126SOL     OW25276   4.043   5.163   4.093
 8126SOL    HW125277   4.092   5.115   4.165
 8126SOL    HW225278   4.005   5.249   4.128
 8127SOL     OW25279   3.380   2.776   6.756
 8127SOL    HW125280   3.297   2.742   6.712
 8127SOL    HW225281   3.429   2.699   6.797
 8128SOL     OW25282   3.698   3.032   1.738
 8128SOL    HW125283   3.703   2.944   1.784
 8128SOL    HW225284   3.603   3.049   1.710
 8129SOL     OW25285   1.284   2.840   1.764
 8129SOL    HW125286   1.289   2.781   1.684
 8129SOL    HW225287   1.322   2.792   1.843
 8130SOL     OW25288   1.520   5.544   6.566
 8130SOL    HW125289   1.426   5.516   6.549
 8130SOL    HW225290   1.528   5.643   6.560
 8131SOL     OW25291   1.801   3.368   6.914
 8131SOL    HW125292   1.888   3.412   6.937
 8131SOL    HW225293   1.819   3.278   6.876
 8132SOL     OW25294   6.825   7.007   5.028
 8132SOL    HW125295   6.874   6.920   5.025
 8132SOL    HW225296   6.775   7.015   5.114
 8133SOL     OW25297   3.576   4.702   0.639
 8133SOL    HW125298   3.532   4.618   0.672
 8133SOL    HW225299   3.530   4.781   0.678
 8134SOL     OW25300   5.411   0.950   5.498
 8134SOL    HW125301   5.359   0.923   5.579
 8134SOL    HW225302   5.473   0.876   5.471
 8135SOL     OW25303   1.815   6.773   1.777
 8135SOL    HW125304   1.884   6.751   1.846
 8135SOL    HW225305   1.740   6.823   1.820
 8136SOL     OW25306   4.425   4.598   2.002
 8136SOL    HW125307   4.409   4.646   2.088
 8136SOL    HW225308   4.504   4.537   2.012
 8137SOL     OW25309   4.128   1.326   4.611
 8137SOL    HW125310   4.133   1.280   4.700
 8137SOL    HW225311   4.195   1.400   4.608
 8138SOL     OW25312   4.626   1.207   1.326
 8138SOL    HW125313   4.633   1.275   1.253
 8138SOL    HW225314   4.544   1.151   1.312
 8139SOL     OW25315   1.160   2.154   3.619
 8139SOL    HW125316   1.254   2.151   3.654
 8139SOL    HW225317   1.134   2.249   3.603
 8140SOL     OW25318   3.858   0.886   3.286
 8140SOL    HW125319   3.903   0.873   3.374
 8140SOL    HW225320   3.918   0.852   3.213
 8141SOL     OW25321   4.636   4.953   4.530
 8141SOL    HW125322   4.616   4.863   4.570
 8141SOL    HW225323   4.696   5.004   4.592
 8142SOL     OW25324   6.366   5.658   0.388
 8142SOL    HW125325   6.444   5.599   0.410
 8142SOL    HW225326   6.283   5.623   0.432
 8143SOL     OW25327   6.057   3.867   4.680
 8143SOL    HW125328   6.141   3.882   4.733
 8143SOL    HW225329   6.064   3.912   4.591
 8144SOL     OW25330   5.846   6.356   6.403
 8144SOL    HW125331   5.822   6.284   6.338
 8144SOL    HW225332   5.828   6.325   6.496
 8145SOL     OW25333   6.216   5.883   2.553
 8145SOL    HW125334   6.122   5.908   2.530
 8145SOL    HW225335   6.220   5.852   2.648
 8146SOL     OW25336   2.662   1.353   4.411
 8146SOL    HW125337   2.679   1.448   4.383
 8146SOL    HW225338   2.727   1.328   4.483
 8147SOL     OW25339   4.822   1.039   4.081
 8147SOL    HW125340   4.879   0.993   4.013
 8147SOL    HW225341   4.783   1.122   4.041
 8148SOL     OW25342   5.619   4.027   3.629
 8148SOL    HW125343   5.678   3.979   3.694
 8148SOL    HW225344   5.542   4.068   3.677
 8149SOL     OW25345   4.386   4.589   3.388
 8149SOL    HW125346   4.480   4.556   3.384
 8149SOL    HW225347   4.356   4.596   3.483
 8150SOL     OW25348   0.594   5.406   0.267
 8150SOL    HW125349   0.686   5.443   0.279
 8150SOL    HW225350   0.558   5.376   0.355
 8151SOL     OW25351   0.975   1.710   5.098
 8151SOL    HW125352   0.883   1.750   5.098
 8151SOL    HW225353   1.043   1.784   5.099
 8152SOL     OW25354   1.214   1.328   3.335
 8152SOL    HW125355   1.223   1.383   3.418
 8152SOL    HW225356   1.301   1.285   3.312
 8153SOL     OW25357   2.217   6.719   0.475
 8153SOL    HW125358   2.247   6.728   0.380
 8153SOL    HW225359   2.117   6.728   0.480
 8154SOL     OW25360   1.888   6.565   4.035
 8154SOL    HW125361   1.904   6.497   3.963
 8154SOL    HW225362   1.873   6.518   4.122
 8155SOL     OW25363   3.300   3.237   3.642
 8155SOL    HW125364   3.260   3.276   3.559
 8155SOL    HW225365   3.304   3.308   3.713
 8156SOL     OW25366   6.273   0.845   6.103
 8156SOL    HW125367   6.210   0.894   6.162
 8156SOL    HW225368   6.299   0.903   6.026
 8157SOL     OW25369   6.420   3.538   6.395
 8157SOL    HW125370   6.464   3.594   6.326
 8157SOL    HW225371   6.374   3.596   6.462
 8158SOL     OW25372   1.768   5.125   2.426
 8158SOL    HW125373   1.699   5.052   2.421
 8158SOL    HW225374   1.841   5.097   2.487
 8159SOL     OW25375   1.982   5.920   1.971
 8159SOL    HW125376   1.930   6.005   1.963
 8159SOL    HW225377   1.987   5.893   2.067
 8160SOL     OW25378   4.476   2.051   2.081
 8160SOL    HW125379   4.499   1.985   2.152
 8160SOL    HW225380   4.467   2.004   1.993
 8161SOL     OW25381   5.064   1.402   0.826
 8161SOL    HW125382   5.097   1.495   0.814
 8161SOL    HW225383   5.082   1.372   0.920
 8162SOL     OW25384   5.830   0.216   2.018
 8162SOL    HW125385   5.889   0.227   1.938
 8162SOL    HW225386   5.736   0.242   1.994
 8163SOL     OW25387   2.190   4.032   5.319
 8163SOL    HW125388   2.264   4.039   5.252
 8163SOL    HW225389   2.216   3.967   5.390
 8164SOL     OW25390   4.132   2.110   2.048
 8164SOL    HW125391   4.145   2.027   1.994
 8164SOL    HW225392   4.214   2.166   2.044
 8165SOL     OW25393   2.342   5.277   1.673
 8165SOL    HW125394   2.395   5.200   1.707
 8165SOL    HW225395   2.341   5.275   1.573
 8166SOL     OW25396   2.608   6.811   2.201
 8166SOL    HW125397   2.565   6.900   2.190
 8166SOL    HW225398   2.554   6.755   2.265
 8167SOL     OW25399   5.440   2.637   3.669
 8167SOL    HW125400   5.496   2.667   3.592
 8167SOL    HW225401   5.462   2.542   3.691
 8168SOL     OW25402   3.184   1.152   2.881
 8168SOL    HW125403   3.248   1.216   2.840
 8168SOL    HW225404   3.234   1.074   2.919
 8169SOL     OW25405   4.973   3.699   6.055
 8169SOL    HW125406   5.069   3.687   6.081
 8169SOL    HW225407   4.961   3.789   6.015
 8170SOL     OW25408   0.590   5.739   3.951
 8170SOL    HW125409   0.687   5.765   3.954
 8170SOL    HW225410   0.550   5.748   4.042
 8171SOL     OW25411   0.833   1.751   5.903
 8171SOL    HW125412   0.896   1.746   5.825
 8171SOL    HW225413   0.886   1.755   5.988
 8172SOL     OW25414   6.759   6.348   0.811
 8172SOL    HW125415   6.813   6.348   0.727
 8172SOL    HW225416   6.806   6.402   0.881
 8173SOL     OW25417   5.030   2.704   6.442
 8173SOL    HW125418   5.085   2.785   6.420
 8173SOL    HW225419   4.986   2.670   6.359
 8174SOL     OW25420   5.988   0.257   2.229
 8174SOL    HW125421   5.919   0.231   2.162
 8174SOL    HW225422   6.079   0.247   2.189
 8175SOL     OW25423   1.103   3.262   6.343
 8175SOL    HW125424   1.137   3.171   6.364
 8175SOL    HW225425   1.174   3.315   6.297
 8176SOL     OW25426   2.636   5.929   2.441
 8176SOL    HW125427   2.634   5.982   2.357
 8176SOL    HW225428   2.556   5.869   2.444
 8177SOL     OW25429   0.505   6.763   5.841
 8177SOL    HW125430   0.540   6.670   5.854
 8177SOL    HW225431   0.500   6.782   5.743
 8178SOL     OW25432   2.284   6.721   6.480
 8178SOL    HW125433   2.329   6.632   6.471
 8178SOL    HW225434   2.280   6.766   6.390
 8179SOL     OW25435   3.055   1.405   0.298
 8179SOL    HW125436   3.026   1.362   0.383
 8179SOL    HW225437   3.086   1.334   0.233
 8180SOL     OW25438   5.489   5.657   5.291
 8180SOL    HW125439   5.486   5.582   5.226
 8180SOL    HW225440   5.416   5.646   5.359
 8181SOL     OW25441   2.587   2.415   2.431
 8181SOL    HW125442   2.490   2.392   2.421
 8181SOL    HW225443   2.608   2.427   2.528
 8182SOL     OW25444   3.725   2.945   5.540
 8182SOL    HW125445   3.762   2.919   5.451
 8182SOL    HW225446   3.628   2.967   5.531
 8183SOL     OW25447   1.501   3.275   4.933
 8183SOL    HW125448   1.446   3.346   4.890
 8183SOL    HW225449   1.452   3.188   4.930
 8184SOL     OW25450   5.712   5.953   5.507
 8184SOL    HW125451   5.738   6.029   5.567
 8184SOL    HW225452   5.657   5.989   5.431
 8185SOL     OW25453   1.784   1.519   3.343
 8185SOL    HW125454   1.688   1.492   3.355
 8185SOL    HW225455   1.800   1.545   3.248
 8186SOL     OW25456   3.599   4.764   6.128
 8186SOL    HW125457   3.579   4.833   6.058
 8186SOL    HW225458   3.564   4.795   6.217
 8187SOL     OW25459   0.946   2.069   5.691
 8187SOL    HW125460   0.925   1.971   5.685
 8187SOL    HW225461   0.928   2.101   5.784
 8188SOL     OW25462   5.936   4.082   2.557
 8188SOL    HW125463   5.933   4.182   2.545
 8188SOL    HW225464   5.969   4.040   2.473
 8189SOL     OW25465   6.200   4.434   2.431
 8189SOL    HW125466   6.284   4.380   2.438
 8189SOL    HW225467   6.172   4.439   2.335
 8190SOL     OW25468   5.345   3.438   3.073
 8190SOL    HW125469   5.285   3.502   3.025
 8190SOL    HW225470   5.331   3.449   3.172
 8191SOL     OW25471   0.816   5.429   2.761
 8191SOL    HW125472   0.805   5.357   2.830
 8191SOL    HW225473   0.800   5.391   2.670
 8192SOL     OW25474   1.687   4.091   1.408
 8192SOL    HW125475   1.668   3.994   1.416
 8192SOL    HW225476   1.603   4.143   1.424
 8193SOL     OW25477   3.579   1.079   5.897
 8193SOL    HW125478   3.647   1.035   5.955
 8193SOL    HW225479   3.488   1.067   5.936
 8194SOL     OW25480   1.359   0.316   0.522
 8194SOL    HW125481   1.374   0.380   0.447
 8194SOL    HW225482   1.433   0.249   0.524
 8195SOL     OW25483   6.117   0.079   0.961
 8195SOL    HW125484   6.101   0.053   0.866
 8195SOL    HW225485   6.204   0.128   0.968
 8196SOL     OW25486   2.433   0.393   5.973
 8196SOL    HW125487   2.348   0.420   6.018
 8196SOL    HW225488   2.452   0.297   5.995
 8197SOL     OW25489   0.897   6.760   6.783
 8197SOL    HW125490   0.831   6.800   6.846
 8197SOL    HW225491   0.988   6.797   6.803
 8198SOL     OW25492   4.099   6.284   2.617
 8198SOL    HW125493   4.112   6.308   2.713
 8198SOL    HW225494   4.009   6.242   2.605
 8199SOL     OW25495   5.899   3.884   0.344
 8199SOL    HW125496   5.890   3.967   0.400
 8199SOL    HW225497   5.810   3.861   0.305
 8200SOL     OW25498   5.017   3.795   1.304
 8200SOL    HW125499   5.055   3.880   1.338
 8200SOL    HW225500   4.993   3.736   1.381
 8201SOL     OW25501   6.384   1.191   4.530
 8201SOL    HW125502   6.338   1.266   4.482
 8201SOL    HW225503   6.322   1.112   4.535
 8202SOL     OW25504   1.857   4.212   3.799
 8202SOL    HW125505   1.838   4.119   3.771
 8202SOL    HW225506   1.881   4.267   3.719
 8203SOL     OW25507   6.231   3.635   1.062
 8203SOL    HW125508   6.246   3.726   1.101
 8203SOL    HW225509   6.217   3.568   1.135
 8204SOL     OW25510   3.574   6.697   0.609
 8204SOL    HW125511   3.613   6.605   0.614
 8204SOL    HW225512   3.630   6.760   0.664
 8205SOL     OW25513   5.937   5.260   2.876
 8205SOL    HW125514   5.860   5.300   2.928
 8205SOL    HW225515   6.018   5.316   2.890
 8206SOL     OW25516   4.648   2.250   4.070
 8206SOL    HW125517   4.740   2.249   4.031
 8206SOL    HW225518   4.653   2.250   4.170
 8207SOL     OW25519   3.028   6.401   0.038
 8207SOL    HW125520   3.025   6.352   6.972
 8207SOL    HW225521   3.034   6.499   0.021
 8208SOL     OW25522   1.639   5.001   6.117
 8208SOL    HW125523   1.587   5.051   6.187
 8208SOL    HW225524   1.579   4.935   6.072
 8209SOL     OW25525   0.621   6.438   5.380
 8209SOL    HW125526   0.652   6.374   5.450
 8209SOL    HW225527   0.644   6.402   5.289
 8210SOL     OW25528   3.010   1.869   0.147
 8210SOL    HW125529   3.100   1.860   0.191
 8210SOL    HW225530   2.964   1.780   0.149
 8211SOL     OW25531   2.913   3.412   5.039
 8211SOL    HW125532   2.975   3.488   5.059
 8211SOL    HW225533   2.840   3.444   4.978
 8212SOL     OW25534   3.712   6.441   1.208
 8212SOL    HW125535   3.754   6.516   1.157
 8212SOL    HW225536   3.710   6.465   1.305
 8213SOL     OW25537   4.380   4.020   1.676
 8213SOL    HW125538   4.283   3.999   1.689
 8213SOL    HW225539   4.406   4.095   1.736
 8214SOL     OW25540   3.881   5.384   4.195
 8214SOL    HW125541   3.930   5.469   4.213
 8214SOL    HW225542   3.809   5.401   4.128
 8215SOL     OW25543   3.364   5.979   6.086
 8215SOL    HW125544   3.299   5.968   6.161
 8215SOL    HW225545   3.378   5.890   6.041
 8216SOL     OW25546   6.016   4.593   1.718
 8216SOL    HW125547   6.001   4.602   1.619
 8216SOL    HW225548   5.994   4.679   1.763
 8217SOL     OW25549   2.810   6.390   3.803
 8217SOL    HW125550   2.718   6.385   3.764
 8217SOL    HW225551   2.846   6.297   3.812
 8218SOL     OW25552   3.034   6.723   5.148
 8218SOL    HW125553   3.049   6.633   5.189
 8218SOL    HW225554   3.102   6.788   5.182
 8219SOL     OW25555   4.096   3.117   1.742
 8219SOL    HW125556   4.115   3.142   1.837
 8219SOL    HW225557   4.061   3.023   1.738
 8220SOL     OW25558   3.360   4.181   4.478
 8220SOL    HW125559   3.300   4.255   4.448
 8220SOL    HW225560   3.427   4.161   4.407
 8221SOL     OW25561   5.802   4.264   3.098
 8221SOL    HW125562   5.772   4.221   3.012
 8221SOL    HW225563   5.780   4.203   3.175
 8222SOL     OW25564   6.458   2.747   0.619
 8222SOL    HW125565   6.529   2.678   0.630
 8222SOL    HW225566   6.461   2.810   0.697
 8223SOL     OW25567   2.038   6.508   6.020
 8223SOL    HW125568   1.952   6.520   5.970
 8223SOL    HW225569   2.020   6.471   6.111
 8224SOL     OW25570   4.840   1.091   0.074
 8224SOL    HW125571   4.783   1.008   0.073
 8224SOL    HW225572   4.813   1.149   0.150
 8225SOL     OW25573   5.956   2.158   0.272
 8225SOL    HW125574   6.044   2.202   0.291
 8225SOL    HW225575   5.950   2.072   0.323
 8226SOL     OW25576   4.167   1.147   0.697
 8226SOL    HW125577   4.209   1.059   0.719
 8226SOL    HW225578   4.144   1.149   0.599
 8227SOL     OW25579   3.982   2.114   2.786
 8227SOL    HW125580   4.057   2.179   2.776
 8227SOL    HW225581   3.974   2.059   2.703
 8228SOL     OW25582   2.030   0.504   4.755
 8228SOL    HW125583   2.030   0.577   4.824
 8228SOL    HW225584   2.016   0.543   4.665
 8229SOL     OW25585   4.692   4.362   0.471
 8229SOL    HW125586   4.595   4.362   0.445
 8229SOL    HW225587   4.713   4.276   0.518
 8230SOL     OW25588   5.458   0.276   6.076
 8230SOL    HW125589   5.540   0.328   6.100
 8230SOL    HW225590   5.468   0.240   5.983
 8231SOL     OW25591   2.986   1.679   2.407
 8231SOL    HW125592   2.973   1.762   2.352
 8231SOL    HW225593   2.962   1.697   2.502
 8232SOL     OW25594   3.486   5.887   2.963
 8232SOL    HW125595   3.472   5.947   3.041
 8232SOL    HW225596   3.407   5.826   2.953
 8233SOL     OW25597   1.126   1.241   6.029
 8233SOL    HW125598   1.126   1.152   6.075
 8233SOL    HW225599   1.148   1.313   6.095
 8234SOL     OW25600   1.081   2.189   0.676
 8234SOL    HW125601   1.100   2.182   0.578
 8234SOL    HW225602   1.060   2.285   0.698
 8235SOL     OW25603   0.769   0.419   1.580
 8235SOL    HW125604   0.820   0.446   1.498
 8235SOL    HW225605   0.700   0.489   1.600
 8236SOL     OW25606   1.175   6.606   1.661
 8236SOL    HW125607   1.186   6.679   1.729
 8236SOL    HW225608   1.196   6.641   1.570
 8237SOL     OW25609   3.966   4.726   5.985
 8237SOL    HW125610   3.959   4.682   6.074
 8237SOL    HW225611   4.044   4.788   5.984
 8238SOL     OW25612   0.867   4.660   0.853
 8238SOL    HW125613   0.789   4.630   0.908
 8238SOL    HW225614   0.893   4.753   0.880
 8239SOL     OW25615   1.853   1.692   5.668
 8239SOL    HW125616   1.817   1.702   5.761
 8239SOL    HW225617   1.944   1.650   5.672
 8240SOL     OW25618   3.759   3.754   4.846
 8240SOL    HW125619   3.771   3.725   4.751
 8240SOL    HW225620   3.731   3.675   4.902
 8241SOL     OW25621   1.749   3.843   5.251
 8241SOL    HW125622   1.804   3.918   5.287
 8241SOL    HW225623   1.767   3.760   5.305
 8242SOL     OW25624   0.694   3.554   2.768
 8242SOL    HW125625   0.606   3.508   2.758
 8242SOL    HW225626   0.745   3.548   2.682
 8243SOL     OW25627   1.670   4.960   3.927
 8243SOL    HW125628   1.653   5.059   3.933
 8243SOL    HW225629   1.624   4.914   4.002
 8244SOL     OW25630   6.680   1.396   3.886
 8244SOL    HW125631   6.661   1.307   3.843
 8244SOL    HW225632   6.654   1.469   3.822
 8245SOL     OW25633   5.632   2.087   2.642
 8245SOL    HW125634   5.560   2.029   2.604
 8245SOL    HW225635   5.720   2.059   2.604
 8246SOL     OW25636   1.767   5.138   6.557
 8246SOL    HW125637   1.773   5.081   6.475
 8246SOL    HW225638   1.858   5.176   6.578
 8247SOL     OW25639   3.137   5.350   2.971
 8247SOL    HW125640   3.041   5.324   2.961
 8247SOL    HW225641   3.168   5.396   2.888
 8248SOL     OW25642   6.540   5.203   3.993
 8248SOL    HW125643   6.474   5.143   3.947
 8248SOL    HW225644   6.557   5.169   4.085
 8249SOL     OW25645   3.170   1.394   6.691
 8249SOL    HW125646   3.133   1.406   6.783
 8249SOL    HW225647   3.179   1.484   6.647
 8250SOL     OW25648   0.985   1.903   6.681
 8250SOL    HW125649   0.909   1.860   6.632
 8250SOL    HW225650   1.024   1.976   6.624
 8251SOL     OW25651   0.827   2.348   4.970
 8251SOL    HW125652   0.909   2.352   5.026
 8251SOL    HW225653   0.771   2.429   4.988
 8252SOL     OW25654   0.701   2.043   6.531
 8252SOL    HW125655   0.675   2.128   6.576
 8252SOL    HW225656   0.629   1.974   6.545
 8253SOL     OW25657   4.238   6.003   6.903
 8253SOL    HW125658   4.270   6.097   6.895
 8253SOL    HW225659   4.255   5.970   6.996
 8254SOL     OW25660   5.726   5.223   0.118
 8254SOL    HW125661   5.673   5.270   0.188
 8254SOL    HW225662   5.706   5.125   0.122
 8255SOL     OW25663   2.052   0.345   5.600
 8255SOL    HW125664   2.004   0.409   5.661
 8255SOL    HW225665   2.043   0.376   5.505
 8256SOL     OW25666   1.299   5.021   4.979
 8256SOL    HW125667   1.230   5.090   4.955
 8256SOL    HW225668   1.386   5.067   5.000
 8257SOL     OW25669   5.053   3.987   3.102
 8257SOL    HW125670   5.114   4.042   3.045
 8257SOL    HW225671   5.089   3.894   3.109
 8258SOL     OW25672   0.606   3.139   2.573
 8258SOL    HW125673   0.622   3.090   2.488
 8258SOL    HW225674   0.507   3.146   2.589
 8259SOL     OW25675   5.390   1.844   4.278
 8259SOL    HW125676   5.380   1.929   4.226
 8259SOL    HW225677   5.352   1.768   4.226
 8260SOL     OW25678   4.846   2.408   1.155
 8260SOL    HW125679   4.823   2.485   1.214
 8260SOL    HW225680   4.820   2.429   1.061
 8261SOL     OW25681   5.774   1.315   2.508
 8261SOL    HW125682   5.789   1.363   2.595
 8261SOL    HW225683   5.746   1.221   2.526
 8262SOL     OW25684   5.446   3.548   1.892
 8262SOL    HW125685   5.357   3.593   1.891
 8262SOL    HW225686   5.516   3.615   1.918
 8263SOL     OW25687   5.950   1.602   5.191
 8263SOL    HW125688   6.019   1.621   5.262
 8263SOL    HW225689   5.871   1.662   5.205
 8264SOL     OW25690   3.628   0.245   2.514
 8264SOL    HW125691   3.560   0.311   2.546
 8264SOL    HW225692   3.720   0.284   2.525
 8265SOL     OW25693   4.965   6.223   0.592
 8265SOL    HW125694   4.876   6.190   0.623
 8265SOL    HW225695   4.987   6.308   0.640
 8266SOL     OW25696   2.877   1.063   4.088
 8266SOL    HW125697   2.887   0.969   4.118
 8266SOL    HW225698   2.798   1.105   4.133
 8267SOL     OW25699   1.963   3.634   2.424
 8267SOL    HW125700   2.011   3.639   2.337
 8267SOL    HW225701   1.979   3.545   2.466
 8268SOL     OW25702   3.366   4.386   6.345
 8268SOL    HW125703   3.329   4.416   6.256
 8268SOL    HW225704   3.462   4.361   6.334
 8269SOL     OW25705   6.318   3.214   4.406
 8269SOL    HW125706   6.308   3.309   4.378
 8269SOL    HW225707   6.415   3.188   4.402
 8270SOL     OW25708   4.107   5.850   6.302
 8270SOL    HW125709   4.068   5.772   6.254
 8270SOL    HW225710   4.188   5.883   6.252
 8271SOL     OW25711   3.309   6.569   6.097
 8271SOL    HW125712   3.233   6.576   6.033
 8271SOL    HW225713   3.349   6.477   6.092
 8272SOL     OW25714   1.180   0.602   2.226
 8272SOL    HW125715   1.084   0.583   2.205
 8272SOL    HW225716   1.231   0.516   2.234
 8273SOL     OW25717   4.080   0.722   0.346
 8273SOL    HW125718   4.081   0.718   0.246
 8273SOL    HW225719   4.010   0.787   0.375
 8274SOL     OW25720   5.288   6.373   5.490
 8274SOL    HW125721   5.230   6.408   5.416
 8274SOL    HW225722   5.292   6.274   5.485
 8275SOL     OW25723   5.582   0.563   4.339
 8275SOL    HW125724   5.593   0.528   4.432
 8275SOL    HW225725   5.642   0.512   4.277
 8276SOL     OW25726   6.848   2.192   6.688
 8276SOL    HW125727   6.763   2.189   6.740
 8276SOL    HW225728   6.891   2.102   6.688
 8277SOL     OW25729   1.389   0.142   0.154
 8277SOL    HW125730   1.407   0.065   0.216
 8277SOL    HW225731   1.439   0.222   0.187
 8278SOL     OW25732   2.749   1.192   1.327
 8278SOL    HW125733   2.778   1.271   1.272
 8278SOL    HW225734   2.759   1.108   1.274
 8279SOL     OW25735   3.541   5.718   5.224
 8279SOL    HW125736   3.560   5.623   5.249
 8279SOL    HW225737   3.558   5.777   5.303
 8280SOL     OW25738   5.312   4.231   6.973
 8280SOL    HW125739   5.361   4.169   6.912
 8280SOL    HW225740   5.373   4.305   7.002
 8281SOL     OW25741   2.814   5.281   6.829
 8281SOL    HW125742   2.782   5.367   6.791
 8281SOL    HW225743   2.749   5.249   6.898
 8282SOL     OW25744   2.960   3.030   1.727
 8282SOL    HW125745   2.926   2.941   1.697
 8282SOL    HW225746   2.883   3.093   1.734
 8283SOL     OW25747   0.500   6.920   3.830
 8283SOL    HW125748   0.426   6.984   3.851
 8283SOL    HW225749   0.569   6.922   3.903
 8284SOL     OW25750   3.879   1.568   2.283
 8284SOL    HW125751   3.838   1.565   2.374
 8284SOL    HW225752   3.925   1.655   2.269
 8285SOL     OW25753   2.021   4.525   6.789
 8285SOL    HW125754   1.978   4.516   6.698
 8285SOL    HW225755   1.960   4.486   6.858
 8286SOL     OW25756   5.829   2.566   5.634
 8286SOL    HW125757   5.746   2.543   5.583
 8286SOL    HW225758   5.839   2.665   5.638
 8287SOL     OW25759   1.915   0.128   3.524
 8287SOL    HW125760   1.829   0.078   3.533
 8287SOL    HW225761   1.944   0.129   3.429
 8288SOL     OW25762   2.017   0.066   3.003
 8288SOL    HW125763   2.113   0.058   2.975
 8288SOL    HW225764   1.967   7.006   2.974
 8289SOL     OW25765   6.233   0.809   6.846
 8289SOL    HW125766   6.310   0.758   6.885
 8289SOL    HW225767   6.255   0.907   6.846
 8290SOL     OW25768   4.630   2.679   1.699
 8290SOL    HW125769   4.687   2.749   1.742
 8290SOL    HW225770   4.606   2.708   1.607
 8291SOL     OW25771   4.783   5.807   6.575
 8291SOL    HW125772   4.799   5.725   6.630
 8291SOL    HW225773   4.703   5.855   6.611
 8292SOL     OW25774   0.703   2.587   5.039
 8292SOL    HW125775   0.626   2.590   4.975
 8292SOL    HW225776   0.670   2.569   5.131
 8293SOL     OW25777   2.893   5.514   3.715
 8293SOL    HW125778   2.845   5.438   3.671
 8293SOL    HW225779   2.938   5.481   3.798
 8294SOL     OW25780   5.345   4.145   5.709
 8294SOL    HW125781   5.324   4.049   5.690
 8294SOL    HW225782   5.441   4.163   5.688
 8295SOL     OW25783   5.169   4.568   2.404
 8295SOL    HW125784   5.086   4.620   2.384
 8295SOL    HW225785   5.166   4.480   2.357
 8296SOL     OW25786   3.746   6.860   2.178
 8296SOL    HW125787   3.770   6.772   2.219
 8296SOL    HW225788   3.748   6.931   2.249
 8297SOL     OW25789   5.257   4.702   3.397
 8297SOL    HW125790   5.300   4.769   3.458
 8297SOL    HW225791   5.244   4.743   3.307
 8298SOL     OW25792   0.063   6.742   0.019
 8298SOL    HW125793   0.092   6.833   0.049
 8298SOL    HW225794   0.143   6.685   0.003
 8299SOL     OW25795   0.439   3.180   0.272
 8299SOL    HW125796   0.503   3.218   0.205
 8299SOL    HW225797   0.351   3.227   0.264
 8300SOL     OW25798   6.243   5.292   4.041
 8300SOL    HW125799   6.298   5.314   4.122
 8300SOL    HW225800   6.265   5.199   4.011
 8301SOL     OW25801   5.812   6.363   0.676
 8301SOL    HW125802   5.726   6.398   0.639
 8301SOL    HW225803   5.879   6.356   0.602
 8302SOL     OW25804   3.614   0.263   5.462
 8302SOL    HW125805   3.612   0.267   5.362
 8302SOL    HW225806   3.697   0.308   5.495
 8303SOL     OW25807   0.459   5.376   2.257
 8303SOL    HW125808   0.542   5.428   2.238
 8303SOL    HW225809   0.379   5.434   2.240
 8304SOL     OW25810   5.875   4.416   3.368
 8304SOL    HW125811   5.868   4.375   3.277
 8304SOL    HW225812   5.878   4.515   3.360
 8305SOL     OW25813   5.373   6.539   5.792
 8305SOL    HW125814   5.456   6.484   5.794
 8305SOL    HW225815   5.293   6.479   5.785
 8306SOL     OW25816   6.605   1.581   3.115
 8306SOL    HW125817   6.575   1.502   3.168
 8306SOL    HW225818   6.551   1.588   3.031
 8307SOL     OW25819   1.721   3.061   2.765
 8307SOL    HW125820   1.805   3.113   2.748
 8307SOL    HW225821   1.642   3.119   2.749
 8308SOL     OW25822   0.876   5.656   0.846
 8308SOL    HW125823   0.818   5.590   0.799
 8308SOL    HW225824   0.968   5.618   0.858
 8309SOL     OW25825   6.272   4.825   4.624
 8309SOL    HW125826   6.218   4.898   4.666
 8309SOL    HW225827   6.276   4.840   4.525
 8310SOL     OW25828   1.998   0.381   1.083
 8310SOL    HW125829   1.995   0.352   1.178
 8310SOL    HW225830   1.952   0.469   1.073
 8311SOL     OW25831   4.861   5.784   3.319
 8311SOL    HW125832   4.898   5.729   3.394
 8311SOL    HW225833   4.909   5.762   3.234
 8312SOL     OW25834   6.019   1.399   0.408
 8312SOL    HW125835   5.999   1.301   0.421
 8312SOL    HW225836   6.096   1.425   0.466
 8313SOL     OW25837   5.559   2.215   5.519
 8313SOL    HW125838   5.488   2.245   5.455
 8313SOL    HW225839   5.623   2.154   5.472
 8314SOL     OW25840   4.757   6.068   4.276
 8314SOL    HW125841   4.740   5.980   4.231
 8314SOL    HW225842   4.769   6.139   4.207
 8315SOL     OW25843   3.708   3.249   4.893
 8315SOL    HW125844   3.798   3.233   4.854
 8315SOL    HW225845   3.638   3.238   4.822
 8316SOL     OW25846   2.536   2.277   5.303
 8316SOL    HW125847   2.480   2.337   5.247
 8316SOL    HW225848   2.596   2.223   5.244
 8317SOL     OW25849   1.492   1.855   4.191
 8317SOL    HW125850   1.466   1.798   4.269
 8317SOL    HW225851   1.482   1.951   4.215
 8318SOL     OW25852   4.277   6.494   6.181
 8318SOL    HW125853   4.322   6.583   6.189
 8318SOL    HW225854   4.188   6.506   6.136
 8319SOL     OW25855   2.474   5.729   6.312
 8319SOL    HW125856   2.451   5.638   6.278
 8319SOL    HW225857   2.412   5.797   6.272
 8320SOL     OW25858   3.719   3.467   5.359
 8320SOL    HW125859   3.700   3.407   5.282
 8320SOL    HW225860   3.632   3.496   5.401
 8321SOL     OW25861   0.010   0.087   0.332
 8321SOL    HW125862   7.010   0.172   0.284
 8321SOL    HW225863   6.949   0.051   0.375
 8322SOL     OW25864   0.634   6.923   0.161
 8322SOL    HW125865   0.627   6.978   0.245
 8322SOL    HW225866   0.548   6.928   0.111
 8323SOL     OW25867   5.699   4.448   0.167
 8323SOL    HW125868   5.613   4.416   0.129
 8323SOL    HW225869   5.683   4.527   0.225
 8324SOL     OW25870   5.469   6.169   0.251
 8324SOL    HW125871   5.415   6.244   0.212
 8324SOL    HW225872   5.448   6.084   0.202
 8325SOL     OW25873   1.460   6.555   5.439
 8325SOL    HW125874   1.393   6.506   5.494
 8325SOL    HW225875   1.531   6.592   5.499
 8326SOL     OW25876   1.629   3.150   6.842
 8326SOL    HW125877   1.631   3.061   6.888
 8326SOL    HW225878   1.648   3.138   6.744
 8327SOL     OW25879   1.140   5.921   4.701
 8327SOL    HW125880   1.156   5.822   4.708
 8327SOL    HW225881   1.174   5.954   4.613
 8328SOL     OW25882   0.612   6.604   6.791
 8328SOL    HW125883   0.619   6.676   6.860
 8328SOL    HW225884   0.628   6.515   6.834
 8329SOL     OW25885   0.874   2.557   4.616
 8329SOL    HW125886   0.887   2.639   4.561
 8329SOL    HW225887   0.960   2.506   4.620
 8330SOL     OW25888   3.111   0.812   7.016
 8330SOL    HW125889   3.115   0.853   0.086
 8330SOL    HW225890   3.096   0.884   6.948
 8331SOL     OW25891   1.880   2.399   6.192
 8331SOL    HW125892   1.797   2.361   6.234
 8331SOL    HW225893   1.921   2.332   6.131
 8332SOL     OW25894   6.317   4.174   1.613
 8332SOL    HW125895   6.252   4.114   1.567
 8332SOL    HW225896   6.269   4.254   1.650
 8333SOL     OW25897   2.044   3.899   7.004
 8333SOL    HW125898   2.100   3.862   6.930
 8333SOL    HW225899   2.024   3.995   6.985
 8334SOL     OW25900   2.786   1.965   5.350
 8334SOL    HW125901   2.821   2.058   5.349
 8334SOL    HW225902   2.859   1.902   5.321
 8335SOL     OW25903   5.429   4.529   5.945
 8335SOL    HW125904   5.461   4.559   5.855
 8335SOL    HW225905   5.381   4.604   5.990
 8336SOL     OW25906   0.960   4.270   3.667
 8336SOL    HW125907   0.959   4.178   3.706
 8336SOL    HW225908   1.039   4.320   3.702
 8337SOL     OW25909   0.071   1.248   3.889
 8337SOL    HW125910   0.155   1.295   3.918
 8337SOL    HW225911   7.013   1.301   3.916
 8338SOL     OW25912   3.179   5.408   1.192
 8338SOL    HW125913   3.193   5.340   1.264
 8338SOL    HW225914   3.268   5.438   1.157
 8339SOL     OW25915   6.118   0.564   1.328
 8339SOL    HW125916   6.078   0.568   1.237
 8339SOL    HW225917   6.059   0.613   1.392
 8340SOL     OW25918   6.079   1.868   6.791
 8340SOL    HW125919   6.117   1.885   6.882
 8340SOL    HW225920   6.116   1.935   6.726
 8341SOL     OW25921   3.669   1.407   0.770
 8341SOL    HW125922   3.650   1.472   0.844
 8341SOL    HW225923   3.658   1.453   0.682
 8342SOL     OW25924   4.794   0.567   0.367
 8342SOL    HW125925   4.775   0.632   0.294
 8342SOL    HW225926   4.891   0.544   0.367
 8343SOL     OW25927   6.118   4.501   4.040
 8343SOL    HW125928   6.044   4.438   4.064
 8343SOL    HW225929   6.193   4.449   3.998
 8344SOL     OW25930   1.477   5.175   6.259
 8344SOL    HW125931   1.490   5.174   6.359
 8344SOL    HW225932   1.532   5.249   6.220
 8345SOL     OW25933   5.165   7.021   3.787
 8345SOL    HW125934   5.243   6.984   3.837
 8345SOL    HW225935   5.095   6.951   3.778
 8346SOL     OW25936   5.887   2.761   4.475
 8346SOL    HW125937   5.952   2.830   4.508
 8346SOL    HW225938   5.802   2.770   4.526
 8347SOL     OW25939   2.364   1.814   6.564
 8347SOL    HW125940   2.325   1.906   6.571
 8347SOL    HW225941   2.441   1.806   6.628
 8348SOL     OW25942   2.641   6.034   2.211
 8348SOL    HW125943   2.577   6.089   2.157
 8348SOL    HW225944   2.716   6.003   2.152
 8349SOL     OW25945   6.096   6.134   2.123
 8349SOL    HW125946   6.090   6.071   2.046
 8349SOL    HW225947   6.070   6.226   2.092
 8350SOL     OW25948   2.074   1.078   6.569
 8350SOL    HW125949   1.993   1.104   6.516
 8350SOL    HW225950   2.095   0.981   6.553
 8351SOL     OW25951   0.392   2.912   2.705
 8351SOL    HW125952   0.450   2.831   2.707
 8351SOL    HW225953   0.430   2.981   2.766
 8352SOL     OW25954   2.962   5.519   0.825
 8352SOL    HW125955   2.962   5.428   0.782
 8352SOL    HW225956   2.869   5.552   0.833
 8353SOL     OW25957   1.040   4.969   1.823
 8353SOL    HW125958   1.122   5.004   1.870
 8353SOL    HW225959   0.960   5.019   1.854
 8354SOL     OW25960   3.392   1.048   3.672
 8354SOL    HW125961   3.376   0.949   3.674
 8354SOL    HW225962   3.398   1.079   3.577
 8355SOL     OW25963   3.022   6.259   6.821
 8355SOL    HW125964   3.073   6.180   6.856
 8355SOL    HW225965   3.049   6.278   6.727
 8356SOL     OW25966   2.183   5.297   0.621
 8356SOL    HW125967   2.169   5.232   0.547
 8356SOL    HW225968   2.281   5.315   0.632
 8357SOL     OW25969   4.579   6.808   5.682
 8357SOL    HW125970   4.613   6.881   5.623
 8357SOL    HW225971   4.519   6.848   5.752
 8358SOL     OW25972   1.182   0.889   5.174
 8358SOL    HW125973   1.121   0.956   5.131
 8358SOL    HW225974   1.225   0.833   5.104
 8359SOL     OW25975   4.074   1.970   6.242
 8359SOL    HW125976   4.042   1.988   6.149
 8359SOL    HW225977   4.100   2.057   6.285
 8360SOL     OW25978   4.649   0.384   0.945
 8360SOL    HW125979   4.685   0.467   0.986
 8360SOL    HW225980   4.587   0.407   0.871
 8361SOL     OW25981   3.912   1.434   6.808
 8361SOL    HW125982   3.935   1.369   6.735
 8361SOL    HW225983   3.881   1.520   6.767
 8362SOL     OW25984   0.537   4.191   1.530
 8362SOL    HW125985   0.564   4.268   1.472
 8362SOL    HW225986   0.542   4.219   1.626
 8363SOL     OW25987   1.986   3.276   0.934
 8363SOL    HW125988   1.967   3.335   1.012
 8363SOL    HW225989   2.039   3.197   0.963
 8364SOL     OW25990   0.062   3.015   4.163
 8364SOL    HW125991   0.143   3.067   4.190
 8364SOL    HW225992   7.004   3.076   4.164
 8365SOL     OW25993   1.543   2.457   2.140
 8365SOL    HW125994   1.444   2.457   2.144
 8365SOL    HW225995   1.580   2.443   2.232
 8366SOL     OW25996   5.281   4.970   2.525
 8366SOL    HW125997   5.307   5.053   2.476
 8366SOL    HW225998   5.330   4.965   2.612
 8367SOL     OW25999   2.235   4.988   4.198
 8367SOL    HW126000   2.252   4.891   4.182
 8367SOL    HW226001   2.271   5.014   4.288
 8368SOL     OW26002   6.255   6.395   5.850
 8368SOL    HW126003   6.244   6.456   5.772
 8368SOL    HW226004   6.168   6.350   5.871
 8369SOL     OW26005   2.571   6.296   0.707
 8369SOL    HW126006   2.661   6.289   0.749
 8369SOL    HW226007   2.579   6.286   0.608
 8370SOL     OW26008   3.307   4.318   6.636
 8370SOL    HW126009   3.324   4.353   6.544
 8370SOL    HW226010   3.270   4.391   6.693
 8371SOL     OW26011   2.267   4.427   5.351
 8371SOL    HW126012   2.275   4.345   5.293
 8371SOL    HW226013   2.223   4.402   5.437
 8372SOL     OW26014   2.217   6.523   0.927
 8372SOL    HW126015   2.204   6.575   1.011
 8372SOL    HW226016   2.239   6.585   0.852
 8373SOL     OW26017   6.686   1.921   3.898
 8373SOL    HW126018   6.763   1.973   3.862
 8373SOL    HW226019   6.615   1.914   3.828
 8374SOL     OW26020   6.786   1.197   4.164
 8374SOL    HW126021   6.720   1.163   4.097
 8374SOL    HW226022   6.745   1.194   4.256
 8375SOL     OW26023   2.499   1.406   4.933
 8375SOL    HW126024   2.411   1.413   4.885
 8375SOL    HW226025   2.532   1.312   4.927
 8376SOL     OW26026   1.096   2.042   3.279
 8376SOL    HW126027   1.071   2.125   3.228
 8376SOL    HW226028   1.140   2.069   3.365
 8377SOL     OW26029   4.985   4.860   0.313
 8377SOL    HW126030   4.888   4.838   0.298
 8377SOL    HW226031   5.029   4.785   0.363
 8378SOL     OW26032   4.936   5.654   4.330
 8378SOL    HW126033   5.032   5.640   4.355
 8378SOL    HW226034   4.893   5.714   4.396
 8379SOL     OW26035   5.964   2.081   1.410
 8379SOL    HW126036   5.881   2.086   1.354
 8379SOL    HW226037   6.007   2.171   1.413
 8380SOL     OW26038   6.991   5.959   0.869
 8380SOL    HW126039   0.004   5.987   0.959
 8380SOL    HW226040   6.893   5.980   0.865
 8381SOL     OW26041   0.238   1.388   2.829
 8381SOL    HW126042   0.294   1.444   2.890
 8381SOL    HW226043   0.294   1.357   2.752
 8382SOL     OW26044   1.585   0.427   0.984
 8382SOL    HW126045   1.617   0.420   1.079
 8382SOL    HW226046   1.498   0.476   0.982
 8383SOL     OW26047   3.029   0.150   6.653
 8383SOL    HW126048   3.108   0.095   6.625
 8383SOL    HW226049   2.972   0.097   6.716
 8384SOL     OW26050   0.697   3.635   3.035
 8384SOL    HW126051   0.751   3.717   3.049
 8384SOL    HW226052   0.717   3.596   2.945
 8385SOL     OW26053   4.370   2.732   1.207
 8385SOL    HW126054   4.356   2.792   1.286
 8385SOL    HW226055   4.321   2.769   1.128
 8386SOL     OW26056   2.269   5.766   1.963
 8386SOL    HW126057   2.180   5.747   1.921
 8386SOL    HW226058   2.327   5.814   1.897
 8387SOL     OW26059   0.975   1.445   3.264
 8387SOL    HW126060   1.060   1.396   3.282
 8387SOL    HW226061   0.926   1.461   3.350
 8388SOL     OW26062   4.327   5.838   0.817
 8388SOL    HW126063   4.236   5.874   0.795
 8388SOL    HW226064   4.365   5.793   0.736
 8389SOL     OW26065   0.433   3.031   4.144
 8389SOL    HW126066   0.489   2.950   4.126
 8389SOL    HW226067   0.387   3.058   4.060
 8390SOL     OW26068   2.759   7.009   5.632
 8390SOL    HW126069   2.688   0.056   5.620
 8390SOL    HW226070   2.839   0.011   5.577
 8391SOL     OW26071   5.790   6.079   0.800
 8391SOL    HW126072   5.821   6.168   0.767
 8391SOL    HW226073   5.843   6.052   0.880
 8392SOL     OW26074   5.557   6.399   5.392
 8392SOL    HW126075   5.590   6.414   5.299
 8392SOL    HW226076   5.471   6.348   5.389
 8393SOL     OW26077   0.031   5.420   2.857
 8393SOL    HW126078   0.116   5.368   2.868
 8393SOL    HW226079   0.051   5.518   2.867
 8394SOL     OW26080   0.521   1.739   3.098
 8394SOL    HW126081   0.458   1.797   3.046
 8394SOL    HW226082   0.506   1.753   3.196
 8395SOL     OW26083   0.679   6.019   5.291
 8395SOL    HW126084   0.685   6.038   5.389
 8395SOL    HW226085   0.617   6.085   5.248
 8396SOL     OW26086   4.441   3.606   0.728
 8396SOL    HW126087   4.463   3.530   0.667
 8396SOL    HW226088   4.365   3.659   0.689
 8397SOL     OW26089   1.835   5.006   3.312
 8397SOL    HW126090   1.901   5.043   3.378
 8397SOL    HW226091   1.812   4.912   3.338
 8398SOL     OW26092   5.141   1.583   0.363
 8398SOL    HW126093   5.055   1.549   0.402
 8398SOL    HW226094   5.124   1.625   0.274
 8399SOL     OW26095   5.661   5.436   0.290
 8399SOL    HW126096   5.652   5.403   0.384
 8399SOL    HW226097   5.723   5.515   0.288
 8400SOL     OW26098   5.969   0.630   4.698
 8400SOL    HW126099   6.017   0.714   4.723
 8400SOL    HW226100   6.003   0.597   4.610
 8401SOL     OW26101   3.070   4.806   6.345
 8401SOL    HW126102   3.164   4.775   6.327
 8401SOL    HW226103   3.006   4.744   6.300
 8402SOL     OW26104   4.616   1.680   0.146
 8402SOL    HW126105   4.521   1.674   0.177
 8402SOL    HW226106   4.620   1.665   0.048
 8403SOL     OW26107   1.156   1.937   4.587
 8403SOL    HW126108   1.239   1.987   4.613
 8403SOL    HW226109   1.157   1.917   4.489
 8404SOL     OW26110   4.348   5.238   5.386
 8404SOL    HW126111   4.262   5.275   5.420
 8404SOL    HW226112   4.385   5.299   5.315
 8405SOL     OW26113   0.951   2.609   5.271
 8405SOL    HW126114   1.023   2.614   5.201
 8405SOL    HW226115   0.896   2.692   5.268
 8406SOL     OW26116   4.957   3.462   1.139
 8406SOL    HW126117   5.044   3.501   1.108
 8406SOL    HW226118   4.970   3.414   1.225
 8407SOL     OW26119   5.055   3.654   2.628
 8407SOL    HW126120   5.138   3.669   2.680
 8407SOL    HW226121   5.041   3.556   2.614
 8408SOL     OW26122   4.787   2.892   3.747
 8408SOL    HW126123   4.826   2.918   3.659
 8408SOL    HW226124   4.824   2.952   3.818
 8409SOL     OW26125   1.190   1.960   3.996
 8409SOL    HW126126   1.207   2.057   4.013
 8409SOL    HW226127   1.248   1.928   3.921
 8410SOL     OW26128   3.258   6.371   1.995
 8410SOL    HW126129   3.250   6.310   2.075
 8410SOL    HW226130   3.211   6.330   1.917
 8411SOL     OW26131   1.971   2.802   3.420
 8411SOL    HW126132   1.882   2.804   3.464
 8411SOL    HW226133   2.043   2.804   3.490
 8412SOL     OW26134   6.269   3.159   2.647
 8412SOL    HW126135   6.330   3.089   2.610
 8412SOL    HW226136   6.194   3.115   2.695
 8413SOL     OW26137   2.252   4.463   1.161
 8413SOL    HW126138   2.271   4.464   1.259
 8413SOL    HW226139   2.234   4.369   1.132
 8414SOL     OW26140   5.109   6.986   2.400
 8414SOL    HW126141   5.045   6.935   2.456
 8414SOL    HW226142   5.101   6.958   2.305
 8415SOL     OW26143   6.547   3.214   2.100
 8415SOL    HW126144   6.592   3.184   2.184
 8415SOL    HW226145   6.467   3.269   2.123
 8416SOL     OW26146   5.151   3.742   2.382
 8416SOL    HW126147   5.092   3.716   2.306
 8416SOL    HW226148   5.102   3.729   2.468
 8417SOL     OW26149   2.422   5.948   6.084
 8417SOL    HW126150   2.387   5.913   5.997
 8417SOL    HW226151   2.404   6.046   6.089
 8418SOL     OW26152   6.106   5.369   2.284
 8418SOL    HW126153   6.033   5.437   2.292
 8418SOL    HW226154   6.126   5.331   2.374
 8419SOL     OW26155   4.099   6.721   3.607
 8419SOL    HW126156   4.125   6.625   3.599
 8419SOL    HW226157   4.000   6.727   3.623
 8420SOL     OW26158   3.767   2.118   5.888
 8420SOL    HW126159   3.672   2.150   5.885
 8420SOL    HW226160   3.769   2.018   5.879
 8421SOL     OW26161   1.995   6.460   1.608
 8421SOL    HW126162   1.942   6.520   1.547
 8421SOL    HW226163   2.027   6.381   1.557
 8422SOL     OW26164   4.042   6.633   1.484
 8422SOL    HW126165   4.035   6.713   1.543
 8422SOL    HW226166   4.000   6.554   1.530
 8423SOL     OW26167   2.412   4.075   1.270
 8423SOL    HW126168   2.500   4.035   1.243
 8423SOL    HW226169   2.404   4.072   1.369
 8424SOL     OW26170   2.977   2.048   2.561
 8424SOL    HW126171   2.946   2.127   2.614
 8424SOL    HW226172   2.940   2.055   2.468
 8425SOL     OW26173   6.079   4.956   0.182
 8425SOL    HW126174   6.049   4.877   0.237
 8425SOL    HW226175   6.059   4.938   0.086
 8426SOL     OW26176   3.908   3.407   2.255
 8426SOL    HW126177   3.853   3.393   2.172
 8426SOL    HW226178   3.985   3.466   2.234
 8427SOL     OW26179   2.474   3.482   6.347
 8427SOL    HW126180   2.439   3.573   6.367
 8427SOL    HW226181   2.444   3.418   6.418
 8428SOL     OW26182   6.137   4.477   2.152
 8428SOL    HW126183   6.088   4.562   2.135
 8428SOL    HW226184   6.148   4.427   2.066
 8429SOL     OW26185   2.188   6.426   2.986
 8429SOL    HW126186   2.127   6.380   3.049
 8429SOL    HW226187   2.138   6.453   2.904
 8430SOL     OW26188   4.720   4.291   2.999
 8430SOL    HW126189   4.767   4.220   2.946
 8430SOL    HW226190   4.642   4.325   2.947
 8431SOL     OW26191   3.074   3.876   1.145
 8431SOL    HW126192   3.112   3.819   1.217
 8431SOL    HW226193   3.086   3.832   1.056
 8432SOL     OW26194   4.581   6.482   6.893
 8432SOL    HW126195   4.495   6.497   6.844
 8432SOL    HW226196   4.569   6.502   6.990
 8433SOL     OW26197   1.087   1.161   5.099
 8433SOL    HW126198   1.132   1.232   5.154
 8433SOL    HW226199   1.061   1.199   5.010
 8434SOL     OW26200   5.440   6.343   6.028
 8434SOL    HW126201   5.425   6.279   6.103
 8434SOL    HW226202   5.533   6.332   5.993
 8435SOL     OW26203   4.703   2.235   1.458
 8435SOL    HW126204   4.741   2.268   1.544
 8435SOL    HW226205   4.778   2.209   1.396
 8436SOL     OW26206   3.714   4.399   1.324
 8436SOL    HW126207   3.727   4.302   1.304
 8436SOL    HW226208   3.764   4.454   1.257
 8437SOL     OW26209   0.193   1.977   1.212
 8437SOL    HW126210   0.221   1.975   1.308
 8437SOL    HW226211   0.268   2.011   1.155
 8438SOL     OW26212   1.873   6.427   1.932
 8438SOL    HW126213   1.965   6.388   1.940
 8438SOL    HW226214   1.872   6.497   1.861
 8439SOL     OW26215   6.520   6.267   2.199
 8439SOL    HW126216   6.585   6.218   2.257
 8439SOL    HW226217   6.429   6.265   2.241
 8440SOL     OW26218   0.345   1.876   3.610
 8440SOL    HW126219   0.417   1.832   3.663
 8440SOL    HW226220   0.323   1.965   3.650
 8441SOL     OW26221   4.561   4.764   1.245
 8441SOL    HW126222   4.493   4.837   1.241
 8441SOL    HW226223   4.551   4.714   1.332
 8442SOL     OW26224   2.045   3.515   6.955
 8442SOL    HW126225   2.050   3.558   0.023
 8442SOL    HW226226   2.111   3.560   6.894
 8443SOL     OW26227   1.458   1.676   2.273
 8443SOL    HW126228   1.378   1.662   2.331
 8443SOL    HW226229   1.542   1.665   2.327
 8444SOL     OW26230   4.257   6.757   3.259
 8444SOL    HW126231   4.247   6.658   3.272
 8444SOL    HW226232   4.214   6.806   3.334
 8445SOL     OW26233   3.726   5.116   1.983
 8445SOL    HW126234   3.738   5.046   2.054
 8445SOL    HW226235   3.663   5.081   1.914
 8446SOL     OW26236   6.785   4.899   3.502
 8446SOL    HW126237   6.804   4.981   3.448
 8446SOL    HW226238   6.864   4.877   3.559
 8447SOL     OW26239   4.741   2.989   1.349
 8447SOL    HW126240   4.763   3.051   1.424
 8447SOL    HW226241   4.816   2.987   1.283
 8448SOL     OW26242   0.805   3.067   6.367
 8448SOL    HW126243   0.713   3.045   6.398
 8448SOL    HW226244   0.858   3.103   6.444
 8449SOL     OW26245   1.619   1.776   5.190
 8449SOL    HW126246   1.540   1.837   5.196
 8449SOL    HW226247   1.652   1.754   5.281
 8450SOL     OW26248   2.311   5.197   2.448
 8450SOL    HW126249   2.342   5.291   2.435
 8450SOL    HW226250   2.236   5.195   2.514
 8451SOL     OW26251   3.999   3.008   0.789
 8451SOL    HW126252   3.936   3.002   0.867
 8451SOL    HW226253   3.978   2.934   0.724
 8452SOL     OW26254   6.480   5.777   1.124
 8452SOL    HW126255   6.404   5.813   1.177
 8452SOL    HW226256   6.517   5.850   1.066
 8453SOL     OW26257   0.926   5.017   5.524
 8453SOL    HW126258   0.870   4.959   5.584
 8453SOL    HW226259   0.884   5.108   5.517
 8454SOL     OW26260   1.695   6.633   4.582
 8454SOL    HW126261   1.677   6.728   4.556
 8454SOL    HW226262   1.633   6.607   4.656
 8455SOL     OW26263   6.434   2.344   1.179
 8455SOL    HW126264   6.473   2.290   1.254
 8455SOL    HW226265   6.342   2.311   1.158
 8456SOL     OW26266   5.340   5.305   3.213
 8456SOL    HW126267   5.362   5.254   3.130
 8456SOL    HW226268   5.422   5.348   3.250
 8457SOL     OW26269   0.044   6.642   6.561
 8457SOL    HW126270   0.006   6.681   6.645
 8457SOL    HW226271   7.008   6.667   6.483
 8458SOL     OW26272   1.191   1.519   1.473
 8458SOL    HW126273   1.192   1.431   1.522
 8458SOL    HW226274   1.124   1.580   1.515
 8459SOL     OW26275   2.792   5.400   2.358
 8459SOL    HW126276   2.855   5.346   2.413
 8459SOL    HW226277   2.843   5.452   2.290
 8460SOL     OW26278   4.083   1.127   0.424
 8460SOL    HW126279   4.030   1.044   0.406
 8460SOL    HW226280   4.129   1.156   0.340
 8461SOL     OW26281   5.175   3.971   2.729
 8461SOL    HW126282   5.191   4.019   2.643
 8461SOL    HW226283   5.086   3.926   2.727
 8462SOL     OW26284   2.857   4.764   0.188
 8462SOL    HW126285   2.956   4.757   0.203
 8462SOL    HW226286   2.808   4.732   0.269
 8463SOL     OW26287   6.473   0.654   7.009
 8463SOL    HW126288   6.464   0.611   0.077
 8463SOL    HW226289   6.545   0.609   6.958
 8464SOL     OW26290   0.280   3.477   6.269
 8464SOL    HW126291   0.338   3.539   6.215
 8464SOL    HW226292   0.278   3.508   6.364
 8465SOL     OW26293   4.832   3.197   0.939
 8465SOL    HW126294   4.858   3.272   0.877
 8465SOL    HW226295   4.766   3.230   1.006
 8466SOL     OW26296   5.839   1.073   5.629
 8466SOL    HW126297   5.825   1.172   5.626
 8466SOL    HW226298   5.767   1.031   5.685
 8467SOL     OW26299   3.259   1.528   0.791
 8467SOL    HW126300   3.181   1.570   0.839
 8467SOL    HW226301   3.229   1.442   0.749
 8468SOL     OW26302   6.065   3.141   0.397
 8468SOL    HW126303   6.013   3.056   0.395
 8468SOL    HW226304   6.156   3.126   0.357
 8469SOL     OW26305   4.603   3.186   6.234
 8469SOL    HW126306   4.602   3.216   6.139
 8469SOL    HW226307   4.540   3.243   6.287
 8470SOL     OW26308   1.560   5.153   1.513
 8470SOL    HW126309   1.641   5.211   1.503
 8470SOL    HW226310   1.580   5.080   1.578
 8471SOL     OW26311   3.523   2.105   4.284
 8471SOL    HW126312   3.608   2.153   4.261
 8471SOL    HW226313   3.514   2.098   4.383
 8472SOL     OW26314   6.005   1.428   5.833
 8472SOL    HW126315   5.996   1.526   5.817
 8472SOL    HW226316   5.961   1.404   5.919
 8473SOL     OW26317   4.777   4.341   6.533
 8473SOL    HW126318   4.823   4.428   6.549
 8473SOL    HW226319   4.741   4.306   6.619
 8474SOL     OW26320   3.951   3.922   3.042
 8474SOL    HW126321   3.921   3.861   3.115
 8474SOL    HW226322   3.912   4.013   3.057
 8475SOL     OW26323   0.215   3.026   2.535
 8475SOL    HW126324   0.188   2.950   2.477
 8475SOL    HW226325   0.278   2.993   2.606
 8476SOL     OW26326   6.233   0.326   1.775
 8476SOL    HW126327   6.318   0.375   1.795
 8476SOL    HW226328   6.249   0.258   1.704
 8477SOL     OW26329   5.453   0.041   1.698
 8477SOL    HW126330   5.403   0.113   1.746
 8477SOL    HW226331   5.388   7.006   1.647
 8478SOL     OW26332   6.331   1.022   5.910
 8478SOL    HW126333   6.346   0.956   5.836
 8478SOL    HW226334   6.297   1.108   5.872
 8479SOL     OW26335   0.926   2.430   0.475
 8479SOL    HW126336   0.989   2.495   0.432
 8479SOL    HW226337   0.937   2.433   0.574
 8480SOL     OW26338   4.171   3.639   0.227
 8480SOL    HW126339   4.073   3.618   0.231
 8480SOL    HW226340   4.184   3.731   0.189
 8481SOL     OW26341   4.465   1.692   3.168
 8481SOL    HW126342   4.510   1.738   3.091
 8481SOL    HW226343   4.436   1.601   3.141
 8482SOL     OW26344   4.663   0.884   1.081
 8482SOL    HW126345   4.570   0.918   1.064
 8482SOL    HW226346   4.670   0.854   1.175
 8483SOL     OW26347   3.498   4.908   3.122
 8483SOL    HW126348   3.539   4.994   3.152
 8483SOL    HW226349   3.522   4.835   3.186
 8484SOL     OW26350   5.619   5.514   4.689
 8484SOL    HW126351   5.597   5.611   4.691
 8484SOL    HW226352   5.679   5.495   4.611
 8485SOL     OW26353   3.546   2.471   0.485
 8485SOL    HW126354   3.557   2.531   0.405
 8485SOL    HW226355   3.595   2.386   0.469
 8486SOL     OW26356   0.491   2.126   3.268
 8486SOL    HW126357   0.478   2.162   3.361
 8486SOL    HW226358   0.402   2.102   3.229
 8487SOL     OW26359   6.455   1.347   5.825
 8487SOL    HW126360   6.490   1.255   5.809
 8487SOL    HW226361   6.492   1.409   5.756
 8488SOL     OW26362   4.729   4.736   1.842
 8488SOL    HW126363   4.828   4.726   1.841
 8488SOL    HW226364   4.687   4.650   1.869
 8489SOL     OW26365   5.575   2.210   1.772
 8489SOL    HW126366   5.576   2.275   1.848
 8489SOL    HW226367   5.592   2.118   1.806
 8490SOL     OW26368   3.067   0.405   6.599
 8490SOL    HW126369   3.105   0.429   6.510
 8490SOL    HW226370   3.045   0.307   6.601
 8491SOL     OW26371   3.053   5.883   1.880
 8491SOL    HW126372   3.102   5.823   1.818
 8491SOL    HW226373   3.115   5.918   1.950
 8492SOL     OW26374   6.440   6.413   4.275
 8492SOL    HW126375   6.507   6.355   4.227
 8492SOL    HW226376   6.367   6.438   4.211
 8493SOL     OW26377   4.605   1.253   0.050
 8493SOL    HW126378   4.526   1.310   0.074
 8493SOL    HW226379   4.605   1.235   6.974
 8494SOL     OW26380   6.640   4.754   2.413
 8494SOL    HW126381   6.648   4.849   2.443
 8494SOL    HW226382   6.639   4.694   2.493
 8495SOL     OW26383   6.268   5.442   6.503
 8495SOL    HW126384   6.309   5.496   6.577
 8495SOL    HW226385   6.319   5.357   6.491
 8496SOL     OW26386   5.887   3.307   2.497
 8496SOL    HW126387   5.888   3.336   2.402
 8496SOL    HW226388   5.794   3.310   2.532
 8497SOL     OW26389   6.677   0.677   3.763
 8497SOL    HW126390   6.776   0.673   3.751
 8497SOL    HW226391   6.656   0.742   3.836
 8498SOL     OW26392   4.529   6.873   3.942
 8498SOL    HW126393   4.553   6.960   3.900
 8498SOL    HW226394   4.442   6.840   3.905
 8499SOL     OW26395   5.817   6.250   5.696
 8499SOL    HW126396   5.873   6.284   5.773
 8499SOL    HW226397   5.863   6.273   5.610
 8500SOL     OW26398   0.539   0.989   5.760
 8500SOL    HW126399   0.575   0.946   5.677
 8500SOL    HW226400   0.509   0.919   5.824
 8501SOL     OW26401   0.877   1.624   6.480
 8501SOL    HW126402   0.951   1.562   6.509
 8501SOL    HW226403   0.917   1.701   6.430
 8502SOL     OW26404   0.818   4.485   6.913
 8502SOL    HW126405   0.813   4.398   6.963
 8502SOL    HW226406   0.727   4.527   6.910
 8503SOL     OW26407   5.244   0.988   4.587
 8503SOL    HW126408   5.269   1.049   4.512
 8503SOL    HW226409   5.165   0.933   4.560
 8504SOL     OW26410   1.226   6.799   1.854
 8504SOL    HW126411   1.288   6.758   1.922
 8504SOL    HW226412   1.159   6.857   1.900
 8505SOL     OW26413   5.163   3.235   2.792
 8505SOL    HW126414   5.068   3.206   2.794
 8505SOL    HW226415   5.210   3.204   2.874
 8506SOL     OW26416   1.303   0.426   6.010
 8506SOL    HW126417   1.381   0.487   6.020
 8506SOL    HW226418   1.263   0.438   5.919
 8507SOL     OW26419   3.391   6.186   5.387
 8507SOL    HW126420   3.460   6.258   5.386
 8507SOL    HW226421   3.359   6.169   5.293
 8508SOL     OW26422   3.234   1.629   6.568
 8508SOL    HW126423   3.224   1.649   6.470
 8508SOL    HW226424   3.193   1.703   6.621
 8509SOL     OW26425   5.711   1.730   3.148
 8509SOL    HW126426   5.662   1.753   3.065
 8509SOL    HW226427   5.806   1.710   3.126
 8510SOL     OW26428   6.794   2.424   4.460
 8510SOL    HW126429   6.821   2.402   4.366
 8510SOL    HW226430   6.770   2.340   4.508
 8511SOL     OW26431   5.298   3.023   2.462
 8511SOL    HW126432   5.395   3.003   2.448
 8511SOL    HW226433   5.266   2.975   2.544
 8512SOL     OW26434   1.800   6.513   5.892
 8512SOL    HW126435   1.796   6.500   5.793
 8512SOL    HW226436   1.707   6.518   5.929
 8513SOL     OW26437   4.710   0.102   6.316
 8513SOL    HW126438   4.766   0.033   6.270
 8513SOL    HW226439   4.675   0.065   6.401
 8514SOL     OW26440   3.108   5.836   4.286
 8514SOL    HW126441   3.026   5.840   4.229
 8514SOL    HW226442   3.143   5.743   4.287
 8515SOL     OW26443   5.792   1.726   0.680
 8515SOL    HW126444   5.693   1.718   0.691
 8515SOL    HW226445   5.819   1.697   0.588
 8516SOL     OW26446   0.206   2.114   2.429
 8516SOL    HW126447   0.255   2.131   2.344
 8516SOL    HW226448   0.124   2.171   2.432
 8517SOL     OW26449   0.935   3.793   0.637
 8517SOL    HW126450   1.004   3.758   0.573
 8517SOL    HW226451   0.954   3.889   0.657
 8518SOL     OW26452   3.423   5.535   0.668
 8518SOL    HW126453   3.471   5.604   0.723
 8518SOL    HW226454   3.459   5.536   0.575
 8519SOL     OW26455   1.404   5.092   2.934
 8519SOL    HW126456   1.323   5.039   2.957
 8519SOL    HW226457   1.378   5.168   2.874
 8520SOL     OW26458   3.000   0.387   6.866
 8520SOL    HW126459   3.015   0.396   6.767
 8520SOL    HW226460   3.086   0.402   6.915
 8521SOL     OW26461   1.112   6.939   6.820
 8521SOL    HW126462   1.186   6.955   6.885
 8521SOL    HW226463   1.100   7.020   6.763
 8522SOL     OW26464   1.795   5.975   4.763
 8522SOL    HW126465   1.803   6.041   4.688
 8522SOL    HW226466   1.840   6.011   4.844
 8523SOL     OW26467   1.339   6.980   6.984
 8523SOL    HW126468   1.418   6.919   6.985
 8523SOL    HW226469   1.355   0.035   0.025
 8524SOL     OW26470   1.623   2.597   6.092
 8524SOL    HW126471   1.663   2.594   6.184
 8524SOL    HW226472   1.675   2.538   6.031
 8525SOL     OW26473   5.355   3.051   3.296
 8525SOL    HW126474   5.268   3.013   3.328
 8525SOL    HW226475   5.407   3.083   3.375
 8526SOL     OW26476   1.992   3.180   1.756
 8526SOL    HW126477   1.979   3.269   1.801
 8526SOL    HW226478   2.090   3.165   1.742
 8527SOL     OW26479   4.184   6.861   4.163
 8527SOL    HW126480   4.144   6.865   4.071
 8527SOL    HW226481   4.231   6.947   4.183
 8528SOL     OW26482   5.030   2.682   6.977
 8528SOL    HW126483   5.101   2.651   0.018
 8528SOL    HW226484   4.991   2.603   6.929
 8529SOL     OW26485   0.216   4.934   0.057
 8529SOL    HW126486   0.286   4.862   0.053
 8529SOL    HW226487   0.152   4.914   0.131
 8530SOL     OW26488   1.895   3.374   5.753
 8530SOL    HW126489   1.868   3.377   5.657
 8530SOL    HW226490   1.814   3.366   5.811
 8531SOL     OW26491   3.938   4.866   2.100
 8531SOL    HW126492   4.000   4.865   2.179
 8531SOL    HW226493   3.846   4.841   2.130
 8532SOL     OW26494   1.568   4.398   6.434
 8532SOL    HW126495   1.578   4.355   6.524
 8532SOL    HW226496   1.481   4.369   6.394
 8533SOL     OW26497   3.836   0.739   5.818
 8533SOL    HW126498   3.806   0.821   5.769
 8533SOL    HW226499   3.758   0.677   5.830
 8534SOL     OW26500   2.104   2.777   2.938
 8534SOL    HW126501   2.174   2.808   2.873
 8534SOL    HW226502   2.138   2.788   3.032
 8535SOL     OW26503   6.465   3.409   3.962
 8535SOL    HW126504   6.423   3.496   3.985
 8535SOL    HW226505   6.394   3.347   3.927
 8536SOL     OW26506   0.088   1.140   4.415
 8536SOL    HW126507   0.123   1.056   4.457
 8536SOL    HW226508   0.063   1.122   4.320
 8537SOL     OW26509   5.960   6.893   2.597
 8537SOL    HW126510   6.045   6.857   2.559
 8537SOL    HW226511   5.890   6.895   2.526
 8538SOL     OW26512   5.189   0.878   4.886
 8538SOL    HW126513   5.141   0.945   4.942
 8538SOL    HW226514   5.213   0.919   4.798
 8539SOL     OW26515   6.898   3.112   2.849
 8539SOL    HW126516   6.840   3.079   2.923
 8539SOL    HW226517   6.987   3.065   2.853
 8540SOL     OW26518   3.967   0.426   0.262
 8540SOL    HW126519   3.874   0.427   0.224
 8540SOL    HW226520   3.971   0.490   0.339
 8541SOL     OW26521   3.259   0.084   4.946
 8541SOL    HW126522   3.179   0.043   4.990
 8541SOL    HW226523   3.342   0.051   4.990
 8542SOL     OW26524   1.066   5.708   6.176
 8542SOL    HW126525   1.059   5.808   6.179
 8542SOL    HW226526   1.072   5.677   6.081
 8543SOL     OW26527   2.220   2.785   5.676
 8543SOL    HW126528   2.172   2.839   5.607
 8543SOL    HW226529   2.230   2.838   5.759
 8544SOL     OW26530   5.621   4.913   5.810
 8544SOL    HW126531   5.683   4.834   5.815
 8544SOL    HW226532   5.639   4.974   5.886
 8545SOL     OW26533   2.680   6.997   6.428
 8545SOL    HW126534   2.713   0.052   6.483
 8545SOL    HW226535   2.580   6.994   6.431
 8546SOL     OW26536   4.783   0.926   2.728
 8546SOL    HW126537   4.770   1.025   2.719
 8546SOL    HW226538   4.863   0.909   2.786
 8547SOL     OW26539   5.382   6.060   6.123
 8547SOL    HW126540   5.313   6.026   6.059
 8547SOL    HW226541   5.472   6.027   6.095
 8548SOL     OW26542   0.874   3.469   5.359
 8548SOL    HW126543   0.921   3.508   5.281
 8548SOL    HW226544   0.837   3.543   5.416
 8549SOL     OW26545   1.916   0.220   4.162
 8549SOL    HW126546   1.986   0.177   4.106
 8549SOL    HW226547   1.945   0.313   4.187
 8550SOL     OW26548   6.717   4.708   5.743
 8550SOL    HW126549   6.816   4.722   5.753
 8550SOL    HW226550   6.687   4.744   5.654
 8551SOL     OW26551   2.165   0.437   6.042
 8551SOL    HW126552   2.171   0.483   6.130
 8551SOL    HW226553   2.085   0.469   5.992
 8552SOL     OW26554   3.185   1.940   2.440
 8552SOL    HW126555   3.148   1.920   2.349
 8552SOL    HW226556   3.111   1.971   2.500
 8553SOL     OW26557   5.196   3.956   6.761
 8553SOL    HW126558   5.286   3.992   6.786
 8553SOL    HW226559   5.205   3.861   6.731
 8554SOL     OW26560   2.374   1.355   0.479
 8554SOL    HW126561   2.313   1.278   0.460
 8554SOL    HW226562   2.342   1.405   0.559
 8555SOL     OW26563   3.580   1.766   4.112
 8555SOL    HW126564   3.646   1.723   4.174
 8555SOL    HW226565   3.619   1.851   4.076
 8556SOL     OW26566   1.087   5.476   6.853
 8556SOL    HW126567   1.002   5.499   6.806
 8556SOL    HW226568   1.131   5.560   6.884
 8557SOL     OW26569   6.664   0.726   6.613
 8557SOL    HW126570   6.597   0.709   6.540
 8557SOL    HW226571   6.668   0.823   6.634
 8558SOL     OW26572   2.937   6.088   4.268
 8558SOL    HW126573   3.009   6.022   4.290
 8558SOL    HW226574   2.966   6.180   4.297
 8559SOL     OW26575   2.077   4.482   2.865
 8559SOL    HW126576   2.128   4.506   2.783
 8559SOL    HW226577   2.020   4.558   2.893
 8560SOL     OW26578   2.370   4.629   0.584
 8560SOL    HW126579   2.304   4.631   0.659
 8560SOL    HW226580   2.334   4.572   0.510
 8561SOL     OW26581   4.009   0.609   2.903
 8561SOL    HW126582   4.107   0.623   2.890
 8561SOL    HW226583   3.971   0.559   2.825
 8562SOL     OW26584   5.510   2.225   0.452
 8562SOL    HW126585   5.539   2.319   0.469
 8562SOL    HW226586   5.449   2.223   0.373
 8563SOL     OW26587   2.956   5.140   2.450
 8563SOL    HW126588   2.875   5.151   2.507
 8563SOL    HW226589   2.995   5.049   2.466
 8564SOL     OW26590   3.874   0.027   0.457
 8564SOL    HW126591   3.812   7.009   0.389
 8564SOL    HW226592   3.823   0.049   0.540
 8565SOL     OW26593   1.923   4.808   1.325
 8565SOL    HW126594   1.947   4.905   1.332
 8565SOL    HW226595   1.830   4.794   1.359
 8566SOL     OW26596   3.112   1.139   1.997
 8566SOL    HW126597   3.178   1.106   1.930
 8566SOL    HW226598   3.156   1.144   2.087
 8567SOL     OW26599   1.784   3.173   2.477
 8567SOL    HW126600   1.810   3.265   2.507
 8567SOL    HW226601   1.733   3.179   2.392
 8568SOL     OW26602   6.055   0.424   6.296
 8568SOL    HW126603   6.021   0.516   6.280
 8568SOL    HW226604   6.152   0.419   6.274
 8569SOL     OW26605   4.366   2.120   0.717
 8569SOL    HW126606   4.323   2.067   0.644
 8569SOL    HW226607   4.422   2.192   0.678
 8570SOL     OW26608   1.996   2.632   1.785
 8570SOL    HW126609   1.901   2.660   1.770
 8570SOL    HW226610   2.001   2.575   1.867
 8571SOL     OW26611   1.615   0.801   2.988
 8571SOL    HW126612   1.692   0.846   3.033
 8571SOL    HW226613   1.571   0.737   3.052
 8572SOL     OW26614   2.453   4.181   5.620
 8572SOL    HW126615   2.456   4.276   5.651
 8572SOL    HW226616   2.476   4.177   5.523
 8573SOL     OW26617   3.191   6.698   0.436
 8573SOL    HW126618   3.148   6.693   0.526
 8573SOL    HW226619   3.255   6.621   0.425
 8574SOL     OW26620   4.456   0.804   5.298
 8574SOL    HW126621   4.519   0.781   5.373
 8574SOL    HW226622   4.362   0.795   5.330
 8575SOL     OW26623   3.206   5.979   3.336
 8575SOL    HW126624   3.183   6.072   3.365
 8575SOL    HW226625   3.199   5.917   3.414
 8576SOL     OW26626   1.959   4.578   4.105
 8576SOL    HW126627   1.885   4.521   4.069
 8576SOL    HW226628   1.947   4.672   4.071
 8577SOL     OW26629   1.816   1.120   0.909
 8577SOL    HW126630   1.821   1.219   0.923
 8577SOL    HW226631   1.880   1.093   0.837
 8578SOL     OW26632   0.181   0.203   6.263
 8578SOL    HW126633   0.204   0.160   6.176
 8578SOL    HW226634   0.144   0.295   6.246
 8579SOL     OW26635   2.716   6.435   2.449
 8579SOL    HW126636   2.729   6.479   2.360
 8579SOL    HW226637   2.779   6.475   2.515
 8580SOL     OW26638   1.511   0.541   1.421
 8580SOL    HW126639   1.519   0.552   1.520
 8580SOL    HW226640   1.504   0.631   1.378
 8581SOL     OW26641   3.206   4.775   1.385
 8581SOL    HW126642   3.277   4.846   1.385
 8581SOL    HW226643   3.226   4.709   1.457
 8582SOL     OW26644   3.553   5.323   5.824
 8582SOL    HW126645   3.575   5.241   5.770
 8582SOL    HW226646   3.455   5.325   5.844
 8583SOL     OW26647   3.923   0.183   2.489
 8583SOL    HW126648   3.858   0.119   2.447
 8583SOL    HW226649   3.969   0.236   2.418
 8584SOL     OW26650   6.600   1.635   4.725
 8584SOL    HW126651   6.614   1.734   4.730
 8584SOL    HW226652   6.540   1.614   4.648
 8585SOL     OW26653   5.322   2.506   2.881
 8585SOL    HW126654   5.371   2.439   2.826
 8585SOL    HW226655   5.358   2.507   2.974
 8586SOL     OW26656   6.768   6.410   0.220
 8586SOL    HW126657   6.812   6.333   0.265
 8586SOL    HW226658   6.669   6.398   0.222
 8587SOL     OW26659   0.362   1.645   0.120
 8587SOL    HW126660   0.357   1.577   0.046
 8587SOL    HW226661   0.424   1.719   0.092
 8588SOL     OW26662   2.607   1.585   6.112
 8588SOL    HW126663   2.524   1.539   6.081
 8588SOL    HW226664   2.601   1.602   6.211
 8589SOL     OW26665   6.720   3.380   6.900
 8589SOL    HW126666   6.659   3.370   6.822
 8589SOL    HW226667   6.673   3.348   6.983
 8590SOL     OW26668   0.419   0.632   3.963
 8590SOL    HW126669   0.486   0.705   3.977
 8590SOL    HW226670   0.460   0.559   3.909
 8591SOL     OW26671   6.814   4.597   6.528
 8591SOL    HW126672   6.734   4.544   6.499
 8591SOL    HW226673   6.885   4.534   6.561
 8592SOL     OW26674   0.192   1.612   4.633
 8592SOL    HW126675   0.100   1.576   4.619
 8592SOL    HW226676   0.235   1.564   4.711
 8593SOL     OW26677   4.796   1.424   6.880
 8593SOL    HW126678   4.792   1.383   6.971
 8593SOL    HW226679   4.839   1.514   6.885
 8594SOL     OW26680   6.453   3.038   6.311
 8594SOL    HW126681   6.516   2.961   6.298
 8594SOL    HW226682   6.411   3.031   6.401
 8595SOL     OW26683   6.222   6.476   3.101
 8595SOL    HW126684   6.247   6.504   3.194
 8595SOL    HW226685   6.199   6.558   3.047
 8596SOL     OW26686   0.860   1.530   4.001
 8596SOL    HW126687   0.945   1.476   4.004
 8596SOL    HW226688   0.873   1.616   4.050
 8597SOL     OW26689   6.177   3.347   5.807
 8597SOL    HW126690   6.102   3.372   5.746
 8597SOL    HW226691   6.143   3.334   5.900
 8598SOL     OW26692   6.367   6.978   5.031
 8598SOL    HW126693   6.305   6.923   4.975
 8598SOL    HW226694   6.456   6.984   4.986
 8599SOL     OW26695   7.006   3.822   4.263
 8599SOL    HW126696   6.927   3.809   4.203
 8599SOL    HW226697   6.974   3.828   4.358
 8600SOL     OW26698   4.940   2.036   0.802
 8600SOL    HW126699   4.947   2.057   0.900
 8600SOL    HW226700   4.863   1.974   0.786
 8601SOL     OW26701   0.082   6.026   3.619
 8601SOL    HW126702   0.137   5.945   3.640
 8601SOL    HW226703   0.066   6.078   3.702
 8602SOL     OW26704   2.030   6.146   5.500
 8602SOL    HW126705   1.984   6.059   5.480
 8602SOL    HW226706   1.970   6.203   5.557
 8603SOL     OW26707   0.326   0.247   0.172
 8603SOL    HW126708   0.262   0.320   0.197
 8603SOL    HW226709   0.303   0.164   0.222
 8604SOL     OW26710   0.563   4.658   6.371
 8604SOL    HW126711   0.542   4.709   6.455
 8604SOL    HW226712   0.502   4.580   6.363
 8605SOL     OW26713   0.117   4.868   4.840
 8605SOL    HW126714   0.186   4.841   4.773
 8605SOL    HW226715   0.071   4.952   4.810
 8606SOL     OW26716   1.760   2.220   0.315
 8606SOL    HW126717   1.851   2.217   0.272
 8606SOL    HW226718   1.767   2.268   0.403
 8607SOL     OW26719   2.172   3.863   1.475
 8607SOL    HW126720   2.092   3.911   1.437
 8607SOL    HW226721   2.238   3.930   1.509
 8608SOL     OW26722   1.712   5.145   2.874
 8608SOL    HW126723   1.742   5.208   2.945
 8608SOL    HW226724   1.625   5.104   2.900
 8609SOL     OW26725   4.158   1.607   4.005
 8609SOL    HW126726   4.224   1.682   3.993
 8609SOL    HW226727   4.164   1.545   3.926
 8610SOL     OW26728   6.871   6.197   3.256
 8610SOL    HW126729   6.876   6.117   3.197
 8610SOL    HW226730   6.820   6.269   3.210
 8611SOL     OW26731   2.692   1.132   5.043
 8611SOL    HW126732   2.609   1.142   5.098
 8611SOL    HW226733   2.759   1.079   5.094
 8612SOL     OW26734   2.997   3.162   4.371
 8612SOL    HW126735   2.949   3.248   4.384
 8612SOL    HW226736   3.012   3.146   4.273
 8613SOL     OW26737   3.977   3.163   2.356
 8613SOL    HW126738   3.970   3.252   2.309
 8613SOL    HW226739   3.890   3.143   2.401
 8614SOL     OW26740   1.559   2.272   2.983
 8614SOL    HW126741   1.478   2.329   2.975
 8614SOL    HW226742   1.622   2.293   2.908
 8615SOL     OW26743   3.676   1.404   4.449
 8615SOL    HW126744   3.591   1.382   4.496
 8615SOL    HW226745   3.707   1.324   4.396
 8616SOL     OW26746   5.823   4.307   4.131
 8616SOL    HW126747   5.757   4.340   4.063
 8616SOL    HW226748   5.834   4.376   4.202
 8617SOL     OW26749   2.378   0.314   3.540
 8617SOL    HW126750   2.354   0.272   3.452
 8617SOL    HW226751   2.297   0.355   3.582
 8618SOL     OW26752   5.767   3.880   1.241
 8618SOL    HW126753   5.687   3.889   1.181
 8618SOL    HW226754   5.839   3.943   1.211
 8619SOL     OW26755   5.241   4.753   0.215
 8619SOL    HW126756   5.195   4.696   0.284
 8619SOL    HW226757   5.303   4.817   0.260
 8620SOL     OW26758   2.289   0.620   4.411
 8620SOL    HW126759   2.323   0.536   4.367
 8620SOL    HW226760   2.207   0.598   4.464
 8621SOL     OW26761   5.704   2.825   1.915
 8621SOL    HW126762   5.632   2.857   1.978
 8621SOL    HW226763   5.666   2.755   1.855
 8622SOL     OW26764   6.913   5.173   2.417
 8622SOL    HW126765   6.829   5.151   2.367
 8622SOL    HW226766   6.982   5.102   2.398
 8623SOL     OW26767   1.148   3.430   4.578
 8623SOL    HW126768   1.079   3.391   4.638
 8623SOL    HW226769   1.170   3.365   4.505
 8624SOL     OW26770   3.539   4.207   4.674
 8624SOL    HW126771   3.463   4.172   4.619
 8624SOL    HW226772   3.557   4.302   4.650
 8625SOL     OW26773   4.050   3.024   5.442
 8625SOL    HW126774   3.998   3.109   5.452
 8625SOL    HW226775   4.085   2.995   5.532
 8626SOL     OW26776   3.767   3.495   0.610
 8626SOL    HW126777   3.735   3.422   0.550
 8626SOL    HW226778   3.720   3.490   0.698
 8627SOL     OW26779   1.844   0.968   2.337
 8627SOL    HW126780   1.938   0.945   2.313
 8627SOL    HW226781   1.836   1.065   2.357
 8628SOL     OW26782   0.036   6.488   0.780
 8628SOL    HW126783   0.078   6.454   0.864
 8628SOL    HW226784   0.009   6.411   0.723
 8629SOL     OW26785   6.930   6.391   5.589
 8629SOL    HW126786   6.996   6.364   5.519
 8629SOL    HW226787   6.970   6.378   5.680
 8630SOL     OW26788   4.860   2.988   2.293
 8630SOL    HW126789   4.921   3.063   2.318
 8630SOL    HW226790   4.807   3.014   2.212
 8631SOL     OW26791   2.963   6.728   6.264
 8631SOL    HW126792   2.901   6.653   6.288
 8631SOL    HW226793   3.056   6.704   6.290
 8632SOL     OW26794   5.544   5.252   4.789
 8632SOL    HW126795   5.446   5.271   4.795
 8632SOL    HW226796   5.595   5.329   4.827
 8633SOL     OW26797   5.831   4.282   5.493
 8633SOL    HW126798   5.895   4.210   5.518
 8633SOL    HW226799   5.862   4.326   5.409
 8634SOL     OW26800   4.427   2.795   0.428
 8634SOL    HW126801   4.488   2.819   0.503
 8634SOL    HW226802   4.397   2.879   0.382
 8635SOL     OW26803   5.018   2.651   5.779
 8635SOL    HW126804   4.933   2.604   5.754
 8635SOL    HW226805   5.087   2.584   5.806
 8636SOL     OW26806   4.333   6.743   1.794
 8636SOL    HW126807   4.379   6.828   1.768
 8636SOL    HW226808   4.277   6.758   1.875
 8637SOL     OW26809   2.244   2.425   6.567
 8637SOL    HW126810   2.155   2.403   6.526
 8637SOL    HW226811   2.238   2.419   6.666
 8638SOL     OW26812   4.935   2.808   3.511
 8638SOL    HW126813   4.984   2.797   3.425
 8638SOL    HW226814   4.846   2.764   3.506
 8639SOL     OW26815   3.682   3.931   0.216
 8639SOL    HW126816   3.663   3.869   0.292
 8639SOL    HW226817   3.781   3.943   0.206
 8640SOL     OW26818   2.887   2.819   0.823
 8640SOL    HW126819   2.976   2.850   0.789
 8640SOL    HW226820   2.899   2.761   0.903
 8641SOL     OW26821   4.546   5.273   1.895
 8641SOL    HW126822   4.447   5.263   1.894
 8641SOL    HW226823   4.579   5.289   1.802
 8642SOL     OW26824   1.382   5.579   3.556
 8642SOL    HW126825   1.466   5.633   3.543
 8642SOL    HW226826   1.316   5.604   3.486
 8643SOL     OW26827   3.679   6.205   1.001
 8643SOL    HW126828   3.733   6.253   1.069
 8643SOL    HW226829   3.583   6.230   1.010
 8644SOL     OW26830   6.065   1.880   6.268
 8644SOL    HW126831   6.023   1.795   6.236
 8644SOL    HW226832   6.151   1.859   6.315
 8645SOL     OW26833   5.850   4.672   2.820
 8645SOL    HW126834   5.923   4.688   2.753
 8645SOL    HW226835   5.796   4.756   2.829
 8646SOL     OW26836   6.548   2.363   5.052
 8646SOL    HW126837   6.567   2.458   5.026
 8646SOL    HW226838   6.624   2.305   5.024
 8647SOL     OW26839   2.127   5.501   2.059
 8647SOL    HW126840   2.188   5.541   1.990
 8647SOL    HW226841   2.178   5.483   2.142
 8648SOL     OW26842   5.126   4.657   0.482
 8648SOL    HW126843   5.216   4.635   0.520
 8648SOL    HW226844   5.067   4.577   0.489
 8649SOL     OW26845   4.869   0.320   0.613
 8649SOL    HW126846   4.833   0.404   0.653
 8649SOL    HW226847   4.943   0.342   0.550
 8650SOL     OW26848   2.421   6.609   5.293
 8650SOL    HW126849   2.415   6.631   5.390
 8650SOL    HW226850   2.350   6.659   5.243
 8651SOL     OW26851   4.360   2.230   1.714
 8651SOL    HW126852   4.428   2.293   1.751
 8651SOL    HW226853   4.303   2.278   1.648
 8652SOL     OW26854   1.299   3.100   3.872
 8652SOL    HW126855   1.247   3.166   3.817
 8652SOL    HW226856   1.244   3.017   3.884
 8653SOL     OW26857   6.436   1.731   6.629
 8653SOL    HW126858   6.380   1.684   6.697
 8653SOL    HW226859   6.501   1.667   6.589
 8654SOL     OW26860   0.348   4.614   2.290
 8654SOL    HW126861   0.413   4.691   2.294
 8654SOL    HW226862   0.259   4.648   2.260
 8655SOL     OW26863   0.189   0.938   4.597
 8655SOL    HW126864   0.178   0.991   4.682
 8655SOL    HW226865   0.237   0.853   4.617
 8656SOL     OW26866   4.971   0.090   1.228
 8656SOL    HW126867   4.970   0.001   1.183
 8656SOL    HW226868   4.994   0.160   1.160
 8657SOL     OW26869   4.260   0.691   2.828
 8657SOL    HW126870   4.316   0.670   2.909
 8657SOL    HW226871   4.315   0.743   2.763
 8658SOL     OW26872   5.710   4.504   0.597
 8658SOL    HW126873   5.702   4.432   0.666
 8658SOL    HW226874   5.633   4.498   0.533
 8659SOL     OW26875   3.279   0.914   2.450
 8659SOL    HW126876   3.226   0.980   2.504
 8659SOL    HW226877   3.322   0.961   2.373
 8660SOL     OW26878   0.394   4.332   1.766
 8660SOL    HW126879   0.411   4.359   1.861
 8660SOL    HW226880   0.447   4.391   1.705
 8661SOL     OW26881   6.638   3.985   2.240
 8661SOL    HW126882   6.616   3.979   2.143
 8661SOL    HW226883   6.565   3.945   2.294
 8662SOL     OW26884   1.570   4.191   3.672
 8662SOL    HW126885   1.582   4.135   3.754
 8662SOL    HW226886   1.606   4.282   3.689
 8663SOL     OW26887   4.451   5.416   2.241
 8663SOL    HW126888   4.380   5.403   2.172
 8663SOL    HW226889   4.421   5.375   2.327
 8664SOL     OW26890   3.534   5.968   3.449
 8664SOL    HW126891   3.511   6.057   3.488
 8664SOL    HW226892   3.494   5.895   3.505
 8665SOL     OW26893   5.635   3.480   6.950
 8665SOL    HW126894   5.726   3.486   6.908
 8665SOL    HW226895   5.626   3.391   6.996
 8666SOL     OW26896   4.523   0.034   2.373
 8666SOL    HW126897   4.489   0.112   2.426
 8666SOL    HW226898   4.513   0.054   2.275
 8667SOL     OW26899   4.933   2.153   3.154
 8667SOL    HW126900   4.862   2.110   3.210
 8667SOL    HW226901   5.023   2.122   3.184
 8668SOL     OW26902   5.062   2.345   5.012
 8668SOL    HW126903   5.097   2.267   5.064
 8668SOL    HW226904   4.971   2.323   4.977
 8669SOL     OW26905   6.397   6.277   6.777
 8669SOL    HW126906   6.393   6.182   6.808
 8669SOL    HW226907   6.473   6.288   6.714
 8670SOL     OW26908   6.707   4.431   5.929
 8670SOL    HW126909   6.743   4.521   5.902
 8670SOL    HW226910   6.614   4.442   5.963
 8671SOL     OW26911   0.764   3.160   3.086
 8671SOL    HW126912   0.799   3.085   3.031
 8671SOL    HW226913   0.756   3.130   3.181
 8672SOL     OW26914   0.244   0.998   2.744
 8672SOL    HW126915   0.217   0.952   2.660
 8672SOL    HW226916   0.185   0.967   2.819
 8673SOL     OW26917   0.628   2.086   1.204
 8673SOL    HW126918   0.724   2.113   1.204
 8673SOL    HW226919   0.583   2.124   1.285
 8674SOL     OW26920   6.676   4.004   3.513
 8674SOL    HW126921   6.723   3.991   3.426
 8674SOL    HW226922   6.577   4.002   3.498
 8675SOL     OW26923   3.479   2.056   5.075
 8675SOL    HW126924   3.486   1.967   5.118
 8675SOL    HW226925   3.401   2.106   5.114
 8676SOL     OW26926   5.312   1.214   0.887
 8676SOL    HW126927   5.269   1.124   0.884
 8676SOL    HW226928   5.291   1.258   0.974
 8677SOL     OW26929   2.057   6.852   6.189
 8677SOL    HW126930   2.142   6.806   6.163
 8677SOL    HW226931   1.992   6.846   6.114
 8678SOL     OW26932   1.612   1.969   0.274
 8678SOL    HW126933   1.628   2.066   0.292
 8678SOL    HW226934   1.698   1.919   0.279
 8679SOL     OW26935   1.724   2.465   5.875
 8679SOL    HW126936   1.637   2.441   5.833
 8679SOL    HW226937   1.799   2.432   5.817
 8680SOL     OW26938   6.451   0.628   0.260
 8680SOL    HW126939   6.522   0.670   0.316
 8680SOL    HW226940   6.392   0.572   0.317
 8681SOL     OW26941   5.706   6.529   1.630
 8681SOL    HW126942   5.611   6.510   1.604
 8681SOL    HW226943   5.735   6.615   1.589
 8682SOL     OW26944   1.927   0.667   1.754
 8682SOL    HW126945   1.850   0.674   1.691
 8682SOL    HW226946   1.909   0.597   1.823
 8683SOL     OW26947   2.168   4.513   4.280
 8683SOL    HW126948   2.224   4.434   4.254
 8683SOL    HW226949   2.083   4.510   4.228
 8684SOL     OW26950   2.380   4.348   4.136
 8684SOL    HW126951   2.355   4.253   4.154
 8684SOL    HW226952   2.437   4.353   4.054
 8685SOL     OW26953   4.973   2.463   4.611
 8685SOL    HW126954   4.906   2.534   4.634
 8685SOL    HW226955   4.938   2.374   4.639
 8686SOL     OW26956   0.994   5.179   3.369
 8686SOL    HW126957   0.992   5.208   3.273
 8686SOL    HW226958   0.903   5.192   3.410
 8687SOL     OW26959   4.998   4.199   6.176
 8687SOL    HW126960   5.011   4.266   6.102
 8687SOL    HW226961   5.058   4.221   6.252
 8688SOL     OW26962   1.032   3.887   4.793
 8688SOL    HW126963   1.110   3.827   4.814
 8688SOL    HW226964   1.064   3.965   4.739
 8689SOL     OW26965   4.042   3.564   6.891
 8689SOL    HW126966   4.043   3.598   6.797
 8689SOL    HW226967   4.113   3.612   6.944
 8690SOL     OW26968   2.078   2.170   2.738
 8690SOL    HW126969   2.037   2.180   2.828
 8690SOL    HW226970   2.013   2.198   2.668
 8691SOL     OW26971   3.611   2.358   5.359
 8691SOL    HW126972   3.578   2.448   5.329
 8691SOL    HW226973   3.535   2.293   5.357
 8692SOL     OW26974   4.379   1.657   5.204
 8692SOL    HW126975   4.348   1.570   5.244
 8692SOL    HW226976   4.466   1.683   5.245
 8693SOL     OW26977   6.403   6.725   6.159
 8693SOL    HW126978   6.433   6.774   6.240
 8693SOL    HW226979   6.373   6.790   6.089
 8694SOL     OW26980   5.125   2.990   5.208
 8694SOL    HW126981   5.194   3.004   5.278
 8694SOL    HW226982   5.165   2.939   5.132
 8695SOL     OW26983   3.676   4.592   6.539
 8695SOL    HW126984   3.734   4.563   6.463
 8695SOL    HW226985   3.580   4.587   6.511
 8696SOL     OW26986   3.045   5.529   5.738
 8696SOL    HW126987   3.011   5.606   5.685
 8696SOL    HW226988   2.982   5.509   5.813
 8697SOL     OW26989   2.006   3.729   5.591
 8697SOL    HW126990   2.032   3.825   5.593
 8697SOL    HW226991   2.050   3.681   5.667
 8698SOL     OW26992   4.761   5.669   5.794
 8698SOL    HW126993   4.709   5.743   5.838
 8698SOL    HW226994   4.856   5.698   5.781
 8699SOL     OW26995   1.537   2.783   6.639
 8699SOL    HW126996   1.475   2.773   6.718
 8699SOL    HW226997   1.630   2.763   6.668
 8700SOL     OW26998   1.336   0.576   3.461
 8700SOL    HW126999   1.401   0.521   3.408
 8700SOL    HW227000   1.296   0.646   3.401
 8701SOL     OW27001   1.032   2.247   0.180
 8701SOL    HW127002   1.027   2.293   0.092
 8701SOL    HW227003   1.094   2.298   0.241
 8702SOL     OW27004   5.324   4.483   1.042
 8702SOL    HW127005   5.264   4.543   1.095
 8702SOL    HW227006   5.419   4.511   1.055
 8703SOL     OW27007   2.416   5.991   0.652
 8703SOL    HW127008   2.353   5.989   0.729
 8703SOL    HW227009   2.510   5.994   0.686
 8704SOL     OW27010   0.800   0.830   5.125
 8704SOL    HW127011   0.801   0.921   5.167
 8704SOL    HW227012   0.717   0.820   5.071
 8705SOL     OW27013   4.116   2.397   6.763
 8705SOL    HW127014   4.205   2.395   6.808
 8705SOL    HW227015   4.090   2.493   6.746
 8706SOL     OW27016   4.872   3.430   5.982
 8706SOL    HW127017   4.850   3.517   6.027
 8706SOL    HW227018   4.875   3.358   6.050
 8707SOL     OW27019   1.831   1.661   5.040
 8707SOL    HW127020   1.740   1.653   5.082
 8707SOL    HW227021   1.871   1.749   5.065
 8708SOL     OW27022   5.881   2.932   0.344
 8708SOL    HW127023   5.817   2.874   0.394
 8708SOL    HW227024   5.881   2.905   0.248
 8709SOL     OW27025   5.865   6.729   5.503
 8709SOL    HW127026   5.823   6.654   5.555
 8709SOL    HW227027   5.835   6.817   5.540
 8710SOL     OW27028   2.128   1.374   3.569
 8710SOL    HW127029   2.178   1.416   3.645
 8710SOL    HW227030   2.093   1.285   3.597
 8711SOL     OW27031   1.493   1.461   1.505
 8711SOL    HW127032   1.404   1.505   1.511
 8711SOL    HW227033   1.554   1.517   1.449
 8712SOL     OW27034   1.205   3.891   5.576
 8712SOL    HW127035   1.270   3.951   5.530
 8712SOL    HW227036   1.141   3.945   5.630
 8713SOL     OW27037   0.271   3.764   1.167
 8713SOL    HW127038   0.268   3.751   1.267
 8713SOL    HW227039   0.366   3.780   1.138
 8714SOL     OW27040   6.867   5.732   6.296
 8714SOL    HW127041   6.825   5.797   6.232
 8714SOL    HW227042   6.814   5.728   6.380
 8715SOL     OW27043   1.872   3.677   1.732
 8715SOL    HW127044   1.957   3.725   1.753
 8715SOL    HW227045   1.883   3.623   1.648
 8716SOL     OW27046   6.665   0.289   1.685
 8716SOL    HW127047   6.711   0.218   1.737
 8716SOL    HW227048   6.721   0.372   1.683
 8717SOL     OW27049   2.711   3.056   0.293
 8717SOL    HW127050   2.639   3.061   0.224
 8717SOL    HW227051   2.757   3.145   0.299
 8718SOL     OW27052   2.346   4.981   6.264
 8718SOL    HW127053   2.418   5.009   6.328
 8718SOL    HW227054   2.295   5.062   6.234
 8719SOL     OW27055   3.329   1.142   4.479
 8719SOL    HW127056   3.403   1.099   4.530
 8719SOL    HW227057   3.303   1.228   4.524
 8720SOL     OW27058   6.967   5.064   4.793
 8720SOL    HW127059   6.910   5.111   4.861
 8720SOL    HW227060   6.955   5.107   4.704
 8721SOL     OW27061   0.438   0.175   6.681
 8721SOL    HW127062   0.398   0.242   6.743
 8721SOL    HW227063   0.379   0.164   6.601
 8722SOL     OW27064   3.246   1.078   0.915
 8722SOL    HW127065   3.244   1.153   0.981
 8722SOL    HW227066   3.203   0.997   0.956
 8723SOL     OW27067   4.113   6.917   2.424
 8723SOL    HW127068   4.087   6.888   2.516
 8723SOL    HW227069   4.038   6.968   2.382
 8724SOL     OW27070   3.992   1.288   4.109
 8724SOL    HW127071   4.043   1.243   4.036
 8724SOL    HW227072   4.043   1.281   4.195
 8725SOL     OW27073   6.625   7.001   3.772
 8725SOL    HW127074   6.655   6.910   3.742
 8725SOL    HW227075   6.557   6.992   3.845
 8726SOL     OW27076   0.082   0.998   1.234
 8726SOL    HW127077   0.146   0.930   1.270
 8726SOL    HW227078   0.095   1.008   1.136
 8727SOL     OW27079   4.955   6.676   6.119
 8727SOL    HW127080   4.999   6.626   6.194
 8727SOL    HW227081   4.901   6.612   6.064
 8728SOL     OW27082   6.286   0.363   4.240
 8728SOL    HW127083   6.289   0.344   4.338
 8728SOL    HW227084   6.325   0.453   4.222
 8729SOL     OW27085   5.002   6.009   6.612
 8729SOL    HW127086   5.084   5.997   6.557
 8729SOL    HW227087   4.943   5.929   6.602
 8730SOL     OW27088   4.548   5.223   1.096
 8730SOL    HW127089   4.563   5.294   1.027
 8730SOL    HW227090   4.634   5.177   1.115
 8731SOL     OW27091   6.925   1.773   3.749
 8731SOL    HW127092   6.968   1.762   3.660
 8731SOL    HW227093   6.995   1.777   3.821
 8732SOL     OW27094   5.886   6.476   0.171
 8732SOL    HW127095   5.816   6.404   0.171
 8732SOL    HW227096   5.900   6.509   0.078
 8733SOL     OW27097   6.229   4.740   3.027
 8733SOL    HW127098   6.230   4.724   3.126
 8733SOL    HW227099   6.281   4.668   2.982
 8734SOL     OW27100   0.245   3.896   2.009
 8734SOL    HW127101   0.283   3.987   1.994
 8734SOL    HW227102   0.312   3.840   2.057
 8735SOL     OW27103   6.893   3.259   5.122
 8735SOL    HW127104   6.953   3.304   5.188
 8735SOL    HW227105   6.888   3.161   5.144
 8736SOL     OW27106   1.110   6.144   3.813
 8736SOL    HW127107   1.044   6.173   3.882
 8736SOL    HW227108   1.077   6.061   3.768
 8737SOL     OW27109   1.698   5.941   0.262
 8737SOL    HW127110   1.756   6.008   0.309
 8737SOL    HW227111   1.737   5.918   0.174
 8738SOL     OW27112   1.470   3.006   3.587
 8738SOL    HW127113   1.436   2.919   3.623
 8738SOL    HW227114   1.489   2.997   3.489
 8739SOL     OW27115   5.745   4.589   5.399
 8739SOL    HW127116   5.766   4.574   5.496
 8739SOL    HW227117   5.681   4.665   5.390
 8740SOL     OW27118   2.889   0.683   4.991
 8740SOL    HW127119   2.800   0.718   4.963
 8740SOL    HW227120   2.954   0.759   5.001
 8741SOL     OW27121   1.337   0.961   3.123
 8741SOL    HW127122   1.428   0.983   3.088
 8741SOL    HW227123   1.288   0.906   3.056
 8742SOL     OW27124   2.699   1.856   1.841
 8742SOL    HW127125   2.670   1.941   1.797
 8742SOL    HW227126   2.655   1.779   1.796
 8743SOL     OW27127   0.647   2.810   1.463
 8743SOL    HW127128   0.743   2.838   1.460
 8743SOL    HW227129   0.597   2.869   1.526
 8744SOL     OW27130   3.321   4.108   5.697
 8744SOL    HW127131   3.262   4.029   5.680
 8744SOL    HW227132   3.357   4.142   5.611
 8745SOL     OW27133   5.909   1.274   6.046
 8745SOL    HW127134   5.912   1.180   6.012
 8745SOL    HW227135   5.991   1.292   6.099
 8746SOL     OW27136   4.623   5.243   5.734
 8746SOL    HW127137   4.616   5.232   5.635
 8746SOL    HW227138   4.551   5.305   5.766
 8747SOL     OW27139   0.401   0.361   2.551
 8747SOL    HW127140   0.406   0.422   2.630
 8747SOL    HW227141   0.433   0.409   2.470
 8748SOL     OW27142   6.497   1.630   3.878
 8748SOL    HW127143   6.488   1.706   3.943
 8748SOL    HW227144   6.581   1.642   3.825
 8749SOL     OW27145   2.339   1.066   3.870
 8749SOL    HW127146   2.422   1.084   3.818
 8749SOL    HW227147   2.284   1.149   3.876
 8750SOL     OW27148   3.627   3.742   0.454
 8750SOL    HW127149   3.672   3.700   0.533
 8750SOL    HW227150   3.605   3.671   0.387
 8751SOL     OW27151   2.200   6.429   0.543
 8751SOL    HW127152   2.204   6.529   0.539
 8751SOL    HW227153   2.110   6.401   0.577
 8752SOL     OW27154   6.503   2.820   5.320
 8752SOL    HW127155   6.418   2.844   5.365
 8752SOL    HW227156   6.484   2.764   5.239
 8753SOL     OW27157   2.704   2.398   0.879
 8753SOL    HW127158   2.767   2.432   0.809
 8753SOL    HW227159   2.675   2.475   0.937
 8754SOL     OW27160   1.671   5.053   0.048
 8754SOL    HW127161   1.720   5.052   6.983
 8754SOL    HW227162   1.658   5.147   0.078
 8755SOL     OW27163   0.492   2.980   1.628
 8755SOL    HW127164   0.435   2.909   1.669
 8755SOL    HW227165   0.469   3.069   1.668
 8756SOL     OW27166   1.705   1.884   2.168
 8756SOL    HW127167   1.706   1.837   2.256
 8756SOL    HW227168   1.693   1.982   2.183
 8757SOL     OW27169   4.941   6.013   5.446
 8757SOL    HW127170   4.936   6.051   5.353
 8757SOL    HW227171   4.933   6.086   5.513
 8758SOL     OW27172   3.616   5.915   5.070
 8758SOL    HW127173   3.578   5.849   5.134
 8758SOL    HW227174   3.549   5.936   4.999
 8759SOL     OW27175   5.817   0.512   0.784
 8759SOL    HW127176   5.879   0.477   0.854
 8759SOL    HW227177   5.853   0.598   0.747
 8760SOL     OW27178   2.435   2.701   4.241
 8760SOL    HW127179   2.437   2.633   4.167
 8760SOL    HW227180   2.379   2.779   4.213
 8761SOL     OW27181   5.207   1.571   2.924
 8761SOL    HW127182   5.238   1.598   2.833
 8761SOL    HW227183   5.275   1.510   2.966
 8762SOL     OW27184   3.208   4.932   3.529
 8762SOL    HW127185   3.176   4.878   3.452
 8762SOL    HW227186   3.142   5.006   3.548
 8763SOL     OW27187   0.673   0.327   6.568
 8763SOL    HW127188   0.690   0.392   6.494
 8763SOL    HW227189   0.578   0.336   6.598
 8764SOL     OW27190   2.982   5.139   5.309
 8764SOL    HW127191   3.080   5.149   5.291
 8764SOL    HW227192   2.946   5.063   5.255
 8765SOL     OW27193   4.103   6.504   4.542
 8765SOL    HW127194   4.051   6.549   4.614
 8765SOL    HW227195   4.101   6.560   4.459
 8766SOL     OW27196   4.612   6.730   6.022
 8766SOL    HW127197   4.657   6.816   5.997
 8766SOL    HW227198   4.618   6.666   5.946
 8767SOL     OW27199   1.900   0.717   3.883
 8767SOL    HW127200   1.802   0.706   3.863
 8767SOL    HW227201   1.945   0.760   3.805
 8768SOL     OW27202   6.590   1.942   6.686
 8768SOL    HW127203   6.521   1.870   6.689
 8768SOL    HW227204   6.675   1.909   6.727
 8769SOL     OW27205   6.145   0.135   0.230
 8769SOL    HW127206   6.081   0.141   0.153
 8769SOL    HW227207   6.113   0.193   0.304
 8770SOL     OW27208   5.182   2.617   0.215
 8770SOL    HW127209   5.143   2.596   0.304
 8770SOL    HW227210   5.263   2.561   0.200
 8771SOL     OW27211   0.201   2.642   6.960
 8771SOL    HW127212   0.292   2.623   6.922
 8771SOL    HW227213   0.164   2.559   7.001
 8772SOL     OW27214   6.963   0.348   4.273
 8772SOL    HW127215   6.948   0.276   4.341
 8772SOL    HW227216   6.875   0.375   4.234
 8773SOL     OW27217   0.405   0.721   4.644
 8773SOL    HW127218   0.458   0.800   4.615
 8773SOL    HW227219   0.422   0.645   4.582
 8774SOL     OW27220   0.850   1.098   0.350
 8774SOL    HW127221   0.854   1.144   0.438
 8774SOL    HW227222   0.814   1.160   0.280
 8775SOL     OW27223   5.881   2.794   3.821
 8775SOL    HW127224   5.888   2.883   3.867
 8775SOL    HW227225   5.927   2.725   3.877
 8776SOL     OW27226   4.595   2.851   0.614
 8776SOL    HW127227   4.642   2.767   0.641
 8776SOL    HW227228   4.529   2.876   0.685
 8777SOL     OW27229   6.607   2.427   2.741
 8777SOL    HW127230   6.652   2.496   2.684
 8777SOL    HW227231   6.666   2.404   2.818
 8778SOL     OW27232   3.221   5.039   6.996
 8778SOL    HW127233   3.174   5.124   6.973
 8778SOL    HW227234   3.290   5.057   0.044
 8779SOL     OW27235   4.314   4.752   3.176
 8779SOL    HW127236   4.235   4.765   3.235
 8779SOL    HW227237   4.371   4.678   3.212
 8780SOL     OW27238   0.352   4.737   3.630
 8780SOL    HW127239   0.330   4.830   3.660
 8780SOL    HW227240   0.416   4.696   3.695
 8781SOL     OW27241   3.317   0.991   1.880
 8781SOL    HW127242   3.377   0.913   1.862
 8781SOL    HW227243   3.320   1.054   1.803
 8782SOL     OW27244   5.423   2.200   0.986
 8782SOL    HW127245   5.495   2.266   1.011
 8782SOL    HW227246   5.409   2.202   0.887
 8783SOL     OW27247   5.161   3.767   4.935
 8783SOL    HW127248   5.206   3.855   4.930
 8783SOL    HW227249   5.199   3.713   5.011
 8784SOL     OW27250   5.026   0.802   0.920
 8784SOL    HW127251   5.106   0.787   0.978
 8784SOL    HW227252   4.974   0.717   0.912
 8785SOL     OW27253   0.151   5.741   5.072
 8785SOL    HW127254   0.168   5.815   5.007
 8785SOL    HW227255   0.101   5.668   5.026
 8786SOL     OW27256   5.072   1.345   2.501
 8786SOL    HW127257   5.091   1.294   2.585
 8786SOL    HW227258   5.153   1.397   2.475
 8787SOL     OW27259   3.843   5.596   0.648
 8787SOL    HW127260   3.913   5.600   0.719
 8787SOL    HW227261   3.754   5.618   0.688
 8788SOL     OW27262   0.307   0.138   3.744
 8788SOL    HW127263   0.272   0.232   3.739
 8788SOL    HW227264   0.234   0.077   3.773
 8789SOL     OW27265   0.489   2.541   6.052
 8789SOL    HW127266   0.538   2.520   5.967
 8789SOL    HW227267   0.395   2.509   6.046
 8790SOL     OW27268   4.579   2.931   5.503
 8790SOL    HW127269   4.567   3.021   5.545
 8790SOL    HW227270   4.494   2.879   5.509
 8791SOL     OW27271   3.230   6.194   4.623
 8791SOL    HW127272   3.201   6.104   4.590
 8791SOL    HW227273   3.330   6.198   4.627
 8792SOL     OW27274   5.410   4.422   1.748
 8792SOL    HW127275   5.398   4.485   1.671
 8792SOL    HW227276   5.452   4.471   1.824
 8793SOL     OW27277   0.160   6.230   4.898
 8793SOL    HW127278   0.244   6.253   4.850
 8793SOL    HW227279   0.094   6.304   4.887
 8794SOL     OW27280   6.618   1.347   2.468
 8794SOL    HW127281   6.553   1.330   2.394
 8794SOL    HW227282   6.671   1.263   2.485
 8795SOL     OW27283   1.625   6.153   6.754
 8795SOL    HW127284   1.682   6.098   6.815
 8795SOL    HW227285   1.667   6.242   6.740
 8796SOL     OW27286   6.329   3.654   4.052
 8796SOL    HW127287   6.259   3.719   4.021
 8796SOL    HW227288   6.307   3.621   4.143
 8797SOL     OW27289   4.600   6.447   3.604
 8797SOL    HW127290   4.631   6.500   3.683
 8797SOL    HW227291   4.665   6.458   3.529
 8798SOL     OW27292   3.099   0.036   5.815
 8798SOL    HW127293   3.081   0.125   5.858
 8798SOL    HW227294   3.160   7.004   5.873
 8799SOL     OW27295   1.495   5.667   2.068
 8799SOL    HW127296   1.542   5.694   1.984
 8799SOL    HW227297   1.415   5.725   2.081
 8800SOL     OW27298   6.730   5.872   5.027
 8800SOL    HW127299   6.743   5.791   4.969
 8800SOL    HW227300   6.810   5.884   5.087
 8801SOL     OW27301   5.978   3.459   5.635
 8801SOL    HW127302   5.903   3.433   5.574
 8801SOL    HW227303   5.980   3.559   5.645
 8802SOL     OW27304   1.490   6.553   6.584
 8802SOL    HW127305   1.549   6.518   6.512
 8802SOL    HW227306   1.498   6.652   6.589
 8803SOL     OW27307   6.750   6.409   5.971
 8803SOL    HW127308   6.659   6.435   6.005
 8803SOL    HW227309   6.747   6.314   5.938
 8804SOL     OW27310   1.953   6.110   2.588
 8804SOL    HW127311   1.968   6.055   2.669
 8804SOL    HW227312   2.035   6.166   2.571
 8805SOL     OW27313   5.406   4.846   3.684
 8805SOL    HW127314   5.416   4.945   3.698
 8805SOL    HW227315   5.473   4.815   3.616
 8806SOL     OW27316   1.662   0.413   1.244
 8806SOL    HW127317   1.616   0.454   1.323
 8806SOL    HW227318   1.728   0.344   1.276
 8807SOL     OW27319   5.165   2.777   1.371
 8807SOL    HW127320   5.102   2.816   1.438
 8807SOL    HW227321   5.252   2.826   1.374
 8808SOL     OW27322   1.328   2.148   6.759
 8808SOL    HW127323   1.386   2.222   6.723
 8808SOL    HW227324   1.232   2.166   6.733
 8809SOL     OW27325   0.347   3.595   3.157
 8809SOL    HW127326   0.437   3.565   3.125
 8809SOL    HW227327   0.303   3.523   3.210
 8810SOL     OW27328   0.783   1.078   5.868
 8810SOL    HW127329   0.683   1.081   5.863
 8810SOL    HW227330   0.822   1.095   5.778
 8811SOL     OW27331   4.265   5.218   2.554
 8811SOL    HW127332   4.349   5.235   2.605
 8811SOL    HW227333   4.264   5.123   2.522
 8812SOL     OW27334   4.781   1.098   6.236
 8812SOL    HW127335   4.804   1.147   6.152
 8812SOL    HW227336   4.860   1.045   6.267
 8813SOL     OW27337   1.975   3.952   3.313
 8813SOL    HW127338   2.001   3.922   3.405
 8813SOL    HW227339   2.020   3.893   3.245
 8814SOL     OW27340   4.721   0.169   5.416
 8814SOL    HW127341   4.622   0.174   5.429
 8814SOL    HW227342   4.756   0.087   5.462
 8815SOL     OW27343   5.361   0.782   0.789
 8815SOL    HW127344   5.358   0.793   0.888
 8815SOL    HW227345   5.367   0.871   0.745
 8816SOL     OW27346   0.863   5.987   4.475
 8816SOL    HW127347   0.817   5.917   4.530
 8816SOL    HW227348   0.961   5.980   4.489
 8817SOL     OW27349   1.436   2.764   3.721
 8817SOL    HW127350   1.389   2.748   3.808
 8817SOL    HW227351   1.532   2.738   3.730
 8818SOL     OW27352   0.529   0.148   5.930
 8818SOL    HW127353   0.547   0.073   5.866
 8818SOL    HW227354   0.551   0.118   6.023
 8819SOL     OW27355   5.264   4.870   6.685
 8819SOL    HW127356   5.355   4.909   6.700
 8819SOL    HW227357   5.214   4.868   6.772
 8820SOL     OW27358   3.477   0.564   5.225
 8820SOL    HW127359   3.409   0.578   5.297
 8820SOL    HW227360   3.512   0.653   5.195
 8821SOL     OW27361   0.100   4.488   6.111
 8821SOL    HW127362   0.019   4.436   6.136
 8821SOL    HW227363   0.120   4.473   6.014
 8822SOL     OW27364   6.469   0.472   4.724
 8822SOL    HW127365   6.556   0.424   4.720
 8822SOL    HW227366   6.432   0.467   4.817
 8823SOL     OW27367   3.556   1.075   3.074
 8823SOL    HW127368   3.505   1.006   3.125
 8823SOL    HW227369   3.539   1.165   3.115
 8824SOL     OW27370   1.512   0.686   2.515
 8824SOL    HW127371   1.565   0.714   2.595
 8824SOL    HW227372   1.563   0.707   2.431
 8825SOL     OW27373   0.139   6.763   0.347
 8825SOL    HW127374   0.067   6.720   0.291
 8825SOL    HW227375   0.225   6.764   0.295
 8826SOL     OW27376   1.180   4.123   0.903
 8826SOL    HW127377   1.206   4.153   0.995
 8826SOL    HW227378   1.250   4.152   0.838
 8827SOL     OW27379   4.648   6.809   2.906
 8827SOL    HW127380   4.621   6.848   2.818
 8827SOL    HW227381   4.578   6.829   2.974
 8828SOL     OW27382   4.687   2.399   6.157
 8828SOL    HW127383   4.787   2.404   6.158
 8828SOL    HW227384   4.650   2.457   6.230
 8829SOL     OW27385   6.670   1.322   1.631
 8829SOL    HW127386   6.765   1.349   1.644
 8829SOL    HW227387   6.665   1.226   1.605
 8830SOL     OW27388   3.008   0.964   3.179
 8830SOL    HW127389   3.034   0.908   3.101
 8830SOL    HW227390   2.986   1.057   3.148
 8831SOL     OW27391   0.614   2.745   1.952
 8831SOL    HW127392   0.615   2.840   1.983
 8831SOL    HW227393   0.650   2.686   2.024
 8832SOL     OW27394   5.290   0.738   5.135
 8832SOL    HW127395   5.314   0.824   5.180
 8832SOL    HW227396   5.298   0.749   5.036
 8833SOL     OW27397   5.311   2.801   1.831
 8833SOL    HW127398   5.346   2.819   1.739
 8833SOL    HW227399   5.212   2.792   1.828
 8834SOL     OW27400   5.895   3.987   5.652
 8834SOL    HW127401   5.900   3.910   5.716
 8834SOL    HW227402   5.986   4.021   5.633
 8835SOL     OW27403   6.743   0.387   5.650
 8835SOL    HW127404   6.799   0.428   5.722
 8835SOL    HW227405   6.733   0.451   5.574
 8836SOL     OW27406   4.591   1.378   1.711
 8836SOL    HW127407   4.643   1.411   1.789
 8836SOL    HW227408   4.627   1.289   1.682
 8837SOL     OW27409   3.351   6.469   0.494
 8837SOL    HW127410   3.448   6.490   0.488
 8837SOL    HW227411   3.333   6.418   0.578
 8838SOL     OW27412   1.489   3.790   3.572
 8838SOL    HW127413   1.528   3.763   3.660
 8838SOL    HW227414   1.531   3.876   3.542
 8839SOL     OW27415   5.596   5.616   2.406
 8839SOL    HW127416   5.638   5.705   2.423
 8839SOL    HW227417   5.512   5.628   2.353
 8840SOL     OW27418   6.668   0.455   1.167
 8840SOL    HW127419   6.655   0.356   1.164
 8840SOL    HW227420   6.655   0.487   1.260
 8841SOL     OW27421   3.567   0.543   0.858
 8841SOL    HW127422   3.537   0.458   0.814
 8841SOL    HW227423   3.652   0.527   0.907
 8842SOL     OW27424   3.879   4.036   4.176
 8842SOL    HW127425   3.812   3.987   4.120
 8842SOL    HW227426   3.946   3.971   4.212
 8843SOL     OW27427   2.788   6.181   6.605
 8843SOL    HW127428   2.782   6.281   6.605
 8843SOL    HW227429   2.718   6.143   6.665
 8844SOL     OW27430   3.558   2.644   6.467
 8844SOL    HW127431   3.469   2.689   6.456
 8844SOL    HW227432   3.625   2.712   6.498
 8845SOL     OW27433   6.697   4.275   2.279
 8845SOL    HW127434   6.679   4.177   2.280
 8845SOL    HW227435   6.699   4.308   2.185
 8846SOL     OW27436   5.358   4.246   4.605
 8846SOL    HW127437   5.359   4.148   4.624
 8846SOL    HW227438   5.452   4.281   4.606
 8847SOL     OW27439   1.684   1.906   3.917
 8847SOL    HW127440   1.698   1.864   3.827
 8847SOL    HW227441   1.593   1.945   3.922
 8848SOL     OW27442   5.248   1.339   0.355
 8848SOL    HW127443   5.234   1.429   0.314
 8848SOL    HW227444   5.238   1.346   0.454
 8849SOL     OW27445   2.920   4.810   4.453
 8849SOL    HW127446   3.007   4.841   4.491
 8849SOL    HW227447   2.855   4.794   4.528
 8850SOL     OW27448   3.241   1.282   1.150
 8850SOL    HW127449   3.179   1.230   1.209
 8850SOL    HW227450   3.192   1.360   1.112
 8851SOL     OW27451   6.745   4.567   2.180
 8851SOL    HW127452   6.780   4.499   2.245
 8851SOL    HW227453   6.821   4.608   2.130
 8852SOL     OW27454   4.739   2.583   4.694
 8852SOL    HW127455   4.715   2.572   4.791
 8852SOL    HW227456   4.670   2.538   4.638
 8853SOL     OW27457   4.089   1.291   5.710
 8853SOL    HW127458   4.054   1.290   5.617
 8853SOL    HW227459   4.033   1.352   5.766
 8854SOL     OW27460   1.332   1.894   6.892
 8854SOL    HW127461   1.251   1.892   6.951
 8854SOL    HW227462   1.336   1.983   6.845
 8855SOL     OW27463   6.287   5.146   0.151
 8855SOL    HW127464   6.372   5.094   0.145
 8855SOL    HW227465   6.211   5.083   0.167
 8856SOL     OW27466   5.590   0.990   4.285
 8856SOL    HW127467   5.601   0.905   4.234
 8856SOL    HW227468   5.656   0.993   4.361
 8857SOL     OW27469   6.934   2.459   4.962
 8857SOL    HW127470   6.889   2.542   4.929
 8857SOL    HW227471   6.987   2.417   4.888
 8858SOL     OW27472   0.246   4.427   6.530
 8858SOL    HW127473   0.253   4.489   6.452
 8858SOL    HW227474   0.243   4.333   6.498
 8859SOL     OW27475   2.887   5.270   4.982
 8859SOL    HW127476   2.923   5.338   4.918
 8859SOL    HW227477   2.963   5.227   5.031
 8860SOL     OW27478   1.321   2.845   1.484
 8860SOL    HW127479   1.251   2.900   1.438
 8860SOL    HW227480   1.316   2.751   1.450
 8861SOL     OW27481   2.860   2.879   0.502
 8861SOL    HW127482   2.841   2.903   0.598
 8861SOL    HW227483   2.820   2.948   0.442
 8862SOL     OW27484   6.712   2.184   4.543
 8862SOL    HW127485   6.763   2.141   4.618
 8862SOL    HW227486   6.696   2.118   4.470
 8863SOL     OW27487   1.513   5.521   5.235
 8863SOL    HW127488   1.594   5.571   5.204
 8863SOL    HW227489   1.451   5.507   5.159
 8864SOL     OW27490   0.880   3.182   6.124
 8864SOL    HW127491   0.861   3.174   6.222
 8864SOL    HW227492   0.957   3.123   6.100
 8865SOL     OW27493   2.527   2.237   5.960
 8865SOL    HW127494   2.535   2.334   5.941
 8865SOL    HW227495   2.591   2.212   6.033
 8866SOL     OW27496   3.872   0.140   5.330
 8866SOL    HW127497   3.945   0.195   5.370
 8866SOL    HW227498   3.881   0.140   5.230
 8867SOL     OW27499   6.967   2.392   3.648
 8867SOL    HW127500   6.973   2.297   3.617
 8867SOL    HW227501   0.035   2.435   3.642
 8868SOL     OW27502   4.467   3.906   1.123
 8868SOL    HW127503   4.437   3.924   1.217
 8868SOL    HW227504   4.546   3.963   1.102
 8869SOL     OW27505   5.299   2.972   3.865
 8869SOL    HW127506   5.252   2.890   3.898
 8869SOL    HW227507   5.232   3.044   3.847
 8870SOL     OW27508   3.927   1.700   0.953
 8870SOL    HW127509   3.828   1.692   0.938
 8870SOL    HW227510   3.971   1.732   0.869
 8871SOL     OW27511   1.601   2.030   4.434
 8871SOL    HW127512   1.627   2.126   4.432
 8871SOL    HW227513   1.672   1.975   4.389
 8872SOL     OW27514   2.024   3.289   3.693
 8872SOL    HW127515   1.936   3.295   3.741
 8872SOL    HW227516   2.094   3.254   3.755
 8873SOL     OW27517   6.611   6.393   4.669
 8873SOL    HW127518   6.699   6.443   4.667
 8873SOL    HW227519   6.608   6.336   4.751
 8874SOL     OW27520   1.717   1.154   0.389
 8874SOL    HW127521   1.800   1.196   0.427
 8874SOL    HW227522   1.637   1.206   0.417
 8875SOL     OW27523   1.766   1.717   4.106
 8875SOL    HW127524   1.729   1.788   4.046
 8875SOL    HW227525   1.773   1.631   4.056
 8876SOL     OW27526   1.786   0.054   4.369
 8876SOL    HW127527   1.702   0.002   4.349
 8876SOL    HW227528   1.798   0.126   4.301
 8877SOL     OW27529   2.465   6.396   4.897
 8877SOL    HW127530   2.478   6.419   4.800
 8877SOL    HW227531   2.466   6.297   4.908
 8878SOL     OW27532   6.165   4.456   6.701
 8878SOL    HW127533   6.193   4.534   6.757
 8878SOL    HW227534   6.231   4.382   6.711
 8879SOL     OW27535   4.494   5.869   4.647
 8879SOL    HW127536   4.402   5.852   4.681
 8879SOL    HW227537   4.489   5.905   4.554
 8880SOL     OW27538   6.950   5.576   5.365
 8880SOL    HW127539   6.956   5.529   5.453
 8880SOL    HW227540   0.019   5.609   5.339
 8881SOL     OW27541   6.930   0.592   2.164
 8881SOL    HW127542   7.018   0.629   2.135
 8881SOL    HW227543   6.920   0.498   2.130
 8882SOL     OW27544   5.677   1.861   6.632
 8882SOL    HW127545   5.722   1.914   6.704
 8882SOL    HW227546   5.715   1.768   6.632
 8883SOL     OW27547   6.247   1.064   5.161
 8883SOL    HW127548   6.173   1.110   5.111
 8883SOL    HW227549   6.212   1.031   5.248
 8884SOL     OW27550   6.260   0.564   5.666
 8884SOL    HW127551   6.310   0.577   5.751
 8884SOL    HW227552   6.178   0.622   5.665
 8885SOL     OW27553   4.960   3.644   1.544
 8885SOL    HW127554   4.864   3.625   1.562
 8885SOL    HW227555   5.007   3.559   1.521
 8886SOL     OW27556   3.217   6.889   6.741
 8886SOL    HW127557   3.229   6.944   6.659
 8886SOL    HW227558   3.150   6.934   6.802
 8887SOL     OW27559   2.274   0.565   1.283
 8887SOL    HW127560   2.302   0.599   1.193
 8887SOL    HW227561   2.175   0.574   1.292
 8888SOL     OW27562   2.913   1.112   2.852
 8888SOL    HW127563   3.011   1.136   2.848
 8888SOL    HW227564   2.903   1.014   2.868
 8889SOL     OW27565   3.892   0.319   4.992
 8889SOL    HW127566   3.849   0.391   5.046
 8889SOL    HW227567   3.821   0.259   4.955
 8890SOL     OW27568   1.098   4.879   4.278
 8890SOL    HW127569   1.195   4.883   4.252
 8890SOL    HW227570   1.084   4.806   4.345
 8891SOL     OW27571   3.317   1.801   6.981
 8891SOL    HW127572   3.307   1.879   6.920
 8891SOL    HW227573   3.242   1.736   6.965
 8892SOL     OW27574   1.142   6.572   2.473
 8892SOL    HW127575   1.228   6.548   2.428
 8892SOL    HW227576   1.065   6.543   2.416
 8893SOL     OW27577   0.645   1.739   1.763
 8893SOL    HW127578   0.701   1.680   1.704
 8893SOL    HW227579   0.594   1.804   1.706
 8894SOL     OW27580   3.869   3.422   6.546
 8894SOL    HW127581   3.914   3.494   6.599
 8894SOL    HW227582   3.904   3.423   6.452
 8895SOL     OW27583   0.489   6.805   1.726
 8895SOL    HW127584   0.451   6.859   1.651
 8895SOL    HW227585   0.494   6.861   1.809
 8896SOL     OW27586   1.997   4.084   5.073
 8896SOL    HW127587   2.047   4.071   5.159
 8896SOL    HW227588   2.045   4.037   4.999
 8897SOL     OW27589   1.314   2.296   1.569
 8897SOL    HW127590   1.293   2.199   1.556
 8897SOL    HW227591   1.413   2.308   1.577
 8898SOL     OW27592   6.392   3.398   4.771
 8898SOL    HW127593   6.445   3.380   4.853
 8898SOL    HW227594   6.452   3.435   4.700
 8899SOL     OW27595   2.415   4.380   0.175
 8899SOL    HW127596   2.478   4.442   0.128
 8899SOL    HW227597   2.363   4.328   0.108
 8900SOL     OW27598   5.840   1.963   3.417
 8900SOL    HW127599   5.751   1.939   3.377
 8900SOL    HW227600   5.846   1.926   3.509
 8901SOL     OW27601   2.176   6.827   2.694
 8901SOL    HW127602   2.210   6.774   2.771
 8901SOL    HW227603   2.196   6.924   2.709
 8902SOL     OW27604   1.844   5.542   6.204
 8902SOL    HW127605   1.891   5.613   6.151
 8902SOL    HW227606   1.839   5.571   6.300
 8903SOL     OW27607   1.264   1.764   3.487
 8903SOL    HW127608   1.196   1.780   3.415
 8903SOL    HW227609   1.355   1.760   3.446
 8904SOL     OW27610   1.326   5.879   3.427
 8904SOL    HW127611   1.376   5.819   3.365
 8904SOL    HW227612   1.382   5.958   3.449
 8905SOL     OW27613   2.503   4.193   5.343
 8905SOL    HW127614   2.464   4.108   5.307
 8905SOL    HW227615   2.567   4.232   5.275
 8906SOL     OW27616   1.556   5.118   5.123
 8906SOL    HW127617   1.537   5.154   5.214
 8906SOL    HW227618   1.591   5.025   5.131
 8907SOL     OW27619   3.530   2.648   5.294
 8907SOL    HW127620   3.446   2.701   5.279
 8907SOL    HW227621   3.609   2.703   5.270
 8908SOL     OW27622   0.064   2.617   1.421
 8908SOL    HW127623   6.998   2.630   1.467
 8908SOL    HW227624   0.078   2.691   1.355
 8909SOL     OW27625   3.038   0.294   5.906
 8909SOL    HW127626   2.967   0.330   5.847
 8909SOL    HW227627   3.016   0.314   6.002
 8910SOL     OW27628   3.773   4.211   6.997
 8910SOL    HW127629   3.769   4.276   6.921
 8910SOL    HW227630   3.866   4.174   7.004
 8911SOL     OW27631   3.546   2.067   3.999
 8911SOL    HW127632   3.465   2.098   3.950
 8911SOL    HW227633   3.521   2.039   4.092
 8912SOL     OW27634   4.802   2.521   5.657
 8912SOL    HW127635   4.790   2.423   5.674
 8912SOL    HW227636   4.712   2.564   5.647
 8913SOL     OW27637   5.013   3.749   0.737
 8913SOL    HW127638   4.938   3.729   0.800
 8913SOL    HW227639   4.988   3.826   0.679
 8914SOL     OW27640   4.251   1.907   4.004
 8914SOL    HW127641   4.206   1.997   4.009
 8914SOL    HW227642   4.350   1.920   4.002
 8915SOL     OW27643   1.438   5.304   1.702
 8915SOL    HW127644   1.489   5.221   1.678
 8915SOL    HW227645   1.397   5.293   1.792
 8916SOL     OW27646   6.785   4.046   1.543
 8916SOL    HW127647   6.770   4.059   1.445
 8916SOL    HW227648   6.717   4.099   1.594
 8917SOL     OW27649   5.903   5.702   6.195
 8917SOL    HW127650   5.950   5.747   6.271
 8917SOL    HW227651   5.811   5.676   6.224
 8918SOL     OW27652   4.439   4.570   6.264
 8918SOL    HW127653   4.493   4.488   6.245
 8918SOL    HW227654   4.500   4.647   6.283
 8919SOL     OW27655   2.220   4.173   1.099
 8919SOL    HW127656   2.244   4.130   1.012
 8919SOL    HW227657   2.285   4.146   1.169
 8920SOL     OW27658   6.555   6.035   5.803
 8920SOL    HW127659   6.554   6.015   5.705
 8920SOL    HW227660   6.475   5.995   5.846
 8921SOL     OW27661   1.365   6.752   3.541
 8921SOL    HW127662   1.284   6.733   3.485
 8921SOL    HW227663   1.340   6.812   3.617
 8922SOL     OW27664   6.294   4.290   0.098
 8922SOL    HW127665   6.345   4.254   0.176
 8922SOL    HW227666   6.262   4.215   0.041
 8923SOL     OW27667   1.836   4.098   5.378
 8923SOL    HW127668   1.814   4.173   5.316
 8923SOL    HW227669   1.881   4.135   5.460
 8924SOL     OW27670   2.495   6.029   5.428
 8924SOL    HW127671   2.492   6.026   5.328
 8924SOL    HW227672   2.574   6.082   5.458
 8925SOL     OW27673   5.913   6.709   2.209
 8925SOL    HW127674   6.009   6.683   2.199
 8925SOL    HW227675   5.906   6.809   2.211
 8926SOL     OW27676   5.851   1.634   0.435
 8926SOL    HW127677   5.758   1.607   0.412
 8926SOL    HW227678   5.913   1.557   0.423
 8927SOL     OW27679   2.540   1.867   5.296
 8927SOL    HW127680   2.531   1.769   5.284
 8927SOL    HW227681   2.635   1.889   5.320
 8928SOL     OW27682   0.348   0.292   5.207
 8928SOL    HW127683   0.292   0.224   5.159
 8928SOL    HW227684   0.308   0.311   5.296
 8929SOL     OW27685   5.997   3.638   4.570
 8929SOL    HW127686   6.011   3.701   4.646
 8929SOL    HW227687   6.025   3.546   4.598
 8930SOL     OW27688   1.042   4.731   4.787
 8930SOL    HW127689   0.952   4.689   4.773
 8930SOL    HW227690   1.041   4.782   4.874
 8931SOL     OW27691   5.611   1.056   1.161
 8931SOL    HW127692   5.673   1.009   1.098
 8931SOL    HW227693   5.595   0.999   1.241
 8932SOL     OW27694   6.733   0.237   6.947
 8932SOL    HW127695   6.753   0.230   0.023
 8932SOL    HW227696   6.697   0.328   6.927
 8933SOL     OW27697   1.798   6.758   5.432
 8933SOL    HW127698   1.707   6.796   5.412
 8933SOL    HW227699   1.867   6.828   5.415
 8934SOL     OW27700   4.594   6.513   2.899
 8934SOL    HW127701   4.683   6.491   2.861
 8934SOL    HW227702   4.584   6.613   2.905
 8935SOL     OW27703   5.571   2.723   3.462
 8935SOL    HW127704   5.630   2.657   3.416
 8935SOL    HW227705   5.494   2.746   3.403
 8936SOL     OW27706   1.859   4.808   2.342
 8936SOL    HW127707   1.789   4.800   2.413
 8936SOL    HW227708   1.830   4.758   2.260
 8937SOL     OW27709   4.986   6.769   5.620
 8937SOL    HW127710   5.042   6.753   5.701
 8937SOL    HW227711   5.045   6.793   5.543
 8938SOL     OW27712   5.736   6.875   2.008
 8938SOL    HW127713   5.730   6.794   2.066
 8938SOL    HW227714   5.678   6.947   2.045
 8939SOL     OW27715   0.171   2.724   3.788
 8939SOL    HW127716   0.186   2.657   3.715
 8939SOL    HW227717   0.226   2.699   3.867
 8940SOL     OW27718   6.570   2.846   1.026
 8940SOL    HW127719   6.507   2.782   1.070
 8940SOL    HW227720   6.519   2.911   0.971
 8941SOL     OW27721   4.501   2.463   1.799
 8941SOL    HW127722   4.557   2.526   1.745
 8941SOL    HW227723   4.513   2.482   1.896
 8942SOL     OW27724   6.015   3.990   4.453
 8942SOL    HW127725   5.922   4.024   4.443
 8942SOL    HW227726   6.027   3.910   4.394
 8943SOL     OW27727   4.762   3.706   0.885
 8943SOL    HW127728   4.786   3.705   0.982
 8943SOL    HW227729   4.714   3.791   0.864
 8944SOL     OW27730   5.514   5.453   5.135
 8944SOL    HW127731   5.508   5.354   5.121
 8944SOL    HW227732   5.476   5.501   5.056
 8945SOL     OW27733   5.216   4.092   3.381
 8945SOL    HW127734   5.275   4.133   3.312
 8945SOL    HW227735   5.233   3.993   3.386
 8946SOL     OW27736   4.716   1.118   5.291
 8946SOL    HW127737   4.711   1.036   5.233
 8946SOL    HW227738   4.786   1.104   5.362
 8947SOL     OW27739   2.231   5.182   6.561
 8947SOL    HW127740   2.295   5.122   6.609
 8947SOL    HW227741   2.282   5.249   6.507
 8948SOL     OW27742   5.305   1.094   2.985
 8948SOL    HW127743   5.315   1.029   3.060
 8948SOL    HW227744   5.308   1.046   2.897
 8949SOL     OW27745   3.808   6.036   0.812
 8949SOL    HW127746   3.785   6.112   0.873
 8949SOL    HW227747   3.836   5.957   0.865
 8950SOL     OW27748   3.900   3.352   1.005
 8950SOL    HW127749   3.836   3.300   0.948
 8950SOL    HW227750   3.982   3.373   0.952
 8951SOL     OW27751   1.627   0.694   4.572
 8951SOL    HW127752   1.531   0.691   4.546
 8951SOL    HW227753   1.638   0.653   4.663
 8952SOL     OW27754   2.253   4.759   3.860
 8952SOL    HW127755   2.320   4.783   3.790
 8952SOL    HW227756   2.212   4.670   3.838
 8953SOL     OW27757   1.114   5.129   1.094
 8953SOL    HW127758   1.188   5.192   1.116
 8953SOL    HW227759   1.120   5.048   1.153
 8954SOL     OW27760   2.541   4.385   5.987
 8954SOL    HW127761   2.471   4.382   5.915
 8954SOL    HW227762   2.630   4.405   5.946
 8955SOL     OW27763   5.222   2.408   4.724
 8955SOL    HW127764   5.230   2.420   4.625
 8955SOL    HW227765   5.140   2.454   4.757
 8956SOL     OW27766   0.820   6.130   0.282
 8956SOL    HW127767   0.743   6.185   0.250
 8956SOL    HW227768   0.893   6.132   0.215
 8957SOL     OW27769   0.065   6.475   2.958
 8957SOL    HW127770   0.003   6.456   2.882
 8957SOL    HW227771   0.106   6.565   2.946
 8958SOL     OW27772   1.912   3.257   4.791
 8958SOL    HW127773   1.870   3.347   4.778
 8958SOL    HW227774   2.004   3.268   4.828
 8959SOL     OW27775   6.388   2.534   3.316
 8959SOL    HW127776   6.439   2.546   3.401
 8959SOL    HW227777   6.447   2.491   3.248
 8960SOL     OW27778   5.239   4.666   2.992
 8960SOL    HW127779   5.159   4.654   2.934
 8960SOL    HW227780   5.225   4.743   3.053
 8961SOL     OW27781   1.951   1.459   4.926
 8961SOL    HW127782   1.995   1.396   4.990
 8961SOL    HW227783   1.911   1.535   4.977
 8962SOL     OW27784   6.710   5.774   2.062
 8962SOL    HW127785   6.672   5.817   2.144
 8962SOL    HW227786   6.635   5.745   2.002
 8963SOL     OW27787   4.463   6.378   5.618
 8963SOL    HW127788   4.369   6.391   5.651
 8963SOL    HW227789   4.527   6.414   5.686
 8964SOL     OW27790   1.604   2.961   4.668
 8964SOL    HW127791   1.546   3.002   4.739
 8964SOL    HW227792   1.700   2.971   4.693
 8965SOL     OW27793   3.679   5.662   6.130
 8965SOL    HW127794   3.597   5.683   6.078
 8965SOL    HW227795   3.654   5.614   6.214
 8966SOL     OW27796   4.183   6.086   4.482
 8966SOL    HW127797   4.129   6.160   4.522
 8966SOL    HW227798   4.195   6.101   4.384
 8967SOL     OW27799   3.162   0.149   3.346
 8967SOL    HW127800   3.210   0.237   3.335
 8967SOL    HW227801   3.126   0.143   3.439
 8968SOL     OW27802   3.321   4.913   2.385
 8968SOL    HW127803   3.290   4.867   2.302
 8968SOL    HW227804   3.397   4.975   2.363
 8969SOL     OW27805   1.231   1.130   2.830
 8969SOL    HW127806   1.274   1.053   2.784
 8969SOL    HW227807   1.276   1.215   2.802
 8970SOL     OW27808   1.868   0.142   3.846
 8970SOL    HW127809   1.919   0.061   3.875
 8970SOL    HW227810   1.927   0.223   3.855
 8971SOL     OW27811   3.255   4.651   0.468
 8971SOL    HW127812   3.351   4.627   0.482
 8971SOL    HW227813   3.232   4.731   0.524
 8972SOL     OW27814   5.983   3.788   6.724
 8972SOL    HW127815   6.063   3.752   6.773
 8972SOL    HW227816   5.935   3.852   6.784
 8973SOL     OW27817   1.658   2.585   3.130
 8973SOL    HW127818   1.628   2.554   3.040
 8973SOL    HW227819   1.718   2.665   3.119
 8974SOL     OW27820   2.365   4.482   4.816
 8974SOL    HW127821   2.413   4.491   4.903
 8974SOL    HW227822   2.269   4.461   4.833
 8975SOL     OW27823   0.432   5.294   5.828
 8975SOL    HW127824   0.334   5.308   5.842
 8975SOL    HW227825   0.446   5.251   5.739
 8976SOL     OW27826   6.185   0.521   2.864
 8976SOL    HW127827   6.097   0.478   2.881
 8976SOL    HW227828   6.248   0.453   2.826
 8977SOL     OW27829   6.427   4.446   6.017
 8977SOL    HW127830   6.415   4.410   5.925
 8977SOL    HW227831   6.431   4.546   6.013
 8978SOL     OW27832   6.052   5.872   6.906
 8978SOL    HW127833   6.013   5.797   6.959
 8978SOL    HW227834   6.120   5.920   6.962
 8979SOL     OW27835   1.673   5.175   4.668
 8979SOL    HW127836   1.601   5.108   4.650
 8979SOL    HW227837   1.762   5.132   4.656
 8980SOL     OW27838   3.619   0.665   6.716
 8980SOL    HW127839   3.686   0.616   6.661
 8980SOL    HW227840   3.545   0.604   6.743
 8981SOL     OW27841   4.902   3.699   6.348
 8981SOL    HW127842   4.824   3.676   6.290
 8981SOL    HW227843   4.926   3.619   6.403
 8982SOL     OW27844   0.327   2.138   2.186
 8982SOL    HW127845   0.370   2.118   2.098
 8982SOL    HW227846   0.298   2.234   2.187
 8983SOL     OW27847   1.844   6.117   2.320
 8983SOL    HW127848   1.836   6.135   2.418
 8983SOL    HW227849   1.758   6.080   2.286
 8984SOL     OW27850   6.879   0.887   3.933
 8984SOL    HW127851   6.973   0.902   3.902
 8984SOL    HW227852   6.880   0.829   4.015
 8985SOL     OW27853   4.951   1.796   1.899
 8985SOL    HW127854   4.955   1.784   1.800
 8985SOL    HW227855   4.972   1.709   1.944
 8986SOL     OW27856   6.888   4.820   0.135
 8986SOL    HW127857   6.909   4.755   0.062
 8986SOL    HW227858   6.971   4.838   0.189
 8987SOL     OW27859   2.169   5.989   1.629
 8987SOL    HW127860   2.168   6.083   1.664
 8987SOL    HW227861   2.261   5.967   1.598
 8988SOL     OW27862   2.290   6.501   1.216
 8988SOL    HW127863   2.204   6.470   1.258
 8988SOL    HW227864   2.300   6.599   1.229
 8989SOL     OW27865   5.425   1.460   3.323
 8989SOL    HW127866   5.359   1.450   3.249
 8989SOL    HW227867   5.500   1.395   3.310
 8990SOL     OW27868   2.941   0.588   2.172
 8990SOL    HW127869   3.005   0.578   2.096
 8990SOL    HW227870   2.932   0.685   2.195
 8991SOL     OW27871   1.001   1.464   0.701
 8991SOL    HW127872   0.969   1.559   0.702
 8991SOL    HW227873   1.045   1.444   0.613
 8992SOL     OW27874   0.705   3.964   6.278
 8992SOL    HW127875   0.656   3.973   6.364
 8992SOL    HW227876   0.684   4.043   6.220
 8993SOL     OW27877   5.309   3.599   5.104
 8993SOL    HW127878   5.289   3.510   5.062
 8993SOL    HW227879   5.278   3.599   5.199
 8994SOL     OW27880   1.014   5.589   2.754
 8994SOL    HW127881   0.930   5.535   2.746
 8994SOL    HW227882   1.072   5.550   2.825
 8995SOL     OW27883   2.128   3.975   4.871
 8995SOL    HW127884   2.215   4.002   4.911
 8995SOL    HW227885   2.103   4.040   4.799
 8996SOL     OW27886   1.334   4.082   2.011
 8996SOL    HW127887   1.334   3.982   2.015
 8996SOL    HW227888   1.345   4.112   1.916
 8997SOL     OW27889   4.378   1.926   5.490
 8997SOL    HW127890   4.304   1.860   5.474
 8997SOL    HW227891   4.343   2.004   5.540
 8998SOL     OW27892   0.756   1.464   6.192
 8998SOL    HW127893   0.738   1.531   6.265
 8998SOL    HW227894   0.823   1.397   6.225
 8999SOL     OW27895   5.058   1.139   4.915
 8999SOL    HW127896   4.988   1.203   4.882
 8999SOL    HW227897   5.047   1.127   5.014
 9000SOL     OW27898   2.339   4.091   0.332
 9000SOL    HW127899   2.311   4.177   0.288
 9000SOL    HW227900   2.331   4.016   0.267
 9001SOL     OW27901   1.727   4.474   3.648
 9001SOL    HW127902   1.790   4.531   3.700
 9001SOL    HW227903   1.779   4.416   3.585
 9002SOL     OW27904   5.136   4.639   5.699
 9002SOL    HW127905   5.166   4.545   5.715
 9002SOL    HW227906   5.077   4.642   5.618
 9003SOL     OW27907   6.089   3.192   6.072
 9003SOL    HW127908   6.054   3.114   6.020
 9003SOL    HW227909   6.136   3.159   6.154
 9004SOL     OW27910   4.867   5.407   0.655
 9004SOL    HW127911   4.838   5.362   0.571
 9004SOL    HW227912   4.866   5.342   0.731
 9005SOL     OW27913   4.410   2.366   2.966
 9005SOL    HW127914   4.477   2.298   2.934
 9005SOL    HW227915   4.454   2.456   2.968
 9006SOL     OW27916   1.861   6.635   0.785
 9006SOL    HW127917   1.803   6.637   0.866
 9006SOL    HW227918   1.933   6.704   0.795
 9007SOL     OW27919   2.364   6.544   3.972
 9007SOL    HW127920   2.458   6.573   3.986
 9007SOL    HW227921   2.342   6.469   4.034
 9008SOL     OW27922   6.407   4.495   3.010
 9008SOL    HW127923   6.387   4.463   3.103
 9008SOL    HW227924   6.505   4.516   3.002
 9009SOL     OW27925   4.044   6.284   1.172
 9009SOL    HW127926   3.960   6.285   1.227
 9009SOL    HW227927   4.100   6.363   1.197
 9010SOL     OW27928   0.906   5.696   4.849
 9010SOL    HW127929   0.972   5.655   4.787
 9010SOL    HW227930   0.939   5.786   4.878
 9011SOL     OW27931   4.130   1.857   1.752
 9011SOL    HW127932   4.101   1.796   1.825
 9011SOL    HW227933   4.063   1.854   1.677
 9012SOL     OW27934   6.211   5.487   1.706
 9012SOL    HW127935   6.184   5.391   1.718
 9012SOL    HW227936   6.229   5.528   1.796
 9013SOL     OW27937   4.895   6.001   2.894
 9013SOL    HW127938   4.866   5.949   2.814
 9013SOL    HW227939   4.838   5.976   2.972
 9014SOL     OW27940   2.668   0.694   0.796
 9014SOL    HW127941   2.616   0.625   0.846
 9014SOL    HW227942   2.682   0.774   0.854
 9015SOL     OW27943   6.432   1.612   5.159
 9015SOL    HW127944   6.346   1.644   5.119
 9015SOL    HW227945   6.499   1.596   5.087
 9016SOL     OW27946   6.855   6.117   6.506
 9016SOL    HW127947   6.877   6.178   6.583
 9016SOL    HW227948   6.827   6.172   6.427
 9017SOL     OW27949   0.293   4.217   3.964
 9017SOL    HW127950   0.376   4.173   3.997
 9017SOL    HW227951   0.262   4.170   3.881
 9018SOL     OW27952   3.482   1.826   5.828
 9018SOL    HW127953   3.402   1.886   5.839
 9018SOL    HW227954   3.513   1.829   5.733
 9019SOL     OW27955   1.782   6.340   7.010
 9019SOL    HW127956   1.700   6.395   0.003
 9019SOL    HW227957   1.828   6.371   6.927
 9020SOL     OW27958   0.139   4.621   2.700
 9020SOL    HW127959   0.168   4.640   2.794
 9020SOL    HW227960   0.106   4.527   2.693
 9021SOL     OW27961   6.547   6.041   4.921
 9021SOL    HW127962   6.596   6.088   4.847
 9021SOL    HW227963   6.612   5.985   4.973
 9022SOL     OW27964   3.172   1.134   6.167
 9022SOL    HW127965   3.187   1.078   6.249
 9022SOL    HW227966   3.126   1.219   6.193
 9023SOL     OW27967   3.238   3.107   3.019
 9023SOL    HW127968   3.211   3.098   3.115
 9023SOL    HW227969   3.331   3.144   3.014
 9024SOL     OW27970   1.826   0.321   6.471
 9024SOL    HW127971   1.802   0.410   6.509
 9024SOL    HW227972   1.921   0.322   6.440
 9025SOL     OW27973   6.983   4.332   1.257
 9025SOL    HW127974   6.918   4.263   1.287
 9025SOL    HW227975   0.035   4.288   1.205
 9026SOL     OW27976   3.026   3.234   5.521
 9026SOL    HW127977   2.965   3.156   5.536
 9026SOL    HW227978   2.997   3.283   5.438
 9027SOL     OW27979   2.635   2.461   2.716
 9027SOL    HW127980   2.645   2.559   2.697
 9027SOL    HW227981   2.575   2.449   2.795
 9028SOL     OW27982   2.299   4.675   5.268
 9028SOL    HW127983   2.291   4.581   5.299
 9028SOL    HW227984   2.241   4.689   5.187
 9029SOL     OW27985   4.936   5.060   2.943
 9029SOL    HW127986   4.944   5.124   3.019
 9029SOL    HW227987   4.859   5.087   2.885
 9030SOL     OW27988   3.101   1.519   1.378
 9030SOL    HW127989   3.112   1.617   1.392
 9030SOL    HW227990   3.178   1.471   1.420
 9031SOL     OW27991   2.011   0.962   0.539
 9031SOL    HW127992   2.026   1.041   0.598
 9031SOL    HW227993   2.096   0.910   0.532
 9032SOL     OW27994   1.407   1.870   2.836
 9032SOL    HW127995   1.469   1.889   2.912
 9032SOL    HW227996   1.328   1.931   2.841
 9033SOL     OW27997   1.660   3.565   2.921
 9033SOL    HW127998   1.730   3.497   2.940
 9033SOL    HW227999   1.570   3.521   2.915
 9034SOL     OW28000   1.682   0.353   5.730
 9034SOL    HW128001   1.696   0.451   5.715
 9034SOL    HW228002   1.594   0.325   5.692
 9035SOL     OW28003   6.728   0.759   4.159
 9035SOL    HW128004   6.650   0.773   4.098
 9035SOL    HW228005   6.706   0.796   4.249
 9036SOL     OW28006   0.925   1.459   5.222
 9036SOL    HW128007   0.947   1.553   5.198
 9036SOL    HW228008   1.009   1.405   5.228
 9037SOL     OW28009   2.616   4.050   6.087
 9037SOL    HW128010   2.660   4.006   6.009
 9037SOL    HW228011   2.623   3.990   6.167
 9038SOL     OW28012   5.373   6.668   5.417
 9038SOL    HW128013   5.378   6.635   5.322
 9038SOL    HW228014   5.370   6.589   5.478
 9039SOL     OW28015   2.146   5.188   6.215
 9039SOL    HW128016   2.102   5.176   6.127
 9039SOL    HW228017   2.096   5.255   6.269
 9040SOL     OW28018   2.417   1.707   1.888
 9040SOL    HW128019   2.483   1.699   1.813
 9040SOL    HW228020   2.457   1.671   1.972
 9041SOL     OW28021   1.538   3.324   0.018
 9041SOL    HW128022   1.549   3.318   0.117
 9041SOL    HW228023   1.627   3.318   6.996
 9042SOL     OW28024   2.538   5.437   3.562
 9042SOL    HW128025   2.534   5.471   3.655
 9042SOL    HW228026   2.467   5.367   3.548
 9043SOL     OW28027   0.065   2.443   0.620
 9043SOL    HW128028   0.092   2.524   0.673
 9043SOL    HW228029   6.987   2.435   0.619
 9044SOL     OW28030   6.409   4.827   0.427
 9044SOL    HW128031   6.483   4.889   0.400
 9044SOL    HW228032   6.380   4.774   0.347
 9045SOL     OW28033   3.543   6.126   4.019
 9045SOL    HW128034   3.607   6.050   4.031
 9045SOL    HW228035   3.594   6.212   4.013
 9046SOL     OW28036   3.627   4.322   6.016
 9046SOL    HW128037   3.601   4.419   6.016
 9046SOL    HW228038   3.683   4.302   5.935
 9047SOL     OW28039   1.518   4.625   4.744
 9047SOL    HW128040   1.540   4.545   4.799
 9047SOL    HW228041   1.434   4.666   4.778
 9048SOL     OW28042   1.461   2.463   5.110
 9048SOL    HW128043   1.415   2.478   5.022
 9048SOL    HW228044   1.510   2.546   5.136
 9049SOL     OW28045   5.114   5.840   6.238
 9049SOL    HW128046   5.150   5.778   6.308
 9049SOL    HW228047   5.014   5.842   6.244
 9050SOL     OW28048   0.318   5.967   5.287
 9050SOL    HW128049   0.366   5.902   5.346
 9050SOL    HW228050   0.382   6.034   5.250
 9051SOL     OW28051   5.024   6.338   6.147
 9051SOL    HW128052   4.953   6.339   6.076
 9051SOL    HW228053   5.112   6.362   6.106
 9052SOL     OW28054   2.192   5.156   4.865
 9052SOL    HW128055   2.104   5.120   4.895
 9052SOL    HW228056   2.247   5.181   4.945
 9053SOL     OW28057   2.521   1.622   3.908
 9053SOL    HW128058   2.587   1.551   3.884
 9053SOL    HW228059   2.501   1.678   3.828
 9054SOL     OW28060   3.767   0.507   1.071
 9054SOL    HW128061   3.748   0.575   1.142
 9054SOL    HW228062   3.863   0.515   1.043
 9055SOL     OW28063   0.833   1.411   4.361
 9055SOL    HW128064   0.919   1.456   4.336
 9055SOL    HW228065   0.760   1.479   4.365
 9056SOL     OW28066   5.792   1.413   2.758
 9056SOL    HW128067   5.718   1.478   2.743
 9056SOL    HW228068   5.863   1.455   2.814
 9057SOL     OW28069   4.317   6.629   6.981
 9057SOL    HW128070   4.336   6.718   0.001
 9057SOL    HW228071   4.262   6.573   0.021
 9058SOL     OW28072   1.944   2.564   4.768
 9058SOL    HW128073   1.977   2.530   4.857
 9058SOL    HW228074   2.008   2.632   4.733
 9059SOL     OW28075   6.452   0.753   3.200
 9059SOL    HW128076   6.362   0.746   3.157
 9059SOL    HW228077   6.454   0.697   3.283
 9060SOL     OW28078   0.908   5.645   1.965
 9060SOL    HW128079   0.905   5.647   1.866
 9060SOL    HW228080   0.985   5.700   1.998
 9061SOL     OW28081   5.865   4.193   2.828
 9061SOL    HW128082   5.879   4.167   2.732
 9061SOL    HW228083   5.822   4.283   2.832
 9062SOL     OW28084   0.565   5.904   3.079
 9062SOL    HW128085   0.631   5.842   3.123
 9062SOL    HW228086   0.604   5.996   3.073
 9063SOL     OW28087   4.615   1.819   1.799
 9063SOL    HW128088   4.534   1.875   1.782
 9063SOL    HW228089   4.697   1.870   1.775
 9064SOL     OW28090   0.653   5.632   3.138
 9064SOL    HW128091   0.561   5.594   3.141
 9064SOL    HW228092   0.711   5.585   3.205
 9065SOL     OW28093   2.829   4.382   5.546
 9065SOL    HW128094   2.770   4.359   5.469
 9065SOL    HW228095   2.814   4.478   5.572
 9066SOL     OW28096   4.901   4.749   4.559
 9066SOL    HW128097   4.838   4.692   4.506
 9066SOL    HW228098   4.993   4.710   4.553
 9067SOL     OW28099   1.130   5.995   4.413
 9067SOL    HW128100   1.161   6.019   4.321
 9067SOL    HW228101   1.110   6.079   4.464
 9068SOL     OW28102   4.538   0.138   5.867
 9068SOL    HW128103   4.514   0.121   5.771
 9068SOL    HW228104   4.458   0.174   5.916
 9069SOL     OW28105   5.196   2.121   1.093
 9069SOL    HW128106   5.172   2.028   1.065
 9069SOL    HW228107   5.284   2.147   1.053
 9070SOL     OW28108   1.467   1.574   5.936
 9070SOL    HW128109   1.449   1.562   5.838
 9070SOL    HW228110   1.382   1.563   5.987
 9071SOL     OW28111   4.914   2.583   6.213
 9071SOL    HW128112   4.854   2.631   6.149
 9071SOL    HW228113   4.960   2.509   6.165
 9072SOL     OW28114   4.885   0.602   3.124
 9072SOL    HW128115   4.826   0.673   3.088
 9072SOL    HW228116   4.890   0.609   3.224
 9073SOL     OW28117   4.579   1.843   5.272
 9073SOL    HW128118   4.596   1.922   5.213
 9073SOL    HW228119   4.504   1.865   5.336
 9074SOL     OW28120   1.441   0.674   2.127
 9074SOL    HW128121   1.352   0.639   2.155
 9074SOL    HW228122   1.488   0.605   2.072
 9075SOL     OW28123   6.289   6.145   0.881
 9075SOL    HW128124   6.305   6.057   0.837
 9075SOL    HW228125   6.372   6.201   0.875
 9076SOL     OW28126   6.321   0.272   2.772
 9076SOL    HW128127   6.421   0.266   2.782
 9076SOL    HW228128   6.293   0.225   2.688
 9077SOL     OW28129   6.712   1.444   6.244
 9077SOL    HW128130   6.751   1.368   6.297
 9077SOL    HW228131   6.698   1.414   6.150
 9078SOL     OW28132   4.968   6.090   0.073
 9078SOL    HW128133   4.892   6.026   0.060
 9078SOL    HW228134   5.026   6.057   0.147
 9079SOL     OW28135   1.638   1.524   0.009
 9079SOL    HW128136   1.590   1.610   7.014
 9079SOL    HW228137   1.629   1.498   0.105
 9080SOL     OW28138   6.267   3.268   1.757
 9080SOL    HW128139   6.320   3.208   1.818
 9080SOL    HW228140   6.201   3.214   1.706
 9081SOL     OW28141   5.273   1.346   7.002
 9081SOL    HW128142   5.190   1.300   0.014
 9081SOL    HW228143   5.350   1.283   7.008
 9082SOL     OW28144   3.438   5.736   5.971
 9082SOL    HW128145   3.474   5.762   5.881
 9082SOL    HW228146   3.370   5.664   5.960
 9083SOL     OW28147   4.322   5.216   6.602
 9083SOL    HW128148   4.223   5.217   6.585
 9083SOL    HW228149   4.355   5.122   6.603
 9084SOL     OW28150   6.994   2.639   6.065
 9084SOL    HW128151   6.968   2.674   6.155
 9084SOL    HW228152   6.943   2.687   5.994
 9085SOL     OW28153   2.371   4.936   6.936
 9085SOL    HW128154   2.299   4.868   6.950
 9085SOL    HW228155   2.342   5.023   6.974
 9086SOL     OW28156   0.087   4.642   1.153
 9086SOL    HW128157   0.006   4.586   1.135
 9086SOL    HW228158   0.093   4.715   1.086
 9087SOL     OW28159   5.674   0.941   1.397
 9087SOL    HW128160   5.766   0.962   1.363
 9087SOL    HW228161   5.639   1.018   1.450
 9088SOL     OW28162   6.284   6.545   0.645
 9088SOL    HW128163   6.258   6.638   0.670
 9088SOL    HW228164   6.378   6.544   0.611
 9089SOL     OW28165   5.282   5.288   3.943
 9089SOL    HW128166   5.200   5.335   3.913
 9089SOL    HW228167   5.273   5.261   4.039
 9090SOL     OW28168   4.907   6.250   5.310
 9090SOL    HW128169   4.843   6.247   5.234
 9090SOL    HW228170   4.859   6.277   5.393
 9091SOL     OW28171   2.035   1.374   1.401
 9091SOL    HW128172   2.021   1.315   1.481
 9091SOL    HW228173   2.096   1.450   1.426
 9092SOL     OW28174   1.595   1.153   5.625
 9092SOL    HW128175   1.636   1.242   5.604
 9092SOL    HW228176   1.649   1.105   5.694
 9093SOL     OW28177   1.950   3.973   0.684
 9093SOL    HW128178   1.978   3.915   0.607
 9093SOL    HW228179   1.885   4.042   0.652
 9094SOL     OW28180   6.710   4.430   1.417
 9094SOL    HW128181   6.629   4.373   1.408
 9094SOL    HW228182   6.779   4.383   1.472
 9095SOL     OW28183   3.213   2.792   0.079
 9095SOL    HW128184   3.284   2.859   0.057
 9095SOL    HW228185   3.226   2.711   0.022
 9096SOL     OW28186   5.098   2.885   3.286
 9096SOL    HW128187   5.053   2.966   3.322
 9096SOL    HW228188   5.060   2.863   3.196
 9097SOL     OW28189   0.970   5.352   6.477
 9097SOL    HW128190   0.895   5.393   6.529
 9097SOL    HW228191   0.971   5.253   6.491
 9098SOL     OW28192   4.102   3.588   2.898
 9098SOL    HW128193   4.016   3.635   2.874
 9098SOL    HW228194   4.140   3.546   2.816
 9099SOL     OW28195   2.223   3.288   0.661
 9099SOL    HW128196   2.269   3.229   0.727
 9099SOL    HW228197   2.143   3.241   0.625
 9100SOL     OW28198   0.480   3.011   1.295
 9100SOL    HW128199   0.550   3.071   1.335
 9100SOL    HW228200   0.523   2.950   1.229
 9101SOL     OW28201   1.878   2.636   1.158
 9101SOL    HW128202   1.855   2.574   1.083
 9101SOL    HW228203   1.845   2.597   1.244
 9102SOL     OW28204   3.713   5.414   2.259
 9102SOL    HW128205   3.645   5.356   2.215
 9102SOL    HW228206   3.670   5.501   2.285
 9103SOL     OW28207   0.591   4.010   0.124
 9103SOL    HW128208   0.536   4.093   0.111
 9103SOL    HW228209   0.592   3.986   0.222
 9104SOL     OW28210   4.626   6.922   1.293
 9104SOL    HW128211   4.652   6.886   1.203
 9104SOL    HW228212   4.658   7.016   1.301
 9105SOL     OW28213   1.665   2.020   5.539
 9105SOL    HW128214   1.765   2.013   5.536
 9105SOL    HW228215   1.637   2.110   5.506
 9106SOL     OW28216   6.690   5.348   0.661
 9106SOL    HW128217   6.723   5.373   0.751
 9106SOL    HW228218   6.663   5.252   0.661
 9107SOL     OW28219   4.207   0.332   1.593
 9107SOL    HW128220   4.189   0.235   1.610
 9107SOL    HW228221   4.305   0.345   1.576
 9108SOL     OW28222   4.432   5.751   5.600
 9108SOL    HW128223   4.471   5.663   5.574
 9108SOL    HW228224   4.367   5.781   5.530
 9109SOL     OW28225   2.923   2.019   3.912
 9109SOL    HW128226   3.001   1.959   3.930
 9109SOL    HW228227   2.955   2.105   3.873
 9110SOL     OW28228   1.795   3.966   3.699
 9110SOL    HW128229   1.821   3.933   3.608
 9110SOL    HW228230   1.836   3.906   3.768
 9111SOL     OW28231   3.921   4.136   1.704
 9111SOL    HW128232   3.847   4.167   1.764
 9111SOL    HW228233   3.884   4.110   1.615
 9112SOL     OW28234   0.089   4.667   2.223
 9112SOL    HW128235   0.007   4.633   2.177
 9112SOL    HW228236   0.073   4.761   2.254
 9113SOL     OW28237   4.274   6.909   0.596
 9113SOL    HW128238   4.194   6.934   0.541
 9113SOL    HW228239   4.245   6.849   0.671
 9114SOL     OW28240   2.899   4.513   1.551
 9114SOL    HW128241   2.923   4.518   1.648
 9114SOL    HW228242   2.810   4.554   1.536
 9115SOL     OW28243   1.580   4.736   5.301
 9115SOL    HW128244   1.629   4.770   5.221
 9115SOL    HW228245   1.485   4.717   5.276
 9116SOL     OW28246   0.108   1.206   6.030
 9116SOL    HW128247   0.065   1.250   5.951
 9116SOL    HW228248   0.156   1.275   6.085
 9117SOL     OW28249   6.884   2.106   6.992
 9117SOL    HW128250   6.834   2.190   7.014
 9117SOL    HW228251   6.982   2.121   7.008
 9118SOL     OW28252   6.596   6.638   1.788
 9118SOL    HW128253   6.662   6.637   1.713
 9118SOL    HW228254   6.503   6.638   1.750
 9119SOL     OW28255   6.488   0.604   1.647
 9119SOL    HW128256   6.478   0.525   1.707
 9119SOL    HW228257   6.532   0.679   1.697
 9120SOL     OW28258   5.472   1.070   6.038
 9120SOL    HW128259   5.473   0.994   6.102
 9120SOL    HW228260   5.540   1.138   6.066
 9121SOL     OW28261   0.472   0.922   6.485
 9121SOL    HW128262   0.504   1.013   6.512
 9121SOL    HW228263   0.548   0.857   6.487
 9122SOL     OW28264   1.816   2.883   2.562
 9122SOL    HW128265   1.831   2.928   2.650
 9122SOL    HW228266   1.809   2.952   2.490
 9123SOL     OW28267   2.359   6.028   6.717
 9123SOL    HW128268   2.316   6.090   6.783
 9123SOL    HW228269   2.417   5.963   6.766
 9124SOL     OW28270   6.514   5.890   5.222
 9124SOL    HW128271   6.442   5.824   5.244
 9124SOL    HW228272   6.574   5.852   5.151
 9125SOL     OW28273   4.912   4.189   3.622
 9125SOL    HW128274   4.881   4.195   3.527
 9125SOL    HW228275   4.867   4.261   3.676
 9126SOL     OW28276   6.256   0.731   1.558
 9126SOL    HW128277   6.278   0.828   1.561
 9126SOL    HW228278   6.333   0.678   1.593
 9127SOL     OW28279   4.961   0.400   0.158
 9127SOL    HW128280   5.002   0.409   0.067
 9127SOL    HW228281   4.894   0.326   0.158
 9128SOL     OW28282   3.870   1.911   4.868
 9128SOL    HW128283   3.963   1.936   4.893
 9128SOL    HW228284   3.872   1.849   4.789
 9129SOL     OW28285   2.046   1.723   6.673
 9129SOL    HW128286   2.000   1.648   6.720
 9129SOL    HW228287   2.131   1.690   6.633
 9130SOL     OW28288   5.800   4.745   0.600
 9130SOL    HW128289   5.758   4.655   0.597
 9130SOL    HW228290   5.835   4.762   0.692
 9131SOL     OW28291   0.813   4.065   4.315
 9131SOL    HW128292   0.880   4.127   4.356
 9131SOL    HW228293   0.723   4.108   4.316
 9132SOL     OW28294   6.708   3.686   4.386
 9132SOL    HW128295   6.734   3.699   4.290
 9132SOL    HW228296   6.641   3.612   4.392
 9133SOL     OW28297   2.588   4.207   0.912
 9133SOL    HW128298   2.648   4.265   0.856
 9133SOL    HW228299   2.603   4.228   1.009
 9134SOL     OW28300   2.892   6.208   6.358
 9134SOL    HW128301   2.982   6.169   6.339
 9134SOL    HW228302   2.854   6.165   6.441
 9135SOL     OW28303   6.221   5.792   3.865
 9135SOL    HW128304   6.246   5.703   3.827
 9135SOL    HW228305   6.229   5.862   3.793
 9136SOL     OW28306   4.972   5.399   5.784
 9136SOL    HW128307   4.914   5.393   5.866
 9136SOL    HW228308   4.935   5.339   5.713
 9137SOL     OW28309   4.318   1.130   1.650
 9137SOL    HW128310   4.300   1.197   1.579
 9137SOL    HW228311   4.417   1.112   1.654
 9138SOL     OW28312   4.892   5.224   6.247
 9138SOL    HW128313   4.887   5.210   6.148
 9138SOL    HW228314   4.820   5.287   6.275
 9139SOL     OW28315   3.647   1.489   5.356
 9139SOL    HW128316   3.687   1.519   5.442
 9139SOL    HW228317   3.561   1.441   5.374
 9140SOL     OW28318   6.716   2.546   2.451
 9140SOL    HW128319   6.797   2.602   2.463
 9140SOL    HW228320   6.636   2.604   2.436
 9141SOL     OW28321   5.304   0.095   5.601
 9141SOL    HW128322   5.320   0.058   5.692
 9141SOL    HW228323   5.359   0.177   5.587
 9142SOL     OW28324   0.489   2.828   6.060
 9142SOL    HW128325   0.402   2.875   6.045
 9142SOL    HW228326   0.473   2.730   6.068
 9143SOL     OW28327   4.602   3.253   0.340
 9143SOL    HW128328   4.647   3.186   0.398
 9143SOL    HW228329   4.592   3.217   0.247
 9144SOL     OW28330   2.490   5.618   5.633
 9144SOL    HW128331   2.478   5.545   5.567
 9144SOL    HW228332   2.539   5.584   5.713
 9145SOL     OW28333   0.259   4.656   0.051
 9145SOL    HW128334   0.205   4.590   0.104
 9145SOL    HW228335   0.289   4.614   6.987
 9146SOL     OW28336   6.167   2.805   1.132
 9146SOL    HW128337   6.149   2.878   1.198
 9146SOL    HW228338   6.145   2.837   1.040
 9147SOL     OW28339   4.537   5.540   4.273
 9147SOL    HW128340   4.442   5.570   4.272
 9147SOL    HW228341   4.558   5.502   4.363
 9148SOL     OW28342   4.963   5.422   3.322
 9148SOL    HW128343   4.941   5.502   3.378
 9148SOL    HW228344   5.061   5.405   3.326
 9149SOL     OW28345   4.697   2.830   4.552
 9149SOL    HW128346   4.738   2.760   4.611
 9149SOL    HW228347   4.599   2.837   4.571
 9150SOL     OW28348   4.738   0.186   3.271
 9150SOL    HW128349   4.817   0.188   3.333
 9150SOL    HW228350   4.769   0.200   3.177
 9151SOL     OW28351   1.552   4.101   2.145
 9151SOL    HW128352   1.469   4.093   2.090
 9151SOL    HW228353   1.591   4.192   2.134
 9152SOL     OW28354   2.510   6.103   3.558
 9152SOL    HW128355   2.523   6.095   3.657
 9152SOL    HW228356   2.518   6.199   3.531
 9153SOL     OW28357   1.928   2.724   6.492
 9153SOL    HW128358   1.859   2.727   6.565
 9153SOL    HW228359   1.931   2.631   6.454
 9154SOL     OW28360   2.670   5.851   6.749
 9154SOL    HW128361   2.662   5.934   6.804
 9154SOL    HW228362   2.637   5.869   6.656
 9155SOL     OW28363   1.979   4.206   6.274
 9155SOL    HW128364   1.965   4.172   6.367
 9155SOL    HW228365   1.890   4.225   6.232
 9156SOL     OW28366   4.168   2.366   1.532
 9156SOL    HW128367   4.118   2.331   1.452
 9156SOL    HW228368   4.109   2.428   1.583
 9157SOL     OW28369   5.556   3.846   5.489
 9157SOL    HW128370   5.583   3.769   5.431
 9157SOL    HW228371   5.554   3.930   5.435
 9158SOL     OW28372   0.558   3.547   4.237
 9158SOL    HW128373   0.636   3.581   4.290
 9158SOL    HW228374   0.528   3.460   4.275
 9159SOL     OW28375   6.633   5.397   2.004
 9159SOL    HW128376   6.636   5.400   2.104
 9159SOL    HW228377   6.599   5.484   1.970
 9160SOL     OW28378   0.746   6.723   6.264
 9160SOL    HW128379   0.784   6.795   6.323
 9160SOL    HW228380   0.652   6.704   6.291
 9161SOL     OW28381   4.887   3.329   4.932
 9161SOL    HW128382   4.953   3.382   4.878
 9161SOL    HW228383   4.797   3.370   4.923
 9162SOL     OW28384   4.821   2.992   2.631
 9162SOL    HW128385   4.887   2.998   2.556
 9162SOL    HW228386   4.731   2.967   2.595
 9163SOL     OW28387   3.039   2.257   3.834
 9163SOL    HW128388   3.136   2.239   3.850
 9163SOL    HW228389   2.997   2.289   3.919
 9164SOL     OW28390   2.508   0.590   6.691
 9164SOL    HW128391   2.602   0.578   6.722
 9164SOL    HW228392   2.508   0.608   6.593
 9165SOL     OW28393   5.659   0.878   6.477
 9165SOL    HW128394   5.678   0.937   6.555
 9165SOL    HW228395   5.685   0.784   6.499
 9166SOL     OW28396   3.567   5.370   0.823
 9166SOL    HW128397   3.621   5.309   0.765
 9166SOL    HW228398   3.503   5.422   0.766
 9167SOL     OW28399   1.655   3.689   5.772
 9167SOL    HW128400   1.562   3.716   5.745
 9167SOL    HW228401   1.664   3.697   5.871
 9168SOL     OW28402   2.108   7.005   5.727
 9168SOL    HW128403   2.125   6.911   5.755
 9168SOL    HW228404   2.157   0.046   5.787
 9169SOL     OW28405   0.446   0.964   4.474
 9169SOL    HW128406   0.350   0.986   4.485
 9169SOL    HW228407   0.500   1.011   4.544
 9170SOL     OW28408   6.838   5.306   0.420
 9170SOL    HW128409   6.931   5.269   0.427
 9170SOL    HW228410   6.798   5.311   0.512
 9171SOL     OW28411   2.969   5.827   6.970
 9171SOL    HW128412   2.947   5.777   6.887
 9171SOL    HW228413   3.022   5.909   6.948
 9172SOL     OW28414   3.212   1.113   4.227
 9172SOL    HW128415   3.160   1.195   4.199
 9172SOL    HW228416   3.248   1.126   4.319
 9173SOL     OW28417   6.450   4.968   5.035
 9173SOL    HW128418   6.379   4.901   5.012
 9173SOL    HW228419   6.440   5.049   4.977
 9174SOL     OW28420   7.014   4.730   6.929
 9174SOL    HW128421   0.024   4.789   6.855
 9174SOL    HW228422   0.066   4.669   6.957
 9175SOL     OW28423   2.011   5.909   5.747
 9175SOL    HW128424   1.935   5.888   5.808
 9175SOL    HW228425   2.048   6.000   5.769
 9176SOL     OW28426   2.106   0.770   5.475
 9176SOL    HW128427   2.179   0.823   5.519
 9176SOL    HW228428   2.026   0.829   5.463
 9177SOL     OW28429   1.378   4.076   4.198
 9177SOL    HW128430   1.301   4.125   4.158
 9177SOL    HW228431   1.344   4.005   4.260
 9178SOL     OW28432   2.262   5.546   0.972
 9178SOL    HW128433   2.247   5.581   0.879
 9178SOL    HW228434   2.214   5.458   0.982
 9179SOL     OW28435   2.958   5.410   3.973
 9179SOL    HW128436   2.897   5.482   4.008
 9179SOL    HW228437   3.053   5.434   3.993
 9180SOL     OW28438   6.016   2.305   3.935
 9180SOL    HW128439   5.994   2.256   3.851
 9180SOL    HW228440   6.113   2.292   3.957
 9181SOL     OW28441   4.379   1.814   2.383
 9181SOL    HW128442   4.391   1.902   2.430
 9181SOL    HW228443   4.448   1.804   2.312
 9182SOL     OW28444   1.161   5.986   2.515
 9182SOL    HW128445   1.194   5.972   2.609
 9182SOL    HW228446   1.169   5.901   2.464
 9183SOL     OW28447   4.948   6.160   1.035
 9183SOL    HW128448   4.992   6.183   1.121
 9183SOL    HW228449   5.017   6.149   0.963
 9184SOL     OW28450   4.916   6.940   0.748
 9184SOL    HW128451   4.976   6.994   0.689
 9184SOL    HW228452   4.883   6.998   0.823
 9185SOL     OW28453   3.434   1.055   5.326
 9185SOL    HW128454   3.399   1.035   5.235
 9185SOL    HW228455   3.475   0.972   5.364
 9186SOL     OW28456   6.245   0.770   5.098
 9186SOL    HW128457   6.340   0.760   5.070
 9186SOL    HW228458   6.236   0.847   5.161
 9187SOL     OW28459   2.051   6.304   2.337
 9187SOL    HW128460   1.986   6.371   2.373
 9187SOL    HW228461   2.003   6.219   2.314
 9188SOL     OW28462   3.052   6.660   0.675
 9188SOL    HW128463   2.964   6.686   0.714
 9188SOL    HW228464   3.055   6.561   0.663
 9189SOL     OW28465   5.339   5.387   2.729
 9189SOL    HW128466   5.412   5.456   2.726
 9189SOL    HW228467   5.254   5.428   2.698
 9190SOL     OW28468   2.048   5.726   0.337
 9190SOL    HW128469   2.039   5.711   0.435
 9190SOL    HW228470   2.083   5.819   0.320
 9191SOL     OW28471   6.397   0.555   5.884
 9191SOL    HW128472   6.481   0.598   5.919
 9191SOL    HW228473   6.385   0.466   5.926
 9192SOL     OW28474   0.637   4.103   4.677
 9192SOL    HW128475   0.691   4.052   4.611
 9192SOL    HW228476   0.582   4.040   4.731
 9193SOL     OW28477   3.506   3.158   6.909
 9193SOL    HW128478   3.534   3.178   7.002
 9193SOL    HW228479   3.566   3.205   6.845
 9194SOL     OW28480   3.143   0.675   3.788
 9194SOL    HW128481   3.200   0.755   3.807
 9194SOL    HW228482   3.090   0.652   3.869
 9195SOL     OW28483   2.213   2.460   4.534
 9195SOL    HW128484   2.258   2.500   4.613
 9195SOL    HW228485   2.280   2.412   4.478
 9196SOL     OW28486   4.802   1.385   5.238
 9196SOL    HW128487   4.850   1.417   5.156
 9196SOL    HW228488   4.805   1.286   5.241
 9197SOL     OW28489   2.460   3.749   1.512
 9197SOL    HW128490   2.433   3.844   1.525
 9197SOL    HW228491   2.504   3.715   1.595
 9198SOL     OW28492   6.465   5.676   5.570
 9198SOL    HW128493   6.366   5.684   5.560
 9198SOL    HW228494   6.487   5.630   5.656
 9199SOL     OW28495   0.290   4.064   5.614
 9199SOL    HW128496   0.235   4.120   5.552
 9199SOL    HW228497   0.299   3.972   5.577
 9200SOL     OW28498   2.929   0.785   1.091
 9200SOL    HW128499   2.898   0.821   1.179
 9200SOL    HW228500   2.876   0.705   1.067
 9201SOL     OW28501   1.654   3.593   6.993
 9201SOL    HW128502   1.730   3.546   6.948
 9201SOL    HW228503   1.579   3.529   7.007
 9202SOL     OW28504   1.753   6.788   3.487
 9202SOL    HW128505   1.843   6.812   3.521
 9202SOL    HW228506   1.719   6.708   3.535
 9203SOL     OW28507   6.971   5.026   0.792
 9203SOL    HW128508   0.017   5.094   0.764
 9203SOL    HW228509   6.910   5.065   0.860
 9204SOL     OW28510   5.073   1.227   5.984
 9204SOL    HW128511   4.987   1.270   6.012
 9204SOL    HW228512   5.141   1.298   5.967
 9205SOL     OW28513   6.808   3.769   2.810
 9205SOL    HW128514   6.795   3.724   2.898
 9205SOL    HW228515   6.848   3.860   2.825
 9206SOL     OW28516   4.099   5.847   0.407
 9206SOL    HW128517   4.127   5.921   0.346
 9206SOL    HW228518   4.077   5.765   0.353
 9207SOL     OW28519   4.742   5.762   0.255
 9207SOL    HW128520   4.813   5.727   0.316
 9207SOL    HW228521   4.691   5.686   0.216
 9208SOL     OW28522   6.897   3.987   4.701
 9208SOL    HW128523   6.865   4.005   4.794
 9208SOL    HW228524   6.833   3.924   4.656
 9209SOL     OW28525   2.968   1.293   6.441
 9209SOL    HW128526   2.959   1.348   6.524
 9209SOL    HW228527   2.956   1.352   6.361
 9210SOL     OW28528   6.680   1.371   2.857
 9210SOL    HW128529   6.709   1.299   2.919
 9210SOL    HW228530   6.602   1.339   2.803
 9211SOL     OW28531   0.216   2.472   3.706
 9211SOL    HW128532   0.168   2.468   3.794
 9211SOL    HW228533   0.303   2.424   3.713
 9212SOL     OW28534   3.021   5.462   4.823
 9212SOL    HW128535   3.078   5.486   4.744
 9212SOL    HW228536   3.042   5.523   4.899
 9213SOL     OW28537   5.702   3.570   5.687
 9213SOL    HW128538   5.753   3.493   5.725
 9213SOL    HW228539   5.764   3.626   5.632
 9214SOL     OW28540   0.132   5.538   0.357
 9214SOL    HW128541   0.187   5.469   0.311
 9214SOL    HW228542   0.190   5.616   0.380
 9215SOL     OW28543   1.198   0.594   6.993
 9215SOL    HW128544   1.135   0.517   7.001
 9215SOL    HW228545   1.205   0.641   0.059
 9216SOL     OW28546   2.500   0.096   2.415
 9216SOL    HW128547   2.513   0.031   2.491
 9216SOL    HW228548   2.583   0.150   2.404
 9217SOL     OW28549   0.199   2.088   6.563
 9217SOL    HW128550   0.115   2.033   6.559
 9217SOL    HW228551   0.236   2.100   6.470
 9218SOL     OW28552   3.362   0.069   0.700
 9218SOL    HW128553   3.365   7.019   0.631
 9218SOL    HW228554   3.369   0.029   0.791
 9219SOL     OW28555   1.206   2.573   1.148
 9219SOL    HW128556   1.246   2.605   1.062
 9219SOL    HW228557   1.120   2.525   1.129
 9220SOL     OW28558   3.496   6.520   1.429
 9220SOL    HW128559   3.426   6.560   1.488
 9220SOL    HW228560   3.452   6.482   1.347
 9221SOL     OW28561   3.185   6.410   3.647
 9221SOL    HW128562   3.142   6.495   3.678
 9221SOL    HW228563   3.247   6.376   3.718
 9222SOL     OW28564   2.295   1.226   6.666
 9222SOL    HW128565   2.217   1.170   6.639
 9222SOL    HW228566   2.292   1.314   6.619
 9223SOL     OW28567   1.947   2.776   5.400
 9223SOL    HW128568   1.939   2.725   5.486
 9223SOL    HW228569   2.040   2.813   5.392
 9224SOL     OW28570   2.109   5.314   4.345
 9224SOL    HW128571   2.085   5.313   4.442
 9224SOL    HW228572   2.036   5.272   4.292
 9225SOL     OW28573   3.416   6.270   6.740
 9225SOL    HW128574   3.367   6.288   6.826
 9225SOL    HW228575   3.366   6.311   6.664
 9226SOL     OW28576   5.051   6.210   1.283
 9226SOL    HW128577   4.984   6.244   1.349
 9226SOL    HW228578   5.140   6.202   1.327
 9227SOL     OW28579   1.136   5.278   2.537
 9227SOL    HW128580   1.109   5.361   2.489
 9227SOL    HW228581   1.055   5.232   2.574
 9228SOL     OW28582   1.490   1.124   5.968
 9228SOL    HW128583   1.563   1.079   6.020
 9228SOL    HW228584   1.513   1.221   5.957
 9229SOL     OW28585   1.416   5.933   3.829
 9229SOL    HW128586   1.467   5.846   3.830
 9229SOL    HW228587   1.400   5.959   3.734
 9230SOL     OW28588   5.135   0.287   3.896
 9230SOL    HW128589   5.234   0.298   3.890
 9230SOL    HW228590   5.108   0.206   3.845
 9231SOL     OW28591   1.356   2.363   4.408
 9231SOL    HW128592   1.281   2.301   4.433
 9231SOL    HW228593   1.420   2.315   4.348
 9232SOL     OW28594   3.232   5.285   0.672
 9232SOL    HW128595   3.168   5.313   0.600
 9232SOL    HW228596   3.325   5.283   0.634
 9233SOL     OW28597   5.795   4.920   1.324
 9233SOL    HW128598   5.869   4.959   1.269
 9233SOL    HW228599   5.716   4.904   1.265
 9234SOL     OW28600   2.786   5.318   3.579
 9234SOL    HW128601   2.692   5.345   3.600
 9234SOL    HW228602   2.811   5.351   3.488
 9235SOL     OW28603   1.074   2.280   3.165
 9235SOL    HW128604   1.056   2.316   3.074
 9235SOL    HW228605   1.011   2.322   3.230
 9236SOL     OW28606   3.108   3.586   5.016
 9236SOL    HW128607   3.091   3.641   4.933
 9236SOL    HW228608   3.078   3.637   5.096
 9237SOL     OW28609   1.380   3.831   4.384
 9237SOL    HW128610   1.415   3.780   4.462
 9237SOL    HW228611   1.282   3.815   4.375
 9238SOL     OW28612   4.865   2.917   6.889
 9238SOL    HW128613   4.941   2.862   6.924
 9238SOL    HW228614   4.795   2.856   6.851
 9239SOL     OW28615   0.761   3.739   0.928
 9239SOL    HW128616   0.705   3.809   0.882
 9239SOL    HW228617   0.768   3.658   0.870
 9240SOL     OW28618   5.068   1.728   1.669
 9240SOL    HW128619   5.072   1.827   1.656
 9240SOL    HW228620   5.075   1.682   1.580
 9241SOL     OW28621   6.762   5.165   6.779
 9241SOL    HW128622   6.734   5.114   6.861
 9241SOL    HW228623   6.809   5.249   6.806
 9242SOL     OW28624   6.749   6.157   1.787
 9242SOL    HW128625   6.813   6.102   1.841
 9242SOL    HW228626   6.685   6.096   1.739
 9243SOL     OW28627   6.738   6.222   4.427
 9243SOL    HW128628   6.810   6.252   4.490
 9243SOL    HW228629   6.666   6.290   4.423
 9244SOL     OW28630   4.439   5.423   6.730
 9244SOL    HW128631   4.407   5.346   6.675
 9244SOL    HW228632   4.516   5.395   6.787
 9245SOL     OW28633   0.556   5.645   2.365
 9245SOL    HW128634   0.578   5.712   2.293
 9245SOL    HW228635   0.638   5.592   2.387
 9246SOL     OW28636   6.618   5.385   3.741
 9246SOL    HW128637   6.554   5.354   3.670
 9246SOL    HW228638   6.593   5.343   3.829
 9247SOL     OW28639   0.652   6.878   2.682
 9247SOL    HW128640   0.623   6.890   2.587
 9247SOL    HW228641   0.615   6.792   2.718
 9248SOL     OW28642   2.774   2.420   6.032
 9248SOL    HW128643   2.779   2.394   6.128
 9248SOL    HW228644   2.838   2.365   5.979
 9249SOL     OW28645   5.273   1.132   4.033
 9249SOL    HW128646   5.242   1.177   4.117
 9249SOL    HW228647   5.265   1.196   3.956
 9250SOL     OW28648   4.873   3.934   3.856
 9250SOL    HW128649   4.866   3.930   3.756
 9250SOL    HW228650   4.912   4.021   3.883
 9251SOL     OW28651   3.556   1.678   3.023
 9251SOL    HW128652   3.588   1.753   2.965
 9251SOL    HW228653   3.590   1.690   3.116
 9252SOL     OW28654   6.930   6.732   5.000
 9252SOL    HW128655   0.004   6.705   5.010
 9252SOL    HW228656   6.873   6.674   5.058
 9253SOL     OW28657   2.280   6.939   5.464
 9253SOL    HW128658   2.304   7.021   5.516
 9253SOL    HW228659   2.190   6.952   5.422
 9254SOL     OW28660   5.669   3.595   1.607
 9254SOL    HW128661   5.617   3.536   1.546
 9254SOL    HW228662   5.732   3.539   1.662
 9255SOL     OW28663   5.280   3.718   0.789
 9255SOL    HW128664   5.196   3.729   0.736
 9255SOL    HW228665   5.282   3.627   0.830
 9256SOL     OW28666   4.292   4.830   2.262
 9256SOL    HW128667   4.307   4.853   2.358
 9256SOL    HW228668   4.196   4.807   2.248
 9257SOL     OW28669   0.981   3.845   2.125
 9257SOL    HW128670   0.947   3.870   2.216
 9257SOL    HW228671   0.910   3.795   2.076
 9258SOL     OW28672   3.251   2.940   4.042
 9258SOL    HW128673   3.335   2.912   3.997
 9258SOL    HW228674   3.187   2.975   3.974
 9259SOL     OW28675   0.930   2.113   1.558
 9259SOL    HW128676   0.951   2.183   1.489
 9259SOL    HW228677   1.016   2.077   1.596
 9260SOL     OW28678   4.937   3.217   6.484
 9260SOL    HW128679   4.934   3.175   6.575
 9260SOL    HW228680   4.987   3.156   6.421
 9261SOL     OW28681   3.834   0.163   6.836
 9261SOL    HW128682   3.845   0.186   6.933
 9261SOL    HW228683   3.851   0.245   6.781
 9262SOL     OW28684   5.327   1.357   4.976
 9262SOL    HW128685   5.254   1.288   4.974
 9262SOL    HW228686   5.301   1.434   4.918
 9263SOL     OW28687   5.455   3.859   1.055
 9263SOL    HW128688   5.424   3.770   1.023
 9263SOL    HW228689   5.538   3.885   1.006
 9264SOL     OW28690   6.297   3.694   6.565
 9264SOL    HW128691   6.233   3.637   6.618
 9264SOL    HW228692   6.259   3.785   6.555
 9265SOL     OW28693   2.745   2.068   0.464
 9265SOL    HW128694   2.782   1.980   0.432
 9265SOL    HW228695   2.699   2.054   0.552
 9266SOL     OW28696   2.573   6.186   2.748
 9266SOL    HW128697   2.527   6.187   2.659
 9266SOL    HW228698   2.594   6.279   2.776
 9267SOL     OW28699   0.770   4.376   4.649
 9267SOL    HW128700   0.714   4.297   4.673
 9267SOL    HW228701   0.807   4.364   4.558
 9268SOL     OW28702   0.544   6.637   2.671
 9268SOL    HW128703   0.557   6.555   2.617
 9268SOL    HW228704   0.473   6.621   2.740
 9269SOL     OW28705   2.954   1.994   6.929
 9269SOL    HW128706   3.001   2.082   6.924
 9269SOL    HW228707   2.965   1.954   7.020
 9270SOL     OW28708   6.690   6.639   5.845
 9270SOL    HW128709   6.704   6.561   5.905
 9270SOL    HW228710   6.597   6.637   5.809
 9271SOL     OW28711   1.593   6.513   0.869
 9271SOL    HW128712   1.558   6.532   0.778
 9271SOL    HW228713   1.521   6.468   0.923
 9272SOL     OW28714   2.942   4.152   6.619
 9272SOL    HW128715   3.023   4.159   6.560
 9272SOL    HW228716   2.922   4.241   6.660
 9273SOL     OW28717   4.351   5.189   4.157
 9273SOL    HW128718   4.286   5.113   4.153
 9273SOL    HW228719   4.431   5.161   4.211
 9274SOL     OW28720   5.368   2.423   6.326
 9274SOL    HW128721   5.300   2.409   6.398
 9274SOL    HW228722   5.410   2.513   6.337
 9275SOL     OW28723   0.754   0.736   6.496
 9275SOL    HW128724   0.760   0.708   6.591
 9275SOL    HW228725   0.715   0.661   6.442
 9276SOL     OW28726   3.561   5.763   4.669
 9276SOL    HW128727   3.587   5.681   4.618
 9276SOL    HW228728   3.630   5.834   4.657
 9277SOL     OW28729   3.882   3.415   0.060
 9277SOL    HW128730   3.874   3.473   0.141
 9277SOL    HW228731   3.930   3.465   7.009
 9278SOL     OW28732   1.601   2.313   3.827
 9278SOL    HW128733   1.664   2.388   3.808
 9278SOL    HW228734   1.648   2.244   3.883
 9279SOL     OW28735   3.241   0.746   2.224
 9279SOL    HW128736   3.189   0.662   2.234
 9279SOL    HW228737   3.241   0.796   2.311
 9280SOL     OW28738   1.661   0.018   3.612
 9280SOL    HW128739   1.617   6.950   3.618
 9280SOL    HW228740   1.735   0.023   3.679
 9281SOL     OW28741   1.903   2.882   0.937
 9281SOL    HW128742   1.962   2.948   0.984
 9281SOL    HW228743   1.859   2.823   1.005
 9282SOL     OW28744   4.478   1.372   4.056
 9282SOL    HW128745   4.491   1.469   4.035
 9282SOL    HW228746   4.478   1.360   4.156
 9283SOL     OW28747   6.060   2.318   2.614
 9283SOL    HW128748   6.003   2.289   2.690
 9283SOL    HW228749   6.074   2.417   2.619
 9284SOL     OW28750   3.830   3.770   1.357
 9284SOL    HW128751   3.860   3.764   1.262
 9284SOL    HW228752   3.814   3.678   1.393
 9285SOL     OW28753   6.549   2.776   6.717
 9285SOL    HW128754   6.638   2.751   6.757
 9285SOL    HW228755   6.476   2.726   6.764
 9286SOL     OW28756   5.701   0.058   5.108
 9286SOL    HW128757   5.717   0.064   5.206
 9286SOL    HW228758   5.605   0.077   5.089
 9287SOL     OW28759   2.776   5.777   1.465
 9287SOL    HW128760   2.760   5.748   1.560
 9287SOL    HW228761   2.865   5.822   1.458
 9288SOL     OW28762   4.020   1.959   5.982
 9288SOL    HW128763   3.941   1.901   5.963
 9288SOL    HW228764   4.102   1.918   5.942
 9289SOL     OW28765   5.168   2.321   2.476
 9289SOL    HW128766   5.081   2.363   2.501
 9289SOL    HW228767   5.222   2.386   2.422
 9290SOL     OW28768   4.366   1.850   4.969
 9290SOL    HW128769   4.336   1.812   5.056
 9290SOL    HW228770   4.327   1.797   4.894
 9291SOL     OW28771   1.470   0.400   5.210
 9291SOL    HW128772   1.381   0.370   5.177
 9291SOL    HW228773   1.537   0.327   5.198
 9292SOL     OW28774   0.146   3.265   6.160
 9292SOL    HW128775   0.213   3.324   6.205
 9292SOL    HW228776   0.177   3.245   6.067
 9293SOL     OW28777   5.162   4.355   0.273
 9293SOL    HW128778   5.102   4.423   0.232
 9293SOL    HW228779   5.154   4.360   0.372
 9294SOL     OW28780   5.126   5.991   0.299
 9294SOL    HW128781   5.157   6.026   0.387
 9294SOL    HW228782   5.205   5.978   0.238
 9295SOL     OW28783   4.400   1.422   3.128
 9295SOL    HW128784   4.370   1.379   3.213
 9295SOL    HW228785   4.492   1.392   3.106
 9296SOL     OW28786   6.366   6.234   6.086
 9296SOL    HW128787   6.377   6.134   6.087
 9296SOL    HW228788   6.344   6.264   5.993
 9297SOL     OW28789   0.353   0.810   1.555
 9297SOL    HW128790   0.271   0.769   1.596
 9297SOL    HW228791   0.420   0.830   1.626
 9298SOL     OW28792   1.721   6.097   5.715
 9298SOL    HW128793   1.724   6.020   5.779
 9298SOL    HW228794   1.645   6.157   5.738
 9299SOL     OW28795   1.427   3.437   3.941
 9299SOL    HW128796   1.415   3.372   4.016
 9299SOL    HW228797   1.426   3.387   3.854
 9300SOL     OW28798   6.113   4.679   5.228
 9300SOL    HW128799   6.162   4.724   5.153
 9300SOL    HW228800   6.047   4.743   5.268
 9301SOL     OW28801   5.104   4.370   2.777
 9301SOL    HW128802   5.010   4.405   2.785
 9301SOL    HW228803   5.115   4.324   2.689
 9302SOL     OW28804   2.573   2.480   3.334
 9302SOL    HW128805   2.490   2.435   3.366
 9302SOL    HW228806   2.550   2.549   3.266
 9303SOL     OW28807   4.146   6.083   0.275
 9303SOL    HW128808   4.235   6.075   0.229
 9303SOL    HW228809   4.156   6.137   0.358
 9304SOL     OW28810   3.314   3.816   0.768
 9304SOL    HW128811   3.340   3.814   0.864
 9304SOL    HW228812   3.354   3.897   0.724
 9305SOL     OW28813   5.848   2.440   2.048
 9305SOL    HW128814   5.795   2.496   2.112
 9305SOL    HW228815   5.882   2.359   2.096
 9306SOL     OW28816   0.315   4.966   3.762
 9306SOL    HW128817   0.400   4.992   3.808
 9306SOL    HW228818   0.271   4.893   3.814
 9307SOL     OW28819   1.540   2.211   0.652
 9307SOL    HW128820   1.573   2.230   0.745
 9307SOL    HW228821   1.464   2.147   0.657
 9308SOL     OW28822   0.495   3.284   1.073
 9308SOL    HW128823   0.448   3.350   1.015
 9308SOL    HW228824   0.444   3.198   1.073
 9309SOL     OW28825   4.249   3.839   5.816
 9309SOL    HW128826   4.226   3.914   5.878
 9309SOL    HW228827   4.336   3.858   5.772
 9310SOL     OW28828   4.108   6.238   6.257
 9310SOL    HW128829   4.029   6.177   6.261
 9310SOL    HW228830   4.112   6.294   6.340
 9311SOL     OW28831   5.590   4.052   0.560
 9311SOL    HW128832   5.647   3.974   0.538
 9311SOL    HW228833   5.514   4.023   0.619
 9312SOL     OW28834   1.365   4.239   6.625
 9312SOL    HW128835   1.363   4.141   6.647
 9312SOL    HW228836   1.353   4.251   6.526
 9313SOL     OW28837   0.020   0.249   2.541
 9313SOL    HW128838   0.012   0.150   2.539
 9313SOL    HW228839   0.070   0.277   2.623
 9314SOL     OW28840   4.378   5.625   6.915
 9314SOL    HW128841   4.466   5.672   6.926
 9314SOL    HW228842   4.389   5.548   6.853
 9315SOL     OW28843   0.239   0.580   5.721
 9315SOL    HW128844   0.296   0.499   5.704
 9315SOL    HW228845   0.179   0.562   5.799
 9316SOL     OW28846   3.675   5.758   3.868
 9316SOL    HW128847   3.766   5.732   3.836
 9316SOL    HW228848   3.684   5.811   3.953
 9317SOL     OW28849   6.152   5.089   3.097
 9317SOL    HW128850   6.242   5.046   3.097
 9317SOL    HW228851   6.120   5.100   3.003
 9318SOL     OW28852   0.061   0.563   6.763
 9318SOL    HW128853   0.104   0.546   6.852
 9318SOL    HW228854   7.001   0.619   6.776
 9319SOL     OW28855   1.057   3.207   6.979
 9319SOL    HW128856   0.994   3.283   6.964
 9319SOL    HW228857   1.151   3.241   6.979
 9320SOL     OW28858   4.372   2.374   6.244
 9320SOL    HW128859   4.363   2.376   6.344
 9320SOL    HW228860   4.302   2.314   6.206
 9321SOL     OW28861   6.373   6.269   3.008
 9321SOL    HW128862   6.305   6.332   3.046
 9321SOL    HW228863   6.352   6.252   2.912
 9322SOL     OW28864   0.675   6.064   5.550
 9322SOL    HW128865   0.621   6.001   5.606
 9322SOL    HW228866   0.672   6.155   5.590
 9323SOL     OW28867   0.439   1.161   6.627
 9323SOL    HW128868   0.533   1.192   6.641
 9323SOL    HW228869   0.397   1.216   6.555
 9324SOL     OW28870   1.339   5.627   0.312
 9324SOL    HW128871   1.367   5.712   0.357
 9324SOL    HW228872   1.329   5.555   0.381
 9325SOL     OW28873   5.545   1.753   1.027
 9325SOL    HW128874   5.643   1.766   1.040
 9325SOL    HW228875   5.518   1.790   0.938
 9326SOL     OW28876   1.735   0.122   1.254
 9326SOL    HW128877   1.761   0.116   1.158
 9326SOL    HW228878   1.642   0.085   1.266
 9327SOL     OW28879   4.620   0.014   2.677
 9327SOL    HW128880   4.710   0.058   2.679
 9327SOL    HW228881   4.563   0.058   2.609
 9328SOL     OW28882   3.428   1.657   0.252
 9328SOL    HW128883   3.389   1.699   0.170
 9328SOL    HW228884   3.457   1.564   0.232
 9329SOL     OW28885   0.329   3.689   2.850
 9329SOL    HW128886   0.363   3.781   2.830
 9329SOL    HW228887   0.331   3.673   2.948
 9330SOL     OW28888   6.143   0.005   0.689
 9330SOL    HW128889   6.110   6.993   0.601
 9330SOL    HW228890   6.161   0.103   0.683
 9331SOL     OW28891   0.386   0.683   6.978
 9331SOL    HW128892   0.407   0.727   6.891
 9331SOL    HW228893   0.470   0.671   0.009
 9332SOL     OW28894   3.169   3.632   4.523
 9332SOL    HW128895   3.250   3.672   4.564
 9332SOL    HW228896   3.111   3.593   4.594
 9333SOL     OW28897   6.273   4.442   0.958
 9333SOL    HW128898   6.290   4.426   0.861
 9333SOL    HW228899   6.354   4.484   1.000
 9334SOL     OW28900   2.786   0.439   3.814
 9334SOL    HW128901   2.735   0.473   3.735
 9334SOL    HW228902   2.878   0.413   3.785
 9335SOL     OW28903   1.800   1.134   6.521
 9335SOL    HW128904   1.827   1.177   6.435
 9335SOL    HW228905   1.702   1.114   6.518
 9336SOL     OW28906   3.048   6.615   5.881
 9336SOL    HW128907   2.992   6.619   5.799
 9336SOL    HW228908   3.046   6.704   5.927
 9337SOL     OW28909   5.289   0.612   2.214
 9337SOL    HW128910   5.388   0.601   2.223
 9337SOL    HW228911   5.252   0.650   2.299
 9338SOL     OW28912   3.478   0.687   2.880
 9338SOL    HW128913   3.454   0.687   2.782
 9338SOL    HW228914   3.516   0.598   2.905
 9339SOL     OW28915   4.856   6.269   1.479
 9339SOL    HW128916   4.829   6.175   1.503
 9339SOL    HW228917   4.774   6.322   1.456
 9340SOL     OW28918   5.954   3.430   6.014
 9340SOL    HW128919   5.983   3.343   6.054
 9340SOL    HW228920   6.026   3.499   6.029
 9341SOL     OW28921   0.726   5.497   6.542
 9341SOL    HW128922   0.666   5.417   6.543
 9341SOL    HW228923   0.705   5.553   6.462
 9342SOL     OW28924   1.439   0.195   5.738
 9342SOL    HW128925   1.378   0.143   5.798
 9342SOL    HW228926   1.391   0.216   5.653
 9343SOL     OW28927   6.148   5.447   5.006
 9343SOL    HW128928   6.069   5.492   5.048
 9343SOL    HW228929   6.228   5.506   5.014
 9344SOL     OW28930   5.354   6.522   1.427
 9344SOL    HW128931   5.310   6.461   1.492
 9344SOL    HW228932   5.289   6.592   1.397
 9345SOL     OW28933   7.013   2.894   0.810
 9345SOL    HW128934   0.039   2.806   0.799
 9345SOL    HW228935   0.033   2.945   0.884
 9346SOL     OW28936   6.379   0.475   1.354
 9346SOL    HW128937   6.464   0.528   1.345
 9346SOL    HW228938   6.301   0.536   1.357
 9347SOL     OW28939   1.659   6.292   1.683
 9347SOL    HW128940   1.677   6.366   1.747
 9347SOL    HW228941   1.582   6.237   1.717
 9348SOL     OW28942   2.912   5.370   0.503
 9348SOL    HW128943   2.959   5.305   0.444
 9348SOL    HW228944   2.933   5.463   0.475
 9349SOL     OW28945   0.887   6.951   2.764
 9349SOL    HW128946   0.794   6.929   2.735
 9349SOL    HW228947   0.925   6.874   2.816
 9350SOL     OW28948   0.678   2.461   5.855
 9350SOL    HW128949   0.709   2.533   5.793
 9350SOL    HW228950   0.648   2.382   5.802
 9351SOL     OW28951   3.854   2.349   6.938
 9351SOL    HW128952   3.943   2.304   6.951
 9351SOL    HW228953   3.802   2.344   0.001
 9352SOL     OW28954   2.870   4.416   6.742
 9352SOL    HW128955   2.771   4.416   6.730
 9352SOL    HW228956   2.913   4.469   6.668
 9353SOL     OW28957   0.058   6.491   1.684
 9353SOL    HW128958   0.012   6.407   1.654
 9353SOL    HW228959   0.094   6.478   1.776
 9354SOL     OW28960   6.078   2.440   6.940
 9354SOL    HW128961   6.160   2.400   6.980
 9354SOL    HW228962   6.036   2.375   6.877
 9355SOL     OW28963   0.615   1.724   5.064
 9355SOL    HW128964   0.522   1.735   5.028
 9355SOL    HW228965   0.661   1.812   5.066
 9356SOL     OW28966   4.672   6.865   2.035
 9356SOL    HW128967   4.681   6.798   1.961
 9356SOL    HW228968   4.710   6.827   2.119
 9357SOL     OW28969   0.795   2.021   6.954
 9357SOL    HW128970   0.870   1.991   6.895
 9357SOL    HW228971   0.796   1.966   0.017
 9358SOL     OW28972   1.449   3.449   2.498
 9358SOL    HW128973   1.361   3.403   2.488
 9358SOL    HW228974   1.438   3.532   2.552
 9359SOL     OW28975   1.761   6.879   6.513
 9359SOL    HW128976   1.664   6.878   6.540
 9359SOL    HW228977   1.772   6.935   6.431
 9360SOL     OW28978   0.563   0.479   6.190
 9360SOL    HW128979   0.659   0.449   6.198
 9360SOL    HW228980   0.560   0.578   6.184
 9361SOL     OW28981   2.105   6.083   4.499
 9361SOL    HW128982   2.059   6.009   4.451
 9361SOL    HW228983   2.200   6.089   4.468
 9362SOL     OW28984   1.814   0.331   2.238
 9362SOL    HW128985   1.871   0.412   2.222
 9362SOL    HW228986   1.726   0.342   2.192
 9363SOL     OW28987   2.794   5.165   2.674
 9363SOL    HW128988   2.816   5.205   2.764
 9363SOL    HW228989   2.755   5.073   2.687
 9364SOL     OW28990   1.279   2.309   1.189
 9364SOL    HW128991   1.245   2.255   1.112
 9364SOL    HW228992   1.258   2.406   1.174
 9365SOL     OW28993   3.197   2.162   4.744
 9365SOL    HW128994   3.178   2.223   4.821
 9365SOL    HW228995   3.156   2.200   4.661
 9366SOL     OW28996   3.580   5.592   0.457
 9366SOL    HW128997   3.671   5.634   0.450
 9366SOL    HW228998   3.572   5.518   0.390
 9367SOL     OW28999   6.328   0.984   1.582
 9367SOL    HW129000   6.343   1.023   1.673
 9367SOL    HW229001   6.267   1.043   1.530
 9368SOL     OW29002   3.428   0.957   2.712
 9368SOL    HW129003   3.415   0.927   2.617
 9368SOL    HW229004   3.520   0.995   2.723
 9369SOL     OW29005   1.937   5.396   6.568
 9369SOL    HW129006   2.003   5.386   6.494
 9369SOL    HW229007   1.977   5.362   6.653
 9370SOL     OW29008   4.530   1.972   4.043
 9370SOL    HW129009   4.544   2.069   4.059
 9370SOL    HW229010   4.616   1.930   4.015
 9371SOL     OW29011   4.530   5.544   1.418
 9371SOL    HW129012   4.461   5.613   1.444
 9371SOL    HW229013   4.484   5.464   1.381
 9372SOL     OW29014   4.965   6.460   1.660
 9372SOL    HW129015   4.937   6.386   1.598
 9372SOL    HW229016   4.903   6.537   1.651
 9373SOL     OW29017   6.943   1.663   0.425
 9373SOL    HW129018   6.928   1.663   0.524
 9373SOL    HW229019   0.014   1.633   0.405
 9374SOL     OW29020   0.925   5.275   5.698
 9374SOL    HW129021   0.935   5.275   5.797
 9374SOL    HW229022   0.950   5.366   5.662
 9375SOL     OW29023   0.152   0.705   0.435
 9375SOL    HW129024   0.201   0.791   0.421
 9375SOL    HW229025   0.162   0.675   0.530
 9376SOL     OW29026   2.325   4.097   1.909
 9376SOL    HW129027   2.289   4.190   1.915
 9376SOL    HW229028   2.417   4.099   1.868
 9377SOL     OW29029   2.166   6.746   3.558
 9377SOL    HW129030   2.242   6.763   3.621
 9377SOL    HW229031   2.166   6.651   3.530
 9378SOL     OW29032   2.604   0.721   3.811
 9378SOL    HW129033   2.577   0.638   3.763
 9378SOL    HW229034   2.695   0.749   3.780
 9379SOL     OW29035   3.997   6.295   4.872
 9379SOL    HW129036   3.898   6.295   4.884
 9379SOL    HW229037   4.032   6.388   4.885
 9380SOL     OW29038   5.001   5.547   0.165
 9380SOL    HW129039   4.997   5.591   0.255
 9380SOL    HW229040   5.056   5.604   0.103
 9381SOL     OW29041   5.458   1.738   4.516
 9381SOL    HW129042   5.469   1.770   4.422
 9381SOL    HW229043   5.374   1.776   4.555
 9382SOL     OW29044   3.107   0.167   4.724
 9382SOL    HW129045   3.126   0.099   4.795
 9382SOL    HW229046   3.011   0.194   4.729
 9383SOL     OW29047   5.401   4.159   3.187
 9383SOL    HW129048   5.348   4.183   3.106
 9383SOL    HW229049   5.439   4.243   3.228
 9384SOL     OW29050   2.321   0.426   2.295
 9384SOL    HW129051   2.268   0.495   2.344
 9384SOL    HW229052   2.279   0.336   2.308
 9385SOL     OW29053   4.020   1.787   2.959
 9385SOL    HW129054   4.116   1.783   2.935
 9385SOL    HW229055   3.965   1.755   2.882
 9386SOL     OW29056   4.646   6.326   6.299
 9386SOL    HW129057   4.663   6.322   6.397
 9386SOL    HW229058   4.620   6.419   6.273
 9387SOL     OW29059   2.748   2.451   0.198
 9387SOL    HW129060   2.842   2.427   0.225
 9387SOL    HW229061   2.715   2.525   0.256
 9388SOL     OW29062   2.492   6.750   4.598
 9388SOL    HW129063   2.438   6.761   4.514
 9388SOL    HW229064   2.517   6.653   4.609
 9389SOL     OW29065   2.662   4.360   1.724
 9389SOL    HW129066   2.664   4.427   1.650
 9389SOL    HW229067   2.740   4.376   1.785
 9390SOL     OW29068   5.283   5.242   4.827
 9390SOL    HW129069   5.237   5.288   4.903
 9390SOL    HW229070   5.215   5.213   4.759
 9391SOL     OW29071   1.433   5.407   4.641
 9391SOL    HW129072   1.414   5.484   4.702
 9391SOL    HW229073   1.531   5.393   4.634
 9392SOL     OW29074   5.540   4.180   2.839
 9392SOL    HW129075   5.581   4.090   2.854
 9392SOL    HW229076   5.449   4.182   2.880
 9393SOL     OW29077   2.735   0.263   6.043
 9393SOL    HW129078   2.688   0.273   6.131
 9393SOL    HW229079   2.730   0.349   5.993
 9394SOL     OW29080   4.253   0.511   0.738
 9394SOL    HW129081   4.190   0.547   0.807
 9394SOL    HW229082   4.269   0.414   0.753
 9395SOL     OW29083   1.462   1.468   1.126
 9395SOL    HW129084   1.410   1.540   1.173
 9395SOL    HW229085   1.478   1.392   1.189
 9396SOL     OW29086   0.655   6.533   6.516
 9396SOL    HW129087   0.729   6.593   6.484
 9396SOL    HW229088   0.630   6.559   6.609
 9397SOL     OW29089   3.515   1.263   5.708
 9397SOL    HW129090   3.587   1.332   5.702
 9397SOL    HW229091   3.538   1.196   5.779
 9398SOL     OW29092   0.414   1.422   6.941
 9398SOL    HW129093   0.475   1.380   6.873
 9398SOL    HW229094   0.381   1.351   7.004
 9399SOL     OW29095   1.865   3.046   4.054
 9399SOL    HW129096   1.822   3.022   3.967
 9399SOL    HW229097   1.942   3.108   4.036
 9400SOL     OW29098   5.761   1.256   0.678
 9400SOL    HW129099   5.842   1.277   0.622
 9400SOL    HW229100   5.693   1.210   0.622
 9401SOL     OW29101   0.099   2.244   3.225
 9401SOL    HW129102   0.165   2.202   3.163
 9401SOL    HW229103   0.144   2.314   3.280
 9402SOL     OW29104   1.599   6.240   4.213
 9402SOL    HW129105   1.615   6.144   4.236
 9402SOL    HW229106   1.652   6.264   4.132
 9403SOL     OW29107   5.975   2.728   2.327
 9403SOL    HW129108   6.027   2.724   2.242
 9403SOL    HW229109   5.884   2.766   2.309
 9404SOL     OW29110   2.134   2.858   0.731
 9404SOL    HW129111   2.228   2.866   0.765
 9404SOL    HW229112   2.070   2.857   0.809
 9405SOL     OW29113   0.177   5.678   5.334
 9405SOL    HW129114   0.177   5.709   5.239
 9405SOL    HW229115   0.248   5.727   5.385
 9406SOL     OW29116   0.132   2.760   0.223
 9406SOL    HW129117   0.198   2.739   0.151
 9406SOL    HW229118   0.180   2.779   0.308
 9407SOL     OW29119   1.156   5.525   5.353
 9407SOL    HW129120   1.083   5.529   5.422
 9407SOL    HW229121   1.228   5.464   5.384
 9408SOL     OW29122   0.702   3.833   4.582
 9408SOL    HW129123   0.755   3.811   4.500
 9408SOL    HW229124   0.715   3.762   4.651
 9409SOL     OW29125   6.656   5.402   2.564
 9409SOL    HW129126   6.733   5.363   2.613
 9409SOL    HW229127   6.572   5.354   2.590
 9410SOL     OW29128   3.504   1.055   0.832
 9410SOL    HW129129   3.409   1.039   0.860
 9410SOL    HW229130   3.507   1.071   0.733
 9411SOL     OW29131   3.022   3.499   3.284
 9411SOL    HW129132   2.955   3.480   3.213
 9411SOL    HW229133   3.102   3.544   3.244
 9412SOL     OW29134   6.187   6.278   0.645
 9412SOL    HW129135   6.211   6.240   0.735
 9412SOL    HW229136   6.228   6.369   0.636
 9413SOL     OW29137   4.832   4.078   2.873
 9413SOL    HW129138   4.866   3.986   2.890
 9413SOL    HW229139   4.863   4.110   2.784
 9414SOL     OW29140   1.876   2.130   3.577
 9414SOL    HW129141   1.858   2.093   3.486
 9414SOL    HW229142   1.934   2.067   3.628
 9415SOL     OW29143   3.944   1.051   2.282
 9415SOL    HW129144   3.912   1.047   2.377
 9415SOL    HW229145   3.877   1.099   2.226
 9416SOL     OW29146   5.485   5.508   5.939
 9416SOL    HW129147   5.454   5.576   5.873
 9416SOL    HW229148   5.484   5.548   6.031
 9417SOL     OW29149   3.482   5.302   2.114
 9417SOL    HW129150   3.445   5.394   2.127
 9417SOL    HW229151   3.437   5.258   2.035
 9418SOL     OW29152   3.260   1.802   5.382
 9418SOL    HW129153   3.280   1.704   5.394
 9418SOL    HW229154   3.337   1.846   5.336
 9419SOL     OW29155   2.032   3.043   6.172
 9419SOL    HW129156   1.940   3.075   6.197
 9419SOL    HW229157   2.030   2.945   6.153
 9420SOL     OW29158   6.888   4.185   6.484
 9420SOL    HW129159   6.791   4.163   6.471
 9420SOL    HW229160   6.941   4.101   6.488
 9421SOL     OW29161   3.717   6.391   6.238
 9421SOL    HW129162   3.664   6.391   6.153
 9421SOL    HW229163   3.794   6.454   6.229
 9422SOL     OW29164   2.135   6.305   5.298
 9422SOL    HW129165   2.076   6.265   5.368
 9422SOL    HW229166   2.084   6.373   5.246
 9423SOL     OW29167   4.909   4.737   3.056
 9423SOL    HW129168   4.887   4.642   3.077
 9423SOL    HW229169   4.975   4.739   2.981
 9424SOL     OW29170   6.152   0.086   4.458
 9424SOL    HW129171   6.184   0.181   4.468
 9424SOL    HW229172   6.131   0.048   4.548
 9425SOL     OW29173   6.811   4.846   1.264
 9425SOL    HW129174   6.877   4.900   1.212
 9425SOL    HW229175   6.857   4.808   1.345
 9426SOL     OW29176   6.926   2.266   6.246
 9426SOL    HW129177   6.979   2.185   6.271
 9426SOL    HW229178   6.909   2.265   6.147
 9427SOL     OW29179   4.945   4.720   2.372
 9427SOL    HW129180   4.887   4.790   2.333
 9427SOL    HW229181   4.889   4.644   2.404
 9428SOL     OW29182   0.326   6.410   5.500
 9428SOL    HW129183   0.420   6.430   5.473
 9428SOL    HW229184   0.320   6.316   5.534
 9429SOL     OW29185   2.396   2.432   4.157
 9429SOL    HW129186   2.464   2.452   4.086
 9429SOL    HW229187   2.388   2.333   4.170
 9430SOL     OW29188   1.335   2.264   4.688
 9430SOL    HW129189   1.374   2.318   4.762
 9430SOL    HW229190   1.392   2.184   4.671
 9431SOL     OW29191   0.951   4.982   5.819
 9431SOL    HW129192   1.037   4.932   5.826
 9431SOL    HW229193   0.964   5.065   5.765
 9432SOL     OW29194   6.901   1.456   3.572
 9432SOL    HW129195   6.998   1.437   3.588
 9432SOL    HW229196   6.855   1.371   3.543
 9433SOL     OW29197   4.763   5.459   1.941
 9433SOL    HW129198   4.675   5.413   1.927
 9433SOL    HW229199   4.821   5.445   1.861
 9434SOL     OW29200   4.775   5.445   4.110
 9434SOL    HW129201   4.775   5.351   4.077
 9434SOL    HW229202   4.690   5.463   4.160
 9435SOL     OW29203   0.445   3.160   1.831
 9435SOL    HW129204   0.508   3.236   1.844
 9435SOL    HW229205   0.357   3.195   1.799
 9436SOL     OW29206   2.200   0.326   2.645
 9436SOL    HW129207   2.200   0.407   2.585
 9436SOL    HW229208   2.115   0.275   2.631
 9437SOL     OW29209   5.389   6.821   4.941
 9437SOL    HW129210   5.472   6.864   4.906
 9437SOL    HW229211   5.325   6.806   4.865
 9438SOL     OW29212   4.770   6.922   2.375
 9438SOL    HW129213   4.679   6.954   2.403
 9438SOL    HW229214   4.761   6.836   2.325
 9439SOL     OW29215   1.780   3.388   0.797
 9439SOL    HW129216   1.701   3.368   0.854
 9439SOL    HW229217   1.859   3.339   0.831
 9440SOL     OW29218   2.331   5.230   3.587
 9440SOL    HW129219   2.272   5.151   3.566
 9440SOL    HW229220   2.397   5.204   3.657
 9441SOL     OW29221   0.430   6.887   4.137
 9441SOL    HW129222   0.529   6.899   4.139
 9441SOL    HW229223   0.386   6.976   4.128
 9442SOL     OW29224   5.418   3.020   0.528
 9442SOL    HW129225   5.364   2.944   0.492
 9442SOL    HW229226   5.436   3.086   0.455
 9443SOL     OW29227   2.221   4.543   2.655
 9443SOL    HW129228   2.307   4.500   2.684
 9443SOL    HW229229   2.233   4.643   2.653
 9444SOL     OW29230   1.067   4.511   5.838
 9444SOL    HW129231   1.071   4.423   5.884
 9444SOL    HW229232   0.972   4.541   5.831
 9445SOL     OW29233   0.883   1.102   4.003
 9445SOL    HW129234   0.846   1.096   3.910
 9445SOL    HW229235   0.823   1.158   4.059
 9446SOL     OW29236   6.468   4.713   3.634
 9446SOL    HW129237   6.381   4.676   3.667
 9446SOL    HW229238   6.454   4.761   3.548
 9447SOL     OW29239   4.921   4.301   1.951
 9447SOL    HW129240   4.874   4.245   1.883
 9447SOL    HW229241   5.018   4.305   1.929
 9448SOL     OW29242   6.430   1.031   4.959
 9448SOL    HW129243   6.486   0.962   5.004
 9448SOL    HW229244   6.347   1.047   5.014
 9449SOL     OW29245   5.303   0.637   1.501
 9449SOL    HW129246   5.277   0.706   1.568
 9449SOL    HW229247   5.267   0.662   1.411
 9450SOL     OW29248   0.944   5.897   3.141
 9450SOL    HW129249   0.947   5.980   3.085
 9450SOL    HW229250   0.891   5.827   3.093
 9451SOL     OW29251   3.078   5.302   6.359
 9451SOL    HW129252   3.032   5.229   6.309
 9451SOL    HW229253   3.102   5.270   6.450
 9452SOL     OW29254   6.289   3.910   6.801
 9452SOL    HW129255   6.382   3.938   6.824
 9452SOL    HW229256   6.272   3.817   6.834
 9453SOL     OW29257   5.230   5.115   1.635
 9453SOL    HW129258   5.162   5.044   1.620
 9453SOL    HW229259   5.197   5.180   1.703
 9454SOL     OW29260   5.896   4.278   0.274
 9454SOL    HW129261   5.948   4.276   0.189
 9454SOL    HW229262   5.816   4.337   0.264
 9455SOL     OW29263   3.614   1.316   1.702
 9455SOL    HW129264   3.672   1.384   1.747
 9455SOL    HW229265   3.626   1.321   1.603
 9456SOL     OW29266   0.514   3.053   2.326
 9456SOL    HW129267   0.463   2.967   2.321
 9456SOL    HW229268   0.449   3.130   2.325
 9457SOL     OW29269   6.271   6.475   4.766
 9457SOL    HW129270   6.325   6.475   4.682
 9457SOL    HW229271   6.319   6.527   4.837
 9458SOL     OW29272   6.381   4.072   0.252
 9458SOL    HW129273   6.421   4.036   0.168
 9458SOL    HW229274   6.305   4.014   0.281
 9459SOL     OW29275   4.892   4.932   5.536
 9459SOL    HW129276   4.937   4.847   5.507
 9459SOL    HW229277   4.802   4.911   5.574
 9460SOL     OW29278   1.430   2.391   2.600
 9460SOL    HW129279   1.394   2.465   2.543
 9460SOL    HW229280   1.364   2.316   2.602
 9461SOL     OW29281   1.617   2.127   2.113
 9461SOL    HW129282   1.554   2.137   2.189
 9461SOL    HW229283   1.570   2.150   2.027
 9462SOL     OW29284   0.272   1.358   4.341
 9462SOL    HW129285   0.196   1.303   4.375
 9462SOL    HW229286   0.353   1.342   4.398
 9463SOL     OW29287   5.747   4.798   1.563
 9463SOL    HW129288   5.762   4.854   1.481
 9463SOL    HW229289   5.825   4.736   1.575
 9464SOL     OW29290   1.029   1.228   2.069
 9464SOL    HW129291   0.971   1.246   2.148
 9464SOL    HW229292   1.081   1.310   2.047
 9465SOL     OW29293   6.881   4.505   1.080
 9465SOL    HW129294   6.891   4.436   1.152
 9465SOL    HW229295   6.798   4.558   1.097
 9466SOL     OW29296   3.880   4.569   5.747
 9466SOL    HW129297   3.962   4.535   5.699
 9466SOL    HW229298   3.908   4.634   5.818
 9467SOL     OW29299   1.975   3.820   0.462
 9467SOL    HW129300   2.004   3.724   0.467
 9467SOL    HW229301   1.934   3.837   0.372
 9468SOL     OW29302   6.521   1.469   0.503
 9468SOL    HW129303   6.604   1.484   0.556
 9468SOL    HW229304   6.543   1.479   0.405
 9469SOL     OW29305   0.498   6.486   1.395
 9469SOL    HW129306   0.586   6.497   1.441
 9469SOL    HW229307   0.513   6.451   1.303
 9470SOL     OW29308   3.377   3.559   0.617
 9470SOL    HW129309   3.360   3.652   0.650
 9470SOL    HW229310   3.346   3.550   0.522
 9471SOL     OW29311   6.522   2.967   4.629
 9471SOL    HW129312   6.542   2.976   4.727
 9471SOL    HW229313   6.572   3.038   4.579
 9472SOL     OW29314   1.531   3.079   6.236
 9472SOL    HW129315   1.444   3.074   6.284
 9472SOL    HW229316   1.539   3.001   6.174
 9473SOL     OW29317   2.614   3.953   0.838
 9473SOL    HW129318   2.556   3.955   0.757
 9473SOL    HW229319   2.612   4.043   0.882
 9474SOL     OW29320   5.770   3.160   0.481
 9474SOL    HW129321   5.755   3.240   0.423
 9474SOL    HW229322   5.806   3.085   0.425
 9475SOL     OW29323   5.145   4.209   6.429
 9475SOL    HW129324   5.085   4.148   6.482
 9475SOL    HW229325   5.221   4.156   6.392
 9476SOL     OW29326   4.054   4.138   0.025
 9476SOL    HW129327   4.105   4.149   0.110
 9476SOL    HW229328   4.118   4.121   6.972
 9477SOL     OW29329   2.037   4.453   0.283
 9477SOL    HW129330   2.005   4.511   0.208
 9477SOL    HW229331   1.985   4.368   0.283
 9478SOL     OW29332   5.297   3.127   0.017
 9478SOL    HW129333   5.384   3.079   0.021
 9478SOL    HW229334   5.230   3.081   0.075
 9479SOL     OW29335   4.170   0.655   2.418
 9479SOL    HW129336   4.209   0.564   2.400
 9479SOL    HW229337   4.145   0.698   2.332
 9480SOL     OW29338   6.610   1.269   0.787
 9480SOL    HW129339   6.670   1.229   0.857
 9480SOL    HW229340   6.645   1.245   0.696
 9481SOL     OW29341   4.123   6.965   3.902
 9481SOL    HW129342   4.114   6.893   3.833
 9481SOL    HW229343   4.203   0.000   3.881
 9482SOL     OW29344   6.635   6.048   6.919
 9482SOL    HW129345   6.564   6.090   6.976
 9482SOL    HW229346   6.592   6.008   6.838
 9483SOL     OW29347   6.445   6.927   0.356
 9483SOL    HW129348   6.429   6.948   0.259
 9483SOL    HW229349   6.456   7.012   0.407
 9484SOL     OW29350   4.025   5.600   4.783
 9484SOL    HW129351   3.963   5.660   4.732
 9484SOL    HW229352   3.977   5.559   4.860
 9485SOL     OW29353   0.416   0.837   0.344
 9485SOL    HW129354   0.371   0.882   0.267
 9485SOL    HW229355   0.513   0.824   0.324
 9486SOL     OW29356   5.424   5.735   0.353
 9486SOL    HW129357   5.452   5.684   0.271
 9486SOL    HW229358   5.343   5.790   0.332
 9487SOL     OW29359   3.555   2.966   3.373
 9487SOL    HW129360   3.637   3.023   3.383
 9487SOL    HW229361   3.558   2.919   3.285
 9488SOL     OW29362   1.839   0.591   0.985
 9488SOL    HW129363   1.768   0.523   1.002
 9488SOL    HW229364   1.815   0.645   0.905
 9489SOL     OW29365   5.676   3.230   0.044
 9489SOL    HW129366   5.615   3.151   0.051
 9489SOL    HW229367   5.771   3.200   0.051
 9490SOL     OW29368   5.501   3.659   4.776
 9490SOL    HW129369   5.512   3.684   4.680
 9490SOL    HW229370   5.405   3.636   4.793
 9491SOL     OW29371   5.462   5.980   2.587
 9491SOL    HW129372   5.465   6.077   2.610
 9491SOL    HW229373   5.448   5.970   2.489
 9492SOL     OW29374   5.117   3.179   3.841
 9492SOL    HW129375   5.025   3.144   3.853
 9492SOL    HW229376   5.116   3.279   3.844
 9493SOL     OW29377   4.299   6.303   1.603
 9493SOL    HW129378   4.301   6.309   1.702
 9493SOL    HW229379   4.300   6.395   1.563
 9494SOL     OW29380   5.872   2.129   1.792
 9494SOL    HW129381   5.908   2.212   1.749
 9494SOL    HW229382   5.837   2.150   1.883
 9495SOL     OW29383   0.205   2.190   1.449
 9495SOL    HW129384   0.169   2.108   1.495
 9495SOL    HW229385   0.303   2.199   1.470
 9496SOL     OW29386   5.373   2.078   2.298
 9496SOL    HW129387   5.436   2.052   2.370
 9496SOL    HW229388   5.280   2.083   2.335
 9497SOL     OW29389   4.755   4.615   4.978
 9497SOL    HW129390   4.819   4.678   4.936
 9497SOL    HW229391   4.679   4.596   4.915
 9498SOL     OW29392   0.783   5.355   4.233
 9498SOL    HW129393   0.851   5.368   4.160
 9498SOL    HW229394   0.793   5.429   4.300
 9499SOL     OW29395   6.375   5.853   4.845
 9499SOL    HW129396   6.356   5.835   4.748
 9499SOL    HW229397   6.437   5.931   4.853
 9500SOL     OW29398   3.866   2.175   0.627
 9500SOL    HW129399   3.811   2.171   0.711
 9500SOL    HW229400   3.961   2.197   0.651
 9501SOL     OW29401   2.322   3.476   5.221
 9501SOL    HW129402   2.258   3.437   5.155
 9501SOL    HW229403   2.323   3.576   5.211
 9502SOL     OW29404   4.980   4.440   4.654
 9502SOL    HW129405   5.067   4.488   4.654
 9502SOL    HW229406   4.925   4.469   4.576
 9503SOL     OW29407   0.045   1.741   6.840
 9503SOL    HW129408   0.028   1.715   6.935
 9503SOL    HW229409   0.131   1.790   6.832
 9504SOL     OW29410   5.702   5.237   1.973
 9504SOL    HW129411   5.697   5.142   2.005
 9504SOL    HW229412   5.731   5.238   1.877
 9505SOL     OW29413   3.983   5.484   5.666
 9505SOL    HW129414   4.064   5.537   5.693
 9505SOL    HW229415   3.908   5.504   5.728
 9506SOL     OW29416   2.846   0.877   1.338
 9506SOL    HW129417   2.762   0.867   1.391
 9506SOL    HW229418   2.912   0.808   1.367
 9507SOL     OW29419   5.363   0.327   1.888
 9507SOL    HW129420   5.266   0.325   1.915
 9507SOL    HW229421   5.373   0.378   1.802
 9508SOL     OW29422   4.949   1.490   2.955
 9508SOL    HW129423   5.043   1.523   2.963
 9508SOL    HW229424   4.894   1.530   3.028
 9509SOL     OW29425   5.433   0.082   3.256
 9509SOL    HW129426   5.352   0.046   3.209
 9509SOL    HW229427   5.431   0.053   3.352
 9510SOL     OW29428   1.095   2.834   3.902
 9510SOL    HW129429   1.079   2.900   3.828
 9510SOL    HW229430   1.039   2.752   3.885
 9511SOL     OW29431   0.881   1.709   0.823
 9511SOL    HW129432   0.785   1.682   0.830
 9511SOL    HW229433   0.898   1.750   0.734
 9512SOL     OW29434   6.559   2.146   1.352
 9512SOL    HW129435   6.585   2.090   1.273
 9512SOL    HW229436   6.563   2.091   1.435
 9513SOL     OW29437   4.367   4.808   5.585
 9513SOL    HW129438   4.462   4.807   5.552
 9513SOL    HW229439   4.364   4.768   5.677
 9514SOL     OW29440   3.765   3.053   6.716
 9514SOL    HW129441   3.816   3.051   6.630
 9514SOL    HW229442   3.673   3.015   6.702
 9515SOL     OW29443   0.840   5.739   2.970
 9515SOL    HW129444   0.871   5.661   2.915
 9515SOL    HW229445   0.757   5.713   3.019
 9516SOL     OW29446   0.284   4.539   6.817
 9516SOL    HW129447   0.274   4.578   6.725
 9516SOL    HW229448   0.277   4.439   6.811
 9517SOL     OW29449   1.039   5.119   0.720
 9517SOL    HW129450   0.955   5.121   0.773
 9517SOL    HW229451   1.100   5.193   0.751
 9518SOL     OW29452   1.214   1.232   0.418
 9518SOL    HW129453   1.175   1.150   0.460
 9518SOL    HW229454   1.141   1.282   0.371
 9519SOL     OW29455   1.303   3.046   5.329
 9519SOL    HW129456   1.337   3.141   5.330
 9519SOL    HW229457   1.298   3.012   5.423
 9520SOL     OW29458   4.006   6.860   1.646
 9520SOL    HW129459   3.966   6.856   1.738
 9520SOL    HW229460   4.046   6.950   1.631
 9521SOL     OW29461   5.423   4.973   4.048
 9521SOL    HW129462   5.442   4.883   4.087
 9521SOL    HW229463   5.508   5.026   4.047
 9522SOL     OW29464   3.459   5.862   0.940
 9522SOL    HW129465   3.464   5.919   1.022
 9522SOL    HW229466   3.433   5.769   0.965
 9523SOL     OW29467   3.311   5.847   5.131
 9523SOL    HW129468   3.386   5.788   5.162
 9523SOL    HW229469   3.224   5.808   5.161
 9524SOL     OW29470   4.473   2.488   1.162
 9524SOL    HW129471   4.472   2.445   1.252
 9524SOL    HW229472   4.423   2.574   1.166
 9525SOL     OW29473   3.796   0.441   6.018
 9525SOL    HW129474   3.708   0.487   6.002
 9525SOL    HW229475   3.867   0.509   6.032
 9526SOL     OW29476   5.359   5.422   2.109
 9526SOL    HW129477   5.306   5.383   2.185
 9526SOL    HW229478   5.312   5.503   2.074
 9527SOL     OW29479   6.187   2.012   1.591
 9527SOL    HW129480   6.145   1.964   1.515
 9527SOL    HW229481   6.155   2.106   1.594
 9528SOL     OW29482   6.513   0.507   2.082
 9528SOL    HW129483   6.430   0.555   2.109
 9528SOL    HW229484   6.527   0.428   2.141
 9529SOL     OW29485   1.003   3.293   4.757
 9529SOL    HW129486   0.936   3.220   4.742
 9529SOL    HW229487   1.027   3.296   4.855
 9530SOL     OW29488   1.740   2.300   4.452
 9530SOL    HW129489   1.748   2.396   4.477
 9530SOL    HW229490   1.805   2.246   4.505
 9531SOL     OW29491   2.936   5.928   3.290
 9531SOL    HW129492   2.900   5.941   3.382
 9531SOL    HW229493   3.035   5.920   3.294
 9532SOL     OW29494   2.531   1.166   1.607
 9532SOL    HW129495   2.541   1.171   1.508
 9532SOL    HW229496   2.439   1.134   1.630
 9533SOL     OW29497   1.567   0.443   5.452
 9533SOL    HW129498   1.649   0.500   5.441
 9533SOL    HW229499   1.523   0.432   5.363
 9534SOL     OW29500   4.681   1.955   4.634
 9534SOL    HW129501   4.596   1.924   4.590
 9534SOL    HW229502   4.665   1.969   4.731
 9535SOL     OW29503   2.138   2.371   5.304
 9535SOL    HW129504   2.194   2.294   5.336
 9535SOL    HW229505   2.179   2.410   5.222
 9536SOL     OW29506   3.204   7.021   6.511
 9536SOL    HW129507   3.284   7.001   6.454
 9536SOL    HW229508   3.121   7.012   6.457
 9537SOL     OW29509   2.963   6.703   0.982
 9537SOL    HW129510   2.910   6.648   0.918
 9537SOL    HW229511   2.926   6.690   1.075
 9538SOL     OW29512   5.802   3.281   3.923
 9538SOL    HW129513   5.877   3.346   3.933
 9538SOL    HW229514   5.733   3.298   3.994
 9539SOL     OW29515   0.439   5.059   0.827
 9539SOL    HW129516   0.414   5.080   0.732
 9539SOL    HW229517   0.535   5.034   0.831
 9540SOL     OW29518   4.977   3.486   5.173
 9540SOL    HW129519   4.976   3.389   5.147
 9540SOL    HW229520   4.898   3.532   5.134
 9541SOL     OW29521   0.941   1.918   3.464
 9541SOL    HW129522   0.848   1.955   3.460
 9541SOL    HW229523   0.994   1.953   3.387
 9542SOL     OW29524   4.923   4.020   4.719
 9542SOL    HW129525   4.928   3.924   4.749
 9542SOL    HW229526   5.008   4.044   4.671
 9543SOL     OW29527   5.308   1.804   2.072
 9543SOL    HW129528   5.378   1.875   2.060
 9543SOL    HW229529   5.230   1.842   2.122
 9544SOL     OW29530   3.154   1.623   2.012
 9544SOL    HW129531   3.245   1.608   1.972
 9544SOL    HW229532   3.156   1.599   2.110
 9545SOL     OW29533   0.264   0.080   4.339
 9545SOL    HW129534   0.168   0.083   4.311
 9545SOL    HW229535   0.300   0.173   4.344
 9546SOL     OW29536   2.549   4.354   1.404
 9546SOL    HW129537   2.449   4.352   1.405
 9546SOL    HW229538   2.582   4.432   1.457
 9547SOL     OW29539   6.670   5.875   2.703
 9547SOL    HW129540   6.706   5.834   2.787
 9547SOL    HW229541   6.658   5.805   2.633
 9548SOL     OW29542   4.787   6.271   2.832
 9548SOL    HW129543   4.822   6.189   2.788
 9548SOL    HW229544   4.755   6.335   2.762
 9549SOL     OW29545   2.971   5.628   0.374
 9549SOL    HW129546   2.939   5.697   0.309
 9549SOL    HW229547   3.068   5.609   0.359
 9550SOL     OW29548   1.430   1.729   0.223
 9550SOL    HW129549   1.471   1.810   0.264
 9550SOL    HW229550   1.454   1.724   0.126
 9551SOL     OW29551   2.259   5.995   5.579
 9551SOL    HW129552   2.178   6.042   5.545
 9551SOL    HW229553   2.336   6.012   5.518
 9552SOL     OW29554   0.825   5.290   3.597
 9552SOL    HW129555   0.764   5.332   3.665
 9552SOL    HW229556   0.899   5.354   3.576
 9553SOL     OW29557   5.181   4.933   5.523
 9553SOL    HW129558   5.251   4.921   5.594
 9553SOL    HW229559   5.096   4.963   5.566
 9554SOL     OW29560   2.113   0.973   2.310
 9554SOL    HW129561   2.128   0.895   2.249
 9554SOL    HW229562   2.189   1.038   2.300
 9555SOL     OW29563   6.598   2.319   6.781
 9555SOL    HW129564   6.546   2.280   6.705
 9555SOL    HW229565   6.537   2.333   6.859
 9556SOL     OW29566   0.191   2.116   0.912
 9556SOL    HW129567   0.257   2.048   0.945
 9556SOL    HW229568   0.196   2.198   0.968
 9557SOL     OW29569   5.550   2.415   1.953
 9557SOL    HW129570   5.531   2.501   1.905
 9557SOL    HW229571   5.647   2.409   1.975
 9558SOL     OW29572   6.252   4.393   1.921
 9558SOL    HW129573   6.335   4.439   1.890
 9558SOL    HW229574   6.181   4.400   1.851
 9559SOL     OW29575   6.907   3.125   2.139
 9559SOL    HW129576   6.856   3.082   2.065
 9559SOL    HW229577   6.990   3.072   2.157
 9560SOL     OW29578   3.372   1.523   4.208
 9560SOL    HW129579   3.430   1.453   4.249
 9560SOL    HW229580   3.416   1.559   4.125
 9561SOL     OW29581   3.964   7.004   0.855
 9561SOL    HW129582   4.060   6.994   0.883
 9561SOL    HW229583   3.928   0.069   0.889
 9562SOL     OW29584   5.763   5.363   3.065
 9562SOL    HW129585   5.737   5.446   3.014
 9562SOL    HW229586   5.760   5.383   3.163
 9563SOL     OW29587   6.830   5.686   6.894
 9563SOL    HW129588   6.851   5.696   6.991
 9563SOL    HW229589   6.857   5.769   6.846
 9564SOL     OW29590   2.487   0.212   6.876
 9564SOL    HW129591   2.567   0.263   6.907
 9564SOL    HW229592   2.418   0.275   6.842
 9565SOL     OW29593   3.990   6.049   4.115
 9565SOL    HW129594   4.071   6.094   4.152
 9565SOL    HW229595   3.940   6.113   4.057
 9566SOL     OW29596   3.149   4.786   5.297
 9566SOL    HW129597   3.118   4.707   5.350
 9566SOL    HW229598   3.107   4.783   5.206
 9567SOL     OW29599   5.996   5.773   5.753
 9567SOL    HW129600   5.978   5.804   5.660
 9567SOL    HW229601   5.952   5.684   5.768
 9568SOL     OW29602   5.394   3.460   6.069
 9568SOL    HW129603   5.318   3.439   6.129
 9568SOL    HW229604   5.365   3.526   6.000
 9569SOL     OW29605   5.683   6.910   1.722
 9569SOL    HW129606   5.666   6.895   1.819
 9569SOL    HW229607   5.617   6.976   1.686
 9570SOL     OW29608   0.815   0.269   6.784
 9570SOL    HW129609   0.902   0.227   6.758
 9570SOL    HW229610   0.760   0.286   6.703
 9571SOL     OW29611   2.237   3.028   6.742
 9571SOL    HW129612   2.221   2.965   6.667
 9571SOL    HW229613   2.291   2.983   6.813
 9572SOL     OW29614   0.755   4.195   0.677
 9572SOL    HW129615   0.757   4.269   0.609
 9572SOL    HW229616   0.665   4.153   0.678
 9573SOL     OW29617   6.509   2.014   1.996
 9573SOL    HW129618   6.436   1.994   1.930
 9573SOL    HW229619   6.468   2.033   2.085
 9574SOL     OW29620   2.408   2.295   4.452
 9574SOL    HW129621   2.424   2.203   4.417
 9574SOL    HW229622   2.495   2.344   4.459
 9575SOL     OW29623   4.893   0.740   2.514
 9575SOL    HW129624   4.851   0.768   2.428
 9575SOL    HW229625   4.879   0.810   2.583
 9576SOL     OW29626   3.709   1.746   5.036
 9576SOL    HW129627   3.757   1.790   4.960
 9576SOL    HW229628   3.697   1.649   5.016
 9577SOL     OW29629   0.478   6.358   3.184
 9577SOL    HW129630   0.403   6.327   3.126
 9577SOL    HW229631   0.535   6.423   3.133
 9578SOL     OW29632   6.336   3.886   2.009
 9578SOL    HW129633   6.376   3.829   2.082
 9578SOL    HW229634   6.352   3.982   2.030
 9579SOL     OW29635   1.208   6.520   2.872
 9579SOL    HW129636   1.167   6.457   2.805
 9579SOL    HW229637   1.238   6.469   2.952
 9580SOL     OW29638   4.296   3.550   6.188
 9580SOL    HW129639   4.338   3.479   6.245
 9580SOL    HW229640   4.321   3.535   6.092
 9581SOL     OW29641   1.606   5.269   5.991
 9581SOL    HW129642   1.639   5.176   5.974
 9581SOL    HW229643   1.681   5.325   6.025
 9582SOL     OW29644   4.704   4.747   4.173
 9582SOL    HW129645   4.634   4.778   4.238
 9582SOL    HW229646   4.707   4.648   4.171
 9583SOL     OW29647   2.488   4.535   1.913
 9583SOL    HW129648   2.508   4.576   2.002
 9583SOL    HW229649   2.551   4.572   1.845
 9584SOL     OW29650   5.421   5.474   0.146
 9584SOL    HW129651   5.500   5.488   0.204
 9584SOL    HW229652   5.347   5.432   0.199
 9585SOL     OW29653   0.383   0.151   3.276
 9585SOL    HW129654   0.307   0.207   3.243
 9585SOL    HW229655   0.469   0.190   3.242
 9586SOL     OW29656   5.260   3.302   2.437
 9586SOL    HW129657   5.300   3.211   2.441
 9586SOL    HW229658   5.321   3.363   2.387
 9587SOL     OW29659   4.772   6.484   2.651
 9587SOL    HW129660   4.825   6.563   2.682
 9587SOL    HW229661   4.694   6.515   2.596
 9588SOL     OW29662   6.858   0.250   3.101
 9588SOL    HW129663   6.915   0.168   3.111
 9588SOL    HW229664   6.903   0.328   3.146
 9589SOL     OW29665   2.643   1.613   5.613
 9589SOL    HW129666   2.608   1.683   5.676
 9589SOL    HW229667   2.588   1.530   5.622
 9590SOL     OW29668   0.264   4.772   4.641
 9590SOL    HW129669   0.328   4.840   4.607
 9590SOL    HW229670   0.253   4.699   4.572
 9591SOL     OW29671   1.346   4.674   2.494
 9591SOL    HW129672   1.354   4.579   2.527
 9591SOL    HW229673   1.295   4.675   2.408
 9592SOL     OW29674   4.955   5.409   1.734
 9592SOL    HW129675   4.993   5.332   1.785
 9592SOL    HW229676   5.005   5.493   1.759
 9593SOL     OW29677   1.680   3.237   4.186
 9593SOL    HW129678   1.583   3.231   4.166
 9593SOL    HW229679   1.729   3.163   4.141
 9594SOL     OW29680   6.197   6.655   2.172
 9594SOL    HW129681   6.219   6.558   2.164
 9594SOL    HW229682   6.191   6.696   2.081
 9595SOL     OW29683   1.132   4.204   4.386
 9595SOL    HW129684   1.137   4.189   4.287
 9595SOL    HW229685   1.184   4.286   4.410
 9596SOL     OW29686   4.686   5.499   2.534
 9596SOL    HW129687   4.642   5.441   2.603
 9596SOL    HW229688   4.621   5.567   2.501
 9597SOL     OW29689   1.727   4.206   1.007
 9597SOL    HW129690   1.694   4.255   1.088
 9597SOL    HW229691   1.815   4.243   0.979
 9598SOL     OW29692   1.125   5.896   5.533
 9598SOL    HW129693   1.200   5.843   5.493
 9598SOL    HW229694   1.150   5.993   5.535
 9599SOL     OW29695   4.742   1.637   4.134
 9599SOL    HW129696   4.733   1.540   4.157
 9599SOL    HW229697   4.801   1.647   4.053
 9600SOL     OW29698   1.572   5.849   6.960
 9600SOL    HW129699   1.633   5.928   6.951
 9600SOL    HW229700   1.609   5.786   0.006
 9601SOL     OW29701   0.770   6.269   6.290
 9601SOL    HW129702   0.768   6.194   6.224
 9601SOL    HW229703   0.688   6.266   6.346
 9602SOL     OW29704   1.275   6.095   0.373
 9602SOL    HW129705   1.194   6.035   0.367
 9602SOL    HW229706   1.340   6.070   0.301
 9603SOL     OW29707   1.160   5.075   3.538
 9603SOL    HW129708   1.099   5.107   3.466
 9603SOL    HW229709   1.236   5.023   3.497
 9604SOL     OW29710   6.461   0.132   0.471
 9604SOL    HW129711   6.559   0.145   0.482
 9604SOL    HW229712   6.413   0.216   0.493
 9605SOL     OW29713   2.492   5.943   6.993
 9605SOL    HW129714   2.552   5.909   0.044
 9605SOL    HW229715   2.402   5.962   0.009
 9606SOL     OW29716   6.123   0.404   5.481
 9606SOL    HW129717   6.180   0.461   5.540
 9606SOL    HW229718   6.168   0.395   5.392
 9607SOL     OW29719   0.540   2.698   2.742
 9607SOL    HW129720   0.620   2.639   2.725
 9607SOL    HW229721   0.492   2.664   2.823
 9608SOL     OW29722   6.316   0.425   3.145
 9608SOL    HW129723   6.272   0.356   3.088
 9608SOL    HW229724   6.301   0.404   3.242
 9609SOL     OW29725   1.614   2.184   3.248
 9609SOL    HW129726   1.609   2.211   3.152
 9609SOL    HW229727   1.681   2.241   3.295
 9610SOL     OW29728   3.739   1.570   6.280
 9610SOL    HW129729   3.644   1.571   6.313
 9610SOL    HW229730   3.785   1.654   6.308
 9611SOL     OW29731   6.126   5.766   1.039
 9611SOL    HW129732   6.103   5.673   1.068
 9611SOL    HW229733   6.223   5.770   1.015
 9612SOL     OW29734   4.948   3.438   2.941
 9612SOL    HW129735   4.919   3.343   2.936
 9612SOL    HW229736   4.941   3.471   3.035
 9613SOL     OW29737   5.782   6.670   5.243
 9613SOL    HW129738   5.825   6.689   5.331
 9613SOL    HW229739   5.820   6.732   5.173
 9614SOL     OW29740   3.483   2.805   1.934
 9614SOL    HW129741   3.440   2.877   1.880
 9614SOL    HW229742   3.438   2.798   2.023
 9615SOL     OW29743   0.402   6.413   3.726
 9615SOL    HW129744   0.478   6.428   3.790
 9615SOL    HW229745   0.385   6.315   3.718
 9616SOL     OW29746   2.062   3.059   1.332
 9616SOL    HW129747   1.963   3.072   1.339
 9616SOL    HW229748   2.107   3.111   1.405
 9617SOL     OW29749   0.821   3.442   2.532
 9617SOL    HW129750   0.876   3.378   2.585
 9617SOL    HW229751   0.879   3.489   2.465
 9618SOL     OW29752   3.803   4.953   0.374
 9618SOL    HW129753   3.786   4.856   0.391
 9618SOL    HW229754   3.901   4.971   0.381
 9619SOL     OW29755   1.572   6.768   0.987
 9619SOL    HW129756   1.589   6.670   0.978
 9619SOL    HW229757   1.515   6.785   1.067
 9620SOL     OW29758   3.694   1.899   6.947
 9620SOL    HW129759   3.673   1.945   0.011
 9620SOL    HW229760   3.650   1.809   6.945
 9621SOL     OW29761   0.488   2.005   2.487
 9621SOL    HW129762   0.393   1.998   2.518
 9621SOL    HW229763   0.522   1.915   2.462
 9622SOL     OW29764   0.123   6.099   5.895
 9622SOL    HW129765   0.085   6.160   5.964
 9622SOL    HW229766   0.053   6.076   5.828
 9623SOL     OW29767   4.488   6.954   6.145
 9623SOL    HW129768   4.441   6.943   6.057
 9623SOL    HW229769   4.583   6.925   6.135
 9624SOL     OW29770   4.817   5.360   4.931
 9624SOL    HW129771   4.785   5.287   4.871
 9624SOL    HW229772   4.807   5.331   5.026
 9625SOL     OW29773   5.020   3.955   5.928
 9625SOL    HW129774   5.005   3.965   5.830
 9625SOL    HW229775   4.952   4.009   5.977
 9626SOL     OW29776   2.300   2.240   0.039
 9626SOL    HW129777   2.260   2.149   0.045
 9626SOL    HW229778   2.391   2.233   7.019
 9627SOL     OW29779   0.338   5.213   0.308
 9627SOL    HW129780   0.416   5.248   0.360
 9627SOL    HW229781   0.309   5.283   0.242
 9628SOL     OW29782   6.279   1.097   6.768
 9628SOL    HW129783   6.181   1.108   6.757
 9628SOL    HW229784   6.326   1.125   6.684
 9629SOL     OW29785   0.206   5.781   4.033
 9629SOL    HW129786   0.154   5.855   3.991
 9629SOL    HW229787   0.232   5.807   4.126
 9630SOL     OW29788   5.739   0.218   5.360
 9630SOL    HW129789   5.804   0.165   5.416
 9630SOL    HW229790   5.781   0.306   5.337
 9631SOL     OW29791   3.613   6.412   0.752
 9631SOL    HW129792   3.677   6.428   0.827
 9631SOL    HW229793   3.664   6.403   0.666
 9632SOL     OW29794   3.014   5.407   2.540
 9632SOL    HW129795   3.077   5.436   2.612
 9632SOL    HW229796   3.033   5.312   2.516
 9633SOL     OW29797   3.750   3.365   3.127
 9633SOL    HW129798   3.801   3.364   3.041
 9633SOL    HW229799   3.813   3.350   3.203
 9634SOL     OW29800   5.931   5.085   3.273
 9634SOL    HW129801   6.013   5.071   3.217
 9634SOL    HW229802   5.859   5.022   3.243
 9635SOL     OW29803   1.118   5.528   3.804
 9635SOL    HW129804   1.138   5.557   3.897
 9635SOL    HW229805   1.194   5.551   3.744
 9636SOL     OW29806   5.217   3.571   4.092
 9636SOL    HW129807   5.270   3.649   4.124
 9636SOL    HW229808   5.204   3.506   4.168
 9637SOL     OW29809   1.580   3.344   0.308
 9637SOL    HW129810   1.616   3.425   0.353
 9637SOL    HW229811   1.657   3.287   0.277
 9638SOL     OW29812   5.442   5.887   5.840
 9638SOL    HW129813   5.352   5.892   5.882
 9638SOL    HW229814   5.512   5.896   5.911
 9639SOL     OW29815   4.280   1.884   1.477
 9639SOL    HW129816   4.260   1.883   1.575
 9639SOL    HW229817   4.366   1.835   1.460
 9640SOL     OW29818   4.244   0.369   3.038
 9640SOL    HW129819   4.154   0.367   3.081
 9640SOL    HW229820   4.297   0.445   3.076
 9641SOL     OW29821   6.630   3.715   3.257
 9641SOL    HW129822   6.559   3.781   3.231
 9641SOL    HW229823   6.588   3.631   3.290
 9642SOL     OW29824   0.395   0.430   4.567
 9642SOL    HW129825   0.367   0.365   4.637
 9642SOL    HW229826   0.366   0.397   4.477
 9643SOL     OW29827   4.793   5.184   4.084
 9643SOL    HW129828   4.877   5.135   4.063
 9643SOL    HW229829   4.738   5.131   4.149
 9644SOL     OW29830   1.114   5.539   4.120
 9644SOL    HW129831   1.056   5.586   4.186
 9644SOL    HW229832   1.109   5.440   4.134
 9645SOL     OW29833   0.796   4.789   6.230
 9645SOL    HW129834   0.726   4.860   6.235
 9645SOL    HW229835   0.811   4.750   6.321
 9646SOL     OW29836   4.446   5.358   6.359
 9646SOL    HW129837   4.392   5.442   6.364
 9646SOL    HW229838   4.388   5.279   6.378
 9647SOL     OW29839   6.209   6.727   2.979
 9647SOL    HW129840   6.152   6.752   3.057
 9647SOL    HW229841   6.241   6.810   2.934
 9648SOL     OW29842   4.152   1.884   1.054
 9648SOL    HW129843   4.052   1.876   1.045
 9648SOL    HW229844   4.176   1.981   1.063
 9649SOL     OW29845   0.835   5.702   0.290
 9649SOL    HW129846   0.844   5.602   0.296
 9649SOL    HW229847   0.888   5.736   0.213
 9650SOL     OW29848   0.134   4.756   3.855
 9650SOL    HW129849   0.097   4.778   3.945
 9650SOL    HW229850   0.143   4.656   3.846
 9651SOL     OW29851   4.334   1.689   0.227
 9651SOL    HW129852   4.301   1.606   0.271
 9651SOL    HW229853   4.255   1.746   0.202
 9652SOL     OW29854   0.495   4.115   0.663
 9652SOL    HW129855   0.449   4.057   0.596
 9652SOL    HW229856   0.464   4.210   0.653
 9653SOL     OW29857   4.522   4.204   6.155
 9653SOL    HW129858   4.482   4.186   6.065
 9653SOL    HW229859   4.462   4.165   6.226
 9654SOL     OW29860   3.519   3.759   2.746
 9654SOL    HW129861   3.467   3.840   2.718
 9654SOL    HW229862   3.568   3.779   2.831
 9655SOL     OW29863   4.406   1.375   1.110
 9655SOL    HW129864   4.397   1.354   1.013
 9655SOL    HW229865   4.496   1.415   1.127
 9656SOL     OW29866   5.843   3.598   6.565
 9656SOL    HW129867   5.882   3.612   6.473
 9656SOL    HW229868   5.883   3.665   6.628
 9657SOL     OW29869   5.399   3.753   4.186
 9657SOL    HW129870   5.444   3.668   4.214
 9657SOL    HW229871   5.434   3.781   4.097
 9658SOL     OW29872   4.978   1.544   2.004
 9658SOL    HW129873   5.001   1.497   2.090
 9658SOL    HW229874   4.951   1.476   1.936
 9659SOL     OW29875   2.720   3.072   6.694
 9659SOL    HW129876   2.740   3.141   6.625
 9659SOL    HW229877   2.635   3.025   6.671
 9660SOL     OW29878   1.616   6.081   2.130
 9660SOL    HW129879   1.529   6.122   2.100
 9660SOL    HW229880   1.667   6.051   2.049
 9661SOL     OW29881   4.720   4.060   1.083
 9661SOL    HW129882   4.680   4.137   1.132
 9661SOL    HW229883   4.813   4.084   1.054
 9662SOL     OW29884   5.616   5.904   6.067
 9662SOL    HW129885   5.617   5.846   6.148
 9662SOL    HW229886   5.707   5.905   6.025
 9663SOL     OW29887   0.729   5.268   2.552
 9663SOL    HW129888   0.804   5.204   2.573
 9663SOL    HW229889   0.648   5.216   2.525
 9664SOL     OW29890   4.797   4.926   2.296
 9664SOL    HW129891   4.859   4.995   2.334
 9664SOL    HW229892   4.763   4.958   2.207
 9665SOL     OW29893   6.648   5.957   6.408
 9665SOL    HW129894   6.561   5.924   6.443
 9665SOL    HW229895   6.711   5.973   6.484
 9666SOL     OW29896   5.565   3.875   6.652
 9666SOL    HW129897   5.605   3.918   6.571
 9666SOL    HW229898   5.620   3.796   6.678
 9667SOL     OW29899   5.670   6.007   6.613
 9667SOL    HW129900   5.745   5.941   6.620
 9667SOL    HW229901   5.706   6.100   6.616
 9668SOL     OW29902   0.872   0.632   6.030
 9668SOL    HW129903   0.883   0.693   6.108
 9668SOL    HW229904   0.930   0.551   6.043
 9669SOL     OW29905   3.384   0.387   0.306
 9669SOL    HW129906   3.360   0.470   0.256
 9669SOL    HW229907   3.347   0.393   0.399
 9670SOL     OW29908   0.139   0.004   0.107
 9670SOL    HW129909   0.113   0.021   0.202
 9670SOL    HW229910   0.067   0.037   0.046
 9671SOL     OW29911   1.274   5.500   6.464
 9671SOL    HW129912   1.185   5.545   6.463
 9671SOL    HW229913   1.297   5.468   6.372
 9672SOL     OW29914   1.076   3.433   4.023
 9672SOL    HW129915   1.106   3.423   4.117
 9672SOL    HW229916   1.130   3.504   3.977
 9673SOL     OW29917   2.056   3.037   0.325
 9673SOL    HW129918   2.019   3.067   0.236
 9673SOL    HW229919   1.996   3.069   0.398
 9674SOL     OW29920   2.348   6.288   4.094
 9674SOL    HW129921   2.312   6.218   4.031
 9674SOL    HW229922   2.359   6.248   4.185
 9675SOL     OW29923   6.397   3.336   6.029
 9675SOL    HW129924   6.365   3.338   6.124
 9675SOL    HW229925   6.341   3.398   5.974
 9676SOL     OW29926   0.986   2.389   6.954
 9676SOL    HW129927   1.022   2.481   6.941
 9676SOL    HW229928   0.957   2.352   6.866
 9677SOL     OW29929   6.984   5.309   1.811
 9677SOL    HW129930   0.053   5.287   1.776
 9677SOL    HW229931   6.944   5.227   1.853
 9678SOL     OW29932   3.468   3.562   5.454
 9678SOL    HW129933   3.457   3.564   5.553
 9678SOL    HW229934   3.382   3.535   5.411
 9679SOL     OW29935   1.678   1.465   4.208
 9679SOL    HW129936   1.671   1.563   4.190
 9679SOL    HW229937   1.768   1.432   4.177
 9680SOL     OW29938   4.596   6.482   2.175
 9680SOL    HW129939   4.634   6.395   2.142
 9680SOL    HW229940   4.498   6.483   2.160
 9681SOL     OW29941   1.087   1.990   1.882
 9681SOL    HW129942   0.989   1.972   1.879
 9681SOL    HW229943   1.127   1.943   1.961
 9682SOL     OW29944   4.809   6.280   5.570
 9682SOL    HW129945   4.904   6.290   5.602
 9682SOL    HW229946   4.750   6.259   5.648
 9683SOL     OW29947   3.177   6.056   2.892
 9683SOL    HW129948   3.077   6.054   2.894
 9683SOL    HW229949   3.210   6.018   2.806
 9684SOL     OW29950   6.864   3.322   5.586
 9684SOL    HW129951   6.904   3.231   5.582
 9684SOL    HW229952   6.896   3.369   5.669
 9685SOL     OW29953   3.724   4.126   1.251
 9685SOL    HW129954   3.737   4.149   1.154
 9685SOL    HW229955   3.627   4.120   1.271
 9686SOL     OW29956   5.973   1.366   5.058
 9686SOL    HW129957   5.943   1.450   5.105
 9686SOL    HW229958   6.062   1.382   5.017
 9687SOL     OW29959   5.831   1.102   3.321
 9687SOL    HW129960   5.830   1.022   3.262
 9687SOL    HW229961   5.924   1.117   3.356
 9688SOL     OW29962   1.079   5.411   1.237
 9688SOL    HW129963   1.089   5.322   1.281
 9688SOL    HW229964   1.166   5.439   1.197
 9689SOL     OW29965   2.431   6.010   1.141
 9689SOL    HW129966   2.349   5.993   1.196
 9689SOL    HW229967   2.510   5.965   1.184
 9690SOL     OW29968   6.928   4.682   4.891
 9690SOL    HW129969   6.932   4.582   4.902
 9690SOL    HW229970   7.019   4.718   4.872
 9691SOL     OW29971   2.740   3.601   1.835
 9691SOL    HW129972   2.792   3.589   1.920
 9691SOL    HW229973   2.804   3.602   1.757
 9692SOL     OW29974   4.982   4.374   0.788
 9692SOL    HW129975   5.081   4.382   0.795
 9692SOL    HW229976   4.938   4.441   0.848
 9693SOL     OW29977   4.922   2.871   5.352
 9693SOL    HW129978   5.001   2.919   5.313
 9693SOL    HW229979   4.840   2.929   5.344
 9694SOL     OW29980   2.477   0.253   1.903
 9694SOL    HW129981   2.420   0.266   1.984
 9694SOL    HW229982   2.458   0.327   1.838
 9695SOL     OW29983   1.251   2.527   3.180
 9695SOL    HW129984   1.212   2.438   3.157
 9695SOL    HW229985   1.178   2.595   3.187
 9696SOL     OW29986   5.113   3.081   3.574
 9696SOL    HW129987   5.128   3.123   3.664
 9696SOL    HW229988   5.170   2.999   3.566
 9697SOL     OW29989   0.552   6.790   0.812
 9697SOL    HW129990   0.644   6.829   0.803
 9697SOL    HW229991   0.540   6.717   0.745
 9698SOL     OW29992   6.259   3.535   1.641
 9698SOL    HW129993   6.164   3.567   1.643
 9698SOL    HW229994   6.264   3.443   1.679
 9699SOL     OW29995   1.580   6.158   0.880
 9699SOL    HW129996   1.486   6.166   0.914
 9699SOL    HW229997   1.579   6.162   0.780
 9700SOL     OW29998   5.436   0.336   5.650
 9700SOL    HW129999   5.396   0.370   5.564
 9700SOL    HW230000   5.534   0.355   5.651
 9701SOL     OW30001   4.514   3.857   0.010
 9701SOL    HW130002   4.577   3.798   6.981
 9701SOL    HW230003   4.538   3.953   7.015
 9702SOL     OW30004   3.856   3.656   2.053
 9702SOL    HW130005   3.769   3.642   2.005
 9702SOL    HW230006   3.840   3.706   2.138
 9703SOL     OW30007   6.197   4.161   4.565
 9703SOL    HW130008   6.161   4.204   4.647
 9703SOL    HW230009   6.127   4.105   4.522
 9704SOL     OW30010   1.389   4.172   2.646
 9704SOL    HW130011   1.448   4.129   2.577
 9704SOL    HW230012   1.425   4.154   2.737
 9705SOL     OW30013   6.808   3.017   5.257
 9705SOL    HW130014   6.894   2.969   5.275
 9705SOL    HW230015   6.754   3.022   5.341
 9706SOL     OW30016   0.713   1.226   2.502
 9706SOL    HW130017   0.784   1.228   2.573
 9706SOL    HW230018   0.753   1.255   2.415
 9707SOL     OW30019   1.447   4.793   2.105
 9707SOL    HW130020   1.384   4.869   2.122
 9707SOL    HW230021   1.411   4.710   2.147
 9708SOL     OW30022   2.709   0.835   1.733
 9708SOL    HW130023   2.698   0.743   1.770
 9708SOL    HW230024   2.765   0.890   1.795
 9709SOL     OW30025   5.731   2.364   1.581
 9709SOL    HW130026   5.687   2.293   1.636
 9709SOL    HW230027   5.712   2.347   1.484
 9710SOL     OW30028   6.882   5.263   3.978
 9710SOL    HW130029   6.807   5.308   4.028
 9710SOL    HW230030   6.918   5.327   3.910
 9711SOL     OW30031   3.234   0.835   0.678
 9711SOL    HW130032   3.212   0.825   0.775
 9711SOL    HW230033   3.230   0.746   0.633
 9712SOL     OW30034   5.561   1.498   6.972
 9712SOL    HW130035   5.469   1.526   6.945
 9712SOL    HW230036   5.577   1.525   0.045
 9713SOL     OW30037   0.974   6.718   2.913
 9713SOL    HW130038   0.947   6.752   3.003
 9713SOL    HW230039   1.070   6.689   2.915
 9714SOL     OW30040   2.419   4.440   4.401
 9714SOL    HW130041   2.403   4.419   4.305
 9714SOL    HW230042   2.410   4.357   4.456
 9715SOL     OW30043   6.876   3.581   6.986
 9715SOL    HW130044   6.822   3.503   6.953
 9715SOL    HW230045   6.972   3.554   6.992
 9716SOL     OW30046   2.563   5.571   0.411
 9716SOL    HW130047   2.485   5.630   0.390
 9716SOL    HW230048   2.605   5.539   0.326
 9717SOL     OW30049   3.974   2.147   5.250
 9717SOL    HW130050   3.920   2.141   5.167
 9717SOL    HW230051   3.943   2.225   5.304
 9718SOL     OW30052   4.068   2.719   6.200
 9718SOL    HW130053   4.123   2.746   6.279
 9718SOL    HW230054   3.972   2.741   6.217
 9719SOL     OW30055   4.719   6.984   5.974
 9719SOL    HW130056   4.782   6.978   5.896
 9719SOL    HW230057   4.644   0.024   5.951
 9720SOL     OW30058   2.143   2.821   3.203
 9720SOL    HW130059   2.156   2.915   3.172
 9720SOL    HW230060   2.078   2.819   3.279
 9721SOL     OW30061   1.199   1.283   0.082
 9721SOL    HW130062   1.162   1.345   0.150
 9721SOL    HW230063   1.257   1.334   0.018
 9722SOL     OW30064   3.990   2.618   5.414
 9722SOL    HW130065   4.036   2.586   5.331
 9722SOL    HW230066   4.054   2.620   5.490
 9723SOL     OW30067   6.355   0.214   4.937
 9723SOL    HW130068   6.373   0.129   4.986
 9723SOL    HW230069   6.381   0.292   4.994
 9724SOL     OW30070   2.021   5.324   0.196
 9724SOL    HW130071   1.973   5.254   0.143
 9724SOL    HW230072   2.095   5.281   0.247
 9725SOL     OW30073   3.992   5.116   4.666
 9725SOL    HW130074   4.056   5.059   4.717
 9725SOL    HW230075   3.941   5.059   4.602
 9726SOL     OW30076   0.226   1.253   3.218
 9726SOL    HW130077   0.293   1.205   3.161
 9726SOL    HW230078   0.150   1.283   3.162
 9727SOL     OW30079   0.449   1.398   1.237
 9727SOL    HW130080   0.424   1.320   1.178
 9727SOL    HW230081   0.518   1.454   1.190
 9728SOL     OW30082   4.459   1.798   4.498
 9728SOL    HW130083   4.403   1.881   4.502
 9728SOL    HW230084   4.445   1.752   4.410
 9729SOL     OW30085   0.254   5.146   2.987
 9729SOL    HW130086   0.291   5.202   2.912
 9729SOL    HW230087   0.292   5.054   2.981
 9730SOL     OW30088   1.265   4.338   2.886
 9730SOL    HW130089   1.290   4.408   2.952
 9730SOL    HW230090   1.169   4.350   2.861
 9731SOL     OW30091   5.553   3.426   2.102
 9731SOL    HW130092   5.639   3.383   2.076
 9731SOL    HW230093   5.507   3.462   2.021
 9732SOL     OW30094   1.875   3.413   3.164
 9732SOL    HW130095   1.971   3.438   3.181
 9732SOL    HW230096   1.817   3.493   3.174
 9733SOL     OW30097   5.757   4.691   2.016
 9733SOL    HW130098   5.660   4.711   2.031
 9733SOL    HW230099   5.769   4.593   1.999
 9734SOL     OW30100   5.190   5.374   6.637
 9734SOL    HW130101   5.286   5.397   6.618
 9734SOL    HW230102   5.132   5.413   6.565
 9735SOL     OW30103   0.414   2.436   0.881
 9735SOL    HW130104   0.487   2.482   0.932
 9735SOL    HW230105   0.443   2.343   0.857
 9736SOL     OW30106   4.904   1.508   5.008
 9736SOL    HW130107   4.985   1.567   5.004
 9736SOL    HW230108   4.829   1.550   4.956
 9737SOL     OW30109   6.181   3.328   2.960
 9737SOL    HW130110   6.258   3.352   2.900
 9737SOL    HW230111   6.096   3.357   2.916
 9738SOL     OW30112   2.405   6.716   1.751
 9738SOL    HW130113   2.347   6.676   1.679
 9738SOL    HW230114   2.359   6.794   1.792
 9739SOL     OW30115   5.852   7.003   0.474
 9739SOL    HW130116   5.919   6.929   0.472
 9739SOL    HW230117   5.817   7.015   0.567
 9740SOL     OW30118   6.041   0.620   3.381
 9740SOL    HW130119   6.065   0.694   3.318
 9740SOL    HW230120   6.113   0.551   3.380
 9741SOL     OW30121   2.338   1.771   4.433
 9741SOL    HW130122   2.406   1.729   4.493
 9741SOL    HW230123   2.262   1.806   4.488
 9742SOL     OW30124   3.736   2.267   6.150
 9742SOL    HW130125   3.774   2.246   6.060
 9742SOL    HW230126   3.779   2.350   6.185
 9743SOL     OW30127   5.222   3.769   4.470
 9743SOL    HW130128   5.207   3.832   4.394
 9743SOL    HW230129   5.134   3.741   4.508
 9744SOL     OW30130   1.504   1.744   3.339
 9744SOL    HW130131   1.592   1.699   3.323
 9744SOL    HW230132   1.519   1.839   3.367
 9745SOL     OW30133   6.666   0.403   6.417
 9745SOL    HW130134   6.734   0.344   6.460
 9745SOL    HW230135   6.579   0.395   6.466
 9746SOL     OW30136   4.139   5.005   6.188
 9746SOL    HW130137   4.112   4.971   6.098
 9746SOL    HW230138   4.130   5.105   6.189
 9747SOL     OW30139   2.437   1.425   2.869
 9747SOL    HW130140   2.458   1.519   2.842
 9747SOL    HW230141   2.502   1.363   2.825
 9748SOL     OW30142   0.963   0.711   3.472
 9748SOL    HW130143   0.955   0.676   3.379
 9748SOL    HW230144   1.052   0.756   3.483
 9749SOL     OW30145   6.927   0.880   2.056
 9749SOL    HW130146   6.897   0.943   2.128
 9749SOL    HW230147   6.876   0.794   2.064
 9750SOL     OW30148   6.049   3.269   4.112
 9750SOL    HW130149   5.993   3.349   4.087
 9750SOL    HW230150   6.036   3.249   4.209
 9751SOL     OW30151   3.856   6.924   1.926
 9751SOL    HW130152   3.808   6.883   2.003
 9751SOL    HW230153   3.833   7.022   1.922
 9752SOL     OW30154   3.272   3.569   0.014
 9752SOL    HW130155   3.283   3.499   6.965
 9752SOL    HW230156   3.190   3.623   7.018
 9753SOL     OW30157   6.887   6.147   5.199
 9753SOL    HW130158   6.984   6.171   5.187
 9753SOL    HW230159   6.850   6.112   5.113
 9754SOL     OW30160   3.353   0.700   1.516
 9754SOL    HW130161   3.328   0.623   1.575
 9754SOL    HW230162   3.299   0.780   1.541
 9755SOL     OW30163   2.893   3.945   0.294
 9755SOL    HW130164   2.798   3.960   0.269
 9755SOL    HW230165   2.952   4.007   0.242
 9756SOL     OW30166   5.575   0.102   5.804
 9756SOL    HW130167   5.651   0.038   5.805
 9756SOL    HW230168   5.598   0.180   5.746
 9757SOL     OW30169   5.213   4.251   4.246
 9757SOL    HW130170   5.139   4.303   4.204
 9757SOL    HW230171   5.291   4.248   4.184
 9758SOL     OW30172   1.865   0.472   1.961
 9758SOL    HW130173   1.888   0.375   1.963
 9758SOL    HW230174   1.928   0.522   2.019
 9759SOL     OW30175   7.020   1.213   1.435
 9759SOL    HW130176   0.022   1.299   1.392
 9759SOL    HW230177   0.036   1.137   1.383
 9760SOL     OW30178   4.896   0.942   6.853
 9760SOL    HW130179   4.945   1.023   6.883
 9760SOL    HW230180   4.818   0.926   6.914
 9761SOL     OW30181   1.555   2.299   0.902
 9761SOL    HW130182   1.463   2.262   0.888
 9761SOL    HW230183   1.609   2.235   0.956
 9762SOL     OW30184   2.834   1.806   5.581
 9762SOL    HW130185   2.787   1.718   5.589
 9762SOL    HW230186   2.821   1.843   5.489
 9763SOL     OW30187   6.390   1.373   0.933
 9763SOL    HW130188   6.456   1.303   0.906
 9763SOL    HW230189   6.437   1.447   0.980
 9764SOL     OW30190   7.000   2.388   2.586
 9764SOL    HW130191   6.925   2.447   2.616
 9764SOL    HW230192   0.047   2.382   2.658
 9765SOL     OW30193   0.004   0.307   2.123
 9765SOL    HW130194   6.944   0.279   2.174
 9765SOL    HW230195   0.070   0.347   2.186
 9766SOL     OW30196   1.855   1.906   4.272
 9766SOL    HW130197   1.802   1.838   4.221
 9766SOL    HW230198   1.878   1.982   4.210
 9767SOL     OW30199   2.330   2.198   5.435
 9767SOL    HW130200   2.340   2.101   5.454
 9767SOL    HW230201   2.401   2.227   5.371
 9768SOL     OW30202   5.556   3.033   0.969
 9768SOL    HW130203   5.528   3.018   0.874
 9768SOL    HW230204   5.505   3.110   1.007
 9769SOL     OW30205   3.979   1.600   5.284
 9769SOL    HW130206   3.910   1.659   5.242
 9769SOL    HW230207   4.001   1.525   5.222
 9770SOL     OW30208   2.399   2.621   6.230
 9770SOL    HW130209   2.450   2.689   6.179
 9770SOL    HW230210   2.311   2.604   6.185
 9771SOL     OW30211   2.744   0.237   1.990
 9771SOL    HW130212   2.670   0.195   1.939
 9771SOL    HW230213   2.832   0.210   1.950
 9772SOL     OW30214   1.183   0.477   1.094
 9772SOL    HW130215   1.101   0.527   1.066
 9772SOL    HW230216   1.182   0.386   1.055
 9773SOL     OW30217   5.373   4.777   1.822
 9773SOL    HW130218   5.297   4.802   1.881
 9773SOL    HW230219   5.429   4.858   1.802
 9774SOL     OW30220   1.243   4.572   5.050
 9774SOL    HW130221   1.269   4.646   5.112
 9774SOL    HW230222   1.218   4.491   5.103
 9775SOL     OW30223   2.550   1.398   3.708
 9775SOL    HW130224   2.614   1.346   3.764
 9775SOL    HW230225   2.543   1.355   3.618
 9776SOL     OW30226   2.343   5.736   0.521
 9776SOL    HW130227   2.361   5.735   0.423
 9776SOL    HW230228   2.354   5.829   0.556
 9777SOL     OW30229   4.490   0.972   5.688
 9777SOL    HW130230   4.544   1.053   5.709
 9777SOL    HW230231   4.394   0.999   5.677
 9778SOL     OW30232   0.192   3.933   4.090
 9778SOL    HW130233   0.142   3.961   4.008
 9778SOL    HW230234   0.142   3.861   4.137
 9779SOL     OW30235   2.006   0.869   3.659
 9779SOL    HW130236   2.090   0.846   3.709
 9779SOL    HW230237   2.004   0.967   3.640
 9780SOL     OW30238   0.987   2.821   2.174
 9780SOL    HW130239   1.037   2.736   2.160
 9780SOL    HW230240   0.962   2.860   2.085
 9781SOL     OW30241   2.306   2.260   3.140
 9781SOL    HW130242   2.396   2.255   3.097
 9781SOL    HW230243   2.298   2.190   3.211
 9782SOL     OW30244   0.161   2.676   0.771
 9782SOL    HW130245   0.134   2.635   0.858
 9782SOL    HW230246   0.237   2.624   0.732
 9783SOL     OW30247   3.810   0.975   2.937
 9783SOL    HW130248   3.757   1.009   3.014
 9783SOL    HW230249   3.758   0.906   2.888
 9784SOL     OW30250   1.100   1.476   6.339
 9784SOL    HW130251   1.161   1.519   6.405
 9784SOL    HW230252   1.017   1.446   6.386
 9785SOL     OW30253   0.114   3.706   4.573
 9785SOL    HW130254   0.184   3.753   4.519
 9785SOL    HW230255   0.130   3.723   4.670
 9786SOL     OW30256   2.223   3.864   0.215
 9786SOL    HW130257   2.170   3.855   0.131
 9786SOL    HW230258   2.312   3.821   0.204
 9787SOL     OW30259   3.197   3.802   3.411
 9787SOL    HW130260   3.222   3.715   3.453
 9787SOL    HW230261   3.184   3.789   3.313
 9788SOL     OW30262   4.296   0.443   2.360
 9788SOL    HW130263   4.319   0.438   2.458
 9788SOL    HW230264   4.329   0.361   2.314
 9789SOL     OW30265   3.760   1.392   0.025
 9789SOL    HW130266   3.680   1.451   0.017
 9789SOL    HW230267   3.784   1.356   6.956
 9790SOL     OW30268   0.152   5.203   3.715
 9790SOL    HW130269   0.207   5.119   3.717
 9790SOL    HW230270   0.213   5.283   3.715
 9791SOL     OW30271   0.903   6.510   1.219
 9791SOL    HW130272   0.849   6.546   1.143
 9791SOL    HW230273   0.841   6.473   1.289
 9792SOL     OW30274   4.101   5.606   0.758
 9792SOL    HW130275   4.129   5.625   0.852
 9792SOL    HW230276   4.133   5.514   0.732
 9793SOL     OW30277   5.847   0.363   3.477
 9793SOL    HW130278   5.762   0.315   3.500
 9793SOL    HW230279   5.825   0.445   3.426
 9794SOL     OW30280   4.506   4.721   4.584
 9794SOL    HW130281   4.503   4.710   4.485
 9794SOL    HW230282   4.413   4.728   4.621
 9795SOL     OW30283   2.173   3.301   3.319
 9795SOL    HW130284   2.152   3.396   3.343
 9795SOL    HW230285   2.114   3.239   3.371
 9796SOL     OW30286   4.008   3.688   3.837
 9796SOL    HW130287   4.011   3.783   3.868
 9796SOL    HW230288   4.048   3.681   3.746
 9797SOL     OW30289   2.601   5.199   7.010
 9797SOL    HW130290   2.583   5.246   0.075
 9797SOL    HW230291   2.622   5.103   0.007
 9798SOL     OW30292   0.401   3.824   0.011
 9798SOL    HW130293   0.458   3.907   0.016
 9798SOL    HW230294   0.443   3.752   0.067
 9799SOL     OW30295   2.772   0.214   6.568
 9799SOL    HW130296   2.864   0.189   6.600
 9799SOL    HW230297   2.752   0.308   6.597
 9800SOL     OW30298   6.752   3.761   4.825
 9800SOL    HW130299   6.716   3.792   4.737
 9800SOL    HW230300   6.678   3.759   4.892
 9801SOL     OW30301   6.610   6.492   6.916
 9801SOL    HW130302   6.576   6.520   6.827
 9801SOL    HW230303   6.549   6.424   6.956
 9802SOL     OW30304   3.622   5.086   0.196
 9802SOL    HW130305   3.696   5.082   0.262
 9802SOL    HW230306   3.596   4.993   0.169
 9803SOL     OW30307   0.990   3.755   6.581
 9803SOL    HW130308   0.949   3.724   6.495
 9803SOL    HW230309   1.029   3.847   6.568
 9804SOL     OW30310   0.079   6.049   2.540
 9804SOL    HW130311   0.111   6.067   2.633
 9804SOL    HW230312   0.136   6.098   2.475
 9805SOL     OW30313   0.549   6.089   3.955
 9805SOL    HW130314   0.498   6.026   3.896
 9805SOL    HW230315   0.622   6.133   3.903
 9806SOL     OW30316   3.952   1.534   0.237
 9806SOL    HW130317   3.885   1.579   0.295
 9806SOL    HW230318   3.905   1.474   0.172
 9807SOL     OW30319   3.509   3.412   2.213
 9807SOL    HW130320   3.421   3.426   2.167
 9807SOL    HW230321   3.527   3.489   2.275
 9808SOL     OW30322   3.985   5.881   2.590
 9808SOL    HW130323   3.960   5.967   2.634
 9808SOL    HW230324   4.052   5.833   2.646
 9809SOL     OW30325   0.131   3.198   1.281
 9809SOL    HW130326   0.099   3.224   1.372
 9809SOL    HW230327   0.220   3.152   1.289
 9810SOL     OW30328   2.585   2.212   0.316
 9810SOL    HW130329   2.643   2.158   0.378
 9810SOL    HW230330   2.640   2.284   0.273
 9811SOL     OW30331   5.962   3.537   4.328
 9811SOL    HW130332   5.955   3.593   4.411
 9811SOL    HW230333   5.923   3.447   4.346
 9812SOL     OW30334   3.786   6.567   5.914
 9812SOL    HW130335   3.824   6.546   5.824
 9812SOL    HW230336   3.753   6.483   5.958
 9813SOL     OW30337   5.325   1.368   1.877
 9813SOL    HW130338   5.300   1.453   1.831
 9813SOL    HW230339   5.332   1.295   1.810
 9814SOL     OW30340   5.571   1.575   0.398
 9814SOL    HW130341   5.570   1.602   0.302
 9814SOL    HW230342   5.541   1.479   0.405
 9815SOL     OW30343   4.471   2.534   4.599
 9815SOL    HW130344   4.470   2.437   4.572
 9815SOL    HW230345   4.377   2.566   4.609
 9816SOL     OW30346   2.149   0.207   7.008
 9816SOL    HW130347   2.224   0.270   6.990
 9816SOL    HW230348   2.093   0.243   0.061
 9817SOL     OW30349   6.453   7.018   2.900
 9817SOL    HW130350   6.360   0.005   2.936
 9817SOL    HW230351   6.507   6.960   2.960
 9818SOL     OW30352   6.198   2.958   4.301
 9818SOL    HW130353   6.211   3.042   4.354
 9818SOL    HW230354   6.118   2.967   4.242
 9819SOL     OW30355   3.943   0.305   2.981
 9819SOL    HW130356   3.960   0.402   3.002
 9819SOL    HW230357   3.952   0.290   2.883
 9820SOL     OW30358   4.603   3.160   5.743
 9820SOL    HW130359   4.535   3.194   5.677
 9820SOL    HW230360   4.695   3.171   5.704
 9821SOL     OW30361   6.170   5.346   0.012
 9821SOL    HW130362   6.238   5.291   0.061
 9821SOL    HW230363   6.098   5.375   0.075
 9822SOL     OW30364   0.517   6.873   2.430
 9822SOL    HW130365   0.523   6.788   2.483
 9822SOL    HW230366   0.590   6.875   2.362
 9823SOL     OW30367   3.459   1.114   1.638
 9823SOL    HW130368   3.515   1.189   1.673
 9823SOL    HW230369   3.491   1.089   1.546
 9824SOL     OW30370   1.246   3.976   5.914
 9824SOL    HW130371   1.244   3.881   5.946
 9824SOL    HW230372   1.170   3.991   5.850
 9825SOL     OW30373   3.989   4.952   5.177
 9825SOL    HW130374   3.918   4.962   5.107
 9825SOL    HW230375   3.975   4.866   5.227
 9826SOL     OW30376   4.270   0.555   5.781
 9826SOL    HW130377   4.320   0.593   5.859
 9826SOL    HW230378   4.279   0.456   5.781
 9827SOL     OW30379   1.124   3.695   4.404
 9827SOL    HW130380   1.110   3.630   4.479
 9827SOL    HW230381   1.037   3.737   4.379
 9828SOL     OW30382   3.753   2.742   6.635
 9828SOL    HW130383   3.756   2.841   6.620
 9828SOL    HW230384   3.790   2.722   6.726
 9829SOL     OW30385   2.765   5.302   0.831
 9829SOL    HW130386   2.727   5.211   0.820
 9829SOL    HW230387   2.730   5.362   0.759
 9830SOL     OW30388   6.015   1.361   1.311
 9830SOL    HW130389   5.930   1.410   1.335
 9830SOL    HW230390   6.091   1.426   1.311
 9831SOL     OW30391   6.279   6.551   1.599
 9831SOL    HW130392   6.246   6.457   1.597
 9831SOL    HW230393   6.376   6.553   1.576
 9832SOL     OW30394   4.350   4.973   1.314
 9832SOL    HW130395   4.284   5.048   1.312
 9832SOL    HW230396   4.412   4.984   1.391
 9833SOL     OW30397   3.679   3.780   5.308
 9833SOL    HW130398   3.645   3.849   5.372
 9833SOL    HW230399   3.642   3.690   5.334
 9834SOL     OW30400   0.856   3.546   4.720
 9834SOL    HW130401   0.895   3.466   4.766
 9834SOL    HW230402   0.831   3.615   4.788
 9835SOL     OW30403   4.861   1.823   4.291
 9835SOL    HW130404   4.780   1.773   4.262
 9835SOL    HW230405   4.912   1.854   4.211
 9836SOL     OW30406   4.750   5.082   3.199
 9836SOL    HW130407   4.820   5.050   3.263
 9836SOL    HW230408   4.779   5.169   3.159
 9837SOL     OW30409   2.607   6.289   4.357
 9837SOL    HW130410   2.703   6.309   4.335
 9837SOL    HW230411   2.550   6.366   4.329
 9838SOL     OW30412   0.720   6.011   6.071
 9838SOL    HW130413   0.736   5.927   6.021
 9838SOL    HW230414   0.702   5.990   6.168
 9839SOL     OW30415   0.325   1.576   1.929
 9839SOL    HW130416   0.347   1.559   1.833
 9839SOL    HW230417   0.237   1.533   1.952
 9840SOL     OW30418   6.432   0.214   1.184
 9840SOL    HW130419   6.529   0.195   1.168
 9840SOL    HW230420   6.422   0.301   1.231
 9841SOL     OW30421   1.735   3.724   4.751
 9841SOL    HW130422   1.733   3.625   4.737
 9841SOL    HW230423   1.821   3.761   4.715
 9842SOL     OW30424   2.891   3.284   2.547
 9842SOL    HW130425   2.897   3.204   2.487
 9842SOL    HW230426   2.955   3.273   2.623
 9843SOL     OW30427   6.744   2.573   2.100
 9843SOL    HW130428   6.776   2.482   2.076
 9843SOL    HW230429   6.644   2.578   2.091
 9844SOL     OW30430   5.477   0.200   2.346
 9844SOL    HW130431   5.386   0.211   2.384
 9844SOL    HW230432   5.509   0.287   2.308
 9845SOL     OW30433   1.540   1.992   3.430
 9845SOL    HW130434   1.529   2.039   3.518
 9845SOL    HW230435   1.579   2.055   3.363
 9846SOL     OW30436   2.985   3.541   2.973
 9846SOL    HW130437   2.966   3.536   2.875
 9846SOL    HW230438   3.068   3.595   2.988
 9847SOL     OW30439   1.886   4.007   5.975
 9847SOL    HW130440   1.841   4.070   5.911
 9847SOL    HW230441   1.983   4.002   5.953
 9848SOL     OW30442   4.742   2.975   0.156
 9848SOL    HW130443   4.793   2.901   0.200
 9848SOL    HW230444   4.777   2.989   0.063
 9849SOL     OW30445   6.942   6.776   6.370
 9849SOL    HW130446   6.874   6.849   6.371
 9849SOL    HW230447   6.944   6.733   6.279
 9850SOL     OW30448   3.565   6.457   2.311
 9850SOL    HW130449   3.501   6.514   2.260
 9850SOL    HW230450   3.547   6.360   2.291
 9851SOL     OW30451   5.299   1.623   5.287
 9851SOL    HW130452   5.304   1.711   5.335
 9851SOL    HW230453   5.321   1.636   5.191
 9852SOL     OW30454   4.782   1.851   3.738
 9852SOL    HW130455   4.824   1.940   3.752
 9852SOL    HW230456   4.715   1.857   3.664
 9853SOL     OW30457   5.999   3.827   2.730
 9853SOL    HW130458   5.978   3.925   2.740
 9853SOL    HW230459   5.951   3.776   2.801
 9854SOL     OW30460   5.851   5.140   4.688
 9854SOL    HW130461   5.795   5.077   4.743
 9854SOL    HW230462   5.931   5.167   4.741
 9855SOL     OW30463   1.486   3.461   1.531
 9855SOL    HW130464   1.555   3.452   1.603
 9855SOL    HW230465   1.532   3.478   1.444
 9856SOL     OW30466   3.649   3.284   0.436
 9856SOL    HW130467   3.552   3.266   0.455
 9856SOL    HW230468   3.701   3.199   0.443
 9857SOL     OW30469   5.723   3.453   3.253
 9857SOL    HW130470   5.781   3.427   3.330
 9857SOL    HW230471   5.777   3.454   3.169
 9858SOL     OW30472   5.631   0.529   1.718
 9858SOL    HW130473   5.682   0.593   1.662
 9858SOL    HW230474   5.556   0.490   1.665
 9859SOL     OW30475   6.263   0.636   2.131
 9859SOL    HW130476   6.169   0.612   2.155
 9859SOL    HW230477   6.291   0.716   2.184
 9860SOL     OW30478   0.587   0.981   2.526
 9860SOL    HW130479   0.566   0.982   2.624
 9860SOL    HW230480   0.621   1.071   2.498
 9861SOL     OW30481   4.169   5.816   4.471
 9861SOL    HW130482   4.187   5.913   4.480
 9861SOL    HW230483   4.177   5.772   4.560
 9862SOL     OW30484   1.731   2.629   0.727
 9862SOL    HW130485   1.829   2.650   0.719
 9862SOL    HW230486   1.707   2.621   0.823
 9863SOL     OW30487   3.577   0.445   2.920
 9863SOL    HW130488   3.581   0.429   2.821
 9863SOL    HW230489   3.592   0.359   2.968
 9864SOL     OW30490   5.170   5.993   2.457
 9864SOL    HW130491   5.201   5.939   2.379
 9864SOL    HW230492   5.177   5.939   2.540
 9865SOL     OW30493   0.472   0.375   3.758
 9865SOL    HW130494   0.385   0.411   3.725
 9865SOL    HW230495   0.496   0.293   3.705
 9866SOL     OW30496   4.975   3.800   4.286
 9866SOL    HW130497   5.018   3.890   4.298
 9866SOL    HW230498   4.946   3.766   4.375
 9867SOL     OW30499   4.921   1.386   0.403
 9867SOL    HW130500   4.985   1.337   0.462
 9867SOL    HW230501   4.832   1.391   0.447
 9868SOL     OW30502   6.571   4.630   6.803
 9868SOL    HW130503   6.590   4.571   6.882
 9868SOL    HW230504   6.641   4.701   6.796
 9869SOL     OW30505   1.978   4.072   2.902
 9869SOL    HW130506   1.888   4.049   2.864
 9869SOL    HW230507   2.046   4.073   2.829
 9870SOL     OW30508   4.671   4.215   2.529
 9870SOL    HW130509   4.662   4.259   2.440
 9870SOL    HW230510   4.585   4.171   2.554
 9871SOL     OW30511   2.259   0.755   5.872
 9871SOL    HW130512   2.262   0.672   5.816
 9871SOL    HW230513   2.344   0.806   5.861
 9872SOL     OW30514   3.058   4.863   3.298
 9872SOL    HW130515   3.019   4.955   3.287
 9872SOL    HW230516   2.986   4.798   3.320
 9873SOL     OW30517   1.268   2.907   0.215
 9873SOL    HW130518   1.322   2.824   0.200
 9873SOL    HW230519   1.207   2.893   0.293
 9874SOL     OW30520   0.471   3.050   3.761
 9874SOL    HW130521   0.394   3.038   3.824
 9874SOL    HW230522   0.499   3.146   3.762
 9875SOL     OW30523   0.465   0.496   2.354
 9875SOL    HW130524   0.519   0.573   2.388
 9875SOL    HW230525   0.474   0.490   2.255
 9876SOL     OW30526   6.280   0.090   2.538
 9876SOL    HW130527   6.292   7.013   2.526
 9876SOL    HW230528   6.261   0.132   2.450
 9877SOL     OW30529   3.408   6.667   2.796
 9877SOL    HW130530   3.449   6.606   2.728
 9877SOL    HW230531   3.480   6.719   2.841
 9878SOL     OW30532   1.502   5.805   5.674
 9878SOL    HW130533   1.593   5.824   5.637
 9878SOL    HW230534   1.510   5.779   5.770
 9879SOL     OW30535   3.967   5.430   5.024
 9879SOL    HW130536   3.890   5.458   5.082
 9879SOL    HW230537   3.932   5.383   4.943
 9880SOL     OW30538   1.315   2.232   5.971
 9880SOL    HW130539   1.363   2.319   5.970
 9880SOL    HW230540   1.281   2.211   5.880
 9881SOL     OW30541   0.797   2.129   5.925
 9881SOL    HW130542   0.878   2.182   5.955
 9881SOL    HW230543   0.716   2.166   5.970
 9882SOL     OW30544   1.240   2.270   3.997
 9882SOL    HW130545   1.197   2.333   4.062
 9882SOL    HW230546   1.279   2.323   3.921
 9883SOL     OW30547   1.355   0.793   1.861
 9883SOL    HW130548   1.383   0.765   1.953
 9883SOL    HW230549   1.304   0.718   1.818
 9884SOL     OW30550   3.913   0.340   4.073
 9884SOL    HW130551   3.855   0.362   4.152
 9884SOL    HW230552   3.976   0.416   4.055
 9885SOL     OW30553   5.826   4.742   4.807
 9885SOL    HW130554   5.730   4.737   4.836
 9885SOL    HW230555   5.882   4.777   4.882
 9886SOL     OW30556   1.187   5.003   2.716
 9886SOL    HW130557   1.286   5.000   2.704
 9886SOL    HW230558   1.166   5.017   2.813
 9887SOL     OW30559   3.435   1.333   0.055
 9887SOL    HW130560   3.495   1.358   0.132
 9887SOL    HW230561   3.478   1.258   0.004
 9888SOL     OW30562   0.044   3.972   0.300
 9888SOL    HW130563   0.019   3.877   0.286
 9888SOL    HW230564   7.020   4.006   0.383
 9889SOL     OW30565   6.162   4.920   0.535
 9889SOL    HW130566   6.089   4.877   0.484
 9889SOL    HW230567   6.250   4.899   0.492
 9890SOL     OW30568   1.418   2.886   1.098
 9890SOL    HW130569   1.462   2.911   1.012
 9890SOL    HW230570   1.447   2.794   1.124
 9891SOL     OW30571   5.755   2.715   0.494
 9891SOL    HW130572   5.788   2.741   0.584
 9891SOL    HW230573   5.758   2.616   0.484
 9892SOL     OW30574   6.655   4.663   0.098
 9892SOL    HW130575   6.727   4.732   0.109
 9892SOL    HW230576   6.567   4.703   0.123
 9893SOL     OW30577   2.267   0.985   1.195
 9893SOL    HW130578   2.215   1.068   1.177
 9893SOL    HW230579   2.252   0.920   1.121
 9894SOL     OW30580   1.252   1.620   0.386
 9894SOL    HW130581   1.297   1.644   0.472
 9894SOL    HW230582   1.312   1.640   0.310
 9895SOL     OW30583   5.246   3.334   5.027
 9895SOL    HW130584   5.304   3.278   5.086
 9895SOL    HW230585   5.155   3.292   5.021
 9896SOL     OW30586   6.630   0.366   0.198
 9896SOL    HW130587   6.646   0.384   0.295
 9896SOL    HW230588   6.532   0.365   0.180
 9897SOL     OW30589   5.930   5.058   3.564
 9897SOL    HW130590   5.999   5.126   3.588
 9897SOL    HW230591   5.898   5.075   3.470
 9898SOL     OW30592   3.164   6.181   5.545
 9898SOL    HW130593   3.154   6.235   5.629
 9898SOL    HW230594   3.245   6.212   5.495
 9899SOL     OW30595   0.204   5.378   0.108
 9899SOL    HW130596   0.109   5.350   0.096
 9899SOL    HW230597   0.263   5.324   0.048
 9900SOL     OW30598   1.534   4.409   3.294
 9900SOL    HW130599   1.611   4.344   3.289
 9900SOL    HW230600   1.457   4.364   3.339
 9901SOL     OW30601   2.607   2.440   5.525
 9901SOL    HW130602   2.516   2.480   5.533
 9901SOL    HW230603   2.606   2.369   5.454
 9902SOL     OW30604   2.435   4.695   6.560
 9902SOL    HW130605   2.341   4.669   6.539
 9902SOL    HW230606   2.497   4.654   6.492
 9903SOL     OW30607   5.208   1.793   3.232
 9903SOL    HW130608   5.223   1.694   3.232
 9903SOL    HW230609   5.295   1.839   3.246
 9904SOL     OW30610   0.243   3.549   6.550
 9904SOL    HW130611   0.164   3.595   6.589
 9904SOL    HW230612   0.235   3.450   6.564
 9905SOL     OW30613   4.319   1.298   0.847
 9905SOL    HW130614   4.330   1.396   0.830
 9905SOL    HW230615   4.261   1.258   0.776
 9906SOL     OW30616   3.855   2.958   2.818
 9906SOL    HW130617   3.916   2.990   2.746
 9906SOL    HW230618   3.763   2.947   2.780
 9907SOL     OW30619   0.130   0.637   1.970
 9907SOL    HW130620   0.106   0.625   1.874
 9907SOL    HW230621   0.221   0.600   1.987
 9908SOL     OW30622   4.999   2.797   3.024
 9908SOL    HW130623   4.970   2.785   2.929
 9908SOL    HW230624   5.013   2.707   3.066
 9909SOL     OW30625   2.917   6.387   4.130
 9909SOL    HW130626   2.823   6.357   4.115
 9909SOL    HW230627   2.923   6.486   4.120
 9910SOL     OW30628   0.982   4.616   2.453
 9910SOL    HW130629   0.936   4.591   2.367
 9910SOL    HW230630   0.966   4.544   2.520
 9911SOL     OW30631   4.119   6.973   2.042
 9911SOL    HW130632   4.028   6.962   2.004
 9911SOL    HW230633   4.164   0.029   1.999
 9912SOL     OW30634   4.757   2.154   0.567
 9912SOL    HW130635   4.825   2.114   0.627
 9912SOL    HW230636   4.692   2.083   0.538
 9913SOL     OW30637   5.893   3.113   6.764
 9913SOL    HW130638   5.882   3.155   6.855
 9913SOL    HW230639   5.836   3.161   6.698
 9914SOL     OW30640   0.485   2.607   4.844
 9914SOL    HW130641   0.420   2.532   4.832
 9914SOL    HW230642   0.456   2.663   4.922
 9915SOL     OW30643   4.622   0.847   3.507
 9915SOL    HW130644   4.596   0.901   3.587
 9915SOL    HW230645   4.568   0.762   3.505
 9916SOL     OW30646   2.222   2.556   2.189
 9916SOL    HW130647   2.130   2.518   2.197
 9916SOL    HW230648   2.246   2.605   2.273
 9917SOL     OW30649   6.930   4.304   6.192
 9917SOL    HW130650   6.943   4.272   6.286
 9917SOL    HW230651   6.836   4.287   6.164
 9918SOL     OW30652   4.287   1.688   2.895
 9918SOL    HW130653   4.237   1.621   2.841
 9918SOL    HW230654   4.349   1.641   2.958
 9919SOL     OW30655   6.143   6.719   1.869
 9919SOL    HW130656   6.054   6.700   1.826
 9919SOL    HW230657   6.203   6.763   1.803
 9920SOL     OW30658   4.893   1.248   2.867
 9920SOL    HW130659   4.918   1.340   2.897
 9920SOL    HW230660   4.804   1.250   2.821
 9921SOL     OW30661   4.363   5.349   5.785
 9921SOL    HW130662   4.318   5.423   5.735
 9921SOL    HW230663   4.294   5.284   5.817
 9922SOL     OW30664   0.961   5.870   0.109
 9922SOL    HW130665   1.043   5.813   0.111
 9922SOL    HW230666   0.983   5.962   0.140
 9923SOL     OW30667   4.521   4.955   6.921
 9923SOL    HW130668   4.510   4.869   6.971
 9923SOL    HW230669   4.617   4.983   6.925
 9924SOL     OW30670   0.095   3.321   5.268
 9924SOL    HW130671   0.144   3.242   5.232
 9924SOL    HW230672   0.158   3.397   5.283
 9925SOL     OW30673   5.720   2.594   3.993
 9925SOL    HW130674   5.643   2.556   4.043
 9925SOL    HW230675   5.691   2.676   3.943
 9926SOL     OW30676   2.397   4.037   6.845
 9926SOL    HW130677   2.409   3.954   6.899
 9926SOL    HW230678   2.480   4.091   6.848
 9927SOL     OW30679   5.992   0.004   2.851
 9927SOL    HW130680   5.959   6.957   2.786
 9927SOL    HW230681   5.961   0.095   2.822
 9928SOL     OW30682   5.127   4.647   1.206
 9928SOL    HW130683   5.130   4.731   1.152
 9928SOL    HW230684   5.150   4.667   1.301
 9929SOL     OW30685   2.077   5.638   5.110
 9929SOL    HW130686   2.093   5.635   5.011
 9929SOL    HW230687   2.132   5.568   5.155
 9930SOL     OW30688   6.892   0.154   4.585
 9930SOL    HW130689   6.855   0.077   4.637
 9930SOL    HW230690   6.897   0.129   4.489
 9931SOL     OW30691   1.180   4.088   5.072
 9931SOL    HW130692   1.089   4.094   5.030
 9931SOL    HW230693   1.248   4.124   5.008
 9932SOL     OW30694   1.273   6.584   6.417
 9932SOL    HW130695   1.362   6.572   6.461
 9932SOL    HW230696   1.200   6.574   6.485
 9933SOL     OW30697   1.820   5.353   3.039
 9933SOL    HW130698   1.898   5.413   3.019
 9933SOL    HW230699   1.772   5.388   3.120
 9934SOL     OW30700   5.864   2.217   5.279
 9934SOL    HW130701   5.839   2.290   5.216
 9934SOL    HW230702   5.787   2.154   5.290
 9935SOL     OW30703   2.213   1.164   0.375
 9935SOL    HW130704   2.130   1.110   0.362
 9935SOL    HW230705   2.277   1.144   0.300
 9936SOL     OW30706   0.658   4.812   4.736
 9936SOL    HW130707   0.623   4.906   4.739
 9936SOL    HW230708   0.674   4.780   4.829
 9937SOL     OW30709   6.270   1.620   5.777
 9937SOL    HW130710   6.194   1.595   5.717
 9937SOL    HW230711   6.355   1.586   5.738
 9938SOL     OW30712   0.036   6.018   3.055
 9938SOL    HW130713   0.010   5.964   3.134
 9938SOL    HW230714   0.084   6.101   3.085
 9939SOL     OW30715   3.243   2.687   1.415
 9939SOL    HW130716   3.245   2.598   1.462
 9939SOL    HW230717   3.149   2.712   1.395
 9940SOL     OW30718   6.851   0.792   0.942
 9940SOL    HW130719   6.817   0.885   0.927
 9940SOL    HW230720   6.774   0.729   0.953
 9941SOL     OW30721   3.020   4.176   5.521
 9941SOL    HW130722   3.052   4.183   5.426
 9941SOL    HW230723   2.962   4.254   5.542
 9942SOL     OW30724   1.995   5.737   2.476
 9942SOL    HW130725   2.005   5.653   2.423
 9942SOL    HW230726   2.084   5.767   2.509
 9943SOL     OW30727   0.426   5.882   6.149
 9943SOL    HW130728   0.331   5.908   6.166
 9943SOL    HW230729   0.448   5.899   6.053
 9944SOL     OW30730   1.702   4.351   6.682
 9944SOL    HW130731   1.691   4.251   6.679
 9944SOL    HW230732   1.701   4.382   6.777
 9945SOL     OW30733   6.975   5.272   0.071
 9945SOL    HW130734   6.980   5.212   7.013
 9945SOL    HW230735   6.888   5.322   0.070
 9946SOL     OW30736   5.012   0.861   4.554
 9946SOL    HW130737   4.998   0.792   4.625
 9946SOL    HW230738   4.983   0.825   4.466
 9947SOL     OW30739   6.385   4.635   5.658
 9947SOL    HW130740   6.404   4.537   5.668
 9947SOL    HW230741   6.423   4.684   5.736
 9948SOL     OW30742   4.627   4.301   4.995
 9948SOL    HW130743   4.593   4.376   4.939
 9948SOL    HW230744   4.711   4.264   4.955
 9949SOL     OW30745   5.755   4.674   3.746
 9949SOL    HW130746   5.765   4.597   3.683
 9949SOL    HW230747   5.777   4.645   3.839
 9950SOL     OW30748   4.887   5.994   5.123
 9950SOL    HW130749   4.972   5.978   5.072
 9950SOL    HW230750   4.831   6.061   5.076
 9951SOL     OW30751   5.801   2.236   3.376
 9951SOL    HW130752   5.867   2.304   3.411
 9951SOL    HW230753   5.824   2.146   3.413
 9952SOL     OW30754   6.655   4.229   0.658
 9952SOL    HW130755   6.630   4.157   0.595
 9952SOL    HW230756   6.575   4.285   0.679
 9953SOL     OW30757   6.482   1.955   3.668
 9953SOL    HW130758   6.515   1.911   3.585
 9953SOL    HW230759   6.400   1.909   3.701
 9954SOL     OW30760   6.037   7.008   5.280
 9954SOL    HW130761   6.050   0.078   5.243
 9954SOL    HW230762   5.988   7.014   5.367
 9955SOL     OW30763   6.924   4.572   4.493
 9955SOL    HW130764   7.017   4.565   4.457
 9955SOL    HW230765   6.859   4.543   4.422
 9956SOL     OW30766   2.053   6.614   2.587
 9956SOL    HW130767   2.041   6.538   2.652
 9956SOL    HW230768   2.107   6.686   2.629
 9957SOL     OW30769   6.463   5.236   3.506
 9957SOL    HW130770   6.436   5.155   3.558
 9957SOL    HW230771   6.393   5.256   3.437
 9958SOL     OW30772   3.245   4.250   0.893
 9958SOL    HW130773   3.193   4.334   0.878
 9958SOL    HW230774   3.248   4.197   0.808
 9959SOL     OW30775   3.885   3.718   6.373
 9959SOL    HW130776   3.928   3.736   6.285
 9959SOL    HW230777   3.952   3.680   6.437
 9960SOL     OW30778   0.080   1.430   2.556
 9960SOL    HW130779   0.075   1.399   2.650
 9960SOL    HW230780   0.173   1.461   2.536
 9961SOL     OW30781   1.925   5.582   4.164
 9961SOL    HW130782   2.022   5.603   4.168
 9961SOL    HW230783   1.912   5.488   4.134
 9962SOL     OW30784   5.182   6.193   5.191
 9962SOL    HW130785   5.213   6.273   5.139
 9962SOL    HW230786   5.106   6.219   5.249
 9963SOL     OW30787   3.506   1.503   0.978
 9963SOL    HW130788   3.440   1.466   0.911
 9963SOL    HW230789   3.509   1.443   1.058
 9964SOL     OW30790   4.248   5.746   4.728
 9964SOL    HW130791   4.327   5.724   4.786
 9964SOL    HW230792   4.165   5.704   4.767
 9965SOL     OW30793   4.148   0.196   6.797
 9965SOL    HW130794   4.228   0.169   6.850
 9965SOL    HW230795   4.071   0.138   6.820
 9966SOL     OW30796   0.793   5.460   2.370
 9966SOL    HW130797   0.885   5.496   2.386
 9966SOL    HW230798   0.771   5.392   2.440
 9967SOL     OW30799   1.592   5.796   1.636
 9967SOL    HW130800   1.635   5.801   1.726
 9967SOL    HW230801   1.594   5.701   1.603
 9968SOL     OW30802   4.021   3.896   2.214
 9968SOL    HW130803   4.060   3.939   2.132
 9968SOL    HW230804   3.930   3.933   2.231
 9969SOL     OW30805   1.357   3.722   2.251
 9969SOL    HW130806   1.320   3.729   2.343
 9969SOL    HW230807   1.332   3.804   2.198
 9970SOL     OW30808   5.825   4.449   1.950
 9970SOL    HW130809   5.884   4.453   1.869
 9970SOL    HW230810   5.868   4.389   2.018
 9971SOL     OW30811   2.058   4.344   0.665
 9971SOL    HW130812   1.984   4.318   0.603
 9971SOL    HW230813   2.119   4.266   0.678
 9972SOL     OW30814   6.612   4.786   2.751
 9972SOL    HW130815   6.679   4.716   2.727
 9972SOL    HW230816   6.659   4.872   2.772
 9973SOL     OW30817   6.026   1.279   4.501
 9973SOL    HW130818   5.975   1.263   4.585
 9973SOL    HW230819   5.973   1.337   4.440
 9974SOL     OW30820   1.629   0.708   3.816
 9974SOL    HW130821   1.615   0.639   3.744
 9974SOL    HW230822   1.559   0.779   3.806
 9975SOL     OW30823   6.927   2.694   0.073
 9975SOL    HW130824   6.959   2.602   0.054
 9975SOL    HW230825   6.977   2.731   0.151
 9976SOL     OW30826   1.220   6.979   5.421
 9976SOL    HW130827   1.131   6.950   5.455
 9976SOL    HW230828   1.225   0.057   5.421
 9977SOL     OW30829   6.115   4.623   4.755
 9977SOL    HW130830   6.179   4.690   4.719
 9977SOL    HW230831   6.021   4.657   4.744
 9978SOL     OW30832   0.331   2.398   4.280
 9978SOL    HW130833   0.335   2.490   4.319
 9978SOL    HW230834   0.367   2.332   4.347
 9979SOL     OW30835   6.107   3.431   4.735
 9979SOL    HW130836   6.046   3.484   4.794
 9979SOL    HW230837   6.197   3.425   4.777
 9980SOL     OW30838   3.440   0.783   6.503
 9980SOL    HW130839   3.485   0.760   6.590
 9980SOL    HW230840   3.341   0.770   6.512
 9981SOL     OW30841   2.905   1.897   4.264
 9981SOL    HW130842   2.981   1.867   4.321
 9981SOL    HW230843   2.940   1.937   4.179
 9982SOL     OW30844   0.058   6.222   3.947
 9982SOL    HW130845   0.067   6.240   3.849
 9982SOL    HW230846   0.147   6.231   3.991
 9983SOL     OW30847   6.961   1.527   2.134
 9983SOL    HW130848   6.956   1.623   2.107
 9983SOL    HW230849   6.896   1.510   2.209
 9984SOL     OW30850   2.747   1.839   6.494
 9984SOL    HW130851   2.676   1.827   6.564
 9984SOL    HW230852   2.722   1.915   6.434
 9985SOL     OW30853   1.152   0.869   2.289
 9985SOL    HW130854   1.172   0.772   2.277
 9985SOL    HW230855   1.083   0.897   2.222
 9986SOL     OW30856   5.519   3.795   5.092
 9986SOL    HW130857   5.610   3.783   5.052
 9986SOL    HW230858   5.458   3.724   5.058
 9987SOL     OW30859   6.782   3.597   6.124
 9987SOL    HW130860   6.765   3.670   6.190
 9987SOL    HW230861   6.878   3.571   6.126
 9988SOL     OW30862   6.423   6.669   5.382
 9988SOL    HW130863   6.340   6.619   5.356
 9988SOL    HW230864   6.480   6.611   5.440
 9989SOL     OW30865   0.474   3.320   5.260
 9989SOL    HW130866   0.545   3.287   5.198
 9989SOL    HW230867   0.508   3.317   5.354
 9990SOL     OW30868   1.114   4.753   2.972
 9990SOL    HW130869   1.041   4.715   2.916
 9990SOL    HW230870   1.118   4.852   2.961
 9991SOL     OW30871   3.261   2.149   3.976
 9991SOL    HW130872   3.217   2.064   4.005
 9991SOL    HW230873   3.280   2.205   4.056
 9992SOL     OW30874   6.210   5.605   6.288
 9992SOL    HW130875   6.235   5.547   6.366
 9992SOL    HW230876   6.174   5.692   6.322
 9993SOL     OW30877   1.325   1.594   1.831
 9993SOL    HW130878   1.358   1.631   1.744
 9993SOL    HW230879   1.390   1.526   1.865
 9994SOL     OW30880   6.056   4.809   3.626
 9994SOL    HW130881   6.016   4.892   3.588
 9994SOL    HW230882   6.056   4.815   3.726
 9995SOL     OW30883   5.766   0.812   4.775
 9995SOL    HW130884   5.826   0.732   4.769
 9995SOL    HW230885   5.772   0.851   4.867
 9996SOL     OW30886   3.307   4.795   6.994
 9996SOL    HW130887   3.287   4.742   6.912
 9996SOL    HW230888   3.268   4.886   6.986
 9997SOL     OW30889   2.403   7.009   5.236
 9997SOL    HW130890   2.386   6.968   5.325
 9997SOL    HW230891   2.501   7.017   5.220
 9998SOL     OW30892   5.528   5.757   5.597
 9998SOL    HW130893   5.586   5.826   5.554
 9998SOL    HW230894   5.495   5.792   5.685
 9999SOL     OW30895   6.499   2.398   5.620
 9999SOL    HW130896   6.424   2.450   5.580
 9999SOL    HW230897   6.568   2.380   5.549
10000SOL     OW30898   0.107   2.617   6.577
10000SOL    HW130899   0.097   2.532   6.629
10000SOL    HW230900   0.075   2.602   6.483
10001SOL     OW30901   4.587   0.487   2.492
10001SOL    HW130902   4.589   0.586   2.509
10001SOL    HW230903   4.594   0.438   2.579
10002SOL     OW30904   1.091   0.334   1.857
10002SOL    HW130905   1.154   0.410   1.873
10002SOL    HW230906   1.000   0.357   1.890
10003SOL     OW30907   4.162   1.741   3.551
10003SOL    HW130908   4.168   1.802   3.629
10003SOL    HW230909   4.097   1.778   3.484
10004SOL     OW30910   6.741   2.358   2.971
10004SOL    HW130911   6.803   2.408   3.031
10004SOL    HW230912   6.751   2.260   2.988
10005SOL     OW30913   4.655   6.622   3.843
10005SOL    HW130914   4.662   6.583   3.935
10005SOL    HW230915   4.628   6.718   3.850
10006SOL     OW30916   3.571   6.651   4.515
10006SOL    HW130917   3.573   6.664   4.614
10006SOL    HW230918   3.490   6.695   4.477
10007SOL     OW30919   0.235   3.722   4.279
10007SOL    HW130920   0.140   3.746   4.302
10007SOL    HW230921   0.297   3.791   4.316
10008SOL     OW30922   2.837   0.218   4.043
10008SOL    HW130923   2.885   0.249   4.125
10008SOL    HW230924   2.895   0.232   3.963
10009SOL     OW30925   1.220   4.412   1.788
10009SOL    HW130926   1.285   4.463   1.845
10009SOL    HW230927   1.187   4.471   1.715
10010SOL     OW30928   0.634   1.575   5.975
10010SOL    HW130929   0.691   1.518   6.034
10010SOL    HW230930   0.691   1.637   5.922
10011SOL     OW30931   6.932   6.660   5.630
10011SOL    HW130932   7.006   6.617   5.579
10011SOL    HW230933   6.855   6.596   5.638
10012SOL     OW30934   6.070   1.205   3.850
10012SOL    HW130935   6.033   1.295   3.875
10012SOL    HW230936   6.064   1.143   3.929
10013SOL     OW30937   0.657   0.829   2.811
10013SOL    HW130938   0.616   0.765   2.746
10013SOL    HW230939   0.605   0.914   2.812
10014SOL     OW30940   0.810   4.648   5.962
10014SOL    HW130941   0.750   4.619   6.037
10014SOL    HW230942   0.855   4.734   5.987
10015SOL     OW30943   2.052   4.161   0.266
10015SOL    HW130944   2.017   4.197   0.352
10015SOL    HW230945   2.095   4.073   0.282
10016SOL     OW30946   2.396   0.986   5.561
10016SOL    HW130947   2.450   0.902   5.575
10016SOL    HW230948   2.454   1.066   5.576
10017SOL     OW30949   1.575   2.310   4.225
10017SOL    HW130950   1.564   2.404   4.191
10017SOL    HW230951   1.633   2.312   4.307
10018SOL     OW30952   5.062   6.798   5.908
10018SOL    HW130953   5.008   6.874   5.871
10018SOL    HW230954   5.013   6.756   5.984
10019SOL     OW30955   0.865   1.076   3.134
10019SOL    HW130956   0.891   1.045   3.225
10019SOL    HW230957   0.946   1.111   3.086
10020SOL     OW30958   0.284   3.093   0.965
10020SOL    HW130959   0.266   3.176   0.913
10020SOL    HW230960   0.231   3.094   1.050
10021SOL     OW30961   0.285   3.687   0.754
10021SOL    HW130962   0.305   3.648   0.664
10021SOL    HW230963   0.252   3.781   0.744
10022SOL     OW30964   1.556   2.296   6.197
10022SOL    HW130965   1.457   2.312   6.198
10022SOL    HW230966   1.578   2.225   6.130
10023SOL     OW30967   0.126   3.640   0.973
10023SOL    HW130968   0.197   3.636   0.903
10023SOL    HW230969   0.168   3.645   1.064
10024SOL     OW30970   1.890   4.594   3.838
10024SOL    HW130971   1.960   4.606   3.767
10024SOL    HW230972   1.866   4.683   3.876
10025SOL     OW30973   1.400   1.051   0.804
10025SOL    HW130974   1.309   1.023   0.774
10025SOL    HW230975   1.465   1.039   0.728
10026SOL     OW30976   6.760   0.580   3.439
10026SOL    HW130977   6.660   0.584   3.443
10026SOL    HW230978   6.797   0.672   3.426
10027SOL     OW30979   4.558   2.780   5.221
10027SOL    HW130980   4.610   2.699   5.196
10027SOL    HW230981   4.601   2.861   5.181
10028SOL     OW30982   2.168   0.705   0.204
10028SOL    HW130983   2.130   0.615   0.182
10028SOL    HW230984   2.232   0.733   0.132
10029SOL     OW30985   5.865   1.614   3.598
10029SOL    HW130986   5.866   1.540   3.531
10029SOL    HW230987   5.934   1.682   3.573
10030SOL     OW30988   2.265   0.211   3.298
10030SOL    HW130989   2.166   0.226   3.296
10030SOL    HW230990   2.291   0.148   3.224
10031SOL     OW30991   6.298   4.706   4.157
10031SOL    HW130992   6.221   4.645   4.142
10031SOL    HW230993   6.383   4.659   4.132
10032SOL     OW30994   2.751   1.719   4.683
10032SOL    HW130995   2.762   1.760   4.593
10032SOL    HW230996   2.663   1.673   4.689
10033SOL     OW30997   5.440   2.909   4.818
10033SOL    HW130998   5.508   2.836   4.810
10033SOL    HW230999   5.480   2.987   4.866
10034SOL     OW31000   5.128   0.691   5.589
10034SOL    HW131001   5.160   0.765   5.649
10034SOL    HW231002   5.081   0.622   5.644
10035SOL     OW31003   0.425   5.845   1.685
10035SOL    HW131004   0.388   5.790   1.760
10035SOL    HW231005   0.521   5.865   1.702
10036SOL     OW31006   6.894   0.683   0.484
10036SOL    HW131007   6.993   0.671   0.473
10036SOL    HW231008   6.876   0.763   0.541
10037SOL     OW31009   0.847   6.765   0.313
10037SOL    HW131010   0.907   6.843   0.330
10037SOL    HW231011   0.754   6.797   0.297
10038SOL     OW31012   6.534   0.074   1.565
10038SOL    HW131013   6.440   0.100   1.545
10038SOL    HW231014   6.591   0.155   1.570
10039SOL     OW31015   3.445   0.392   3.530
10039SOL    HW131016   3.492   0.480   3.530
10039SOL    HW231017   3.461   0.346   3.442
10040SOL     OW31018   0.916   3.134   1.186
10040SOL    HW131019   0.963   3.067   1.128
10040SOL    HW231020   0.860   3.194   1.129
10041SOL     OW31021   2.228   5.965   0.086
10041SOL    HW131022   2.153   5.963   0.020
10041SOL    HW231023   2.193   5.940   0.176
10042SOL     OW31024   5.763   2.963   2.639
10042SOL    HW131025   5.800   2.874   2.665
10042SOL    HW231026   5.835   3.018   2.597
10043SOL     OW31027   0.235   2.075   4.829
10043SOL    HW131028   0.185   2.006   4.775
10043SOL    HW231029   0.316   2.105   4.778
10044SOL     OW31030   3.018   1.842   6.140
10044SOL    HW131031   2.935   1.811   6.093
10044SOL    HW231032   3.003   1.933   6.177
10045SOL     OW31033   3.233   1.238   0.668
10045SOL    HW131034   3.330   1.258   0.652
10045SOL    HW231035   3.225   1.165   0.735
10046SOL     OW31036   1.666   5.615   0.798
10046SOL    HW131037   1.603   5.685   0.833
10046SOL    HW231038   1.613   5.537   0.764
10047SOL     OW31039   0.742   3.439   1.185
10047SOL    HW131040   0.777   3.475   1.098
10047SOL    HW231041   0.651   3.401   1.171
10048SOL     OW31042   5.925   5.373   3.343
10048SOL    HW131043   5.922   5.281   3.304
10048SOL    HW231044   5.959   5.369   3.437
10049SOL     OW31045   6.766   0.601   5.476
10049SOL    HW131046   6.800   0.667   5.544
10049SOL    HW231047   6.842   0.566   5.422
10050SOL     OW31048   6.994   3.009   0.107
10050SOL    HW131049   0.041   2.968   0.047
10050SOL    HW231050   7.002   2.970   0.199
10051SOL     OW31051   2.306   2.881   3.899
10051SOL    HW131052   2.289   2.899   3.802
10051SOL    HW231053   2.343   2.788   3.909
10052SOL     OW31054   1.127   6.718   3.375
10052SOL    HW131055   1.090   6.656   3.444
10052SOL    HW231056   1.052   6.751   3.318
10053SOL     OW31057   5.739   5.100   5.002
10053SOL    HW131058   5.780   5.158   5.072
10053SOL    HW231059   5.683   5.156   4.941
10054SOL     OW31060   6.470   4.066   4.998
10054SOL    HW131061   6.448   4.141   5.060
10054SOL    HW231062   6.473   3.980   5.049
10055SOL     OW31063   1.091   1.780   0.223
10055SOL    HW131064   1.154   1.750   0.296
10055SOL    HW231065   1.080   1.707   0.156
10056SOL     OW31066   6.199   1.905   3.710
10056SOL    HW131067   6.149   1.992   3.703
10056SOL    HW231068   6.235   1.896   3.803
10057SOL     OW31069   5.913   5.270   5.155
10057SOL    HW131070   5.975   5.347   5.135
10057SOL    HW231071   5.948   5.219   5.233
10058SOL     OW31072   0.485   3.709   5.362
10058SOL    HW131073   0.508   3.680   5.455
10058SOL    HW231074   0.494   3.809   5.355
10059SOL     OW31075   5.965   0.730   0.148
10059SOL    HW131076   5.926   0.645   0.181
10059SOL    HW231077   6.056   0.743   0.188
10060SOL     OW31078   2.282   1.787   1.663
10060SOL    HW131079   2.193   1.833   1.671
10060SOL    HW231080   2.307   1.748   1.752
10061SOL     OW31081   4.075   6.902   3.054
10061SOL    HW131082   4.168   6.895   3.017
10061SOL    HW231083   4.079   6.908   3.154
10062SOL     OW31084   0.016   0.212   4.916
10062SOL    HW131085   7.020   0.260   4.830
10062SOL    HW231086   6.954   0.169   4.949
10063SOL     OW31087   2.322   2.347   5.096
10063SOL    HW131088   2.408   2.388   5.067
10063SOL    HW231089   2.292   2.280   5.028
10064SOL     OW31090   2.630   0.085   0.403
10064SOL    HW131091   2.702   0.028   0.443
10064SOL    HW231092   2.607   0.158   0.466
10065SOL     OW31093   0.426   2.090   1.918
10065SOL    HW131094   0.498   2.099   1.849
10065SOL    HW231095   0.338   2.076   1.872
10066SOL     OW31096   6.173   3.816   3.850
10066SOL    HW131097   6.224   3.797   3.767
10066SOL    HW231098   6.076   3.830   3.828
10067SOL     OW31099   6.559   3.342   4.965
10067SOL    HW131100   6.630   3.315   4.900
10067SOL    HW231101   6.539   3.265   5.026
10068SOL     OW31102   2.204   3.073   3.119
10068SOL    HW131103   2.109   3.101   3.105
10068SOL    HW231104   2.251   3.141   3.175
10069SOL     OW31105   2.965   4.982   0.462
10069SOL    HW131106   2.894   4.919   0.431
10069SOL    HW231107   2.960   5.067   0.411
10070SOL     OW31108   4.295   6.504   6.562
10070SOL    HW131109   4.238   6.528   6.483
10070SOL    HW231110   4.292   6.405   6.576
10071SOL     OW31111   5.707   0.136   4.522
10071SOL    HW131112   5.794   0.166   4.485
10071SOL    HW231113   5.705   0.036   4.527
10072SOL     OW31114   6.407   3.554   1.398
10072SOL    HW131115   6.365   3.576   1.486
10072SOL    HW231116   6.340   3.507   1.341
10073SOL     OW31117   5.614   4.319   5.183
10073SOL    HW131118   5.704   4.361   5.184
10073SOL    HW231119   5.569   4.337   5.096
10074SOL     OW31120   1.474   5.383   0.388
10074SOL    HW131121   1.569   5.387   0.419
10074SOL    HW231122   1.470   5.400   0.289
10075SOL     OW31123   1.614   3.180   1.987
10075SOL    HW131124   1.535   3.196   2.046
10075SOL    HW231125   1.694   3.227   2.025
10076SOL     OW31126   5.239   4.955   4.647
10076SOL    HW131127   5.210   4.901   4.726
10076SOL    HW231128   5.159   4.977   4.590
10077SOL     OW31129   5.278   3.848   6.508
10077SOL    HW131130   5.241   3.923   6.563
10077SOL    HW231131   5.367   3.874   6.472
10078SOL     OW31132   6.572   5.447   5.126
10078SOL    HW131133   6.516   5.376   5.170
10078SOL    HW231134   6.512   5.514   5.083
10079SOL     OW31135   5.397   3.367   3.958
10079SOL    HW131136   5.433   3.459   3.969
10079SOL    HW231137   5.373   3.351   3.862
10080SOL     OW31138   5.166   1.473   5.898
10080SOL    HW131139   5.177   1.469   5.799
10080SOL    HW231140   5.252   1.444   5.942
10081SOL     OW31141   1.435   4.489   0.847
10081SOL    HW131142   1.407   4.509   0.940
10081SOL    HW231143   1.455   4.574   0.798
10082SOL     OW31144   0.756   4.597   1.148
10082SOL    HW131145   0.752   4.697   1.137
10082SOL    HW231146   0.677   4.556   1.101
10083SOL     OW31147   3.215   5.473   2.735
10083SOL    HW131148   3.220   5.569   2.763
10083SOL    HW231149   3.293   5.423   2.772
10084SOL     OW31150   0.919   1.143   4.606
10084SOL    HW131151   0.947   1.213   4.673
10084SOL    HW231152   0.934   1.052   4.645
10085SOL     OW31153   5.092   0.100   0.571
10085SOL    HW131154   5.082   0.185   0.519
10085SOL    HW231155   5.145   0.034   0.519
10086SOL     OW31156   5.021   6.816   3.465
10086SOL    HW131157   5.055   6.723   3.454
10086SOL    HW231158   4.922   6.814   3.479
10087SOL     OW31159   1.251   5.930   5.267
10087SOL    HW131160   1.309   5.868   5.319
10087SOL    HW231161   1.308   5.988   5.209
10088SOL     OW31162   6.635   2.971   1.504
10088SOL    HW131163   6.703   2.922   1.449
10088SOL    HW231164   6.679   3.049   1.549
10089SOL     OW31165   3.349   0.584   1.020
10089SOL    HW131166   3.399   0.627   1.095
10089SOL    HW231167   3.411   0.567   0.944
10090SOL     OW31168   2.395   6.483   3.314
10090SOL    HW131169   2.415   6.432   3.230
10090SOL    HW231170   2.436   6.436   3.392
10091SOL     OW31171   6.270   4.816   5.449
10091SOL    HW131172   6.186   4.838   5.498
10091SOL    HW231173   6.339   4.785   5.514
10092SOL     OW31174   1.157   2.481   4.162
10092SOL    HW131175   1.162   2.580   4.177
10092SOL    HW231176   1.131   2.436   4.248
10093SOL     OW31177   4.595   4.597   5.967
10093SOL    HW131178   4.652   4.610   6.048
10093SOL    HW231179   4.631   4.521   5.912
10094SOL     OW31180   3.871   2.037   1.389
10094SOL    HW131181   3.927   1.971   1.439
10094SOL    HW231182   3.794   2.066   1.446
10095SOL     OW31183   4.218   3.295   5.459
10095SOL    HW131184   4.119   3.312   5.459
10095SOL    HW231185   4.248   3.272   5.367
10096SOL     OW31186   6.646   3.471   1.986
10096SOL    HW131187   6.598   3.383   1.994
10096SOL    HW231188   6.583   3.540   1.952
10097SOL     OW31189   0.501   1.331   0.365
10097SOL    HW131190   0.485   1.301   0.271
10097SOL    HW231191   0.496   1.251   0.426
10098SOL     OW31192   2.760   5.535   4.259
10098SOL    HW131193   2.737   5.438   4.264
10098SOL    HW231194   2.838   5.554   4.319
10099SOL     OW31195   0.457   4.910   2.037
10099SOL    HW131196   0.514   4.917   2.119
10099SOL    HW231197   0.402   4.993   2.029
10100SOL     OW31198   5.303   4.973   4.317
10100SOL    HW131199   5.230   4.996   4.381
10100SOL    HW231200   5.279   5.005   4.226
10101SOL     OW31201   6.774   3.441   0.842
10101SOL    HW131202   6.769   3.347   0.808
10101SOL    HW231203   6.696   3.460   0.901
10102SOL     OW31204   0.043   5.480   3.275
10102SOL    HW131205   6.999   5.456   3.202
10102SOL    HW231206   0.007   5.556   3.328
10103SOL     OW31207   0.303   5.766   6.660
10103SOL    HW131208   0.378   5.726   6.713
10103SOL    HW231209   0.259   5.695   6.606
10104SOL     OW31210   2.378   0.549   4.772
10104SOL    HW131211   2.419   0.624   4.720
10104SOL    HW231212   2.358   0.473   4.710
10105SOL     OW31213   2.838   1.332   4.838
10105SOL    HW131214   2.814   1.273   4.915
10105SOL    HW231215   2.831   1.428   4.866
10106SOL     OW31216   5.493   4.245   1.338
10106SOL    HW131217   5.567   4.236   1.405
10106SOL    HW231218   5.425   4.309   1.373
10107SOL     OW31219   5.433   4.926   0.348
10107SOL    HW131220   5.382   4.993   0.295
10107SOL    HW231221   5.420   4.944   0.446
10108SOL     OW31222   1.955   2.392   5.721
10108SOL    HW131223   1.933   2.381   5.624
10108SOL    HW231224   2.054   2.386   5.735
10109SOL     OW31225   1.018   2.537   1.502
10109SOL    HW131226   0.990   2.628   1.472
10109SOL    HW231227   0.967   2.513   1.585
10110SOL     OW31228   6.006   5.630   2.580
10110SOL    HW131229   5.934   5.581   2.530
10110SOL    HW231230   5.986   5.628   2.678
10111SOL     OW31231   0.356   2.757   1.783
10111SOL    HW131232   0.309   2.675   1.750
10111SOL    HW231233   0.442   2.731   1.827
10112SOL     OW31234   0.427   2.648   3.005
10112SOL    HW131235   0.419   2.560   3.051
10112SOL    HW231236   0.459   2.717   3.071
10113SOL     OW31237   6.086   0.257   6.716
10113SOL    HW131238   6.050   0.176   6.763
10113SOL    HW231239   6.031   0.275   6.635
10114SOL     OW31240   6.024   2.816   1.675
10114SOL    HW131241   5.966   2.776   1.745
10114SOL    HW231242   6.058   2.745   1.614
10115SOL     OW31243   3.461   2.553   5.566
10115SOL    HW131244   3.369   2.524   5.542
10115SOL    HW231245   3.508   2.584   5.483
10116SOL     OW31246   6.539   0.201   5.705
10116SOL    HW131247   6.613   0.269   5.704
10116SOL    HW231248   6.451   0.248   5.714
10117SOL     OW31249   6.288   4.636   3.309
10117SOL    HW131250   6.273   4.611   3.405
10117SOL    HW231251   6.254   4.563   3.250
10118SOL     OW31252   4.022   5.422   3.907
10118SOL    HW131253   4.078   5.353   3.861
10118SOL    HW231254   4.057   5.438   3.999
10119SOL     OW31255   6.391   6.034   6.491
10119SOL    HW131256   6.442   6.109   6.450
10119SOL    HW231257   6.311   6.013   6.435
10120SOL     OW31258   2.260   2.591   3.553
10120SOL    HW131259   2.281   2.502   3.515
10120SOL    HW231260   2.273   2.662   3.483
10121SOL     OW31261   0.699   4.961   0.812
10121SOL    HW131262   0.787   4.978   0.857
10121SOL    HW231263   0.716   4.915   0.725
10122SOL     OW31264   2.002   0.072   3.271
10122SOL    HW131265   2.071   0.005   3.300
10122SOL    HW231266   1.985   0.062   3.173
10123SOL     OW31267   6.861   5.010   6.373
10123SOL    HW131268   6.908   4.927   6.344
10123SOL    HW231269   6.798   5.040   6.301
10124SOL     OW31270   2.295   5.146   2.823
10124SOL    HW131271   2.256   5.237   2.810
10124SOL    HW231272   2.385   5.142   2.778
10125SOL     OW31273   0.978   0.751   4.914
10125SOL    HW131274   0.989   0.664   4.963
10125SOL    HW231275   0.938   0.819   4.976
10126SOL     OW31276   6.504   6.471   6.073
10126SOL    HW131277   6.456   6.394   6.115
10126SOL    HW231278   6.448   6.554   6.081
10127SOL     OW31279   2.831   7.012   5.952
10127SOL    HW131280   2.867   7.018   5.859
10127SOL    HW231281   2.790   0.078   5.978
10128SOL     OW31282   2.100   2.804   0.478
10128SOL    HW131283   2.109   2.883   0.417
10128SOL    HW231284   2.117   2.832   0.572
10129SOL     OW31285   6.205   1.834   4.491
10129SOL    HW131286   6.301   1.826   4.516
10129SOL    HW231287   6.193   1.910   4.428
10130SOL     OW31288   0.616   1.574   4.389
10130SOL    HW131289   0.588   1.568   4.294
10130SOL    HW231290   0.625   1.671   4.415
10131SOL     OW31291   2.435   6.506   4.315
10131SOL    HW131292   2.365   6.560   4.267
10131SOL    HW231293   2.522   6.554   4.312
10132SOL     OW31294   5.376   6.907   2.012
10132SOL    HW131295   5.446   6.979   2.017
10132SOL    HW231296   5.296   6.935   2.065
10133SOL     OW31297   5.417   6.537   1.168
10133SOL    HW131298   5.407   6.530   1.267
10133SOL    HW231299   5.360   6.612   1.134
10134SOL     OW31300   6.565   0.292   3.405
10134SOL    HW131301   6.575   0.337   3.316
10134SOL    HW231302   6.614   0.206   3.404
10135SOL     OW31303   5.715   7.016   3.213
10135SOL    HW131304   5.728   6.952   3.138
10135SOL    HW231305   5.617   0.015   3.223
10136SOL     OW31306   4.657   1.395   3.036
10136SOL    HW131307   4.678   1.490   3.012
10136SOL    HW231308   4.703   1.333   2.974
10137SOL     OW31309   6.906   4.895   5.072
10137SOL    HW131310   6.894   4.983   5.027
10137SOL    HW231311   6.917   4.823   5.004
10138SOL     OW31312   7.008   2.789   1.795
10138SOL    HW131313   0.001   2.881   1.760
10138SOL    HW231314   0.065   2.761   1.850
10139SOL     OW31315   3.527   2.953   6.613
10139SOL    HW131316   3.441   3.002   6.604
10139SOL    HW231317   3.510   2.866   6.659
10140SOL     OW31318   0.969   6.083   5.269
10140SOL    HW131319   0.882   6.064   5.223
10140SOL    HW231320   1.031   6.006   5.256
10141SOL     OW31321   1.732   2.942   4.268
10141SOL    HW131322   1.776   2.990   4.192
10141SOL    HW231323   1.786   2.861   4.292
10142SOL     OW31324   4.560   6.155   2.935
10142SOL    HW131325   4.512   6.219   2.995
10142SOL    HW231326   4.641   6.200   2.896
10143SOL     OW31327   6.003   2.520   6.236
10143SOL    HW131328   5.967   2.519   6.330
10143SOL    HW231329   6.102   2.527   6.239
10144SOL     OW31330   3.365   6.697   0.827
10144SOL    HW131331   3.298   6.770   0.842
10144SOL    HW231332   3.426   6.722   0.752
10145SOL     OW31333   6.152   6.962   6.281
10145SOL    HW131334   6.224   6.923   6.337
10145SOL    HW231335   6.087   7.012   6.339
10146SOL     OW31336   1.184   2.654   5.135
10146SOL    HW131337   1.165   2.607   5.048
10146SOL    HW231338   1.189   2.753   5.118
10147SOL     OW31339   3.936   5.812   5.547
10147SOL    HW131340   3.969   5.718   5.546
10147SOL    HW231341   3.889   5.830   5.634
10148SOL     OW31342   0.803   4.177   0.253
10148SOL    HW131343   0.744   4.164   0.173
10148SOL    HW231344   0.835   4.272   0.256
10149SOL     OW31345   4.140   3.301   1.300
10149SOL    HW131346   4.140   3.398   1.324
10149SOL    HW231347   4.057   3.258   1.336
10150SOL     OW31348   4.788   4.365   1.019
10150SOL    HW131349   4.703   4.417   1.015
10150SOL    HW231350   4.779   4.282   0.962
10151SOL     OW31351   6.460   1.041   6.375
10151SOL    HW131352   6.554   1.041   6.341
10151SOL    HW231353   6.437   0.952   6.412
10152SOL     OW31354   3.840   6.659   2.375
10152SOL    HW131355   3.842   6.567   2.337
10152SOL    HW231356   3.912   6.669   2.443
10153SOL     OW31357   4.858   4.257   2.215
10153SOL    HW131358   4.768   4.291   2.244
10153SOL    HW231359   4.880   4.294   2.125
10154SOL     OW31360   3.977   5.223   5.251
10154SOL    HW131361   3.995   5.125   5.240
10154SOL    HW231362   4.011   5.273   5.171
10155SOL     OW31363   4.461   1.645   4.013
10155SOL    HW131364   4.558   1.628   4.031
10155SOL    HW231365   4.444   1.638   3.915
10156SOL     OW31366   4.161   1.643   6.929
10156SOL    HW131367   4.164   1.557   6.879
10156SOL    HW231368   4.172   1.719   6.864
10157SOL     OW31369   0.355   4.513   1.497
10157SOL    HW131370   0.395   4.478   1.412
10157SOL    HW231371   0.424   4.566   1.547
10158SOL     OW31372   5.781   5.344   6.910
10158SOL    HW131373   5.814   5.263   6.861
10158SOL    HW231374   5.763   5.321   7.005
10159SOL     OW31375   3.147   2.835   1.811
10159SOL    HW131376   3.083   2.908   1.789
10159SOL    HW231377   3.238   2.873   1.827
10160SOL     OW31378   0.039   4.360   2.873
10160SOL    HW131379   0.130   4.390   2.900
10160SOL    HW231380   0.043   4.322   2.780
10161SOL     OW31381   5.436   3.161   5.146
10161SOL    HW131382   5.452   3.245   5.197
10161SOL    HW231383   5.464   3.082   5.201
10162SOL     OW31384   1.435   2.453   1.869
10162SOL    HW131385   1.337   2.470   1.855
10162SOL    HW231386   1.448   2.361   1.904
10163SOL     OW31387   2.633   5.293   5.097
10163SOL    HW131388   2.718   5.283   5.045
10163SOL    HW231389   2.628   5.220   5.165
10164SOL     OW31390   0.319   1.440   3.875
10164SOL    HW131391   0.372   1.521   3.848
10164SOL    HW231392   0.367   1.391   3.947
10165SOL     OW31393   0.739   3.544   4.463
10165SOL    HW131394   0.740   3.519   4.560
10165SOL    HW231395   0.812   3.609   4.445
10166SOL     OW31396   2.222   6.221   2.640
10166SOL    HW131397   2.234   6.148   2.574
10166SOL    HW231398   2.308   6.273   2.648
10167SOL     OW31399   2.315   1.966   7.005
10167SOL    HW131400   2.348   2.014   6.923
10167SOL    HW231401   2.331   1.868   6.994
10168SOL     OW31402   6.704   0.071   6.725
10168SOL    HW131403   6.751   0.138   6.668
10168SOL    HW231404   6.692   0.108   6.817
10169SOL     OW31405   5.009   4.569   3.490
10169SOL    HW131406   4.991   4.505   3.415
10169SOL    HW231407   5.095   4.616   3.473
10170SOL     OW31408   5.367   5.908   0.149
10170SOL    HW131409   5.318   5.898   0.062
10170SOL    HW231410   5.458   5.869   0.140
10171SOL     OW31411   2.111   4.489   4.915
10171SOL    HW131412   2.041   4.485   4.986
10171SOL    HW231413   2.141   4.583   4.902
10172SOL     OW31414   6.574   0.958   3.353
10172SOL    HW131415   6.511   1.034   3.370
10172SOL    HW231416   6.525   0.883   3.308
10173SOL     OW31417   3.828   3.498   5.091
10173SOL    HW131418   3.732   3.482   5.070
10173SOL    HW231419   3.884   3.430   5.043
10174SOL     OW31420   4.398   5.313   1.303
10174SOL    HW131421   4.466   5.260   1.251
10174SOL    HW231422   4.323   5.253   1.330
10175SOL     OW31423   0.153   0.024   4.649
10175SOL    HW131424   0.063   0.018   4.692
10175SOL    HW231425   0.148   7.004   4.558
10176SOL     OW31426   6.777   0.584   4.591
10176SOL    HW131427   6.847   0.627   4.534
10176SOL    HW231428   6.719   0.656   4.630
10177SOL     OW31429   2.558   0.700   4.339
10177SOL    HW131430   2.471   0.667   4.374
10177SOL    HW231431   2.575   0.661   4.249
10178SOL     OW31432   0.880   1.573   1.275
10178SOL    HW131433   0.947   1.498   1.280
10178SOL    HW231434   0.925   1.655   1.239
10179SOL     OW31435   0.913   4.682   0.083
10179SOL    HW131436   0.879   4.621   0.011
10179SOL    HW231437   0.924   4.775   0.046
10180SOL     OW31438   3.657   0.010   5.964
10180SOL    HW131439   3.653   6.933   5.979
10180SOL    HW231440   3.733   0.049   6.015
10181SOL     OW31441   6.547   3.486   2.988
10181SOL    HW131442   6.510   3.450   2.902
10181SOL    HW231443   6.566   3.411   3.051
10182SOL     OW31444   4.182   1.168   1.109
10182SOL    HW131445   4.126   1.239   1.151
10182SOL    HW231446   4.156   1.158   1.013
10183SOL     OW31447   4.833   0.647   5.435
10183SOL    HW131448   4.923   0.632   5.395
10183SOL    HW231449   4.843   0.684   5.527
10184SOL     OW31450   5.284   1.857   5.857
10184SOL    HW131451   5.310   1.816   5.770
10184SOL    HW231452   5.195   1.821   5.885
10185SOL     OW31453   3.418   5.103   1.165
10185SOL    HW131454   3.504   5.068   1.202
10185SOL    HW231455   3.437   5.173   1.096
10186SOL     OW31456   3.638   3.373   6.715
10186SOL    HW131457   3.559   3.327   6.674
10186SOL    HW231458   3.707   3.388   6.645
10187SOL     OW31459   2.018   4.560   5.555
10187SOL    HW131460   2.035   4.462   5.542
10187SOL    HW231461   1.974   4.597   5.474
10188SOL     OW31462   2.987   0.266   6.189
10188SOL    HW131463   3.028   0.186   6.231
10188SOL    HW231464   2.888   0.253   6.181
10189SOL     OW31465   1.657   1.430   4.811
10189SOL    HW131466   1.594   1.370   4.861
10189SOL    HW231467   1.750   1.416   4.844
10190SOL     OW31468   4.551   4.503   0.931
10190SOL    HW131469   4.513   4.592   0.906
10190SOL    HW231470   4.505   4.431   0.879
10191SOL     OW31471   5.585   0.149   0.029
10191SOL    HW131472   5.598   0.246   0.050
10191SOL    HW231473   5.559   0.099   0.112
10192SOL     OW31474   1.772   1.177   4.452
10192SOL    HW131475   1.850   1.220   4.498
10192SOL    HW231476   1.800   1.088   4.415
10193SOL     OW31477   3.679   3.345   3.731
10193SOL    HW131478   3.709   3.436   3.757
10193SOL    HW231479   3.605   3.315   3.791
10194SOL     OW31480   3.213   0.295   2.684
10194SOL    HW131481   3.122   0.318   2.650
10194SOL    HW231482   3.205   0.219   2.749
10195SOL     OW31483   5.234   0.206   2.417
10195SOL    HW131484   5.180   0.282   2.452
10195SOL    HW231485   5.181   0.121   2.423
10196SOL     OW31486   5.319   3.365   4.742
10196SOL    HW131487   5.290   3.271   4.721
10196SOL    HW231488   5.334   3.374   4.840
10197SOL     OW31489   5.580   1.496   2.474
10197SOL    HW131490   5.642   1.418   2.485
10197SOL    HW231491   5.608   1.570   2.536
10198SOL     OW31492   2.439   0.180   1.531
10198SOL    HW131493   2.418   0.216   1.440
10198SOL    HW231494   2.421   0.250   1.600
10199SOL     OW31495   0.984   1.778   0.584
10199SOL    HW131496   0.925   1.812   0.510
10199SOL    HW231497   1.076   1.818   0.574
10200SOL     OW31498   5.917   5.192   5.477
10200SOL    HW131499   5.945   5.107   5.432
10200SOL    HW231500   5.822   5.184   5.505
10201SOL     OW31501   1.703   4.525   2.626
10201SOL    HW131502   1.613   4.554   2.658
10201SOL    HW231503   1.695   4.442   2.573
10202SOL     OW31504   0.860   2.936   2.949
10202SOL    HW131505   0.896   2.885   2.871
10202SOL    HW231506   0.832   2.871   3.021
10203SOL     OW31507   1.274   3.500   2.100
10203SOL    HW131508   1.363   3.457   2.117
10203SOL    HW231509   1.270   3.587   2.150
10204SOL     OW31510   3.074   4.967   4.219
10204SOL    HW131511   3.147   4.957   4.151
10204SOL    HW231512   3.030   4.879   4.235
10205SOL     OW31513   4.303   1.003   2.100
10205SOL    HW131514   4.402   0.993   2.105
10205SOL    HW231515   4.280   1.081   2.043
10206SOL     OW31516   4.123   0.167   6.055
10206SOL    HW131517   4.203   0.140   6.108
10206SOL    HW231518   4.145   0.247   5.999
10207SOL     OW31519   4.005   0.484   3.232
10207SOL    HW131520   4.087   0.458   3.283
10207SOL    HW231521   3.995   0.584   3.234
10208SOL     OW31522   5.801   3.943   4.727
10208SOL    HW131523   5.764   3.972   4.639
10208SOL    HW231524   5.892   3.904   4.714
10209SOL     OW31525   5.254   6.709   6.615
10209SOL    HW131526   5.188   6.658   6.671
10209SOL    HW231527   5.326   6.745   6.674
10210SOL     OW31528   5.089   5.736   1.455
10210SOL    HW131529   5.176   5.749   1.408
10210SOL    HW231530   5.064   5.639   1.452
10211SOL     OW31531   3.869   5.816   5.023
10211SOL    HW131532   3.769   5.817   5.026
10211SOL    HW231533   3.900   5.875   4.949
10212SOL     OW31534   6.103   6.435   5.189
10212SOL    HW131535   6.090   6.501   5.262
10212SOL    HW231536   6.077   6.475   5.101
10213SOL     OW31537   4.826   0.475   4.049
10213SOL    HW131538   4.773   0.406   4.100
10213SOL    HW231539   4.920   0.443   4.039
10214SOL     OW31540   6.910   0.903   1.657
10214SOL    HW131541   6.821   0.936   1.625
10214SOL    HW231542   6.979   0.975   1.643
10215SOL     OW31543   3.815   2.993   6.986
10215SOL    HW131544   3.909   2.963   7.001
10215SOL    HW231545   3.805   3.026   6.892
10216SOL     OW31546   4.868   0.174   2.403
10216SOL    HW131547   4.896   0.209   2.314
10216SOL    HW231548   4.851   0.075   2.396
10217SOL     OW31549   3.110   2.074   5.474
10217SOL    HW131550   3.138   2.046   5.383
10217SOL    HW231551   3.034   2.138   5.468
10218SOL     OW31552   2.351   2.400   1.144
10218SOL    HW131553   2.339   2.429   1.049
10218SOL    HW231554   2.438   2.351   1.153
10219SOL     OW31555   0.992   4.073   0.693
10219SOL    HW131556   1.052   4.101   0.768
10219SOL    HW231557   0.908   4.126   0.696
10220SOL     OW31558   3.940   2.743   0.653
10220SOL    HW131559   3.872   2.722   0.723
10220SOL    HW231560   3.927   2.682   0.575
10221SOL     OW31561   3.009   0.923   5.003
10221SOL    HW131562   3.077   0.972   4.949
10221SOL    HW231563   2.983   0.977   5.083
10222SOL     OW31564   1.931   5.126   5.441
10222SOL    HW131565   1.917   5.210   5.390
10222SOL    HW231566   2.012   5.135   5.499
10223SOL     OW31567   6.708   4.450   0.426
10223SOL    HW131568   6.771   4.517   0.466
10223SOL    HW231569   6.723   4.361   0.469
10224SOL     OW31570   2.412   0.095   4.792
10224SOL    HW131571   2.361   0.151   4.857
10224SOL    HW231572   2.414   0.000   4.824
10225SOL     OW31573   5.509   5.809   4.450
10225SOL    HW131574   5.555   5.790   4.536
10225SOL    HW231575   5.460   5.896   4.457
10226SOL     OW31576   6.665   2.791   0.098
10226SOL    HW131577   6.762   2.768   0.084
10226SOL    HW231578   6.627   2.733   0.170
10227SOL     OW31579   5.177   5.934   6.003
10227SOL    HW131580   5.147   5.856   5.948
10227SOL    HW231581   5.147   5.922   6.098
10228SOL     OW31582   0.834   3.876   3.051
10228SOL    HW131583   0.925   3.898   3.017
10228SOL    HW231584   0.767   3.936   3.008
10229SOL     OW31585   2.111   1.140   1.920
10229SOL    HW131586   2.043   1.212   1.911
10229SOL    HW231587   2.187   1.173   1.976
10230SOL     OW31588   6.240   6.802   4.877
10230SOL    HW131589   6.144   6.774   4.878
10230SOL    HW231590   6.296   6.732   4.921
10231SOL     OW31591   4.375   6.629   4.265
10231SOL    HW131592   4.397   6.648   4.361
10231SOL    HW231593   4.349   6.714   4.220
10232SOL     OW31594   3.807   2.111   4.295
10232SOL    HW131595   3.766   2.033   4.343
10232SOL    HW231596   3.906   2.103   4.298
10233SOL     OW31597   4.867   1.069   5.509
10233SOL    HW131598   4.886   0.974   5.533
10233SOL    HW231599   4.803   1.108   5.575
10234SOL     OW31600   5.364   6.115   1.644
10234SOL    HW131601   5.348   6.136   1.548
10234SOL    HW231602   5.462   6.102   1.660
10235SOL     OW31603   5.007   1.699   5.962
10235SOL    HW131604   4.987   1.694   6.060
10235SOL    HW231605   5.078   1.633   5.939
10236SOL     OW31606   2.236   5.841   2.603
10236SOL    HW131607   2.294   5.775   2.650
10236SOL    HW231608   2.293   5.911   2.560
10237SOL     OW31609   6.208   2.340   3.212
10237SOL    HW131610   6.248   2.422   3.253
10237SOL    HW231611   6.279   2.289   3.164
10238SOL     OW31612   4.551   5.616   4.566
10238SOL    HW131613   4.481   5.550   4.595
10238SOL    HW231614   4.523   5.708   4.593
10239SOL     OW31615   0.121   4.332   4.134
10239SOL    HW131616   0.183   4.266   4.091
10239SOL    HW231617   0.163   4.367   4.218
10240SOL     OW31618   6.388   3.804   3.674
10240SOL    HW131619   6.389   3.857   3.590
10240SOL    HW231620   6.396   3.707   3.653
10241SOL     OW31621   2.015   1.131   3.601
10241SOL    HW131622   1.965   1.136   3.688
10241SOL    HW231623   1.957   1.169   3.529
10242SOL     OW31624   0.883   6.497   6.173
10242SOL    HW131625   0.831   6.419   6.208
10242SOL    HW231626   0.845   6.581   6.211
10243SOL     OW31627   0.957   6.099   2.684
10243SOL    HW131628   0.921   6.006   2.697
10243SOL    HW231629   1.035   6.096   2.622
10244SOL     OW31630   1.736   6.069   6.983
10244SOL    HW131631   1.741   6.169   6.990
10244SOL    HW231632   1.825   6.033   6.956
10245SOL     OW31633   2.000   2.132   0.186
10245SOL    HW131634   1.982   2.037   0.214
10245SOL    HW231635   2.072   2.170   0.244
10246SOL     OW31636   3.685   3.972   3.952
10246SOL    HW131637   3.630   3.891   3.975
10246SOL    HW231638   3.627   4.053   3.956
10247SOL     OW31639   0.924   6.052   5.771
10247SOL    HW131640   0.879   6.092   5.851
10247SOL    HW231641   1.008   6.006   5.800
10248SOL     OW31642   4.711   0.786   2.273
10248SOL    HW131643   4.784   0.771   2.207
10248SOL    HW231644   4.631   0.730   2.249
10249SOL     OW31645   4.183   1.410   0.309
10249SOL    HW131646   4.190   1.331   0.248
10249SOL    HW231647   4.099   1.461   0.288
10250SOL     OW31648   5.761   0.163   0.309
10250SOL    HW131649   5.740   0.247   0.358
10250SOL    HW231650   5.793   0.094   0.374
10251SOL     OW31651   3.725   4.414   6.786
10251SOL    HW131652   3.635   4.371   6.780
10251SOL    HW231653   3.721   4.506   6.745
10252SOL     OW31654   6.341   5.052   2.168
10252SOL    HW131655   6.352   5.132   2.109
10252SOL    HW231656   6.264   4.997   2.135
10253SOL     OW31657   3.844   5.324   6.483
10253SOL    HW131658   3.844   5.284   6.391
10253SOL    HW231659   3.815   5.419   6.477
10254SOL     OW31660   2.312   1.461   4.665
10254SOL    HW131661   2.312   1.442   4.567
10254SOL    HW231662   2.283   1.379   4.715
10255SOL     OW31663   3.540   5.381   3.205
10255SOL    HW131664   3.497   5.460   3.163
10255SOL    HW231665   3.471   5.312   3.227
10256SOL     OW31666   5.731   6.122   6.890
10256SOL    HW131667   5.738   6.199   6.953
10256SOL    HW231668   5.635   6.095   6.879
10257SOL     OW31669   1.511   6.224   6.318
10257SOL    HW131670   1.471   6.270   6.238
10257SOL    HW231671   1.469   6.134   6.328
10258SOL     OW31672   4.239   0.395   3.341
10258SOL    HW131673   4.249   0.439   3.430
10258SOL    HW231674   4.256   0.296   3.351
10259SOL     OW31675   0.750   3.849   3.746
10259SOL    HW131676   0.822   3.810   3.804
10259SOL    HW231677   0.746   3.799   3.660
10260SOL     OW31678   6.927   6.443   1.036
10260SOL    HW131679   6.861   6.511   1.069
10260SOL    HW231680   7.013   6.454   1.086
10261SOL     OW31681   2.222   6.598   1.544
10261SOL    HW131682   2.145   6.534   1.546
10261SOL    HW231683   2.213   6.658   1.464
10262SOL     OW31684   1.542   5.304   4.897
10262SOL    HW131685   1.550   5.229   4.963
10262SOL    HW231686   1.598   5.284   4.817
10263SOL     OW31687   6.643   1.974   5.770
10263SOL    HW131688   6.651   1.897   5.706
10263SOL    HW231689   6.576   2.039   5.735
10264SOL     OW31690   0.274   6.596   6.698
10264SOL    HW131691   0.206   6.622   6.629
10264SOL    HW231692   0.354   6.656   6.691
10265SOL     OW31693   4.423   2.254   2.613
10265SOL    HW131694   4.412   2.201   2.529
10265SOL    HW231695   4.334   2.268   2.656
10266SOL     OW31696   4.124   4.018   6.274
10266SOL    HW131697   4.053   4.088   6.280
10266SOL    HW231698   4.212   4.058   6.300
10267SOL     OW31699   6.739   1.761   5.944
10267SOL    HW131700   6.659   1.755   6.003
10267SOL    HW231701   6.720   1.823   5.868
10268SOL     OW31702   6.126   4.359   1.687
10268SOL    HW131703   6.090   4.452   1.689
10268SOL    HW231704   6.125   4.324   1.593
10269SOL     OW31705   3.145   2.923   6.151
10269SOL    HW131706   3.208   2.989   6.110
10269SOL    HW231707   3.092   2.879   6.079
10270SOL     OW31708   2.981   6.410   1.070
10270SOL    HW131709   3.049   6.346   1.034
10270SOL    HW231710   2.918   6.361   1.130
10271SOL     OW31711   3.466   5.081   0.857
10271SOL    HW131712   3.421   5.169   0.869
10271SOL    HW231713   3.560   5.087   0.891
10272SOL     OW31714   0.571   0.760   6.160
10272SOL    HW131715   0.666   0.763   6.192
10272SOL    HW231716   0.544   0.851   6.128
10273SOL     OW31717   4.553   6.298   4.139
10273SOL    HW131718   4.545   6.221   4.075
10273SOL    HW231719   4.461   6.326   4.169
10274SOL     OW31720   2.133   6.131   6.044
10274SOL    HW131721   2.126   6.068   6.121
10274SOL    HW231722   2.043   6.171   6.025
10275SOL     OW31723   1.235   6.559   2.153
10275SOL    HW131724   1.215   6.642   2.206
10275SOL    HW231725   1.326   6.568   2.112
10276SOL     OW31726   0.064   6.364   6.622
10276SOL    HW131727   0.065   6.415   6.709
10276SOL    HW231728   0.016   6.418   6.553
10277SOL     OW31729   2.155   5.569   3.269
10277SOL    HW131730   2.239   5.521   3.245
10277SOL    HW231731   2.086   5.554   3.197
10278SOL     OW31732   6.324   0.365   6.231
10278SOL    HW131733   6.342   0.451   6.185
10278SOL    HW231734   6.358   0.369   6.325
10279SOL     OW31735   3.572   6.506   3.686
10279SOL    HW131736   3.501   6.554   3.635
10279SOL    HW231737   3.653   6.496   3.629
10280SOL     OW31738   3.095   2.632   6.661
10280SOL    HW131739   3.033   2.583   6.723
10280SOL    HW231740   3.099   2.584   6.574
10281SOL     OW31741   3.802   6.780   4.395
10281SOL    HW131742   3.737   6.708   4.422
10281SOL    HW231743   3.763   6.835   4.321
10282SOL     OW31744   1.136   2.122   4.833
10282SOL    HW131745   1.180   2.140   4.921
10282SOL    HW231746   1.161   2.195   4.768
10283SOL     OW31747   1.433   3.349   5.827
10283SOL    HW131748   1.456   3.253   5.836
10283SOL    HW231749   1.436   3.375   5.731
10284SOL     OW31750   5.710   3.556   6.108
10284SOL    HW131751   5.625   3.513   6.078
10284SOL    HW231752   5.786   3.519   6.055
10285SOL     OW31753   5.601   0.497   0.642
10285SOL    HW131754   5.512   0.472   0.680
10285SOL    HW231755   5.667   0.505   0.717
10286SOL     OW31756   4.415   0.149   3.648
10286SOL    HW131757   4.504   0.193   3.660
10286SOL    HW231758   4.358   0.168   3.728
10287SOL     OW31759   2.018   5.433   1.359
10287SOL    HW131760   2.052   5.503   1.423
10287SOL    HW231761   2.001   5.475   1.270
10288SOL     OW31762   5.107   6.088   3.802
10288SOL    HW131763   5.032   6.061   3.741
10288SOL    HW231764   5.080   6.070   3.896
10289SOL     OW31765   3.120   1.137   1.631
10289SOL    HW131766   3.028   1.171   1.612
10289SOL    HW231767   3.187   1.202   1.596
10290SOL     OW31768   2.828   3.500   2.360
10290SOL    HW131769   2.879   3.431   2.411
10290SOL    HW231770   2.730   3.482   2.369
10291SOL     OW31771   3.998   0.536   5.688
10291SOL    HW131772   4.086   0.555   5.732
10291SOL    HW231773   3.931   0.605   5.715
10292SOL     OW31774   6.828   0.846   4.741
10292SOL    HW131775   6.861   0.930   4.783
10292SOL    HW231776   6.729   0.851   4.730
10293SOL     OW31777   2.715   5.812   2.662
10293SOL    HW131778   2.707   5.870   2.581
10293SOL    HW231779   2.738   5.868   2.742
10294SOL     OW31780   5.669   1.400   3.032
10294SOL    HW131781   5.651   1.478   3.091
10294SOL    HW231782   5.757   1.412   2.987
10295SOL     OW31783   1.517   4.330   5.198
10295SOL    HW131784   1.479   4.328   5.290
10295SOL    HW231785   1.580   4.252   5.187
10296SOL     OW31786   6.413   2.629   1.149
10296SOL    HW131787   6.389   2.534   1.128
10296SOL    HW231788   6.331   2.686   1.144
10297SOL     OW31789   2.324   5.287   4.660
10297SOL    HW131790   2.308   5.279   4.758
10297SOL    HW231791   2.413   5.247   4.637
10298SOL     OW31792   5.480   3.729   3.541
10298SOL    HW131793   5.540   3.717   3.461
10298SOL    HW231794   5.536   3.742   3.623
10299SOL     OW31795   5.133   4.334   2.269
10299SOL    HW131796   5.043   4.297   2.248
10299SOL    HW231797   5.202   4.292   2.210
10300SOL     OW31798   1.876   5.025   2.695
10300SOL    HW131799   1.871   4.925   2.690
10300SOL    HW231800   1.809   5.058   2.762
10301SOL     OW31801   5.570   1.833   1.472
10301SOL    HW131802   5.642   1.900   1.487
10301SOL    HW231803   5.526   1.850   1.384
10302SOL     OW31804   1.300   4.948   3.242
10302SOL    HW131805   1.336   4.951   3.336
10302SOL    HW231806   1.376   4.935   3.179
10303SOL     OW31807   3.811   3.057   0.972
10303SOL    HW131808   3.805   3.060   1.072
10303SOL    HW231809   3.745   3.122   0.933
10304SOL     OW31810   5.918   6.387   3.671
10304SOL    HW131811   5.895   6.416   3.578
10304SOL    HW231812   5.942   6.290   3.671
10305SOL     OW31813   1.856   5.855   1.146
10305SOL    HW131814   1.795   5.871   1.068
10305SOL    HW231815   1.867   5.940   1.198
10306SOL     OW31816   4.352   4.900   0.517
10306SOL    HW131817   4.367   4.852   0.604
10306SOL    HW231818   4.255   4.894   0.492
10307SOL     OW31819   2.913   1.049   5.229
10307SOL    HW131820   2.960   1.136   5.243
10307SOL    HW231821   2.963   0.976   5.275
10308SOL     OW31822   3.211   5.475   4.011
10308SOL    HW131823   3.252   5.437   3.929
10308SOL    HW231824   3.219   5.575   4.009
10309SOL     OW31825   0.817   6.415   3.426
10309SOL    HW131826   0.760   6.343   3.465
10309SOL    HW231827   0.761   6.495   3.406
10310SOL     OW31828   3.647   3.425   4.548
10310SOL    HW131829   3.623   3.388   4.638
10310SOL    HW231830   3.595   3.377   4.478
10311SOL     OW31831   0.246   6.272   0.880
10311SOL    HW131832   0.218   6.225   0.963
10311SOL    HW231833   0.326   6.330   0.899
10312SOL     OW31834   1.988   5.181   0.775
10312SOL    HW131835   2.061   5.225   0.724
10312SOL    HW231836   1.999   5.082   0.770
10313SOL     OW31837   5.976   6.127   3.668
10313SOL    HW131838   5.933   6.045   3.628
10313SOL    HW231839   6.062   6.101   3.711
10314SOL     OW31840   6.437   5.324   5.868
10314SOL    HW131841   6.371   5.305   5.795
10314SOL    HW231842   6.446   5.423   5.879
10315SOL     OW31843   5.745   6.185   4.805
10315SOL    HW131844   5.739   6.120   4.880
10315SOL    HW231845   5.653   6.213   4.778
10316SOL     OW31846   0.155   3.760   3.271
10316SOL    HW131847   0.159   3.859   3.277
10316SOL    HW231848   0.244   3.724   3.245
10317SOL     OW31849   3.783   4.608   0.880
10317SOL    HW131850   3.861   4.669   0.889
10317SOL    HW231851   3.698   4.661   0.892
10318SOL     OW31852   6.624   5.861   2.320
10318SOL    HW131853   6.685   5.937   2.345
10318SOL    HW231854   6.529   5.888   2.336
10319SOL     OW31855   4.820   5.804   4.552
10319SOL    HW131856   4.847   5.731   4.613
10319SOL    HW231857   4.724   5.828   4.569
10320SOL     OW31858   4.454   6.366   1.183
10320SOL    HW131859   4.395   6.361   1.103
10320SOL    HW231860   4.454   6.459   1.219
10321SOL     OW31861   4.199   0.004   4.505
10321SOL    HW131862   4.227   0.055   4.587
10321SOL    HW231863   4.201   0.065   4.426
10322SOL     OW31864   6.559   2.364   0.155
10322SOL    HW131865   6.645   2.371   0.105
10322SOL    HW231866   6.578   2.338   0.249
10323SOL     OW31867   6.097   2.266   5.033
10323SOL    HW131868   6.100   2.254   5.132
10323SOL    HW231869   6.043   2.192   4.991
10324SOL     OW31870   3.064   3.521   3.851
10324SOL    HW131871   2.977   3.515   3.800
10324SOL    HW231872   3.045   3.521   3.949
10325SOL     OW31873   0.983   3.527   3.600
10325SOL    HW131874   1.036   3.597   3.552
10325SOL    HW231875   0.986   3.442   3.547
10326SOL     OW31876   4.822   1.416   1.435
10326SOL    HW131877   4.733   1.382   1.463
10326SOL    HW231878   4.814   1.513   1.409
10327SOL     OW31879   6.830   0.855   3.422
10327SOL    HW131880   6.745   0.906   3.407
10327SOL    HW231881   6.876   0.889   3.503
10328SOL     OW31882   6.156   3.259   2.427
10328SOL    HW131883   6.058   3.269   2.447
10328SOL    HW231884   6.204   3.226   2.508
10329SOL     OW31885   3.740   6.345   2.686
10329SOL    HW131886   3.805   6.384   2.751
10329SOL    HW231887   3.691   6.419   2.639
10330SOL     OW31888   3.575   4.395   0.953
10330SOL    HW131889   3.635   4.466   0.992
10330SOL    HW231890   3.606   4.305   0.984
10331SOL     OW31891   5.388   0.448   4.144
10331SOL    HW131892   5.315   0.394   4.186
10331SOL    HW231893   5.428   0.509   4.213
10332SOL     OW31894   0.213   1.632   0.341
10332SOL    HW131895   0.269   1.625   0.258
10332SOL    HW231896   0.196   1.728   0.362
10333SOL     OW31897   4.871   4.271   4.854
10333SOL    HW131898   4.866   4.346   4.789
10333SOL    HW231899   4.904   4.188   4.809
10334SOL     OW31900   1.324   4.812   4.791
10334SOL    HW131901   1.313   4.861   4.878
10334SOL    HW231902   1.238   4.769   4.766
10335SOL     OW31903   2.447   5.641   1.722
10335SOL    HW131904   2.374   5.596   1.772
10335SOL    HW231905   2.418   5.656   1.627
10336SOL     OW31906   4.165   6.066   2.943
10336SOL    HW131907   4.246   6.031   2.896
10336SOL    HW231908   4.144   6.158   2.908
10337SOL     OW31909   0.998   4.904   5.304
10337SOL    HW131910   0.960   4.934   5.391
10337SOL    HW231911   1.002   4.804   5.302
10338SOL     OW31912   3.879   5.003   3.591
10338SOL    HW131913   3.919   5.087   3.626
10338SOL    HW231914   3.887   4.931   3.659
10339SOL     OW31915   3.123   5.214   0.424
10339SOL    HW131916   3.168   5.125   0.437
10339SOL    HW231917   3.152   5.253   0.336
10340SOL     OW31918   2.003   6.989   0.090
10340SOL    HW131919   1.914   0.013   0.096
10340SOL    HW231920   2.067   0.024   0.040
10341SOL     OW31921   1.052   2.247   2.505
10341SOL    HW131922   1.048   2.186   2.427
10341SOL    HW231923   1.123   2.216   2.568
10342SOL     OW31924   2.807   6.820   3.849
10342SOL    HW131925   2.863   6.832   3.932
10342SOL    HW231926   2.731   6.884   3.851
10343SOL     OW31927   2.198   3.140   3.896
10343SOL    HW131928   2.180   3.191   3.980
10343SOL    HW231929   2.272   3.075   3.912
10344SOL     OW31930   4.449   4.036   0.314
10344SOL    HW131931   4.500   4.059   0.397
10344SOL    HW231932   4.474   3.945   0.283
10345SOL     OW31933   1.576   1.809   6.032
10345SOL    HW131934   1.557   1.714   6.008
10345SOL    HW231935   1.623   1.854   5.956
10346SOL     OW31936   5.819   5.013   0.434
10346SOL    HW131937   5.790   4.936   0.491
10346SOL    HW231938   5.853   4.978   0.346
10347SOL     OW31939   4.887   1.336   1.827
10347SOL    HW131940   4.936   1.378   1.750
10347SOL    HW231941   4.900   1.237   1.825
10348SOL     OW31942   6.925   5.007   5.890
10348SOL    HW131943   6.883   5.060   5.816
10348SOL    HW231944   6.931   4.911   5.864
10349SOL     OW31945   0.544   1.796   1.482
10349SOL    HW131946   0.623   1.850   1.453
10349SOL    HW231947   0.561   1.699   1.465
10350SOL     OW31948   2.108   4.416   4.648
10350SOL    HW131949   2.077   4.470   4.726
10350SOL    HW231950   2.119   4.475   4.568
10351SOL     OW31951   4.574   4.513   4.772
10351SOL    HW131952   4.494   4.531   4.829
10351SOL    HW231953   4.589   4.590   4.710
10352SOL     OW31954   5.796   0.941   6.924
10352SOL    HW131955   5.874   0.884   6.898
10352SOL    HW231956   5.766   0.915   7.016
10353SOL     OW31957   6.429   2.587   3.830
10353SOL    HW131958   6.485   2.542   3.761
10353SOL    HW231959   6.408   2.522   3.903
10354SOL     OW31960   6.174   3.207   1.071
10354SOL    HW131961   6.140   3.134   1.130
10354SOL    HW231962   6.230   3.168   0.998
10355SOL     OW31963   0.833   2.042   0.642
10355SOL    HW131964   0.919   2.084   0.672
10355SOL    HW231965   0.783   2.006   0.721
10356SOL     OW31966   6.163   3.424   5.389
10356SOL    HW131967   6.106   3.395   5.465
10356SOL    HW231968   6.222   3.349   5.361
10357SOL     OW31969   0.899   0.793   6.247
10357SOL    HW131970   0.962   0.740   6.304
10357SOL    HW231971   0.862   0.870   6.300
10358SOL     OW31972   1.091   2.963   3.058
10358SOL    HW131973   1.165   2.925   3.001
10358SOL    HW231974   1.003   2.943   3.015
10359SOL     OW31975   6.506   2.395   2.155
10359SOL    HW131976   6.566   2.369   2.231
10359SOL    HW231977   6.429   2.331   2.150
10360SOL     OW31978   5.645   4.178   1.559
10360SOL    HW131979   5.641   4.078   1.558
10360SOL    HW231980   5.649   4.210   1.653
10361SOL     OW31981   6.364   2.303   2.751
10361SOL    HW131982   6.300   2.373   2.719
10361SOL    HW231983   6.457   2.325   2.720
10362SOL     OW31984   1.372   6.139   2.025
10362SOL    HW131985   1.311   6.213   2.056
10362SOL    HW231986   1.332   6.051   2.049
10363SOL     OW31987   5.454   4.276   6.213
10363SOL    HW131988   5.418   4.210   6.279
10363SOL    HW231989   5.422   4.253   6.121
10364SOL     OW31990   5.979   4.742   2.148
10364SOL    HW131991   5.943   4.798   2.223
10364SOL    HW231992   5.904   4.715   2.087
10365SOL     OW31993   5.895   4.977   0.741
10365SOL    HW131994   5.988   4.955   0.770
10365SOL    HW231995   5.897   5.050   0.673
10366SOL     OW31996   2.998   5.810   3.027
10366SOL    HW131997   2.954   5.736   2.977
10366SOL    HW231998   2.938   5.842   3.100
10367SOL     OW31999   5.806   6.310   1.462
10367SOL    HW132000   5.753   6.334   1.543
10367SOL    HW232001   5.768   6.226   1.422
10368SOL     OW32002   2.094   6.332   1.369
10368SOL    HW132003   2.178   6.282   1.393
10368SOL    HW232004   2.016   6.271   1.376
10369SOL     OW32005   2.294   0.513   5.736
10369SOL    HW132006   2.296   0.469   5.826
10369SOL    HW232007   2.205   0.499   5.694
10370SOL     OW32008   1.072   1.102   5.417
10370SOL    HW132009   1.168   1.121   5.438
10370SOL    HW232010   1.058   1.109   5.318
10371SOL     OW32011   4.509   5.339   2.705
10371SOL    HW132012   4.481   5.265   2.765
10371SOL    HW232013   4.482   5.427   2.745
10372SOL     OW32014   2.768   6.196   1.940
10372SOL    HW132015   2.740   6.287   1.911
10372SOL    HW232016   2.785   6.196   2.039
10373SOL     OW32017   6.741   1.064   6.048
10373SOL    HW132018   6.710   1.021   5.963
10373SOL    HW232019   6.690   1.149   6.063
10374SOL     OW32020   3.303   5.599   3.373
10374SOL    HW132021   3.231   5.651   3.420
10374SOL    HW232022   3.300   5.620   3.276
10375SOL     OW32023   2.394   5.260   0.236
10375SOL    HW132024   2.446   5.342   0.210
10375SOL    HW232025   2.327   5.239   0.164
10376SOL     OW32026   2.052   5.172   4.102
10376SOL    HW132027   2.091   5.260   4.075
10376SOL    HW232028   2.126   5.111   4.132
10377SOL     OW32029   1.673   0.746   2.295
10377SOL    HW132030   1.600   0.727   2.229
10377SOL    HW232031   1.721   0.829   2.267
10378SOL     OW32032   0.241   5.764   4.388
10378SOL    HW132033   0.288   5.677   4.374
10378SOL    HW232034   0.143   5.751   4.379
10379SOL     OW32035   2.023   0.023   4.474
10379SOL    HW132036   2.068   0.107   4.502
10379SOL    HW232037   1.929   0.042   4.447
10380SOL     OW32038   3.014   2.245   4.537
10380SOL    HW132039   2.988   2.150   4.516
10380SOL    HW232040   2.932   2.300   4.549
10381SOL     OW32041   4.713   6.555   1.628
10381SOL    HW132042   4.632   6.547   1.686
10381SOL    HW232043   4.692   6.518   1.537
10382SOL     OW32044   4.369   5.745   1.496
10382SOL    HW132045   4.327   5.807   1.430
10382SOL    HW232046   4.376   5.790   1.584
10383SOL     OW32047   1.379   5.074   6.895
10383SOL    HW132048   1.424   5.158   6.862
10383SOL    HW232049   1.395   5.064   6.993
10384SOL     OW32050   5.773   5.842   1.609
10384SOL    HW132051   5.814   5.767   1.660
10384SOL    HW232052   5.690   5.810   1.563
10385SOL     OW32053   4.519   4.718   0.030
10385SOL    HW132054   4.464   4.729   0.113
10385SOL    HW232055   4.554   4.624   0.026
10386SOL     OW32056   0.387   1.131   0.783
10386SOL    HW132057   0.478   1.102   0.815
10386SOL    HW232058   0.318   1.097   0.847
10387SOL     OW32059   5.489   3.167   2.228
10387SOL    HW132060   5.397   3.154   2.190
10387SOL    HW232061   5.518   3.261   2.215
10388SOL     OW32062   2.615   6.727   4.859
10388SOL    HW132063   2.606   6.764   4.766
10388SOL    HW232064   2.564   6.642   4.866
10389SOL     OW32065   0.502   3.866   0.351
10389SOL    HW132066   0.583   3.859   0.409
10389SOL    HW232067   0.511   3.804   0.273
10390SOL     OW32068   2.293   2.528   1.553
10390SOL    HW132069   2.379   2.552   1.597
10390SOL    HW232070   2.246   2.458   1.607
10391SOL     OW32071   5.048   0.050   4.505
10391SOL    HW132072   5.123   0.069   4.567
10391SOL    HW232073   5.054   6.977   4.474
10392SOL     OW32074   6.562   3.997   4.336
10392SOL    HW132075   6.546   3.924   4.270
10392SOL    HW232076   6.660   4.009   4.350
10393SOL     OW32077   1.277   3.663   3.997
10393SOL    HW132078   1.321   3.752   4.008
10393SOL    HW232079   1.345   3.591   4.007
10394SOL     OW32080   3.216   0.214   4.055
10394SOL    HW132081   3.219   0.116   4.033
10394SOL    HW232082   3.308   0.245   4.079
10395SOL     OW32083   1.102   0.650   0.739
10395SOL    HW132084   1.007   0.621   0.754
10395SOL    HW232085   1.109   0.749   0.750
10396SOL     OW32086   2.763   2.344   4.523
10396SOL    HW132087   2.717   2.263   4.489
10396SOL    HW232088   2.734   2.424   4.470
10397SOL     OW32089   3.656   1.681   3.292
10397SOL    HW132090   3.652   1.607   3.359
10397SOL    HW232091   3.615   1.763   3.330
10398SOL     OW32092   6.323   2.831   1.444
10398SOL    HW132093   6.360   2.831   1.537
10398SOL    HW232094   6.371   2.899   1.389
10399SOL     OW32095   0.511   3.917   1.853
10399SOL    HW132096   0.506   3.826   1.893
10399SOL    HW232097   0.472   3.984   1.916
10400SOL     OW32098   3.987   6.377   0.350
10400SOL    HW132099   3.917   6.328   0.298
10400SOL    HW232100   4.026   6.315   0.419
10401SOL     OW32101   7.010   1.236   5.785
10401SOL    HW132102   0.047   1.215   5.707
10401SOL    HW232103   6.928   1.283   5.753
10402SOL     OW32104   6.863   3.073   4.845
10402SOL    HW132105   6.855   3.066   4.745
10402SOL    HW232106   6.957   3.054   4.872
10403SOL     OW32107   2.690   0.505   2.098
10403SOL    HW132108   2.761   0.566   2.132
10403SOL    HW232109   2.728   0.414   2.082
10404SOL     OW32110   6.951   6.577   6.147
10404SOL    HW132111   6.984   6.507   6.211
10404SOL    HW232112   6.947   6.539   6.055
10405SOL     OW32113   7.003   1.932   6.526
10405SOL    HW132114   6.907   1.911   6.542
10405SOL    HW232115   0.033   1.847   6.516
10406SOL     OW32116   2.632   4.580   1.524
10406SOL    HW132117   2.632   4.614   1.618
10406SOL    HW232118   2.598   4.652   1.463
10407SOL     OW32119   3.257   6.754   6.990
10407SOL    HW132120   3.277   6.813   0.046
10407SOL    HW232121   3.286   6.798   6.906
10408SOL     OW32122   3.815   0.912   0.088
10408SOL    HW132123   3.764   0.917   0.002
10408SOL    HW232124   3.895   0.853   0.076
10409SOL     OW32125   5.935   4.620   1.459
10409SOL    HW132126   5.857   4.576   1.414
10409SOL    HW232127   5.989   4.669   1.390
10410SOL     OW32128   5.952   0.684   1.001
10410SOL    HW132129   5.923   0.745   0.927
10410SOL    HW232130   5.892   0.697   1.081
10411SOL     OW32131   2.876   5.432   3.361
10411SOL    HW132132   2.968   5.392   3.369
10411SOL    HW232133   2.864   5.469   3.269
10412SOL     OW32134   6.473   0.477   0.565
10412SOL    HW132135   6.526   0.426   0.633
10412SOL    HW232136   6.530   0.550   0.527
10413SOL     OW32137   6.503   2.678   1.810
10413SOL    HW132138   6.476   2.742   1.738
10413SOL    HW232139   6.519   2.588   1.770
10414SOL     OW32140   4.607   2.672   4.160
10414SOL    HW132141   4.649   2.754   4.198
10414SOL    HW232142   4.619   2.672   4.060
10415SOL     OW32143   0.994   6.389   6.502
10415SOL    HW132144   0.951   6.367   6.415
10415SOL    HW232145   1.029   6.305   6.545
10416SOL     OW32146   5.883   2.710   4.208
10416SOL    HW132147   5.790   2.716   4.172
10416SOL    HW232148   5.880   2.700   4.307
10417SOL     OW32149   2.805   4.820   4.208
10417SOL    HW132150   2.713   4.781   4.216
10417SOL    HW232151   2.841   4.839   4.299
10418SOL     OW32152   1.061   4.709   6.143
10418SOL    HW132153   1.105   4.774   6.081
10418SOL    HW232154   0.967   4.738   6.161
10419SOL     OW32155   1.147   0.980   0.726
10419SOL    HW132156   1.134   0.972   0.627
10419SOL    HW232157   1.100   1.062   0.759
10420SOL     OW32158   0.411   3.542   3.582
10420SOL    HW132159   0.417   3.457   3.530
10420SOL    HW232160   0.464   3.532   3.666
10421SOL     OW32161   0.290   0.476   3.067
10421SOL    HW132162   0.280   0.378   3.049
10421SOL    HW232163   0.226   0.503   3.140
10422SOL     OW32164   6.251   2.676   6.221
10422SOL    HW132165   6.348   2.697   6.233
10422SOL    HW232166   6.221   2.709   6.131
10423SOL     OW32167   4.990   4.340   3.323
10423SOL    HW132168   5.081   4.312   3.352
10423SOL    HW232169   4.938   4.260   3.293
10424SOL     OW32170   5.343   1.583   6.595
10424SOL    HW132171   5.369   1.585   6.692
10424SOL    HW232172   5.382   1.663   6.549
10425SOL     OW32173   1.674   6.089   2.551
10425SOL    HW132174   1.768   6.084   2.583
10425SOL    HW232175   1.621   6.014   2.591
10426SOL     OW32176   6.695   4.424   0.146
10426SOL    HW132177   6.683   4.519   0.118
10426SOL    HW232178   6.698   4.418   0.245
10427SOL     OW32179   5.235   1.986   0.198
10427SOL    HW132180   5.166   2.017   0.132
10427SOL    HW232181   5.190   1.947   0.278
10428SOL     OW32182   5.259   0.200   4.331
10428SOL    HW132183   5.282   0.114   4.376
10428SOL    HW232184   5.271   0.275   4.396
10429SOL     OW32185   6.568   5.987   1.679
10429SOL    HW132186   6.534   6.014   1.589
10429SOL    HW232187   6.492   5.975   1.742
10430SOL     OW32188   3.958   6.453   2.146
10430SOL    HW132189   4.047   6.415   2.169
10430SOL    HW232190   3.969   6.521   2.073
10431SOL     OW32191   3.066   0.398   4.540
10431SOL    HW132192   3.089   0.417   4.635
10431SOL    HW232193   3.118   0.320   4.507
10432SOL     OW32194   5.678   0.585   5.445
10432SOL    HW132195   5.764   0.632   5.464
10432SOL    HW232196   5.626   0.637   5.377
10433SOL     OW32197   2.259   6.712   0.744
10433SOL    HW132198   2.241   6.724   0.646
10433SOL    HW232199   2.192   6.761   0.797
10434SOL     OW32200   2.075   0.271   3.956
10434SOL    HW132201   2.130   0.188   3.947
10434SOL    HW232202   2.127   0.350   3.924
10435SOL     OW32203   5.013   6.210   6.410
10435SOL    HW132204   4.988   6.113   6.411
10435SOL    HW232205   5.034   6.238   6.316
10436SOL     OW32206   1.612   5.000   3.604
10436SOL    HW132207   1.635   4.906   3.629
10436SOL    HW232208   1.598   5.054   3.686
10437SOL     OW32209   0.174   5.144   5.907
10437SOL    HW132210   0.233   5.091   5.967
10437SOL    HW232211   0.078   5.125   5.929
10438SOL     OW32212   3.874   6.591   0.484
10438SOL    HW132213   3.936   6.515   0.464
10438SOL    HW232214   3.914   6.649   0.555
10439SOL     OW32215   3.672   6.757   6.030
10439SOL    HW132216   3.724   6.688   5.980
10439SOL    HW232217   3.658   6.726   6.125
10440SOL     OW32218   1.929   6.408   0.665
10440SOL    HW132219   1.837   6.383   0.635
10440SOL    HW232220   1.923   6.477   0.738
10441SOL     OW32221   5.356   1.615   6.205
10441SOL    HW132222   5.419   1.561   6.261
10441SOL    HW232223   5.263   1.606   6.241
10442SOL     OW32224   3.782   4.909   5.885
10442SOL    HW132225   3.866   4.862   5.911
10442SOL    HW232226   3.757   4.975   5.956
10443SOL     OW32227   6.303   3.117   4.852
10443SOL    HW132228   6.341   3.027   4.830
10443SOL    HW232229   6.373   3.187   4.839
10444SOL     OW32230   4.116   5.154   4.392
10444SOL    HW132231   4.091   5.178   4.485
10444SOL    HW232232   4.185   5.219   4.358
10445SOL     OW32233   6.966   5.873   5.168
10445SOL    HW132234   0.013   5.820   5.117
10445SOL    HW232235   7.004   5.962   5.193
10446SOL     OW32236   1.245   5.453   6.189
10446SOL    HW132237   1.176   5.404   6.135
10446SOL    HW232238   1.223   5.550   6.191
10447SOL     OW32239   5.849   2.787   1.415
10447SOL    HW132240   5.808   2.860   1.361
10447SOL    HW232241   5.899   2.826   1.492
10448SOL     OW32242   3.995   3.897   2.479
10448SOL    HW132243   4.038   3.901   2.389
10448SOL    HW232244   3.917   3.960   2.481
10449SOL     OW32245   2.618   5.579   4.555
10449SOL    HW132246   2.686   5.650   4.570
10449SOL    HW232247   2.617   5.516   4.633
10450SOL     OW32248   6.788   2.236   0.918
10450SOL    HW132249   6.770   2.138   0.925
10450SOL    HW232250   6.814   2.272   1.007
10451SOL     OW32251   2.519   4.726   2.899
10451SOL    HW132252   2.572   4.712   2.982
10451SOL    HW232253   2.503   4.638   2.854
10452SOL     OW32254   1.274   3.088   4.335
10452SOL    HW132255   1.319   3.000   4.347
10452SOL    HW232256   1.251   3.126   4.425
10453SOL     OW32257   4.628   6.854   1.566
10453SOL    HW132258   4.636   6.754   1.570
10453SOL    HW232259   4.644   6.885   1.473
10454SOL     OW32260   5.236   3.209   2.083
10454SOL    HW132261   5.194   3.291   2.124
10454SOL    HW232262   5.164   3.145   2.055
10455SOL     OW32263   0.020   5.142   3.475
10455SOL    HW132264   0.051   5.222   3.424
10455SOL    HW232265   0.035   5.157   3.573
10456SOL     OW32266   4.355   5.647   1.049
10456SOL    HW132267   4.357   5.690   0.959
10456SOL    HW232268   4.323   5.713   1.117
10457SOL     OW32269   3.920   3.562   3.382
10457SOL    HW132270   3.900   3.465   3.391
10457SOL    HW232271   3.966   3.578   3.294
10458SOL     OW32272   1.307   6.416   0.907
10458SOL    HW132273   1.293   6.509   0.941
10458SOL    HW232274   1.305   6.417   0.807
10459SOL     OW32275   6.540   5.025   2.894
10459SOL    HW132276   6.463   5.043   2.956
10459SOL    HW232277   6.522   4.941   2.842
10460SOL     OW32278   2.062   5.266   2.623
10460SOL    HW132279   2.007   5.184   2.642
10460SOL    HW232280   2.006   5.331   2.572
10461SOL     OW32281   2.763   1.516   6.665
10461SOL    HW132282   2.844   1.517   6.607
10461SOL    HW232283   2.740   1.422   6.689
10462SOL     OW32284   6.946   7.015   0.627
10462SOL    HW132285   6.905   6.946   0.686
10462SOL    HW232286   7.013   0.047   0.679
10463SOL     OW32287   3.157   4.520   0.794
10463SOL    HW132288   3.109   4.567   0.868
10463SOL    HW232289   3.102   4.522   0.711
10464SOL     OW32290   4.982   0.965   1.262
10464SOL    HW132291   4.933   1.036   1.313
10464SOL    HW232292   4.951   0.965   1.167
10465SOL     OW32293   6.183   4.843   6.075
10465SOL    HW132294   6.156   4.749   6.098
10465SOL    HW232295   6.279   4.857   6.098
10466SOL     OW32296   4.684   6.184   5.789
10466SOL    HW132297   4.769   6.157   5.834
10466SOL    HW232298   4.653   6.110   5.729
10467SOL     OW32299   3.236   0.685   5.045
10467SOL    HW132300   3.262   0.761   5.105
10467SOL    HW232301   3.161   0.633   5.088
10468SOL     OW32302   3.616   6.556   3.293
10468SOL    HW132303   3.528   6.541   3.337
10468SOL    HW232304   3.640   6.476   3.238
10469SOL     OW32305   1.557   4.734   0.730
10469SOL    HW132306   1.513   4.801   0.789
10469SOL    HW232307   1.532   4.752   0.635
10470SOL     OW32308   2.356   1.371   4.413
10470SOL    HW132309   2.325   1.277   4.397
10470SOL    HW232310   2.455   1.376   4.404
10471SOL     OW32311   3.628   3.528   0.280
10471SOL    HW132312   3.627   3.433   0.313
10471SOL    HW232313   3.604   3.529   0.183
10472SOL     OW32314   4.576   1.247   2.461
10472SOL    HW132315   4.492   1.192   2.455
10472SOL    HW232316   4.654   1.187   2.477
10473SOL     OW32317   4.747   6.130   0.698
10473SOL    HW132318   4.693   6.210   0.725
10473SOL    HW232319   4.726   6.053   0.759
10474SOL     OW32320   3.806   0.614   4.739
10474SOL    HW132321   3.874   0.546   4.712
10474SOL    HW232322   3.823   0.700   4.690
10475SOL     OW32323   3.868   6.459   1.626
10475SOL    HW132324   3.879   6.395   1.702
10475SOL    HW232325   3.794   6.523   1.647
10476SOL     OW32326   0.067   5.170   0.393
10476SOL    HW132327   0.022   5.193   0.306
10476SOL    HW232328   0.165   5.159   0.377
10477SOL     OW32329   5.575   4.055   5.277
10477SOL    HW132330   5.633   4.135   5.260
10477SOL    HW232331   5.566   4.002   5.192
10478SOL     OW32332   0.575   6.414   1.130
10478SOL    HW132333   0.643   6.469   1.080
10478SOL    HW232334   0.486   6.423   1.086
10479SOL     OW32335   1.349   4.219   3.407
10479SOL    HW132336   1.258   4.259   3.394
10479SOL    HW232337   1.348   4.162   3.490
10480SOL     OW32338   6.201   0.077   1.873
10480SOL    HW132339   6.195   0.166   1.828
10480SOL    HW232340   6.110   0.039   1.885
10481SOL     OW32341   1.755   0.552   5.216
10481SOL    HW132342   1.775   0.642   5.178
10481SOL    HW232343   1.736   0.488   5.141
10482SOL     OW32344   1.341   5.279   6.008
10482SOL    HW132345   1.433   5.256   5.978
10482SOL    HW232346   1.345   5.323   6.098
10483SOL     OW32347   0.302   5.084   0.588
10483SOL    HW132348   0.299   5.017   0.515
10483SOL    HW232349   0.228   5.150   0.577
10484SOL     OW32350   6.190   1.571   1.640
10484SOL    HW132351   6.160   1.584   1.545
10484SOL    HW232352   6.111   1.579   1.701
10485SOL     OW32353   3.779   3.780   3.615
10485SOL    HW132354   3.867   3.808   3.577
10485SOL    HW232355   3.787   3.689   3.656
10486SOL     OW32356   6.038   6.290   5.511
10486SOL    HW132357   6.064   6.366   5.451
10486SOL    HW232358   6.095   6.290   5.592
10487SOL     OW32359   4.780   2.478   1.998
10487SOL    HW132360   4.801   2.381   1.980
10487SOL    HW232361   4.864   2.525   2.023
10488SOL     OW32362   6.303   2.588   5.537
10488SOL    HW132363   6.276   2.685   5.537
10488SOL    HW232364   6.221   2.531   5.547
10489SOL     OW32365   6.139   4.359   4.796
10489SOL    HW132366   6.096   4.448   4.784
10489SOL    HW232367   6.238   4.367   4.782
10490SOL     OW32368   5.537   6.393   6.749
10490SOL    HW132369   5.509   6.311   6.701
10490SOL    HW232370   5.620   6.430   6.708
10491SOL     OW32371   1.894   2.640   5.631
10491SOL    HW132372   1.931   2.565   5.686
10491SOL    HW232373   1.883   2.721   5.688
10492SOL     OW32374   3.545   0.283   6.963
10492SOL    HW132375   3.591   0.262   6.877
10492SOL    HW232376   3.609   0.332   0.002
10493SOL     OW32377   4.048   5.597   1.137
10493SOL    HW132378   4.071   5.592   1.234
10493SOL    HW232379   4.105   5.532   1.086
10494SOL     OW32380   1.224   4.352   5.228
10494SOL    HW132381   1.222   4.340   5.327
10494SOL    HW232382   1.227   4.262   5.183
10495SOL     OW32383   0.115   6.741   0.854
10495SOL    HW132384   0.088   6.645   0.843
10495SOL    HW232385   0.123   6.783   0.763
10496SOL     OW32386   0.311   3.513   5.319
10496SOL    HW132387   0.372   3.435   5.307
10496SOL    HW232388   0.365   3.596   5.333
10497SOL     OW32389   1.956   0.261   1.327
10497SOL    HW132390   1.978   0.223   1.417
10497SOL    HW232391   1.872   0.218   1.293
10498SOL     OW32392   4.401   4.504   0.325
10498SOL    HW132393   4.384   4.603   0.324
10498SOL    HW232394   4.321   4.457   0.287
10499SOL     OW32395   6.080   4.730   2.673
10499SOL    HW132396   6.144   4.799   2.707
10499SOL    HW232397   6.130   4.647   2.649
10500SOL     OW32398   0.758   3.216   5.333
10500SOL    HW132399   0.788   3.181   5.244
10500SOL    HW232400   0.791   3.310   5.345
10501SOL     OW32401   3.545   4.945   2.823
10501SOL    HW132402   3.538   4.930   2.921
10501SOL    HW232403   3.638   4.925   2.793
10502SOL     OW32404   3.450   3.740   2.209
10502SOL    HW132405   3.431   3.752   2.306
10502SOL    HW232406   3.545   3.766   2.190
10503SOL     OW32407   6.514   2.432   6.376
10503SOL    HW132408   6.600   2.384   6.356
10503SOL    HW232409   6.441   2.365   6.389
10504SOL     OW32410   1.266   2.827   6.048
10504SOL    HW132411   1.198   2.753   6.049
10504SOL    HW232412   1.232   2.903   5.993
10505SOL     OW32413   5.947   6.598   0.598
10505SOL    HW132414   5.910   6.596   0.691
10505SOL    HW232415   6.041   6.562   0.599
10506SOL     OW32416   1.108   2.299   6.658
10506SOL    HW132417   1.012   2.326   6.665
10506SOL    HW232418   1.161   2.375   6.621
10507SOL     OW32419   1.024   5.298   6.188
10507SOL    HW132420   0.958   5.249   6.131
10507SOL    HW232421   0.975   5.344   6.263
10508SOL     OW32422   1.675   4.853   5.090
10508SOL    HW132423   1.758   4.894   5.128
10508SOL    HW232424   1.681   4.851   4.991
10509SOL     OW32425   4.601   2.615   2.843
10509SOL    HW132426   4.604   2.625   2.942
10509SOL    HW232427   4.691   2.634   2.805
10510SOL     OW32428   5.838   5.809   3.794
10510SOL    HW132429   5.856   5.832   3.698
10510SOL    HW232430   5.748   5.844   3.820
10511SOL     OW32431   5.158   1.981   1.684
10511SOL    HW132432   5.193   2.048   1.749
10511SOL    HW232433   5.193   2.003   1.592
10512SOL     OW32434   4.581   0.913   5.074
10512SOL    HW132435   4.539   0.870   5.154
10512SOL    HW232436   4.579   0.849   4.997
10513SOL     OW32437   4.406   2.968   1.013
10513SOL    HW132438   4.465   2.968   1.094
10513SOL    HW232439   4.341   3.044   1.019
10514SOL     OW32440   1.607   3.284   1.734
10514SOL    HW132441   1.622   3.375   1.773
10514SOL    HW232442   1.575   3.222   1.805
10515SOL     OW32443   2.400   2.730   4.937
10515SOL    HW132444   2.301   2.732   4.949
10515SOL    HW232445   2.440   2.817   4.964
10516SOL     OW32446   3.839   2.021   1.740
10516SOL    HW132447   3.859   2.118   1.754
10516SOL    HW232448   3.921   1.974   1.708
10517SOL     OW32449   1.298   2.139   2.589
10517SOL    HW132450   1.289   2.062   2.525
10517SOL    HW232451   1.278   2.108   2.682
10518SOL     OW32452   0.598   5.012   2.715
10518SOL    HW132453   0.547   5.065   2.648
10518SOL    HW232454   0.677   4.970   2.671
10519SOL     OW32455   4.103   7.003   1.248
10519SOL    HW132456   4.174   7.015   1.317
10519SOL    HW232457   4.052   0.066   1.237
10520SOL     OW32458   0.430   2.684   5.684
10520SOL    HW132459   0.435   2.687   5.584
10520SOL    HW232460   0.350   2.737   5.714
10521SOL     OW32461   0.152   3.006   2.182
10521SOL    HW132462   0.156   3.001   2.083
10521SOL    HW232463   0.134   2.915   2.220
10522SOL     OW32464   5.116   2.384   3.535
10522SOL    HW132465   5.090   2.476   3.566
10522SOL    HW232466   5.127   2.325   3.615
10523SOL     OW32467   0.903   4.171   3.353
10523SOL    HW132468   0.821   4.114   3.360
10523SOL    HW232469   0.881   4.264   3.384
10524SOL     OW32470   0.131   6.150   5.152
10524SOL    HW132471   0.126   6.166   5.054
10524SOL    HW232472   0.207   6.088   5.172
10525SOL     OW32473   4.893   1.491   3.447
10525SOL    HW132474   4.805   1.531   3.473
10525SOL    HW232475   4.914   1.414   3.507
10526SOL     OW32476   1.181   4.723   0.207
10526SOL    HW132477   1.144   4.788   0.273
10526SOL    HW232478   1.117   4.711   0.131
10527SOL     OW32479   0.359   0.536   5.099
10527SOL    HW132480   0.305   0.604   5.148
10527SOL    HW232481   0.370   0.455   5.156
10528SOL     OW32482   1.732   3.383   5.511
10528SOL    HW132483   1.672   3.463   5.515
10528SOL    HW232484   1.806   3.400   5.445
10529SOL     OW32485   0.423   5.827   1.259
10529SOL    HW132486   0.431   5.729   1.273
10529SOL    HW232487   0.417   5.873   1.348
10530SOL     OW32488   0.459   5.404   0.767
10530SOL    HW132489   0.426   5.497   0.780
10530SOL    HW232490   0.500   5.371   0.852
10531SOL     OW32491   2.907   3.259   5.271
10531SOL    HW132492   2.819   3.262   5.318
10531SOL    HW232493   2.906   3.324   5.195
10532SOL     OW32494   5.161   6.461   6.750
10532SOL    HW132495   5.245   6.480   6.800
10532SOL    HW232496   5.174   6.381   6.692
10533SOL     OW32497   4.203   6.652   2.745
10533SOL    HW132498   4.269   6.577   2.735
10533SOL    HW232499   4.248   6.731   2.786
10534SOL     OW32500   1.214   6.292   4.081
10534SOL    HW132501   1.209   6.193   4.072
10534SOL    HW232502   1.262   6.331   4.002
10535SOL     OW32503   3.704   2.108   2.409
10535SOL    HW132504   3.776   2.123   2.341
10535SOL    HW232505   3.615   2.113   2.365
10536SOL     OW32506   5.051   2.794   4.673
10536SOL    HW132507   5.011   2.725   4.733
10536SOL    HW232508   5.063   2.756   4.581
10537SOL     OW32509   3.706   6.960   4.204
10537SOL    HW132510   3.777   0.003   4.178
10537SOL    HW232511   3.683   6.902   4.125
10538SOL     OW32512   0.425   3.453   2.767
10538SOL    HW132513   0.377   3.539   2.783
10538SOL    HW232514   0.386   3.382   2.825
10539SOL     OW32515   6.269   0.090   3.667
10539SOL    HW132516   6.177   0.126   3.648
10539SOL    HW232517   6.297   0.118   3.758
10540SOL     OW32518   1.806   3.757   5.998
10540SOL    HW132519   1.840   3.850   5.984
10540SOL    HW232520   1.865   3.693   5.949
10541SOL     OW32521   3.590   3.516   4.968
10541SOL    HW132522   3.523   3.587   4.987
10541SOL    HW232523   3.546   3.440   4.921
10542SOL     OW32524   4.487   0.538   4.360
10542SOL    HW132525   4.419   0.470   4.390
10542SOL    HW232526   4.576   0.494   4.352
10543SOL     OW32527   1.336   3.440   4.804
10543SOL    HW132528   1.263   3.419   4.738
10543SOL    HW232529   1.310   3.520   4.857
10544SOL     OW32530   2.258   1.737   3.192
10544SOL    HW132531   2.193   1.733   3.268
10544SOL    HW232532   2.270   1.645   3.154
10545SOL     OW32533   2.259   2.881   2.426
10545SOL    HW132534   2.274   2.943   2.349
10545SOL    HW232535   2.320   2.802   2.417
10546SOL     OW32536   3.225   6.551   6.610
10546SOL    HW132537   3.179   6.625   6.658
10546SOL    HW232538   3.250   6.582   6.518
10547SOL     OW32539   4.349   6.861   4.970
10547SOL    HW132540   4.410   6.790   5.004
10547SOL    HW232541   4.402   6.929   4.920
10548SOL     OW32542   6.920   5.888   3.236
10548SOL    HW132543   6.970   5.830   3.300
10548SOL    HW232544   6.847   5.835   3.193
10549SOL     OW32545   0.111   0.731   1.594
10549SOL    HW132546   0.051   0.811   1.604
10549SOL    HW232547   0.107   0.699   1.499
10550SOL     OW32548   4.431   5.453   3.541
10550SOL    HW132549   4.460   5.456   3.636
10550SOL    HW232550   4.423   5.358   3.511
10551SOL     OW32551   2.428   1.397   5.658
10551SOL    HW132552   2.490   1.319   5.671
10551SOL    HW232553   2.382   1.418   5.744
10552SOL     OW32554   3.018   0.325   4.196
10552SOL    HW132555   3.036   0.418   4.226
10552SOL    HW232556   3.102   0.284   4.160
10553SOL     OW32557   6.922   5.657   0.879
10553SOL    HW132558   6.990   5.591   0.911
10553SOL    HW232559   6.961   5.749   0.881
10554SOL     OW32560   6.015   5.994   2.381
10554SOL    HW132561   6.024   6.048   2.297
10554SOL    HW232562   5.951   6.039   2.442
10555SOL     OW32563   3.701   3.494   1.097
10555SOL    HW132564   3.748   3.578   1.070
10555SOL    HW232565   3.765   3.417   1.093
10556SOL     OW32566   2.416   1.174   2.476
10556SOL    HW132567   2.368   1.112   2.538
10556SOL    HW232568   2.387   1.156   2.382
10557SOL     OW32569   2.823   4.758   3.366
10557SOL    HW132570   2.807   4.818   3.445
10557SOL    HW232571   2.760   4.680   3.372
10558SOL     OW32572   3.533   5.450   5.288
10558SOL    HW132573   3.518   5.351   5.285
10558SOL    HW232574   3.614   5.469   5.344
10559SOL     OW32575   4.062   6.617   0.946
10559SOL    HW132576   4.119   6.555   0.999
10559SOL    HW232577   3.975   6.631   0.992
10560SOL     OW32578   5.622   0.062   2.122
10560SOL    HW132579   5.713   0.102   2.112
10560SOL    HW232580   5.580   0.093   2.208
10561SOL     OW32581   6.340   4.733   0.154
10561SOL    HW132582   6.294   4.809   0.109
10561SOL    HW232583   6.280   4.652   0.152
10562SOL     OW32584   4.234   5.734   2.483
10562SOL    HW132585   4.271   5.827   2.482
10562SOL    HW232586   4.203   5.711   2.576
10563SOL     OW32587   0.259   6.718   2.043
10563SOL    HW132588   0.279   6.793   2.106
10563SOL    HW232589   0.162   6.696   2.047
10564SOL     OW32590   5.443   4.640   3.878
10564SOL    HW132591   5.349   4.613   3.901
10564SOL    HW232592   5.441   4.700   3.797
10565SOL     OW32593   0.275   0.486   6.044
10565SOL    HW132594   0.254   0.584   6.045
10565SOL    HW232595   0.360   0.470   6.094
10566SOL     OW32596   3.412   3.149   0.505
10566SOL    HW132597   3.469   3.092   0.445
10566SOL    HW232598   3.316   3.123   0.493
10567SOL     OW32599   1.588   2.158   6.517
10567SOL    HW132600   1.605   2.229   6.586
10567SOL    HW232601   1.528   2.195   6.446
10568SOL     OW32602   4.549   2.402   5.919
10568SOL    HW132603   4.584   2.374   6.008
10568SOL    HW232604   4.511   2.494   5.927
10569SOL     OW32605   5.482   6.535   0.417
10569SOL    HW132606   5.514   6.490   0.500
10569SOL    HW232607   5.468   6.467   0.345
10570SOL     OW32608   1.123   4.373   3.268
10570SOL    HW132609   1.147   4.432   3.191
10570SOL    HW232610   1.028   4.343   3.258
10571SOL     OW32611   6.456   4.198   6.159
10571SOL    HW132612   6.533   4.166   6.104
10571SOL    HW232613   6.412   4.275   6.113
10572SOL     OW32614   6.136   3.989   0.656
10572SOL    HW132615   6.120   4.061   0.589
10572SOL    HW232616   6.082   3.908   0.632
10573SOL     OW32617   6.086   1.474   3.221
10573SOL    HW132618   6.015   1.484   3.291
10573SOL    HW232619   6.173   1.509   3.256
10574SOL     OW32620   6.207   2.981   3.070
10574SOL    HW132621   6.242   3.073   3.084
10574SOL    HW232622   6.282   2.919   3.050
10575SOL     OW32623   6.329   6.869   1.716
10575SOL    HW132624   6.333   6.966   1.742
10575SOL    HW232625   6.336   6.862   1.616
10576SOL     OW32626   1.502   4.239   4.448
10576SOL    HW132627   1.559   4.308   4.492
10576SOL    HW232628   1.436   4.285   4.388
10577SOL     OW32629   3.580   4.632   0.290
10577SOL    HW132630   3.537   4.556   0.339
10577SOL    HW232631   3.675   4.640   0.318
10578SOL     OW32632   0.197   3.358   4.763
10578SOL    HW132633   0.202   3.346   4.664
10578SOL    HW232634   0.274   3.415   4.793
10579SOL     OW32635   1.145   3.867   6.787
10579SOL    HW132636   1.078   3.822   6.728
10579SOL    HW232637   1.168   3.807   6.864
10580SOL     OW32638   6.165   6.969   0.418
10580SOL    HW132639   6.242   6.905   0.413
10580SOL    HW232640   6.179   0.021   0.352
10581SOL     OW32641   4.981   6.741   3.121
10581SOL    HW132642   4.940   6.780   3.204
10581SOL    HW232643   5.023   6.814   3.067
10582SOL     OW32644   5.640   3.979   6.369
10582SOL    HW132645   5.711   4.038   6.408
10582SOL    HW232646   5.682   3.914   6.306
10583SOL     OW32647   3.103   1.882   4.981
10583SOL    HW132648   3.021   1.916   4.935
10583SOL    HW232649   3.184   1.914   4.932
10584SOL     OW32650   0.828   6.891   4.380
10584SOL    HW132651   0.864   6.937   4.461
10584SOL    HW232652   0.826   6.956   4.303
10585SOL     OW32653   1.034   0.293   5.117
10585SOL    HW132654   1.018   0.202   5.155
10585SOL    HW232655   0.949   0.345   5.119
10586SOL     OW32656   4.157   4.375   5.364
10586SOL    HW132657   4.159   4.275   5.361
10586SOL    HW232658   4.218   4.411   5.293
10587SOL     OW32659   2.434   5.129   5.496
10587SOL    HW132660   2.384   5.053   5.454
10587SOL    HW232661   2.424   5.125   5.595
10588SOL     OW32662   1.121   3.886   4.118
10588SOL    HW132663   1.148   3.790   4.110
10588SOL    HW232664   1.028   3.897   4.081
10589SOL     OW32665   5.601   5.842   4.025
10589SOL    HW132666   5.665   5.913   4.055
10589SOL    HW232667   5.589   5.848   3.926
10590SOL     OW32668   0.952   5.126   2.655
10590SOL    HW132669   1.025   5.068   2.620
10590SOL    HW232670   0.941   5.110   2.753
10591SOL     OW32671   6.846   2.705   1.576
10591SOL    HW132672   6.902   2.740   1.651
10591SOL    HW232673   6.753   2.689   1.607
10592SOL     OW32674   6.358   1.944   5.283
10592SOL    HW132675   6.343   1.997   5.199
10592SOL    HW232676   6.437   1.885   5.271
10593SOL     OW32677   3.139   5.374   3.397
10593SOL    HW132678   3.234   5.360   3.366
10593SOL    HW232679   3.131   5.345   3.492
10594SOL     OW32680   2.808   6.015   3.795
10594SOL    HW132681   2.894   6.017   3.847
10594SOL    HW232682   2.743   5.954   3.841
10595SOL     OW32683   5.101   6.353   0.140
10595SOL    HW132684   5.070   6.433   0.090
10595SOL    HW232685   5.022   6.298   0.169
10596SOL     OW32686   4.948   3.253   0.261
10596SOL    HW132687   4.879   3.282   0.195
10596SOL    HW232688   4.909   3.252   0.353
10597SOL     OW32689   2.174   0.137   5.148
10597SOL    HW132690   2.127   0.102   5.067
10597SOL    HW232691   2.250   0.076   5.171
10598SOL     OW32692   2.835   1.139   6.048
10598SOL    HW132693   2.854   1.228   6.007
10598SOL    HW232694   2.832   1.147   6.147
10599SOL     OW32695   0.265   1.923   6.798
10599SOL    HW132696   0.228   1.975   6.721
10599SOL    HW232697   0.364   1.932   6.800
10600SOL     OW32698   2.587   2.649   1.238
10600SOL    HW132699   2.664   2.677   1.182
10600SOL    HW232700   2.591   2.550   1.254
10601SOL     OW32701   1.204   0.882   5.697
10601SOL    HW132702   1.105   0.868   5.690
10601SOL    HW232703   1.222   0.971   5.740
10602SOL     OW32704   6.759   6.628   1.133
10602SOL    HW132705   6.714   6.611   1.221
10602SOL    HW232706   6.700   6.686   1.077
10603SOL     OW32707   5.301   0.699   2.835
10603SOL    HW132708   5.290   0.642   2.916
10603SOL    HW232709   5.322   0.641   2.756
10604SOL     OW32710   5.141   0.253   4.874
10604SOL    HW132711   5.226   0.305   4.866
10604SOL    HW232712   5.147   0.193   4.953
10605SOL     OW32713   2.005   1.854   1.650
10605SOL    HW132714   1.973   1.942   1.686
10605SOL    HW232715   1.930   1.788   1.651
10606SOL     OW32716   5.949   0.567   0.461
10606SOL    HW132717   5.929   0.500   0.533
10606SOL    HW232718   5.882   0.557   0.387
10607SOL     OW32719   3.087   4.986   6.560
10607SOL    HW132720   3.100   4.933   6.477
10607SOL    HW232721   3.073   4.924   6.638
10608SOL     OW32722   5.768   3.911   3.817
10608SOL    HW132723   5.779   3.817   3.782
10608SOL    HW232724   5.853   3.962   3.800
10609SOL     OW32725   4.737   1.402   6.580
10609SOL    HW132726   4.699   1.484   6.538
10609SOL    HW232727   4.751   1.418   6.678
10610SOL     OW32728   0.627   1.475   3.665
10610SOL    HW132729   0.709   1.469   3.722
10610SOL    HW232730   0.652   1.460   3.569
10611SOL     OW32731   3.879   5.717   4.584
10611SOL    HW132732   3.843   5.631   4.548
10611SOL    HW232733   3.841   5.793   4.532
10612SOL     OW32734   6.103   1.730   3.513
10612SOL    HW132735   6.165   1.726   3.434
10612SOL    HW232736   6.146   1.783   3.586
10613SOL     OW32737   4.320   6.099   4.241
10613SOL    HW132738   4.379   6.068   4.167
10613SOL    HW232739   4.323   6.199   4.246
10614SOL     OW32740   3.826   1.858   6.300
10614SOL    HW132741   3.923   1.876   6.282
10614SOL    HW232742   3.781   1.941   6.332
10615SOL     OW32743   1.640   1.684   5.485
10615SOL    HW132744   1.594   1.764   5.521
10615SOL    HW232745   1.675   1.628   5.560
10616SOL     OW32746   2.634   6.571   0.081
10616SOL    HW132747   2.590   6.611   0.161
10616SOL    HW232748   2.635   6.638   0.007
10617SOL     OW32749   2.183   3.245   1.494
10617SOL    HW132750   2.193   3.339   1.462
10617SOL    HW232751   2.205   3.240   1.592
10618SOL     OW32752   1.742   5.562   3.588
10618SOL    HW132753   1.761   5.509   3.670
10618SOL    HW232754   1.764   5.507   3.507
10619SOL     OW32755   2.186   2.557   2.578
10619SOL    HW132756   2.128   2.626   2.536
10619SOL    HW232757   2.170   2.556   2.677
10620SOL     OW32758   3.045   1.391   6.194
10620SOL    HW132759   2.973   1.424   6.133
10620SOL    HW232760   3.102   1.468   6.223
10621SOL     OW32761   0.452   3.850   3.149
10621SOL    HW132762   0.538   3.854   3.098
10621SOL    HW232763   0.415   3.758   3.146
10622SOL     OW32764   4.488   1.942   0.182
10622SOL    HW132765   4.401   1.982   0.211
10622SOL    HW232766   4.472   1.876   0.109
10623SOL     OW32767   4.845   6.916   6.198
10623SOL    HW132768   4.826   6.962   6.111
10623SOL    HW232769   4.879   6.824   6.181
10624SOL     OW32770   0.545   1.863   0.058
10624SOL    HW132771   0.637   1.898   0.039
10624SOL    HW232772   0.538   1.838   0.154
10625SOL     OW32773   5.392   4.657   7.019
10625SOL    HW132774   5.324   4.695   0.060
10625SOL    HW232775   5.354   4.657   6.926
10626SOL     OW32776   5.196   3.038   1.206
10626SOL    HW132777   5.234   2.947   1.192
10626SOL    HW232778   5.099   3.038   1.184
10627SOL     OW32779   5.752   5.480   5.838
10627SOL    HW132780   5.664   5.471   5.884
10627SOL    HW232781   5.738   5.505   5.742
10628SOL     OW32782   3.845   6.663   1.089
10628SOL    HW132783   3.876   6.726   1.160
10628SOL    HW232784   3.768   6.703   1.040
10629SOL     OW32785   3.172   5.517   4.607
10629SOL    HW132786   3.249   5.551   4.661
10629SOL    HW232787   3.203   5.443   4.547
10630SOL     OW32788   4.115   0.834   2.228
10630SOL    HW132789   4.056   0.909   2.257
10630SOL    HW232790   4.201   0.870   2.194
10631SOL     OW32791   3.719   5.864   0.563
10631SOL    HW132792   3.782   5.938   0.584
10631SOL    HW232793   3.711   5.803   0.642
10632SOL     OW32794   4.942   6.044   3.202
10632SOL    HW132795   4.921   5.947   3.218
10632SOL    HW232796   5.015   6.051   3.133
10633SOL     OW32797   1.363   3.324   0.947
10633SOL    HW132798   1.362   3.237   0.898
10633SOL    HW232799   1.278   3.333   1.000
10634SOL     OW32800   0.782   3.706   7.017
10634SOL    HW132801   0.758   3.761   6.936
10634SOL    HW232802   0.724   3.733   0.072
10635SOL     OW32803   2.357   4.868   5.944
10635SOL    HW132804   2.281   4.815   5.980
10635SOL    HW232805   2.444   4.826   5.970
10636SOL     OW32806   0.008   2.399   6.740
10636SOL    HW132807   6.987   2.313   6.709
10636SOL    HW232808   0.104   2.383   6.759
10637SOL     OW32809   2.823   0.784   7.003
10637SOL    HW132810   2.829   0.752   6.908
10637SOL    HW232811   2.913   0.814   0.011
10638SOL     OW32812   6.403   5.597   1.542
10638SOL    HW132813   6.351   5.542   1.607
10638SOL    HW232814   6.476   5.646   1.590
10639SOL     OW32815   1.299   5.041   1.958
10639SOL    HW132816   1.315   5.139   1.966
10639SOL    HW232817   1.372   4.991   2.006
10640SOL     OW32818   4.240   6.481   3.330
10640SOL    HW132819   4.256   6.398   3.383
10640SOL    HW232820   4.173   6.462   3.258
10641SOL     OW32821   1.437   1.011   3.521
10641SOL    HW132822   1.412   0.947   3.593
10641SOL    HW232823   1.537   1.014   3.513
10642SOL     OW32824   6.318   2.178   6.333
10642SOL    HW132825   6.234   2.177   6.278
10642SOL    HW232826   6.397   2.162   6.274
10643SOL     OW32827   2.435   5.107   5.823
10643SOL    HW132828   2.529   5.084   5.796
10643SOL    HW232829   2.394   5.029   5.871
10644SOL     OW32830   6.398   3.377   2.776
10644SOL    HW132831   6.402   3.463   2.726
10644SOL    HW232832   6.361   3.305   2.718
10645SOL     OW32833   2.573   2.409   3.646
10645SOL    HW132834   2.654   2.351   3.644
10645SOL    HW232835   2.571   2.466   3.563
10646SOL     OW32836   5.596   0.254   3.556
10646SOL    HW132837   5.572   0.198   3.635
10646SOL    HW232838   5.523   0.247   3.487
10647SOL     OW32839   3.345   5.322   4.822
10647SOL    HW132840   3.245   5.325   4.813
10647SOL    HW232841   3.373   5.386   4.893
10648SOL     OW32842   4.828   4.952   6.059
10648SOL    HW132843   4.894   4.903   6.001
10648SOL    HW232844   4.867   4.964   6.150
10649SOL     OW32845   6.521   3.853   2.699
10649SOL    HW132846   6.588   3.820   2.766
10649SOL    HW232847   6.549   3.944   2.667
10650SOL     OW32848   0.212   0.422   3.724
10650SOL    HW132849   0.155   0.390   3.799
10650SOL    HW232850   0.188   0.516   3.700
10651SOL     OW32851   3.948   5.754   6.083
10651SOL    HW132852   3.947   5.853   6.069
10651SOL    HW232853   3.860   5.725   6.120
10652SOL     OW32854   2.036   0.440   6.788
10652SOL    HW132855   2.006   0.406   6.878
10652SOL    HW232856   1.990   0.388   6.716
10653SOL     OW32857   4.276   5.639   4.029
10653SOL    HW132858   4.320   5.689   4.104
10653SOL    HW232859   4.343   5.624   3.956
10654SOL     OW32860   6.036   1.561   4.035
10654SOL    HW132861   5.976   1.620   4.089
10654SOL    HW232862   5.982   1.510   3.969
10655SOL     OW32863   0.258   4.936   1.288
10655SOL    HW132864   0.254   5.032   1.260
10655SOL    HW232865   0.168   4.907   1.321
10656SOL     OW32866   6.000   2.599   3.294
10656SOL    HW132867   5.957   2.537   3.359
10656SOL    HW232868   5.953   2.592   3.206
10657SOL     OW32869   4.997   6.786   4.473
10657SOL    HW132870   4.906   6.750   4.453
10657SOL    HW232871   5.062   6.749   4.406
10658SOL     OW32872   0.847   3.074   5.090
10658SOL    HW132873   0.831   2.981   5.058
10658SOL    HW232874   0.941   3.083   5.122
10659SOL     OW32875   1.216   5.355   0.780
10659SOL    HW132876   1.164   5.440   0.788
10659SOL    HW232877   1.222   5.328   0.684
10660SOL     OW32878   5.669   3.013   5.276
10660SOL    HW132879   5.682   3.000   5.375
10660SOL    HW232880   5.757   3.032   5.233
10661SOL     OW32881   2.164   5.188   5.739
10661SOL    HW132882   2.259   5.155   5.744
10661SOL    HW232883   2.121   5.180   5.829
10662SOL     OW32884   2.609   1.179   2.216
10662SOL    HW132885   2.662   1.198   2.134
10662SOL    HW232886   2.514   1.207   2.201
10663SOL     OW32887   1.396   1.725   3.966
10663SOL    HW132888   1.449   1.765   4.041
10663SOL    HW232889   1.373   1.796   3.899
10664SOL     OW32890   1.012   5.262   4.491
10664SOL    HW132891   1.031   5.269   4.393
10664SOL    HW232892   1.057   5.181   4.528
10665SOL     OW32893   2.510   3.062   6.402
10665SOL    HW132894   2.430   3.060   6.343
10665SOL    HW232895   2.593   3.050   6.347
10666SOL     OW32896   3.341   3.696   1.970
10666SOL    HW132897   3.386   3.758   1.905
10666SOL    HW232898   3.383   3.707   2.060
10667SOL     OW32899   5.333   2.337   3.947
10667SOL    HW132900   5.292   2.419   3.985
10667SOL    HW232901   5.413   2.311   4.000
10668SOL     OW32902   3.220   2.498   5.445
10668SOL    HW132903   3.168   2.581   5.425
10668SOL    HW232904   3.221   2.439   5.365
10669SOL     OW32905   6.587   1.560   1.023
10669SOL    HW132906   6.582   1.597   1.116
10669SOL    HW232907   6.578   1.634   0.957
10670SOL     OW32908   4.920   3.544   4.142
10670SOL    HW132909   4.957   3.631   4.175
10670SOL    HW232910   4.863   3.559   4.062
10671SOL     OW32911   1.450   2.850   4.226
10671SOL    HW132912   1.502   2.884   4.147
10671SOL    HW232913   1.508   2.851   4.307
10672SOL     OW32914   5.939   3.412   1.312
10672SOL    HW132915   5.850   3.412   1.266
10672SOL    HW232916   5.972   3.506   1.323
10673SOL     OW32917   2.109   1.198   1.167
10673SOL    HW132918   2.080   1.252   1.246
10673SOL    HW232919   2.052   1.116   1.159
10674SOL     OW32920   3.507   3.767   3.673
10674SOL    HW132921   3.455   3.700   3.619
10674SOL    HW232922   3.603   3.765   3.646
10675SOL     OW32923   3.771   6.997   5.530
10675SOL    HW132924   3.802   0.012   5.442
10675SOL    HW232925   3.802   6.903   5.540
10676SOL     OW32926   1.695   6.560   5.602
10676SOL    HW132927   1.755   6.613   5.543
10676SOL    HW232928   1.731   6.467   5.612
10677SOL     OW32929   0.567   1.516   0.747
10677SOL    HW132930   0.636   1.463   0.797
10677SOL    HW232931   0.495   1.544   0.810
10678SOL     OW32932   4.212   5.504   3.339
10678SOL    HW132933   4.139   5.480   3.404
10678SOL    HW232934   4.301   5.496   3.384
10679SOL     OW32935   4.032   3.164   6.772
10679SOL    HW132936   3.952   3.221   6.750
10679SOL    HW232937   4.110   3.223   6.790
10680SOL     OW32938   4.357   0.826   3.924
10680SOL    HW132939   4.305   0.864   3.848
10680SOL    HW232940   4.295   0.783   3.989
10681SOL     OW32941   1.115   2.698   5.768
10681SOL    HW132942   1.063   2.638   5.707
10681SOL    HW232943   1.098   2.671   5.863
10682SOL     OW32944   5.129   3.127   6.274
10682SOL    HW132945   5.211   3.140   6.217
10682SOL    HW232946   5.055   3.185   6.239
10683SOL     OW32947   3.316   0.778   3.612
10683SOL    HW132948   3.234   0.735   3.650
10683SOL    HW232949   3.326   0.749   3.517
10684SOL     OW32950   4.482   4.857   1.799
10684SOL    HW132951   4.399   4.801   1.803
10684SOL    HW232952   4.562   4.800   1.818
10685SOL     OW32953   0.785   5.711   1.545
10685SOL    HW132954   0.781   5.618   1.507
10685SOL    HW232955   0.765   5.777   1.473
10686SOL     OW32956   2.271   2.685   6.741
10686SOL    HW132957   2.271   2.733   6.653
10686SOL    HW232958   2.232   2.593   6.729
10687SOL     OW32959   0.797   4.389   3.484
10687SOL    HW132960   0.703   4.360   3.501
10687SOL    HW232961   0.858   4.349   3.552
10688SOL     OW32962   5.641   1.647   2.702
10688SOL    HW132963   5.561   1.678   2.755
10688SOL    HW232964   5.721   1.702   2.727
10689SOL     OW32965   6.634   0.152   2.519
10689SOL    HW132966   6.688   0.096   2.581
10689SOL    HW232967   6.585   0.222   2.570
10690SOL     OW32968   0.129   6.976   3.849
10690SOL    HW132969   0.039   7.015   3.868
10690SOL    HW232970   0.121   6.879   3.828
10691SOL     OW32971   3.267   0.905   2.961
10691SOL    HW132972   3.321   0.885   2.878
10691SOL    HW232973   3.329   0.917   3.038
10692SOL     OW32974   2.328   0.386   4.297
10692SOL    HW132975   2.373   0.394   4.208
10692SOL    HW232976   2.328   0.290   4.325
10693SOL     OW32977   1.194   5.765   0.606
10693SOL    HW132978   1.137   5.847   0.600
10693SOL    HW232979   1.283   5.788   0.643
10694SOL     OW32980   4.288   6.208   5.488
10694SOL    HW132981   4.373   6.254   5.514
10694SOL    HW232982   4.280   6.122   5.537
10695SOL     OW32983   0.227   4.125   1.701
10695SOL    HW132984   0.278   4.211   1.695
10695SOL    HW232985   0.242   4.084   1.791
10696SOL     OW32986   0.201   5.161   4.596
10696SOL    HW132987   0.137   5.093   4.561
10696SOL    HW232988   0.213   5.234   4.529
10697SOL     OW32989   1.471   4.809   6.013
10697SOL    HW132990   1.489   4.813   5.914
10697SOL    HW232991   1.428   4.722   6.035
10698SOL     OW32992   4.453   3.232   0.063
10698SOL    HW132993   4.547   3.257   0.043
10698SOL    HW232994   4.404   3.312   0.097
10699SOL     OW32995   3.320   4.051   0.373
10699SOL    HW132996   3.320   3.996   0.290
10699SOL    HW232997   3.331   4.148   0.348
10700SOL     OW32998   4.845   0.190   0.876
10700SOL    HW132999   4.871   0.216   0.783
10700SOL    HW233000   4.773   0.250   0.909
10701SOL     OW33001   2.779   0.709   6.213
10701SOL    HW133002   2.748   0.803   6.208
10701SOL    HW233003   2.750   0.659   6.131
10702SOL     OW33004   5.278   2.531   2.321
10702SOL    HW133005   5.338   2.545   2.242
10702SOL    HW233006   5.230   2.616   2.342
10703SOL     OW33007   1.345   2.760   6.303
10703SOL    HW133008   1.336   2.790   6.208
10703SOL    HW233009   1.258   2.774   6.350
10704SOL     OW33010   6.578   6.832   1.994
10704SOL    HW133011   6.547   6.789   1.909
10704SOL    HW233012   6.555   6.773   2.071
10705SOL     OW33013   5.812   4.544   1.014
10705SOL    HW133014   5.793   4.449   0.988
10705SOL    HW233015   5.881   4.581   0.952
10706SOL     OW33016   5.092   0.491   2.084
10706SOL    HW133017   5.166   0.541   2.130
10706SOL    HW233018   5.013   0.485   2.145
10707SOL     OW33019   5.791   6.774   4.240
10707SOL    HW133020   5.872   6.833   4.230
10707SOL    HW233021   5.819   6.678   4.236
10708SOL     OW33022   4.338   2.148   2.386
10708SOL    HW133023   4.245   2.180   2.404
10708SOL    HW233024   4.357   2.152   2.288
10709SOL     OW33025   5.950   5.213   4.173
10709SOL    HW133026   6.047   5.238   4.175
10709SOL    HW233027   5.901   5.275   4.112
10710SOL     OW33028   5.624   1.300   3.276
10710SOL    HW133029   5.628   1.324   3.179
10710SOL    HW233030   5.691   1.228   3.296
10711SOL     OW33031   3.705   6.610   1.750
10711SOL    HW133032   3.685   6.707   1.736
10711SOL    HW233033   3.630   6.568   1.803
10712SOL     OW33034   4.294   6.935   2.824
10712SOL    HW133035   4.350   6.971   2.749
10712SOL    HW233036   4.345   6.938   2.909
10713SOL     OW33037   1.356   3.542   0.758
10713SOL    HW133038   1.258   3.562   0.753
10713SOL    HW233039   1.373   3.480   0.834
10714SOL     OW33040   3.973   3.069   4.107
10714SOL    HW133041   3.884   3.049   4.068
10714SOL    HW233042   3.971   3.053   4.206
10715SOL     OW33043   5.956   0.618   1.927
10715SOL    HW133044   5.958   0.519   1.912
10715SOL    HW233045   5.913   0.663   1.849
10716SOL     OW33046   6.652   2.722   2.731
10716SOL    HW133047   6.704   2.772   2.662
10716SOL    HW233048   6.554   2.734   2.714
10717SOL     OW33049   0.999   2.638   0.273
10717SOL    HW133050   1.048   2.598   0.196
10717SOL    HW233051   1.062   2.689   0.330
10718SOL     OW33052   1.160   4.850   5.837
10718SOL    HW133053   1.228   4.830   5.766
10718SOL    HW233054   1.204   4.892   5.916
10719SOL     OW33055   6.615   5.759   3.988
10719SOL    HW133056   6.542   5.756   4.057
10719SOL    HW233057   6.609   5.679   3.929
10720SOL     OW33058   5.788   5.491   4.483
10720SOL    HW133059   5.843   5.408   4.478
10720SOL    HW233060   5.795   5.540   4.396
10721SOL     OW33061   5.105   3.818   5.311
10721SOL    HW133062   5.130   3.722   5.295
10721SOL    HW233063   5.180   3.864   5.358
10722SOL     OW33064   0.015   3.518   6.166
10722SOL    HW133065   0.079   3.443   6.150
10722SOL    HW233066   6.989   3.503   6.253
10723SOL     OW33067   0.188   0.460   0.260
10723SOL    HW133068   0.184   0.557   0.284
10723SOL    HW233069   0.157   0.405   0.338
10724SOL     OW33070   6.917   6.665   0.232
10724SOL    HW133071   6.857   6.585   0.237
10724SOL    HW233072   6.917   6.702   0.140
10725SOL     OW33073   2.698   5.495   5.472
10725SOL    HW133074   2.760   5.420   5.495
10725SOL    HW233075   2.731   5.579   5.514
10726SOL     OW33076   5.068   1.076   3.752
10726SOL    HW133077   5.060   1.011   3.827
10726SOL    HW233078   5.099   1.028   3.670
10727SOL     OW33079   1.019   5.628   6.443
10727SOL    HW133080   1.020   5.642   6.344
10727SOL    HW233081   0.993   5.534   6.463
10728SOL     OW33082   6.471   5.394   0.518
10728SOL    HW133083   6.561   5.385   0.561
10728SOL    HW233084   6.468   5.338   0.435
10729SOL     OW33085   6.612   2.387   1.487
10729SOL    HW133086   6.566   2.454   1.428
10729SOL    HW233087   6.636   2.306   1.433
10730SOL     OW33088   3.962   0.431   1.485
10730SOL    HW133089   3.909   0.481   1.554
10730SOL    HW233090   4.041   0.388   1.529
10731SOL     OW33091   3.858   1.179   0.798
10731SOL    HW133092   3.799   1.259   0.801
10731SOL    HW233093   3.953   1.207   0.784
10732SOL     OW33094   0.077   5.227   5.213
10732SOL    HW133095   0.021   5.147   5.190
10732SOL    HW233096   0.072   5.242   5.312
10733SOL     OW33097   5.871   1.704   7.018
10733SOL    HW133098   5.877   1.624   6.957
10733SOL    HW233099   5.881   1.787   6.964
10734SOL     OW33100   0.964   1.174   1.100
10734SOL    HW133101   0.884   1.180   1.160
10734SOL    HW233102   1.017   1.258   1.108
10735SOL     OW33103   0.089   3.555   2.060
10735SOL    HW133104   0.040   3.470   2.036
10735SOL    HW233105   0.187   3.537   2.064
10736SOL     OW33106   2.374   0.064   4.251
10736SOL    HW133107   2.340   0.065   4.156
10736SOL    HW233108   2.471   0.087   4.252
10737SOL     OW33109   0.215   2.543   1.666
10737SOL    HW133110   0.229   2.445   1.652
10737SOL    HW233111   0.157   2.579   1.593
10738SOL     OW33112   3.909   6.514   2.867
10738SOL    HW133113   3.852   6.565   2.932
10738SOL    HW233114   3.935   6.575   2.791
10739SOL     OW33115   1.539   2.531   1.612
10739SOL    HW133116   1.487   2.534   1.698
10739SOL    HW233117   1.579   2.620   1.593
10740SOL     OW33118   5.429   4.802   5.147
10740SOL    HW133119   5.379   4.715   5.135
10740SOL    HW233120   5.470   4.829   5.060
10741SOL     OW33121   3.566   0.698   2.262
10741SOL    HW133122   3.570   0.793   2.232
10741SOL    HW233123   3.622   0.641   2.202
10742SOL     OW33124   5.931   5.137   1.202
10742SOL    HW133125   5.969   5.196   1.273
10742SOL    HW233126   6.001   5.073   1.169
10743SOL     OW33127   2.106   2.207   4.134
10743SOL    HW133128   2.156   2.291   4.114
10743SOL    HW233129   2.110   2.146   4.054
10744SOL     OW33130   3.426   1.855   1.290
10744SOL    HW133131   3.354   1.876   1.223
10744SOL    HW233132   3.509   1.826   1.242
10745SOL     OW33133   6.937   6.065   5.702
10745SOL    HW133134   6.854   6.110   5.671
10745SOL    HW233135   6.990   6.034   5.623
10746SOL     OW33136   1.113   3.639   5.354
10746SOL    HW133137   1.151   3.715   5.302
10746SOL    HW233138   1.088   3.671   5.446
10747SOL     OW33139   2.795   0.965   4.598
10747SOL    HW133140   2.754   0.940   4.510
10747SOL    HW233141   2.893   0.948   4.596
10748SOL     OW33142   6.013   0.990   2.280
10748SOL    HW133143   6.016   0.912   2.342
10748SOL    HW233144   6.067   0.969   2.198
10749SOL     OW33145   0.867   6.612   5.183
10749SOL    HW133146   0.813   6.528   5.179
10749SOL    HW233147   0.856   6.654   5.273
10750SOL     OW33148   3.636   0.799   5.079
10750SOL    HW133149   3.593   0.800   4.989
10750SOL    HW233150   3.729   0.834   5.072
10751SOL     OW33151   2.431   4.866   3.667
10751SOL    HW133152   2.485   4.785   3.646
10751SOL    HW233153   2.371   4.888   3.590
10752SOL     OW33154   5.174   4.989   5.068
10752SOL    HW133155   5.116   5.030   5.138
10752SOL    HW233156   5.223   5.061   5.018
10753SOL     OW33157   0.084   3.561   3.836
10753SOL    HW133158   7.021   3.593   3.878
10753SOL    HW233159   0.159   3.573   3.900
10754SOL     OW33160   0.749   0.143   2.934
10754SOL    HW133161   0.813   0.216   2.957
10754SOL    HW233162   0.796   0.073   2.880
10755SOL     OW33163   6.774   0.106   2.090
10755SOL    HW133164   6.717   0.103   2.008
10755SOL    HW233165   6.840   0.030   2.087
10756SOL     OW33166   6.716   5.667   5.273
10756SOL    HW133167   6.681   5.586   5.226
10756SOL    HW233168   6.810   5.651   5.302
10757SOL     OW33169   1.992   2.537   0.148
10757SOL    HW133170   2.090   2.544   0.165
10757SOL    HW233171   1.975   2.546   0.049
10758SOL     OW33172   0.276   6.610   3.594
10758SOL    HW133173   0.309   6.654   3.510
10758SOL    HW233174   0.346   6.547   3.628
10759SOL     OW33175   0.536   3.144   0.703
10759SOL    HW133176   0.632   3.139   0.731
10759SOL    HW233177   0.485   3.201   0.767
10760SOL     OW33178   5.800   0.863   3.723
10760SOL    HW133179   5.738   0.938   3.702
10760SOL    HW233180   5.810   0.804   3.643
10761SOL     OW33181   1.775   4.933   6.373
10761SOL    HW133182   1.779   4.932   6.273
10761SOL    HW233183   1.860   4.898   6.410
10762SOL     OW33184   2.640   0.215   4.941
10762SOL    HW133185   2.543   0.233   4.926
10762SOL    HW233186   2.686   0.299   4.970
10763SOL     OW33187   3.628   0.616   3.571
10763SOL    HW133188   3.664   0.673   3.645
10763SOL    HW233189   3.596   0.674   3.497
10764SOL     OW33190   4.696   1.326   4.516
10764SOL    HW133191   4.771   1.348   4.579
10764SOL    HW233192   4.647   1.409   4.493
10765SOL     OW33193   4.940   3.085   1.140
10765SOL    HW133194   4.952   3.159   1.207
10765SOL    HW233195   4.904   3.123   1.055
10766SOL     OW33196   3.756   4.183   0.990
10766SOL    HW133197   3.849   4.218   0.991
10766SOL    HW233198   3.734   4.150   0.898
10767SOL     OW33199   2.322   6.976   1.102
10767SOL    HW133200   2.273   0.038   1.077
10767SOL    HW233201   2.378   6.946   1.025
10768SOL     OW33202   6.649   4.893   0.876
10768SOL    HW133203   6.698   4.835   0.810
10768SOL    HW233204   6.713   4.958   0.917
10769SOL     OW33205   2.301   3.443   6.113
10769SOL    HW133206   2.371   3.452   6.184
10769SOL    HW233207   2.227   3.509   6.130
10770SOL     OW33208   4.929   5.498   2.888
10770SOL    HW133209   4.854   5.561   2.871
10770SOL    HW233210   4.903   5.433   2.959
10771SOL     OW33211   3.270   6.966   4.007
10771SOL    HW133212   3.313   6.923   4.087
10771SOL    HW233213   3.311   6.928   3.923
10772SOL     OW33214   6.668   5.407   4.141
10772SOL    HW133215   6.609   5.344   4.091
10772SOL    HW233216   6.630   5.499   4.137
10773SOL     OW33217   5.915   4.278   4.600
10773SOL    HW133218   5.979   4.346   4.566
10773SOL    HW233219   5.924   4.271   4.699
10774SOL     OW33220   1.557   1.173   3.950
10774SOL    HW133221   1.504   1.257   3.934
10774SOL    HW233222   1.565   1.158   4.048
10775SOL     OW33223   1.281   4.148   1.753
10775SOL    HW133224   1.198   4.098   1.780
10775SOL    HW233225   1.262   4.247   1.754
10776SOL     OW33226   1.980   0.974   6.133
10776SOL    HW133227   1.983   0.926   6.046
10776SOL    HW233228   2.053   1.043   6.135
10777SOL     OW33229   3.652   5.023   1.264
10777SOL    HW133230   3.611   4.972   1.340
10777SOL    HW233231   3.736   5.067   1.296
10778SOL     OW33232   5.503   6.193   4.044
10778SOL    HW133233   5.517   6.221   3.949
10778SOL    HW233234   5.435   6.120   4.048
10779SOL     OW33235   6.232   2.740   3.404
10779SOL    HW133236   6.134   2.735   3.382
10779SOL    HW233237   6.276   2.655   3.379
10780SOL     OW33238   0.984   1.090   3.380
10780SOL    HW133239   1.074   1.050   3.366
10780SOL    HW233240   0.994   1.179   3.425
10781SOL     OW33241   4.133   0.222   4.314
10781SOL    HW133242   4.117   0.135   4.266
10781SOL    HW233243   4.045   0.264   4.336
10782SOL     OW33244   6.057   6.810   4.233
10782SOL    HW133245   6.069   6.751   4.153
10782SOL    HW233246   6.101   6.768   4.312
10783SOL     OW33247   6.800   2.630   3.337
10783SOL    HW133248   6.783   2.694   3.262
10783SOL    HW233249   6.801   2.680   3.424
10784SOL     OW33250   2.657   1.204   4.186
10784SOL    HW133251   2.587   1.136   4.163
10784SOL    HW233252   2.637   1.244   4.276
10785SOL     OW33253   0.753   4.226   6.999
10785SOL    HW133254   0.823   4.164   6.963
10785SOL    HW233255   0.666   4.206   6.954
10786SOL     OW33256   6.418   5.773   2.736
10786SOL    HW133257   6.498   5.830   2.718
10786SOL    HW233258   6.411   5.754   2.834
10787SOL     OW33259   0.665   1.065   5.282
10787SOL    HW133260   0.681   1.152   5.329
10787SOL    HW233261   0.574   1.031   5.306
10788SOL     OW33262   0.552   4.124   6.848
10788SOL    HW133263   0.477   4.180   6.813
10788SOL    HW233264   0.590   4.068   6.775
10789SOL     OW33265   6.798   2.371   7.004
10789SOL    HW133266   6.880   2.400   0.031
10789SOL    HW233267   6.803   2.402   6.909
10790SOL     OW33268   0.175   6.845   1.544
10790SOL    HW133269   0.178   6.891   1.633
10790SOL    HW233270   0.229   6.762   1.547
10791SOL     OW33271   6.280   6.283   2.288
10791SOL    HW133272   6.200   6.234   2.255
10791SOL    HW233273   6.256   6.338   2.367
10792SOL     OW33274   3.975   3.738   5.456
10792SOL    HW133275   3.987   3.837   5.447
10792SOL    HW233276   4.038   3.703   5.525
10793SOL     OW33277   5.771   3.304   5.470
10793SOL    HW133278   5.707   3.244   5.518
10793SOL    HW233279   5.850   3.250   5.439
10794SOL     OW33280   3.384   3.410   4.116
10794SOL    HW133281   3.304   3.468   4.131
10794SOL    HW233282   3.432   3.396   4.202
10795SOL     OW33283   0.975   4.365   2.769
10795SOL    HW133284   0.965   4.353   2.867
10795SOL    HW233285   0.897   4.322   2.722
10796SOL     OW33286   0.720   6.380   5.102
10796SOL    HW133287   0.765   6.309   5.049
10796SOL    HW233288   0.626   6.391   5.070
10797SOL     OW33289   4.133   2.853   0.349
10797SOL    HW133290   4.187   2.825   0.429
10797SOL    HW233291   4.101   2.947   0.362
10798SOL     OW33292   1.555   1.207   1.272
10798SOL    HW133293   1.557   1.170   1.365
10798SOL    HW233294   1.599   1.143   1.209
10799SOL     OW33295   3.798   0.415   2.661
10799SOL    HW133296   3.880   0.380   2.705
10799SOL    HW233297   3.816   0.506   2.623
10800SOL     OW33298   0.982   6.459   0.294
10800SOL    HW133299   0.944   6.502   0.212
10800SOL    HW233300   0.915   6.463   0.368
10801SOL     OW33301   1.585   0.667   0.159
10801SOL    HW133302   1.670   0.621   0.135
10801SOL    HW233303   1.546   0.709   0.077
10802SOL     OW33304   6.145   6.545   3.659
10802SOL    HW133305   6.071   6.494   3.704
10802SOL    HW233306   6.105   6.614   3.598
10803SOL     OW33307   1.189   5.786   6.639
10803SOL    HW133308   1.226   5.796   6.547
10803SOL    HW233309   1.101   5.739   6.634
10804SOL     OW33310   0.384   3.411   3.948
10804SOL    HW133311   0.375   3.504   3.982
10804SOL    HW233312   0.472   3.401   3.901
10805SOL     OW33313   6.096   0.538   4.987
10805SOL    HW133314   5.997   0.549   4.998
10805SOL    HW233315   6.140   0.628   4.987
10806SOL     OW33316   2.758   4.763   6.915
10806SOL    HW133317   2.813   4.748   6.997
10806SOL    HW233318   2.693   4.837   6.931
10807SOL     OW33319   2.667   5.828   3.943
10807SOL    HW133320   2.582   5.819   3.890
10807SOL    HW233321   2.645   5.860   4.035
10808SOL     OW33322   6.695   2.148   5.977
10808SOL    HW133323   6.755   2.224   5.954
10808SOL    HW233324   6.692   2.084   5.901
10809SOL     OW33325   2.631   5.213   4.343
10809SOL    HW133326   2.562   5.284   4.358
10809SOL    HW233327   2.608   5.161   4.261
10810SOL     OW33328   0.610   0.402   4.172
10810SOL    HW133329   0.670   0.385   4.250
10810SOL    HW233330   0.657   0.458   4.105
10811SOL     OW33331   5.130   5.649   4.918
10811SOL    HW133332   5.045   5.628   4.869
10811SOL    HW233333   5.136   5.748   4.932
10812SOL     OW33334   0.368   3.319   6.718
10812SOL    HW133335   0.284   3.302   6.667
10812SOL    HW233336   0.359   3.282   6.811
10813SOL     OW33337   0.478   3.642   6.166
10813SOL    HW133338   0.523   3.570   6.114
10813SOL    HW233339   0.454   3.717   6.104
10814SOL     OW33340   2.311   0.431   0.078
10814SOL    HW133341   2.317   0.397   0.171
10814SOL    HW233342   2.403   0.439   0.039
10815SOL     OW33343   5.429   0.905   3.926
10815SOL    HW133344   5.516   0.953   3.918
10815SOL    HW233345   5.363   0.964   3.973
10816SOL     OW33346   3.477   2.891   3.890
10816SOL    HW133347   3.470   2.940   3.802
10816SOL    HW233348   3.563   2.842   3.893
10817SOL     OW33349   2.536   0.096   2.895
10817SOL    HW133350   2.582   0.177   2.858
10817SOL    HW233351   2.600   0.045   2.953
10818SOL     OW33352   4.728   5.197   6.002
10818SOL    HW133353   4.753   5.101   6.018
10818SOL    HW233354   4.691   5.207   5.910
10819SOL     OW33355   0.182   5.552   6.529
10819SOL    HW133356   0.152   5.605   6.450
10819SOL    HW233357   0.265   5.502   6.506
10820SOL     OW33358   1.573   4.901   5.751
10820SOL    HW133359   1.538   4.983   5.705
10820SOL    HW233360   1.663   4.922   5.791
10821SOL     OW33361   4.731   5.140   2.761
10821SOL    HW133362   4.749   5.162   2.665
10821SOL    HW233363   4.660   5.200   2.796
10822SOL     OW33364   5.669   2.716   0.849
10822SOL    HW133365   5.759   2.712   0.806
10822SOL    HW233366   5.613   2.784   0.802
10823SOL     OW33367   6.654   6.514   3.404
10823SOL    HW133368   6.665   6.492   3.501
10823SOL    HW233369   6.737   6.559   3.370
10824SOL     OW33370   1.277   1.273   4.557
10824SOL    HW133371   1.213   1.221   4.499
10824SOL    HW233372   1.342   1.322   4.498
10825SOL     OW33373   1.791   2.044   0.788
10825SOL    HW133374   1.832   2.003   0.706
10825SOL    HW233375   1.828   2.136   0.801
10826SOL     OW33376   1.653   2.081   2.470
10826SOL    HW133377   1.564   2.125   2.454
10826SOL    HW233378   1.726   2.139   2.435
10827SOL     OW33379   6.664   3.256   5.367
10827SOL    HW133380   6.694   3.280   5.275
10827SOL    HW233381   6.733   3.284   5.434
10828SOL     OW33382   6.503   3.854   6.439
10828SOL    HW133383   6.427   3.795   6.464
10828SOL    HW233384   6.486   3.892   6.348
10829SOL     OW33385   4.575   3.310   5.999
10829SOL    HW133386   4.646   3.366   5.957
10829SOL    HW233387   4.554   3.233   5.939
10830SOL     OW33388   4.952   1.223   3.563
10830SOL    HW133389   4.969   1.187   3.471
10830SOL    HW233390   5.006   1.171   3.629
10831SOL     OW33391   3.882   1.107   2.560
10831SOL    HW133392   3.802   1.160   2.587
10831SOL    HW233393   3.910   1.048   2.635
10832SOL     OW33394   6.615   3.344   0.499
10832SOL    HW133395   6.611   3.324   0.401
10832SOL    HW233396   6.648   3.438   0.512
10833SOL     OW33397   0.545   0.786   0.702
10833SOL    HW133398   0.543   0.876   0.745
10833SOL    HW233399   0.635   0.769   0.662
10834SOL     OW33400   6.588   6.692   0.513
10834SOL    HW133401   6.680   6.713   0.481
10834SOL    HW233402   6.523   6.758   0.475
10835SOL     OW33403   6.420   2.920   5.764
10835SOL    HW133404   6.426   2.954   5.858
10835SOL    HW233405   6.502   2.868   5.742
10836SOL     OW33406   0.373   2.196   3.543
10836SOL    HW133407   0.425   2.263   3.596
10836SOL    HW233408   0.310   2.148   3.604
10837SOL     OW33409   6.961   4.016   2.744
10837SOL    HW133410   6.977   4.020   2.645
10837SOL    HW233411   0.011   3.962   2.787
10838SOL     OW33412   5.959   5.545   3.794
10838SOL    HW133413   5.938   5.550   3.697
10838SOL    HW233414   5.952   5.637   3.834
10839SOL     OW33415   4.765   3.911   0.357
10839SOL    HW133416   4.679   3.871   0.327
10839SOL    HW233417   4.822   3.930   0.277
10840SOL     OW33418   3.091   0.428   0.802
10840SOL    HW133419   3.099   0.416   0.901
10840SOL    HW233420   2.995   0.428   0.776
10841SOL     OW33421   1.091   4.557   4.562
10841SOL    HW133422   1.115   4.563   4.659
10841SOL    HW233423   1.033   4.634   4.537
10842SOL     OW33424   4.931   4.131   0.923
10842SOL    HW133425   4.960   4.191   0.849
10842SOL    HW233426   5.005   4.120   0.989
10843SOL     OW33427   1.699   2.183   1.134
10843SOL    HW133428   1.694   2.088   1.103
10843SOL    HW233429   1.795   2.211   1.139
10844SOL     OW33430   1.073   5.438   5.015
10844SOL    HW133431   0.986   5.431   5.064
10844SOL    HW233432   1.065   5.509   4.945
10845SOL     OW33433   4.455   6.452   4.909
10845SOL    HW133434   4.466   6.353   4.919
10845SOL    HW233435   4.452   6.494   5.000
10846SOL     OW33436   5.453   6.933   0.489
10846SOL    HW133437   5.494   6.862   0.432
10846SOL    HW233438   5.358   6.910   0.508
10847SOL     OW33439   1.879   1.844   0.260
10847SOL    HW133440   1.874   1.810   0.166
10847SOL    HW233441   1.872   1.767   0.324
10848SOL     OW33442   1.837   4.642   1.116
10848SOL    HW133443   1.878   4.697   1.190
10848SOL    HW233444   1.907   4.622   1.048
10849SOL     OW33445   2.684   6.014   4.177
10849SOL    HW133446   2.765   5.980   4.224
10849SOL    HW233447   2.683   6.114   4.178
10850SOL     OW33448   3.633   6.460   0.463
10850SOL    HW133449   3.717   6.513   0.454
10850SOL    HW233450   3.635   6.383   0.399
10851SOL     OW33451   2.474   4.913   1.921
10851SOL    HW133452   2.399   4.912   1.988
10851SOL    HW233453   2.549   4.969   1.958
10852SOL     OW33454   1.853   1.774   1.216
10852SOL    HW133455   1.880   1.686   1.175
10852SOL    HW233456   1.925   1.805   1.278
10853SOL     OW33457   2.269   2.084   6.569
10853SOL    HW133458   2.311   2.084   6.478
10853SOL    HW233459   2.174   2.052   6.562
10854SOL     OW33460   4.198   6.539   5.142
10854SOL    HW133461   4.152   6.557   5.055
10854SOL    HW233462   4.218   6.442   5.150
10855SOL     OW33463   3.030   1.382   1.005
10855SOL    HW133464   2.968   1.392   1.083
10855SOL    HW233465   3.013   1.295   0.960
10856SOL     OW33466   6.839   0.784   0.040
10856SOL    HW133467   6.811   0.782   6.966
10856SOL    HW233468   6.864   0.692   0.070
10857SOL     OW33469   6.296   1.296   2.504
10857SOL    HW133470   6.203   1.259   2.510
10857SOL    HW233471   6.292   1.396   2.499
10858SOL     OW33472   2.114   5.643   1.512
10858SOL    HW133473   2.139   5.668   1.606
10858SOL    HW233474   2.156   5.708   1.449
10859SOL     OW33475   0.864   5.847   3.928
10859SOL    HW133476   0.959   5.822   3.905
10859SOL    HW233477   0.859   5.872   4.025
10860SOL     OW33478   0.016   2.659   2.742
10860SOL    HW133479   7.018   2.698   2.832
10860SOL    HW233480   0.088   2.590   2.751
10861SOL     OW33481   3.549   2.907   4.579
10861SOL    HW133482   3.642   2.909   4.544
10861SOL    HW233483   3.485   2.891   4.503
10862SOL     OW33484   1.352   0.000   4.920
10862SOL    HW133485   1.319   6.928   4.906
10862SOL    HW233486   1.390   0.035   4.834
10863SOL     OW33487   3.218   5.860   4.812
10863SOL    HW133488   3.282   5.787   4.788
10863SOL    HW233489   3.172   5.893   4.730
10864SOL     OW33490   3.514   6.175   2.617
10864SOL    HW133491   3.592   6.193   2.677
10864SOL    HW233492   3.461   6.259   2.605
10865SOL     OW33493   6.459   1.893   6.243
10865SOL    HW133494   6.525   1.967   6.233
10865SOL    HW233495   6.494   1.811   6.197
10866SOL     OW33496   5.573   4.699   0.256
10866SOL    HW133497   5.567   4.725   0.160
10866SOL    HW233498   5.522   4.764   0.312
10867SOL     OW33499   3.100   3.434   0.650
10867SOL    HW133500   3.073   3.341   0.675
10867SOL    HW233501   3.190   3.431   0.606
10868SOL     OW33502   3.171   1.664   3.171
10868SOL    HW133503   3.163   1.675   3.270
10868SOL    HW233504   3.103   1.722   3.125
10869NA      NA33505   6.056   2.128   5.426
10870NA      NA33506   4.429   4.659   5.166
10871NA      NA33507   2.256   3.685   1.365
10872NA      NA33508   4.873   3.818   5.219
10873NA      NA33509   4.206   2.279   5.221
10874NA      NA33510   3.783   4.564   1.496
10875NA      NA33511   6.627   5.793   5.448
10876NA      NA33512   3.908   3.635   5.257
10877NA      NA33513   4.765   6.596   6.762
10878NA      NA33514   3.554   0.052   5.615
10879NA      NA33515   6.553   4.691   2.191
10880NA      NA33516   2.244   0.453   3.201
10881NA      NA33517   3.164   4.717   1.160
10882NA      NA33518   3.420   3.535   2.719
   7.02183   7.02183   7.02183
