Generated by trjconv : CNT in water t= 145.00000
33518
    1C        C    1   2.845   2.771   4.747
    1C        C    2   2.897   2.718   4.867
    1C        C    3   2.844   2.774   4.984
    1C        C    4   2.848   2.771   4.260
    1C        C    5   2.896   2.721   4.383
    1C        C    6   2.845   2.771   4.505
    1C        C    7   3.012   2.638   4.625
    1C        C    8   2.896   2.719   4.626
    1C        C    9   3.076   2.602   4.745
    1C        C   10   3.010   2.633   4.866
    1C        C   11   3.181   2.490   4.973
    1C        C   12   3.063   2.565   4.977
    1C        C   13   2.849   2.769   3.773
    1C        C   14   2.899   2.719   3.895
    1C        C   15   2.845   2.768   4.016
    1C        C   16   3.017   2.646   4.140
    1C        C   17   2.898   2.721   4.138
    1C        C   18   3.080   2.610   4.262
    1C        C   19   3.016   2.646   4.383
    1C        C   20   3.207   2.550   4.502
    1C        C   21   3.077   2.607   4.504
    1C        C   22   3.276   2.533   4.623
    1C        C   23   3.207   2.546   4.746
    1C        C   24   3.415   2.481   4.863
    1C        C   25   3.273   2.502   4.864
    1C        C   26   3.489   2.478   4.982
    1C        C   27   2.854   2.770   3.282
    1C        C   28   2.907   2.726   3.406
    1C        C   29   2.856   2.776   3.528
    1C        C   30   3.020   2.643   3.651
    1C        C   31   2.904   2.724   3.651
    1C        C   32   3.078   2.603   3.773
    1C        C   33   3.014   2.637   3.894
    1C        C   34   3.206   2.552   4.019
    1C        C   35   3.075   2.605   4.018
    1C        C   36   3.277   2.527   4.138
    1C        C   37   3.211   2.558   4.259
    1C        C   38   3.417   2.510   4.383
    1C        C   39   3.277   2.530   4.381
    1C        C   40   3.488   2.497   4.504
    1C        C   41   3.414   2.504   4.624
    1C        C   42   3.631   2.485   4.743
    1C        C   43   3.489   2.485   4.742
    1C        C   44   3.705   2.485   4.863
    1C        C   45   3.628   2.476   4.980
    1C        C   46   2.842   2.754   2.795
    1C        C   47   2.896   2.712   2.919
    1C        C   48   2.847   2.764   3.040
    1C        C   49   3.021   2.638   3.162
    1C        C   50   2.904   2.718   3.161
    1C        C   51   3.081   2.604   3.285
    1C        C   52   3.018   2.639   3.406
    1C        C   53   3.210   2.551   3.527
    1C        C   54   3.080   2.606   3.528
    1C        C   55   3.276   2.527   3.650
    1C        C   56   3.208   2.547   3.772
    1C        C   57   3.413   2.508   3.896
    1C        C   58   3.273   2.530   3.896
    1C        C   59   3.486   2.503   4.016
    1C        C   60   3.417   2.509   4.139
    1C        C   61   3.630   2.501   4.260
    1C        C   62   3.489   2.505   4.261
    1C        C   63   3.703   2.506   4.380
    1C        C   64   3.630   2.500   4.500
    1C        C   65   3.836   2.547   4.622
    1C        C   66   3.701   2.505   4.622
    1C        C   67   3.905   2.561   4.744
    1C        C   68   3.842   2.519   4.863
    1C        C   69   4.053   2.587   4.976
    1C        C   70   3.923   2.535   4.976
    1C        C   71   2.826   2.736   2.310
    1C        C   72   2.886   2.695   2.431
    1C        C   73   2.833   2.746   2.552
    1C        C   74   3.008   2.623   2.673
    1C        C   75   2.890   2.701   2.674
    1C        C   76   3.074   2.594   2.795
    1C        C   77   3.016   2.637   2.916
    1C        C   78   3.210   2.549   3.037
    1C        C   79   3.079   2.602   3.038
    1C        C   80   3.276   2.529   3.160
    1C        C   81   3.211   2.547   3.284
    1C        C   82   3.418   2.503   3.404
    1C        C   83   3.278   2.525   3.406
    1C        C   84   3.486   2.495   3.528
    1C        C   85   3.414   2.500   3.649
    1C        C   86   3.624   2.499   3.771
    1C        C   87   3.482   2.497   3.773
    1C        C   88   3.696   2.509   3.892
    1C        C   89   3.628   2.506   4.015
    1C        C   90   3.835   2.552   4.135
    1C        C   91   3.699   2.512   4.137
    1C        C   92   3.903   2.573   4.256
    1C        C   93   3.839   2.547   4.379
    1C        C   94   4.031   2.635   4.498
    1C        C   95   3.905   2.571   4.501
    1C        C   96   4.095   2.668   4.620
    1C        C   97   4.034   2.622   4.739
    1C        C   98   4.200   2.758   4.861
    1C        C   99   4.103   2.652   4.859
    1C        C  100   4.218   2.841   4.972
    1C        C  101   2.820   2.726   2.071
    1C        C  102   2.991   2.594   2.189
    1C        C  103   2.878   2.681   2.190
    1C        C  104   3.063   2.573   2.310
    1C        C  105   3.003   2.616   2.430
    1C        C  106   3.199   2.531   2.551
    1C        C  107   3.069   2.586   2.552
    1C        C  108   3.273   2.519   2.671
    1C        C  109   3.205   2.540   2.793
    1C        C  110   3.413   2.496   2.915
    1C        C  111   3.274   2.522   2.915
    1C        C  112   3.484   2.488   3.036
    1C        C  113   3.415   2.503   3.158
    1C        C  114   3.627   2.497   3.280
    1C        C  115   3.486   2.498   3.280
    1C        C  116   3.695   2.506   3.403
    1C        C  117   3.627   2.497   3.527
    1C        C  118   3.833   2.541   3.646
    1C        C  119   3.697   2.505   3.650
    1C        C  120   3.900   2.568   3.768
    1C        C  121   3.833   2.543   3.890
    1C        C  122   4.023   2.639   4.011
    1C        C  123   3.901   2.569   4.011
    1C        C  124   4.086   2.677   4.131
    1C        C  125   4.029   2.639   4.255
    1C        C  126   4.199   2.765   4.375
    1C        C  127   4.090   2.676   4.376
    1C        C  128   4.249   2.815   4.498
    1C        C  129   4.198   2.765   4.619
    1C        C  130   4.327   2.935   4.738
    1C        C  131   4.249   2.815   4.741
    1C        C  132   4.356   3.005   4.857
    1C        C  133   4.286   2.962   4.970
    1C        C  134   3.172   2.466   2.083
    1C        C  135   3.039   2.507   2.086
    1C        C  136   3.262   2.484   2.188
    1C        C  137   3.197   2.524   2.307
    1C        C  138   3.404   2.483   2.427
    1C        C  139   3.264   2.503   2.429
    1C        C  140   3.479   2.483   2.547
    1C        C  141   3.412   2.496   2.671
    1C        C  142   3.626   2.491   2.791
    1C        C  143   3.485   2.491   2.793
    1C        C  144   3.695   2.502   2.914
    1C        C  145   3.626   2.487   3.036
    1C        C  146   3.835   2.532   3.157
    1C        C  147   3.698   2.498   3.157
    1C        C  148   3.900   2.559   3.279
    1C        C  149   3.832   2.539   3.402
    1C        C  150   4.025   2.627   3.523
    1C        C  151   3.900   2.561   3.523
    1C        C  152   4.087   2.666   3.644
    1C        C  153   4.026   2.631   3.767
    1C        C  154   4.196   2.762   3.887
    1C        C  155   4.083   2.677   3.888
    1C        C  156   4.250   2.810   4.008
    1C        C  157   4.198   2.764   4.131
    1C        C  158   4.340   2.921   4.251
    1C        C  159   4.252   2.811   4.253
    1C        C  160   4.380   2.981   4.373
    1C        C  161   4.335   2.927   4.495
    1C        C  162   4.439   3.114   4.616
    1C        C  163   4.372   2.990   4.616
    1C        C  164   4.471   3.184   4.735
    1C        C  165   4.435   3.122   4.856
    1C        C  166   4.511   3.322   4.971
    1C        C  167   4.478   3.187   4.973
    1C        C  168   3.477   2.437   2.071
    1C        C  169   3.401   2.457   2.187
    1C        C  170   3.618   2.471   2.303
    1C        C  171   3.475   2.465   2.307
    1C        C  172   3.691   2.491   2.422
    1C        C  173   3.620   2.492   2.544
    1C        C  174   3.827   2.537   2.666
    1C        C  175   3.691   2.499   2.666
    1C        C  176   3.894   2.562   2.788
    1C        C  177   3.831   2.541   2.912
    1C        C  178   4.026   2.624   3.032
    1C        C  179   3.899   2.562   3.034
    1C        C  180   4.086   2.659   3.155
    1C        C  181   4.024   2.626   3.277
    1C        C  182   4.194   2.752   3.398
    1C        C  183   4.084   2.664   3.400
    1C        C  184   4.246   2.803   3.519
    1C        C  185   4.195   2.757   3.643
    1C        C  186   4.337   2.916   3.762
    1C        C  187   4.247   2.808   3.764
    1C        C  188   4.379   2.976   3.883
    1C        C  189   4.341   2.918   4.006
    1C        C  190   4.446   3.103   4.126
    1C        C  191   4.379   2.979   4.128
    1C        C  192   4.469   3.171   4.248
    1C        C  193   4.443   3.107   4.371
    1C        C  194   4.506   3.312   4.490
    1C        C  195   4.468   3.176   4.492
    1C        C  196   4.524   3.385   4.610
    1C        C  197   4.514   3.319   4.735
    1C        C  198   4.556   3.536   4.851
    1C        C  199   4.536   3.395   4.854
    1C        C  200   4.583   3.619   4.965
    1C        C  201   3.616   2.420   2.069
    1C        C  202   3.827   2.512   2.181
    1C        C  203   3.691   2.466   2.182
    1C        C  204   3.896   2.547   2.300
    1C        C  205   3.828   2.526   2.422
    1C        C  206   4.017   2.625   2.542
    1C        C  207   3.894   2.556   2.543
    1C        C  208   4.082   2.659   2.663
    1C        C  209   4.020   2.627   2.786
    1C        C  210   4.198   2.742   2.907
    1C        C  211   4.084   2.659   2.908
    1C        C  212   4.245   2.797   3.029
    1C        C  213   4.196   2.748   3.152
    1C        C  214   4.337   2.905   3.271
    1C        C  215   4.245   2.798   3.274
    1C        C  216   4.372   2.968   3.392
    1C        C  217   4.331   2.915   3.517
    1C        C  218   4.434   3.101   3.637
    1C        C  219   4.375   2.973   3.638
    1C        C  220   4.461   3.169   3.758
    1C        C  221   4.439   3.104   3.882
    1C        C  222   4.504   3.307   4.000
    1C        C  223   4.468   3.170   4.003
    1C        C  224   4.516   3.377   4.122
    1C        C  225   4.501   3.309   4.245
    1C        C  226   4.509   3.521   4.366
    1C        C  227   4.513   3.380   4.367
    1C        C  228   4.505   3.593   4.487
    1C        C  229   4.525   3.526   4.610
    1C        C  230   4.502   3.742   4.727
    1C        C  231   4.536   3.604   4.727
    1C        C  232   4.487   3.816   4.846
    1C        C  233   4.544   3.754   4.958
    1C        C  234   4.021   2.607   2.059
    1C        C  235   3.896   2.546   2.064
    1C        C  236   4.084   2.648   2.178
    1C        C  237   4.023   2.612   2.300
    1C        C  238   4.201   2.733   2.420
    1C        C  239   4.082   2.654   2.420
    1C        C  240   4.253   2.784   2.541
    1C        C  241   4.194   2.744   2.663
    1C        C  242   4.336   2.901   2.784
    1C        C  243   4.250   2.789   2.785
    1C        C  244   4.375   2.964   2.905
    1C        C  245   4.331   2.909   3.027
    1C        C  246   4.441   3.091   3.149
    1C        C  247   4.374   2.966   3.149
    1C        C  248   4.462   3.159   3.271
    1C        C  249   4.429   3.098   3.394
    1C        C  250   4.497   3.302   3.511
    1C        C  251   4.458   3.166   3.514
    1C        C  252   4.508   3.373   3.632
    1C        C  253   4.497   3.305   3.756
    1C        C  254   4.523   3.517   3.877
    1C        C  255   4.516   3.375   3.877
    1C        C  256   4.518   3.587   4.000
    1C        C  257   4.521   3.518   4.123
    1C        C  258   4.487   3.731   4.243
    1C        C  259   4.510   3.591   4.243
    1C        C  260   4.468   3.803   4.364
    1C        C  261   4.483   3.733   4.485
    1C        C  262   4.422   3.939   4.604
    1C        C  263   4.471   3.806   4.605
    1C        C  264   4.394   4.008   4.724
    1C        C  265   4.430   3.946   4.846
    1C        C  266   4.315   4.129   4.962
    1C        C  267   4.393   4.014   4.962
    1C        C  268   4.268   2.773   2.062
    1C        C  269   4.195   2.734   2.175
    1C        C  270   4.344   2.886   2.298
    1C        C  271   4.254   2.775   2.297
    1C        C  272   4.381   2.951   2.418
    1C        C  273   4.343   2.893   2.541
    1C        C  274   4.447   3.080   2.662
    1C        C  275   4.380   2.956   2.662
    1C        C  276   4.470   3.151   2.782
    1C        C  277   4.443   3.088   2.906
    1C        C  278   4.507   3.292   3.024
    1C        C  279   4.468   3.156   3.027
    1C        C  280   4.513   3.365   3.145
    1C        C  281   4.493   3.297   3.267
    1C        C  282   4.512   3.511   3.391
    1C        C  283   4.505   3.370   3.387
    1C        C  284   4.510   3.583   3.512
    1C        C  285   4.516   3.514   3.636
    1C        C  286   4.489   3.726   3.753
    1C        C  287   4.518   3.588   3.756
    1C        C  288   4.474   3.794   3.876
    1C        C  289   4.498   3.727   3.998
    1C        C  290   4.422   3.927   4.118
    1C        C  291   4.476   3.797   4.119
    1C        C  292   4.394   3.997   4.237
    1C        C  293   4.424   3.937   4.362
    1C        C  294   4.323   4.127   4.478
    1C        C  295   4.393   4.004   4.482
    1C        C  296   4.280   4.185   4.599
    1C        C  297   4.321   4.130   4.723
    1C        C  298   4.199   4.313   4.837
    1C        C  299   4.280   4.194   4.843
    1C        C  300   4.170   4.403   4.944
    1C        C  301   4.359   2.878   2.061
    1C        C  302   4.470   3.065   2.179
    1C        C  303   4.398   2.942   2.179
    1C        C  304   4.479   3.143   2.298
    1C        C  305   4.449   3.075   2.418
    1C        C  306   4.513   3.279   2.538
    1C        C  307   4.477   3.143   2.539
    1C        C  308   4.519   3.355   2.657
    1C        C  309   4.507   3.287   2.780
    1C        C  310   4.527   3.500   2.897
    1C        C  311   4.522   3.359   2.901
    1C        C  312   4.519   3.572   3.019
    1C        C  313   4.518   3.506   3.144
    1C        C  314   4.483   3.716   3.265
    1C        C  315   4.512   3.577   3.266
    1C        C  316   4.468   3.787   3.386
    1C        C  317   4.489   3.723   3.510
    1C        C  318   4.422   3.926   3.629
    1C        C  319   4.475   3.795   3.630
    1C        C  320   4.388   3.987   3.751
    1C        C  321   4.419   3.924   3.874
    1C        C  322   4.317   4.111   3.990
    1C        C  323   4.391   3.991   3.995
    1C        C  324   4.278   4.173   4.111
    1C        C  325   4.323   4.119   4.233
    1C        C  326   4.189   4.286   4.353
    1C        C  327   4.283   4.181   4.354
    1C        C  328   4.138   4.341   4.473
    1C        C  329   4.189   4.293   4.596
    1C        C  330   4.026   4.436   4.713
    1C        C  331   4.143   4.355   4.714
    1C        C  332   3.969   4.490   4.830
    1C        C  333   4.052   4.478   4.943
    1C        C  334   4.546   3.265   2.063
    1C        C  335   4.539   3.125   2.068
    1C        C  336   4.540   3.350   2.174
    1C        C  337   4.515   3.281   2.295
    1C        C  338   4.524   3.492   2.412
    1C        C  339   4.527   3.351   2.417
    1C        C  340   4.520   3.565   2.532
    1C        C  341   4.526   3.496   2.655
    1C        C  342   4.497   3.709   2.774
    1C        C  343   4.526   3.571   2.775
    1C        C  344   4.478   3.781   2.894
    1C        C  345   4.493   3.711   3.016
    1C        C  346   4.420   3.910   3.140
    1C        C  347   4.468   3.777   3.138
    1C        C  348   4.385   3.976   3.260
    1C        C  349   4.417   3.919   3.385
    1C        C  350   4.319   4.109   3.502
    1C        C  351   4.390   3.987   3.506
    1C        C  352   4.274   4.166   3.623
    1C        C  353   4.311   4.106   3.745
    1C        C  354   4.177   4.269   3.867
    1C        C  355   4.274   4.166   3.867
    1C        C  356   4.125   4.320   3.988
    1C        C  357   4.179   4.274   4.110
    1C        C  358   4.014   4.407   4.230
    1C        C  359   4.130   4.326   4.231
    1C        C  360   3.956   4.452   4.351
    1C        C  361   4.021   4.420   4.472
    1C        C  362   3.829   4.518   4.591
    1C        C  363   3.957   4.458   4.592
    1C        C  364   3.762   4.544   4.713
    1C        C  365   3.837   4.540   4.832
    1C        C  366   3.628   4.583   4.950
    1C        C  367   3.766   4.569   4.949
    1C        C  368   4.511   3.561   2.051
    1C        C  369   4.526   3.490   2.171
    1C        C  370   4.502   3.705   2.288
    1C        C  371   4.522   3.565   2.291
    1C        C  372   4.487   3.776   2.409
    1C        C  373   4.501   3.705   2.530
    1C        C  374   4.424   3.907   2.650
    1C        C  375   4.474   3.775   2.651
    1C        C  376   4.383   3.966   2.771
    1C        C  377   4.421   3.910   2.896
    1C        C  378   4.319   4.095   3.012
    1C        C  379   4.395   3.976   3.018
    1C        C  380   4.274   4.155   3.131
    1C        C  381   4.314   4.098   3.254
    1C        C  382   4.174   4.256   3.377
    1C        C  383   4.274   4.156   3.377
    1C        C  384   4.119   4.305   3.498
    1C        C  385   4.170   4.262   3.622
    1C        C  386   4.005   4.394   3.744
    1C        C  387   4.121   4.313   3.745
    1C        C  388   3.942   4.428   3.865
    1C        C  389   4.007   4.398   3.987
    1C        C  390   3.819   4.495   4.109
    1C        C  391   3.951   4.444   4.109
    1C        C  392   3.754   4.526   4.230
    1C        C  393   3.827   4.510   4.350
    1C        C  394   3.620   4.558   4.472
    1C        C  395   3.760   4.539   4.470
    1C        C  396   3.548   4.568   4.594
    1C        C  397   3.622   4.563   4.714
    1C        C  398   3.409   4.554   4.840
    1C        C  399   3.548   4.575   4.835
    1C        C  400   3.342   4.510   4.955
    1C        C  401   4.506   3.700   2.053
    1C        C  402   4.448   3.912   2.170
    1C        C  403   4.495   3.779   2.168
    1C        C  404   4.411   3.977   2.289
    1C        C  405   4.439   3.909   2.410
    1C        C  406   4.319   4.091   2.526
    1C        C  407   4.396   3.973   2.528
    1C        C  408   4.271   4.144   2.648
    1C        C  409   4.312   4.088   2.771
    1C        C  410   4.171   4.249   2.890
    1C        C  411   4.273   4.151   2.891
    1C        C  412   4.119   4.298   3.011
    1C        C  413   4.174   4.255   3.134
    1C        C  414   4.003   4.384   3.253
    1C        C  415   4.117   4.300   3.256
    1C        C  416   3.945   4.421   3.376
    1C        C  417   4.004   4.387   3.500
    1C        C  418   3.813   4.481   3.620
    1C        C  419   3.944   4.428   3.621
    1C        C  420   3.746   4.510   3.741
    1C        C  421   3.813   4.486   3.863
    1C        C  422   3.611   4.538   3.986
    1C        C  423   3.749   4.509   3.987
    1C        C  424   3.542   4.550   4.109
    1C        C  425   3.615   4.551   4.230
    1C        C  426   3.405   4.554   4.357
    1C        C  427   3.546   4.567   4.352
    1C        C  428   3.333   4.549   4.478
    1C        C  429   3.407   4.561   4.598
    1C        C  430   3.197   4.521   4.721
    1C        C  431   3.335   4.552   4.719
    1C        C  432   3.127   4.494   4.843
    1C        C  433   3.205   4.487   4.959
    1C        C  434   4.382   4.121   2.053
    1C        C  435   4.444   3.996   2.057
    1C        C  436   4.306   4.167   2.165
    1C        C  437   4.338   4.099   2.286
    1C        C  438   4.179   4.250   2.400
    1C        C  439   4.277   4.149   2.404
    1C        C  440   4.125   4.296   2.522
    1C        C  441   4.173   4.245   2.645
    1C        C  442   4.005   4.378   2.763
    1C        C  443   4.116   4.290   2.766
    1C        C  444   3.945   4.418   2.885
    1C        C  445   4.001   4.375   3.007
    1C        C  446   3.814   4.475   3.132
    1C        C  447   3.942   4.414   3.130
    1C        C  448   3.746   4.497   3.254
    1C        C  449   3.815   4.477   3.376
    1C        C  450   3.609   4.535   3.494
    1C        C  451   3.747   4.502   3.497
    1C        C  452   3.540   4.543   3.617
    1C        C  453   3.608   4.540   3.741
    1C        C  454   3.398   4.545   3.867
    1C        C  455   3.540   4.549   3.865
    1C        C  456   3.330   4.532   3.990
    1C        C  457   3.401   4.540   4.112
    1C        C  458   3.197   4.501   4.237
    1C        C  459   3.334   4.536   4.236
    1C        C  460   3.132   4.477   4.361
    1C        C  461   3.197   4.511   4.481
    1C        C  462   3.000   4.428   4.607
    1C        C  463   3.127   4.491   4.602
    1C        C  464   2.935   4.397   4.728
    1C        C  465   2.993   4.446   4.849
    1C        C  466   2.805   4.341   4.962
    1C        C  467   2.906   4.438   4.963
    1C        C  468   4.126   4.291   2.042
    1C        C  469   4.190   4.250   2.159
    1C        C  470   4.009   4.377   2.280
    1C        C  471   4.127   4.297   2.278
    1C        C  472   3.943   4.409   2.401
    1C        C  473   4.010   4.378   2.521
    1C        C  474   3.816   4.472   2.643
    1C        C  475   3.945   4.415   2.641
    1C        C  476   3.746   4.494   2.764
    1C        C  477   3.816   4.475   2.885
    1C        C  478   3.611   4.521   3.008
    1C        C  479   3.750   4.497   3.008
    1C        C  480   3.537   4.528   3.128
    1C        C  481   3.607   4.520   3.250
    1C        C  482   3.397   4.532   3.377
    1C        C  483   3.538   4.537   3.373
    1C        C  484   3.329   4.522   3.500
    1C        C  485   3.399   4.537   3.622
    1C        C  486   3.193   4.496   3.745
    1C        C  487   3.329   4.535   3.744
    1C        C  488   3.131   4.470   3.869
    1C        C  489   3.193   4.498   3.993
    1C        C  490   3.005   4.410   4.117
    1C        C  491   3.128   4.477   4.117
    1C        C  492   2.946   4.376   4.240
    1C        C  493   3.004   4.418   4.362
    1C        C  494   2.834   4.296   4.484
    1C        C  495   2.946   4.382   4.485
    1C        C  496   2.775   4.255   4.606
    1C        C  497   2.822   4.311   4.727
    1C        C  498   2.671   4.164   4.849
    1C        C  499   2.757   4.276   4.847
    1C        C  500   2.594   4.119   4.957
    1C        C  501   4.003   4.357   2.039
    1C        C  502   3.819   4.466   2.156
    1C        C  503   3.948   4.408   2.157
    1C        C  504   3.748   4.487   2.276
    1C        C  505   3.811   4.459   2.399
    1C        C  506   3.608   4.514   2.519
    1C        C  507   3.747   4.491   2.521
    1C        C  508   3.536   4.517   2.640
    1C        C  509   3.606   4.516   2.763
    1C        C  510   3.397   4.524   2.887
    1C        C  511   3.538   4.525   2.886
    1C        C  512   3.324   4.522   3.008
    1C        C  513   3.396   4.528   3.130
    1C        C  514   3.190   4.490   3.257
    1C        C  515   3.327   4.522   3.254
    1C        C  516   3.124   4.467   3.380
    1C        C  517   3.190   4.495   3.502
    1C        C  518   3.002   4.401   3.625
    1C        C  519   3.122   4.475   3.624
    1C        C  520   2.945   4.366   3.750
    1C        C  521   3.003   4.410   3.871
    1C        C  522   2.841   4.277   3.996
    1C        C  523   2.949   4.367   3.994
    1C        C  524   2.787   4.233   4.119
    1C        C  525   2.837   4.285   4.240
    1C        C  526   2.692   4.134   4.368
    1C        C  527   2.784   4.241   4.364
    1C        C  528   2.652   4.076   4.490
    1C        C  529   2.692   4.141   4.609
    1C        C  530   2.588   3.959   4.732
    1C        C  531   2.646   4.089   4.732
    1C        C  532   2.544   3.901   4.854
    1C        C  533   2.531   3.994   4.962
    1C        C  534   3.625   4.567   2.044
    1C        C  535   3.757   4.519   2.042
    1C        C  536   3.538   4.535   2.153
    1C        C  537   3.608   4.513   2.275
    1C        C  538   3.396   4.517   2.396
    1C        C  539   3.537   4.524   2.397
    1C        C  540   3.326   4.510   2.519
    1C        C  541   3.395   4.517   2.642
    1C        C  542   3.188   4.483   2.764
    1C        C  543   3.326   4.516   2.766
    1C        C  544   3.122   4.461   2.888
    1C        C  545   3.188   4.484   3.011
    1C        C  546   2.997   4.402   3.131
    1C        C  547   3.124   4.464   3.135
    1C        C  548   2.946   4.360   3.256
    1C        C  549   3.000   4.399   3.381
    1C        C  550   2.834   4.271   3.506
    1C        C  551   2.940   4.365   3.504
    1C        C  552   2.781   4.228   3.629
    1C        C  553   2.832   4.282   3.749
    1C        C  554   2.697   4.122   3.876
    1C        C  555   2.786   4.232   3.873
    1C        C  556   2.655   4.067   3.999
    1C        C  557   2.692   4.128   4.121
    1C        C  558   2.594   3.946   4.246
    1C        C  559   2.654   4.074   4.246
    1C        C  560   2.567   3.881   4.369
    1C        C  561   2.591   3.949   4.491
    1C        C  562   2.526   3.749   4.617
    1C        C  563   2.560   3.886   4.614
    1C        C  564   2.515   3.680   4.740
    1C        C  565   2.518   3.761   4.857
    1C        C  566   2.522   3.547   4.976
    1C        C  567   2.525   3.686   4.976
    1C        C  568   3.330   4.467   2.039
    1C        C  569   3.398   4.508   2.154
    1C        C  570   3.186   4.469   2.279
    1C        C  571   3.324   4.506   2.275
    1C        C  572   3.122   4.446   2.403
    1C        C  573   3.189   4.479   2.523
    1C        C  574   2.991   4.398   2.647
    1C        C  575   3.119   4.458   2.644
    1C        C  576   2.935   4.352   2.769
    1C        C  577   2.999   4.392   2.888
    1C        C  578   2.830   4.267   3.015
    1C        C  579   2.938   4.358   3.011
    1C        C  580   2.781   4.219   3.139
    1C        C  581   2.839   4.268   3.258
    1C        C  582   2.701   4.110   3.384
    1C        C  583   2.790   4.221   3.381
    1C        C  584   2.663   4.053   3.508
    1C        C  585   2.696   4.115   3.631
    1C        C  586   2.586   3.939   3.755
    1C        C  587   2.653   4.063   3.755
    1C        C  588   2.566   3.874   3.879
    1C        C  589   2.598   3.938   4.001
    1C        C  590   2.538   3.739   4.127
    1C        C  591   2.575   3.875   4.125
    1C        C  592   2.519   3.676   4.251
    1C        C  593   2.533   3.744   4.374
    1C        C  594   2.512   3.535   4.498
    1C        C  595   2.516   3.676   4.497
    1C        C  596   2.514   3.463   4.620
    1C        C  597   2.517   3.538   4.740
    1C        C  598   2.531   3.326   4.863
    1C        C  599   2.521   3.466   4.861
    1C        C  600   2.529   3.247   4.979
    1C        C  601   3.197   4.431   2.041
    1C        C  602   2.985   4.387   2.161
    1C        C  603   3.120   4.436   2.158
    1C        C  604   2.928   4.352   2.286
    1C        C  605   2.994   4.386   2.406
    1C        C  606   2.820   4.266   2.529
    1C        C  607   2.930   4.356   2.528
    1C        C  608   2.769   4.217   2.651
    1C        C  609   2.827   4.261   2.772
    1C        C  610   2.684   4.109   2.896
    1C        C  611   2.776   4.216   2.895
    1C        C  612   2.650   4.051   3.020
    1C        C  613   2.694   4.107   3.142
    1C        C  614   2.587   3.927   3.265
    1C        C  615   2.654   4.051   3.265
    1C        C  616   2.559   3.866   3.390
    1C        C  617   2.592   3.931   3.511
    1C        C  618   2.522   3.734   3.638
    1C        C  619   2.560   3.870   3.634
    1C        C  620   2.509   3.667   3.762
    1C        C  621   2.529   3.738   3.882
    1C        C  622   2.508   3.528   4.010
    1C        C  623   2.522   3.669   4.005
    1C        C  624   2.509   3.460   4.134
    1C        C  625   2.505   3.535   4.253
    1C        C  626   2.542   3.327   4.381
    1C        C  627   2.512   3.465   4.376
    1C        C  628   2.558   3.255   4.502
    1C        C  629   2.534   3.323   4.624
    1C        C  630   2.593   3.117   4.742
    1C        C  631   2.545   3.251   4.744
    1C        C  632   2.618   3.051   4.865
    1C        C  633   2.562   3.111   4.983
    1C        C  634   2.787   4.294   2.053
    1C        C  635   2.892   4.387   2.052
    1C        C  636   2.749   4.228   2.170
    1C        C  637   2.806   4.278   2.289
    1C        C  638   2.670   4.112   2.411
    1C        C  639   2.761   4.220   2.410
    1C        C  640   2.631   4.050   2.532
    1C        C  641   2.679   4.108   2.652
    1C        C  642   2.579   3.922   2.776
    1C        C  643   2.647   4.046   2.774
    1C        C  644   2.557   3.857   2.900
    1C        C  645   2.588   3.924   3.021
    1C        C  646   2.526   3.723   3.148
    1C        C  647   2.562   3.859   3.144
    1C        C  648   2.516   3.655   3.271
    1C        C  649   2.524   3.729   3.391
    1C        C  650   2.510   3.523   3.521
    1C        C  651   2.516   3.664   3.516
    1C        C  652   2.514   3.454   3.644
    1C        C  653   2.504   3.525   3.766
    1C        C  654   2.537   3.317   3.892
    1C        C  655   2.509   3.456   3.889
    1C        C  656   2.556   3.251   4.015
    1C        C  657   2.538   3.322   4.136
    1C        C  658   2.612   3.125   4.259
    1C        C  659   2.561   3.257   4.260
    1C        C  660   2.642   3.058   4.380
    1C        C  661   2.605   3.122   4.500
    1C        C  662   2.707   2.936   4.625
    1C        C  663   2.627   3.052   4.621
    1C        C  664   2.752   2.879   4.746
    1C        C  665   2.697   2.931   4.866
    1C        C  666   2.742   2.867   4.982
    1C        C  667   2.686   4.021   2.057
    1C        C  668   2.677   4.107   2.167
    1C        C  669   2.588   3.914   2.292
    1C        C  670   2.639   4.047   2.289
    1C        C  671   2.552   3.850   2.413
    1C        C  672   2.574   3.921   2.534
    1C        C  673   2.510   3.719   2.658
    1C        C  674   2.548   3.855   2.656
    1C        C  675   2.506   3.650   2.782
    1C        C  676   2.520   3.721   2.903
    1C        C  677   2.499   3.512   3.032
    1C        C  678   2.506   3.653   3.026
    1C        C  679   2.499   3.441   3.154
    1C        C  680   2.503   3.514   3.275
    1C        C  681   2.532   3.310   3.403
    1C        C  682   2.507   3.449   3.400
    1C        C  683   2.552   3.244   3.526
    1C        C  684   2.536   3.314   3.648
    1C        C  685   2.608   3.116   3.770
    1C        C  686   2.556   3.247   3.770
    1C        C  687   2.639   3.056   3.894
    1C        C  688   2.609   3.120   4.016
    1C        C  689   2.718   2.939   4.139
    1C        C  690   2.643   3.059   4.139
    1C        C  691   2.753   2.876   4.261
    1C        C  692   2.716   2.938   4.382
    1C        C  693   2.753   2.878   4.504
    1C        C  694   2.624   3.895   2.060
    1C        C  695   2.523   3.703   2.176
    1C        C  696   2.574   3.835   2.176
    1C        C  697   2.504   3.638   2.300
    1C        C  698   2.515   3.714   2.419
    1C        C  699   2.486   3.502   2.544
    1C        C  700   2.497   3.643   2.539
    1C        C  701   2.502   3.436   2.668
    1C        C  702   2.501   3.509   2.789
    1C        C  703   2.532   3.301   2.912
    1C        C  704   2.503   3.439   2.911
    1C        C  705   2.549   3.235   3.036
    1C        C  706   2.529   3.303   3.158
    1C        C  707   2.601   3.107   3.281
    1C        C  708   2.550   3.239   3.282
    1C        C  709   2.641   3.049   3.403
    1C        C  710   2.611   3.115   3.524
    1C        C  711   2.715   2.934   3.652
    1C        C  712   2.639   3.052   3.647
    1C        C  713   2.760   2.879   3.774
    1C        C  714   2.717   2.938   3.895
    1C        C  715   2.760   2.881   4.017
    1C        C  716   2.444   3.499   2.065
    1C        C  717   2.488   3.632   2.061
    1C        C  718   2.464   3.423   2.184
    1C        C  719   2.484   3.497   2.303
    1C        C  720   2.513   3.288   2.426
    1C        C  721   2.482   3.426   2.425
    1C        C  722   2.539   3.223   2.548
    1C        C  723   2.530   3.298   2.667
    1C        C  724   2.597   3.098   2.794
    1C        C  725   2.545   3.230   2.790
    1C        C  726   2.628   3.036   2.916
    1C        C  727   2.596   3.101   3.037
    1C        C  728   2.710   2.923   3.160
    1C        C  729   2.629   3.039   3.160
    1C        C  730   2.757   2.872   3.283
    1C        C  731   2.710   2.926   3.406
    1C        C  732   2.757   2.877   3.529
    1C        C  733   2.490   3.197   2.073
    1C        C  734   2.489   3.282   2.185
    1C        C  735   2.585   3.086   2.305
    1C        C  736   2.529   3.217   2.305
    1C        C  737   2.617   3.024   2.428
    1C        C  738   2.588   3.091   2.549
    1C        C  739   2.707   2.917   2.670
    1C        C  740   2.626   3.033   2.672
    1C        C  741   2.747   2.859   2.793
    1C        C  742   2.707   2.919   2.914
    1C        C  743   2.746   2.863   3.038
    1C        C  744   2.538   3.067   2.073
    1C        C  745   2.685   2.899   2.186
    1C        C  746   2.596   3.009   2.187
    1C        C  747   2.734   2.845   2.306
    1C        C  748   2.691   2.904   2.427
    1C        C  749   2.744   2.855   2.549
    1C        C  750   2.735   2.836   2.071
    1C        C  751   3.660   2.293   2.007
    1C        O  752   3.615   2.180   2.040
    1C        O  753   3.724   2.271   1.884
    1C        C  754   4.624   3.043   1.979
    1C        O  755   4.584   3.015   1.863
    1C        O  756   4.751   2.999   2.018
    1C        C  757   4.453   4.227   1.978
    1C        O  758   4.561   4.275   2.024
    1C        O  759   4.427   4.245   1.842
    1C        C  760   3.598   4.688   1.963
    1C        O  761   3.570   4.803   2.006
    1C        O  762   3.584   4.663   1.826
    1C        C  763   2.869   4.499   1.958
    1C        O  764   2.906   4.485   1.839
    1C        O  765   2.762   4.589   1.962
    1C        C  766   2.321   3.480   1.984
    1C        O  767   2.320   3.416   1.876
    1C        O  768   2.196   3.530   2.023
    1C        C  769   4.662   3.587   5.086
    1C        O  770   4.615   3.564   5.200
    1C        O  771   4.801   3.600   5.096
    1C        C  772   4.281   4.477   5.008
    1C        O  773   4.290   4.482   5.134
    1C        O  774   4.378   4.552   4.941
    1C        C  775   4.148   2.536   5.078
    1C        O  776   4.243   2.459   5.047
    1C        O  777   4.108   2.528   5.212
    1C        C  778   2.877   4.554   5.050
    1C        O  779   2.779   4.628   5.021
    1C        O  780   2.901   4.560   5.188
    1C        C  781   2.486   3.039   5.088
    1C        O  782   2.404   2.949   5.059
    1C        O  783   2.514   3.055   5.223
    1C        C  784   2.427   3.980   5.067
    1C        O  785   2.305   3.991   5.036
    1C        O  786   2.456   3.922   5.191
    1C        C  787   2.942   2.408   2.033
    1C        O  788   2.894   2.431   1.919
    1C        O  789   2.937   2.277   2.078
    1C        C  790   3.150   2.351   5.013
    1C        O  791   3.112   2.264   4.930
    1C        O  792   3.161   2.302   5.143
    1C        H  793   4.249   3.042   5.030
    1C        H  794   4.217   2.800   5.071
    1C        H  795   4.471   3.144   5.070
    1C        H  796   4.485   3.370   5.063
    1C        H  797   4.591   3.816   5.031
    1C        H  798   4.410   3.972   5.059
    1C        H  799   4.257   4.153   5.049
    1C        H  800   4.022   4.532   5.030
    1C        H  801   3.811   4.608   5.038
    1C        H  802   3.579   4.630   5.033
    1C        H  803   3.392   4.521   5.049
    1C        H  804   3.163   4.474   5.057
    1C        H  805   3.895   2.479   5.063
    1C        H  806   3.664   2.410   5.057
    1C        H  807   3.038   2.614   5.069
    1C        H  808   3.440   2.468   5.076
    1C        H  809   2.881   2.746   5.081
    1C        H  810   2.684   2.877   5.072
    1C        H  811   2.540   3.299   5.072
    1C        H  812   2.477   3.509   5.065
    1C        H  813   2.556   3.732   5.068
    1C        H  814   2.611   4.161   5.054
    1C        H  815   2.763   4.319   5.057
    1C        H  816   2.750   2.890   1.980
    1C        H  817   2.825   2.662   1.985
    1C        H  818   3.209   2.432   1.988
    1C        H  819   3.440   2.466   1.975
    1C        H  820   3.851   2.520   1.970
    1C        H  821   4.073   2.612   1.966
    1C        H  822   4.272   2.711   1.974
    1C        H  823   4.389   2.914   1.965
    1C        H  824   4.507   3.300   1.970
    1C        H  825   4.515   3.514   1.956
    1C        H  826   4.564   3.743   1.974
    1C        H  827   3.790   4.489   1.945
    1C        H  828   3.936   4.307   1.972
    1C        H  829   4.163   4.256   1.948
    1C        H  830   4.501   3.965   1.972
    1C        H  831   2.641   3.829   1.977
    1C        H  832   2.764   4.033   1.985
    1C        H  833   2.747   4.275   1.955
    1C        H  834   3.363   4.509   1.946
    1C        H  835   3.163   4.366   1.964
    1C        H  836   2.499   2.998   2.001
    1C        H  837   2.492   3.240   1.975
    1C        H  838   2.454   3.688   1.977
    2V3OU   H29  839   2.796   3.551   1.676
    2V3OU   C27  840   2.779   3.501   1.775
    2V3OU   H27  841   2.726   3.574   1.841
    2V3OU   H28  842   2.722   3.406   1.758
    2V3OU   O11  843   2.907   3.480   1.837
    2V3OU   C15  844   2.919   3.403   1.950
    2V3OU   C13  845   3.050   3.377   1.996
    2V3OU   C14  846   3.074   3.267   2.079
    2V3OU   C16  847   2.971   3.187   2.129
    2V3OU    H6  848   2.991   3.104   2.198
    2V3OU   C12  849   3.212   3.229   2.116
    2V3OU    O2  850   3.239   3.123   2.178
    2V3OU   C10  851   3.327   3.308   2.070
    2V3OU    C8  852   3.458   3.266   2.087
    2V3OU   O10  853   3.490   3.145   2.139
    2V3OU   H26  854   3.402   3.119   2.171
    2V3OU    C6  855   3.564   3.350   2.040
    2V3OU    C5  856   3.536   3.470   1.974
    2V3OU    C4  857   3.704   3.299   2.048
    2V3OU    H4  858   3.730   3.227   2.131
    2V3OU    H5  859   3.707   3.229   1.959
    2V3OU    C2  860   3.820   3.399   2.043
    2V3OU    O6  861   3.806   3.475   2.163
    2V3OU   H21  862   3.759   3.554   2.131
    2V3OU    C3  863   3.781   3.493   1.930
    2V3OU    H2  864   3.858   3.573   1.914
    2V3OU    H3  865   3.781   3.435   1.834
    2V3OU   C25  866   3.954   3.326   2.031
    2V3OU    O7  867   4.001   3.301   1.921
    2V3OU   C26  868   4.028   3.292   2.160
    2V3OU   H22  869   4.069   3.386   2.204
    2V3OU   H23  870   4.117   3.227   2.136
    2V3OU    O8  871   3.961   3.213   2.255
    2V3OU   H24  872   3.931   3.276   2.323
    2V3OU    C1  873   3.648   3.565   1.944
    2V3OU    H1  874   3.625   3.617   1.846
    2V3OU    O3  875   3.654   3.650   2.059
    2V3OU   C19  876   3.621   3.789   2.049
    2V3OU    H9  877   3.524   3.793   1.991
    2V3OU    O4  878   3.716   3.842   1.960
    2V3OU   C20  879   3.847   3.876   2.006
    2V3OU   H10  880   3.894   3.775   2.025
    2V3OU   C24  881   3.609   3.855   2.186
    2V3OU   H16  882   3.543   3.795   2.254
    2V3OU   H17  883   3.565   3.957   2.171
    2V3OU   C23  884   3.749   3.875   2.244
    2V3OU   H15  885   3.792   3.771   2.262
    2V3OU    N1  886   3.737   3.953   2.366
    2V3OU   H19  887   3.805   3.921   2.432
    2V3OU   H20  888   3.652   3.932   2.414
    2V3OU   C21  889   3.844   3.945   2.142
    2V3OU   H11  890   3.950   3.929   2.177
    2V3OU    O5  891   3.819   4.085   2.151
    2V3OU   H18  892   3.783   4.104   2.239
    2V3OU   C22  893   3.914   3.952   1.892
    2V3OU   H12  894   3.863   4.051   1.879
    2V3OU   H13  895   3.902   3.896   1.796
    2V3OU   H14  896   4.025   3.959   1.910
    2V3OU   C11  897   3.159   3.471   1.964
    2V3OU    O1  898   3.137   3.581   1.910
    2V3OU    C9  899   3.296   3.420   1.988
    2V3OU    C7  900   3.400   3.501   1.944
    2V3OU    O9  901   3.387   3.615   1.867
    2V3OU   H25  902   3.293   3.631   1.884
    2V3OU   C17  903   2.815   3.318   1.994
    2V3OU    H7  904   2.713   3.356   1.990
    2V3OU   C18  905   2.843   3.214   2.082
    2V3OU    H8  906   2.764   3.156   2.132
    3SOL     OW  907   2.349   4.292   0.954
    3SOL    HW1  908   2.285   4.369   0.961
    3SOL    HW2  909   2.315   4.228   0.885
    4SOL     OW  910   6.618   5.444   2.035
    4SOL    HW1  911   6.686   5.517   2.026
    4SOL    HW2  912   6.645   5.383   2.109
    5SOL     OW  913   3.776   1.593   2.125
    5SOL    HW1  914   3.728   1.663   2.072
    5SOL    HW2  915   3.874   1.610   2.120
    6SOL     OW  916   3.940   1.906   2.239
    6SOL    HW1  917   3.923   1.849   2.319
    6SOL    HW2  918   3.873   1.980   2.235
    7SOL     OW  919   6.452   2.858   1.552
    7SOL    HW1  920   6.385   2.875   1.624
    7SOL    HW2  921   6.467   2.759   1.544
    8SOL     OW  922   2.447   6.818   5.045
    8SOL    HW1  923   2.545   6.842   5.046
    8SOL    HW2  924   2.412   6.815   5.138
    9SOL     OW  925   1.081   5.366   5.872
    9SOL    HW1  926   1.105   5.451   5.919
    9SOL    HW2  927   1.155   5.340   5.810
   10SOL     OW  928   0.934   4.450   5.582
   10SOL    HW1  929   0.916   4.514   5.657
   10SOL    HW2  930   0.849   4.404   5.557
   11SOL     OW  931   2.664   0.432   0.261
   11SOL    HW1  932   2.762   0.438   0.245
   11SOL    HW2  933   2.616   0.494   0.199
   12SOL     OW  934   4.378   6.159   4.085
   12SOL    HW1  935   4.389   6.092   4.011
   12SOL    HW2  936   4.288   6.149   4.126
   13SOL     OW  937   3.801   5.978   4.469
   13SOL    HW1  938   3.821   5.887   4.431
   13SOL    HW2  939   3.864   5.996   4.545
   14SOL     OW  940   4.526   5.757   6.520
   14SOL    HW1  941   4.475   5.697   6.582
   14SOL    HW2  942   4.533   5.848   6.561
   15SOL     OW  943   1.539   5.818   0.081
   15SOL    HW1  944   1.535   5.774   0.171
   15SOL    HW2  945   1.519   5.915   0.091
   16SOL     OW  946   6.067   2.053   5.441
   16SOL    HW1  947   5.992   2.038   5.505
   16SOL    HW2  948   6.037   2.114   5.368
   17SOL     OW  949   5.592   6.344   4.862
   17SOL    HW1  950   5.577   6.290   4.945
   17SOL    HW2  951   5.581   6.441   4.884
   18SOL     OW  952   3.104   1.830   6.968
   18SOL    HW1  953   3.133   1.736   6.990
   18SOL    HW2  954   3.006   1.838   6.983
   19SOL     OW  955   6.668   6.733   3.285
   19SOL    HW1  956   6.599   6.751   3.355
   19SOL    HW2  957   6.623   6.711   3.199
   20SOL     OW  958   3.465   1.114   4.268
   20SOL    HW1  959   3.484   1.164   4.184
   20SOL    HW2  960   3.408   1.171   4.328
   21SOL     OW  961   3.010   2.227   2.807
   21SOL    HW1  962   2.990   2.144   2.754
   21SOL    HW2  963   3.071   2.204   2.883
   22SOL     OW  964   2.101   6.914   6.876
   22SOL    HW1  965   2.052   6.997   6.848
   22SOL    HW2  966   2.061   6.878   6.960
   23SOL     OW  967   4.567   6.391   3.280
   23SOL    HW1  968   4.623   6.403   3.362
   23SOL    HW2  969   4.514   6.474   3.263
   24SOL     OW  970   5.190   1.040   4.270
   24SOL    HW1  971   5.244   1.125   4.266
   24SOL    HW2  972   5.186   1.000   4.179
   25SOL     OW  973   3.021   5.878   6.178
   25SOL    HW1  974   3.079   5.959   6.180
   25SOL    HW2  975   3.008   5.849   6.083
   26SOL     OW  976   6.059   1.017   1.024
   26SOL    HW1  977   6.085   1.030   1.119
   26SOL    HW2  978   6.024   1.103   0.987
   27SOL     OW  979   0.342   0.963   2.421
   27SOL    HW1  980   0.246   0.938   2.409
   27SOL    HW2  981   0.360   1.050   2.376
   28SOL     OW  982   3.977   1.007   0.443
   28SOL    HW1  983   4.047   1.038   0.378
   28SOL    HW2  984   3.984   1.061   0.527
   29SOL     OW  985   5.265   2.411   1.968
   29SOL    HW1  986   5.313   2.463   2.039
   29SOL    HW2  987   5.181   2.372   2.006
   30SOL     OW  988   3.189   6.890   5.466
   30SOL    HW1  989   3.209   6.792   5.462
   30SOL    HW2  990   3.184   6.927   5.374
   31SOL     OW  991   0.987   1.252   5.847
   31SOL    HW1  992   0.972   1.348   5.870
   31SOL    HW2  993   1.048   1.246   5.768
   32SOL     OW  994   0.725   2.086   2.824
   32SOL    HW1  995   0.653   2.150   2.799
   32SOL    HW2  996   0.690   2.021   2.892
   33SOL     OW  997   1.827   2.854   6.914
   33SOL    HW1  998   1.755   2.895   6.970
   33SOL    HW2  999   1.877   2.926   6.866
   34SOL     OW 1000   2.095   0.770   4.290
   34SOL    HW1 1001   2.051   0.807   4.208
   34SOL    HW2 1002   2.038   0.700   4.330
   35SOL     OW 1003   4.237   2.333   6.618
   35SOL    HW1 1004   4.323   2.368   6.656
   35SOL    HW2 1005   4.192   2.275   6.686
   36SOL     OW 1006   1.124   0.740   6.361
   36SOL    HW1 1007   1.192   0.697   6.420
   36SOL    HW2 1008   1.162   0.756   6.270
   37SOL     OW 1009   2.218   0.591   0.705
   37SOL    HW1 1010   2.166   0.533   0.766
   37SOL    HW2 1011   2.159   0.622   0.630
   38SOL     OW 1012   0.381   5.900   2.929
   38SOL    HW1 1013   0.300   5.879   2.874
   38SOL    HW2 1014   0.450   5.829   2.915
   39SOL     OW 1015   6.712   4.269   6.793
   39SOL    HW1 1016   6.811   4.281   6.799
   39SOL    HW2 1017   6.671   4.351   6.754
   40SOL     OW 1018   6.072   2.522   1.757
   40SOL    HW1 1019   6.132   2.600   1.775
   40SOL    HW2 1020   6.085   2.452   1.826
   41SOL     OW 1021   1.748   6.434   4.184
   41SOL    HW1 1022   1.832   6.420   4.133
   41SOL    HW2 1023   1.688   6.496   4.134
   42SOL     OW 1024   3.283   6.536   6.259
   42SOL    HW1 1025   3.207   6.553   6.321
   42SOL    HW2 1026   3.364   6.508   6.311
   43SOL     OW 1027   5.643   6.058   5.774
   43SOL    HW1 1028   5.607   5.980   5.824
   43SOL    HW2 1029   5.585   6.138   5.790
   44SOL     OW 1030   6.114   2.745   6.656
   44SOL    HW1 1031   6.165   2.830   6.673
   44SOL    HW2 1032   6.178   2.669   6.652
   45SOL     OW 1033   3.160   0.666   3.884
   45SOL    HW1 1034   3.180   0.581   3.836
   45SOL    HW2 1035   3.181   0.744   3.824
   46SOL     OW 1036   1.069   3.836   4.362
   46SOL    HW1 1037   0.996   3.813   4.298
   46SOL    HW2 1038   1.098   3.754   4.411
   47SOL     OW 1039   5.353   3.596   3.437
   47SOL    HW1 1040   5.441   3.642   3.423
   47SOL    HW2 1041   5.306   3.586   3.349
   48SOL     OW 1042   0.942   2.770   4.834
   48SOL    HW1 1043   0.870   2.723   4.783
   48SOL    HW2 1044   0.921   2.867   4.840
   49SOL     OW 1045   4.573   4.052   1.706
   49SOL    HW1 1046   4.515   4.122   1.748
   49SOL    HW2 1047   4.664   4.054   1.747
   50SOL     OW 1048   6.264   2.300   5.420
   50SOL    HW1 1049   6.355   2.277   5.454
   50SOL    HW2 1050   6.197   2.293   5.495
   51SOL     OW 1051   3.130   5.793   2.634
   51SOL    HW1 1052   3.169   5.758   2.719
   51SOL    HW2 1053   3.036   5.758   2.624
   52SOL     OW 1054   4.189   1.976   3.466
   52SOL    HW1 1055   4.128   1.917   3.412
   52SOL    HW2 1056   4.233   1.921   3.537
   53SOL     OW 1057   4.657   0.343   4.079
   53SOL    HW1 1058   4.662   0.370   3.983
   53SOL    HW2 1059   4.675   0.422   4.137
   54SOL     OW 1060   3.022   5.166   6.881
   54SOL    HW1 1061   3.102   5.105   6.877
   54SOL    HW2 1062   3.054   5.260   6.893
   55SOL     OW 1063   3.567   1.101   6.218
   55SOL    HW1 1064   3.600   1.161   6.146
   55SOL    HW2 1065   3.617   1.118   6.302
   56SOL     OW 1066   1.482   0.471   1.332
   56SOL    HW1 1067   1.519   0.385   1.367
   56SOL    HW2 1068   1.517   0.547   1.386
   57SOL     OW 1069   4.893   0.212   0.801
   57SOL    HW1 1070   4.945   0.147   0.856
   57SOL    HW2 1071   4.955   0.262   0.741
   58SOL     OW 1072   0.293   6.264   5.845
   58SOL    HW1 1073   0.337   6.186   5.889
   58SOL    HW2 1074   0.227   6.231   5.777
   59SOL     OW 1075   1.589   1.228   6.247
   59SOL    HW1 1076   1.654   1.156   6.224
   59SOL    HW2 1077   1.610   1.311   6.197
   60SOL     OW 1078   5.435   0.632   5.862
   60SOL    HW1 1079   5.396   0.680   5.941
   60SOL    HW2 1080   5.533   0.652   5.856
   61SOL     OW 1081   5.103   1.456   4.521
   61SOL    HW1 1082   5.033   1.496   4.580
   61SOL    HW2 1083   5.075   1.364   4.493
   62SOL     OW 1084   0.661   1.162   3.671
   62SOL    HW1 1085   0.657   1.217   3.755
   62SOL    HW2 1086   0.620   1.213   3.596
   63SOL     OW 1087   6.123   1.810   3.950
   63SOL    HW1 1088   6.067   1.753   3.890
   63SOL    HW2 1089   6.219   1.785   3.941
   64SOL     OW 1090   0.548   4.069   6.653
   64SOL    HW1 1091   0.502   4.149   6.614
   64SOL    HW2 1092   0.487   3.989   6.646
   65SOL     OW 1093   6.684   4.456   4.916
   65SOL    HW1 1094   6.652   4.523   4.983
   65SOL    HW2 1095   6.615   4.385   4.904
   66SOL     OW 1096   3.350   0.542   6.796
   66SOL    HW1 1097   3.266   0.577   6.755
   66SOL    HW2 1098   3.398   0.617   6.843
   67SOL     OW 1099   5.638   5.536   5.281
   67SOL    HW1 1100   5.625   5.470   5.354
   67SOL    HW2 1101   5.611   5.496   5.194
   68SOL     OW 1102   0.026   1.154   6.966
   68SOL    HW1 1103   0.088   1.119   6.896
   68SOL    HW2 1104   7.021   1.079   0.003
   69SOL     OW 1105   1.821   4.032   6.693
   69SOL    HW1 1106   1.908   4.010   6.737
   69SOL    HW2 1107   1.752   3.966   6.721
   70SOL     OW 1108   6.262   5.374   2.980
   70SOL    HW1 1109   6.330   5.428   3.030
   70SOL    HW2 1110   6.175   5.423   2.979
   71SOL     OW 1111   2.977   1.993   3.148
   71SOL    HW1 1112   2.936   1.999   3.239
   71SOL    HW2 1113   2.982   1.897   3.120
   72SOL     OW 1114   2.729   6.107   5.102
   72SOL    HW1 1115   2.634   6.107   5.135
   72SOL    HW2 1116   2.742   6.030   5.039
   73SOL     OW 1117   3.283   1.793   0.244
   73SOL    HW1 1118   3.251   1.872   0.193
   73SOL    HW2 1119   3.255   1.801   0.340
   74SOL     OW 1120   5.452   6.873   6.815
   74SOL    HW1 1121   5.549   6.863   6.791
   74SOL    HW2 1122   5.444   6.930   6.897
   75SOL     OW 1123   4.028   5.862   6.008
   75SOL    HW1 1124   4.125   5.863   5.985
   75SOL    HW2 1125   4.016   5.832   6.103
   76SOL     OW 1126   1.855   2.617   1.154
   76SOL    HW1 1127   1.846   2.643   1.251
   76SOL    HW2 1128   1.871   2.699   1.100
   77SOL     OW 1129   4.831   5.849   4.374
   77SOL    HW1 1130   4.861   5.762   4.336
   77SOL    HW2 1131   4.909   5.912   4.380
   78SOL     OW 1132   6.052   6.624   5.876
   78SOL    HW1 1133   6.060   6.704   5.818
   78SOL    HW2 1134   5.958   6.614   5.909
   79SOL     OW 1135   2.958   6.861   0.383
   79SOL    HW1 1136   2.985   6.833   0.476
   79SOL    HW2 1137   2.877   6.919   0.388
   80SOL     OW 1138   5.853   1.141   4.377
   80SOL    HW1 1139   5.843   1.222   4.319
   80SOL    HW2 1140   5.776   1.136   4.440
   81SOL     OW 1141   2.293   0.021   2.624
   81SOL    HW1 1142   2.221   0.043   2.689
   81SOL    HW2 1143   2.355   0.099   2.615
   82SOL     OW 1144   6.790   5.110   0.391
   82SOL    HW1 1145   6.768   5.205   0.369
   82SOL    HW2 1146   6.890   5.099   0.395
   83SOL     OW 1147   6.567   0.128   0.453
   83SOL    HW1 1148   6.601   0.221   0.441
   83SOL    HW2 1149   6.544   0.113   0.549
   84SOL     OW 1150   4.892   3.657   3.499
   84SOL    HW1 1151   4.898   3.559   3.482
   84SOL    HW2 1152   4.898   3.707   3.412
   85SOL     OW 1153   1.088   1.612   5.293
   85SOL    HW1 1154   1.129   1.570   5.212
   85SOL    HW2 1155   1.124   1.568   5.375
   86SOL     OW 1156   1.052   0.515   5.694
   86SOL    HW1 1157   1.076   0.420   5.715
   86SOL    HW2 1158   0.952   0.523   5.689
   87SOL     OW 1159   4.702   2.725   0.721
   87SOL    HW1 1160   4.776   2.658   0.728
   87SOL    HW2 1161   4.727   2.795   0.655
   88SOL     OW 1162   4.111   1.612   6.768
   88SOL    HW1 1163   4.108   1.692   6.709
   88SOL    HW2 1164   4.068   1.634   6.856
   89SOL     OW 1165   1.640   3.060   6.609
   89SOL    HW1 1166   1.739   3.055   6.596
   89SOL    HW2 1167   1.616   3.151   6.643
   90SOL     OW 1168   4.707   6.920   3.859
   90SOL    HW1 1169   4.676   6.988   3.926
   90SOL    HW2 1170   4.782   6.958   3.806
   91SOL     OW 1171   4.479   4.724   4.009
   91SOL    HW1 1172   4.396   4.727   3.953
   91SOL    HW2 1173   4.455   4.695   4.102
   92SOL     OW 1174   2.966   4.673   0.371
   92SOL    HW1 1175   2.963   4.575   0.353
   92SOL    HW2 1176   2.964   4.689   0.470
   93SOL     OW 1177   2.626   4.547   6.506
   93SOL    HW1 1178   2.643   4.463   6.456
   93SOL    HW2 1179   2.697   4.614   6.485
   94SOL     OW 1180   2.417   6.250   6.094
   94SOL    HW1 1181   2.457   6.158   6.093
   94SOL    HW2 1182   2.374   6.266   6.183
   95SOL     OW 1183   0.746   1.970   3.304
   95SOL    HW1 1184   0.755   1.893   3.240
   95SOL    HW2 1185   0.653   1.971   3.342
   96SOL     OW 1186   3.203   6.827   5.747
   96SOL    HW1 1187   3.136   6.753   5.753
   96SOL    HW2 1188   3.190   6.876   5.660
   97SOL     OW 1189   0.669   4.210   5.945
   97SOL    HW1 1190   0.681   4.137   5.878
   97SOL    HW2 1191   0.758   4.245   5.974
   98SOL     OW 1192   6.598   3.833   7.021
   98SOL    HW1 1193   6.623   3.889   6.942
   98SOL    HW2 1194   6.516   3.780   7.001
   99SOL     OW 1195   4.300   4.016   1.271
   99SOL    HW1 1196   4.372   4.006   1.340
   99SOL    HW2 1197   4.316   4.098   1.217
  100SOL     OW 1198   0.514   6.638   6.109
  100SOL    HW1 1199   0.498   6.581   6.190
  100SOL    HW2 1200   0.430   6.642   6.055
  101SOL     OW 1201   1.348   5.709   2.771
  101SOL    HW1 1202   1.299   5.631   2.809
  101SOL    HW2 1203   1.289   5.790   2.773
  102SOL     OW 1204   5.274   1.108   2.383
  102SOL    HW1 1205   5.368   1.094   2.353
  102SOL    HW2 1206   5.223   1.159   2.313
  103SOL     OW 1207   3.842   0.829   2.132
  103SOL    HW1 1208   3.874   0.823   2.037
  103SOL    HW2 1209   3.766   0.893   2.138
  104SOL     OW 1210   0.177   5.054   2.983
  104SOL    HW1 1211   0.106   5.125   2.986
  104SOL    HW2 1212   0.262   5.093   2.948
  105SOL     OW 1213   6.692   1.708   6.589
  105SOL    HW1 1214   6.637   1.713   6.673
  105SOL    HW2 1215   6.781   1.668   6.610
  106SOL     OW 1216   3.283   6.622   5.427
  106SOL    HW1 1217   3.324   6.595   5.514
  106SOL    HW2 1218   3.355   6.646   5.362
  107SOL     OW 1219   1.911   2.233   1.781
  107SOL    HW1 1220   1.934   2.158   1.718
  107SOL    HW2 1221   1.852   2.299   1.735
  108SOL     OW 1222   4.458   4.928   6.543
  108SOL    HW1 1223   4.430   4.994   6.473
  108SOL    HW2 1224   4.528   4.970   6.601
  109SOL     OW 1225   0.548   0.672   1.395
  109SOL    HW1 1226   0.524   0.735   1.469
  109SOL    HW2 1227   0.628   0.707   1.347
  110SOL     OW 1228   3.783   6.579   5.874
  110SOL    HW1 1229   3.762   6.613   5.782
  110SOL    HW2 1230   3.879   6.600   5.895
  111SOL     OW 1231   3.827   0.655   5.113
  111SOL    HW1 1232   3.745   0.646   5.056
  111SOL    HW2 1233   3.800   0.672   5.208
  112SOL     OW 1234   6.201   6.421   5.953
  112SOL    HW1 1235   6.159   6.511   5.945
  112SOL    HW2 1236   6.250   6.399   5.869
  113SOL     OW 1237   6.850   4.964   2.883
  113SOL    HW1 1238   6.758   4.939   2.914
  113SOL    HW2 1239   6.877   5.050   2.926
  114SOL     OW 1240   0.863   6.939   0.793
  114SOL    HW1 1241   0.934   6.943   0.722
  114SOL    HW2 1242   0.902   6.898   0.876
  115SOL     OW 1243   4.433   1.207   4.353
  115SOL    HW1 1244   4.480   1.256   4.280
  115SOL    HW2 1245   4.491   1.133   4.387
  116SOL     OW 1246   6.023   5.551   2.246
  116SOL    HW1 1247   6.102   5.587   2.196
  116SOL    HW2 1248   5.949   5.532   2.181
  117SOL     OW 1249   0.794   1.637   6.160
  117SOL    HW1 1250   0.705   1.651   6.203
  117SOL    HW2 1251   0.827   1.545   6.179
  118SOL     OW 1252   0.470   1.597   2.270
  118SOL    HW1 1253   0.563   1.575   2.243
  118SOL    HW2 1254   0.469   1.628   2.366
  119SOL     OW 1255   1.118   2.180   6.397
  119SOL    HW1 1256   1.184   2.205   6.326
  119SOL    HW2 1257   1.061   2.105   6.364
  120SOL     OW 1258   6.702   7.009   0.072
  120SOL    HW1 1259   6.604   6.991   0.084
  120SOL    HW2 1260   6.752   6.975   0.151
  121SOL     OW 1261   2.605   3.565   6.960
  121SOL    HW1 1262   2.588   3.535   0.030
  121SOL    HW2 1263   2.601   3.486   6.898
  122SOL     OW 1264   1.827   4.649   6.023
  122SOL    HW1 1265   1.806   4.564   5.975
  122SOL    HW2 1266   1.863   4.628   6.114
  123SOL     OW 1267   0.771   1.802   1.564
  123SOL    HW1 1268   0.706   1.748   1.510
  123SOL    HW2 1269   0.845   1.743   1.595
  124SOL     OW 1270   5.125   2.916   0.087
  124SOL    HW1 1271   5.048   2.978   0.093
  124SOL    HW2 1272   5.180   2.923   0.170
  125SOL     OW 1273   2.381   1.553   2.347
  125SOL    HW1 1274   2.384   1.587   2.441
  125SOL    HW2 1275   2.398   1.455   2.347
  126SOL     OW 1276   2.831   4.716   0.877
  126SOL    HW1 1277   2.748   4.663   0.856
  126SOL    HW2 1278   2.832   4.739   0.974
  127SOL     OW 1279   0.132   4.979   6.405
  127SOL    HW1 1280   0.184   5.063   6.416
  127SOL    HW2 1281   0.194   4.901   6.400
  128SOL     OW 1282   4.152   2.850   1.372
  128SOL    HW1 1283   4.144   2.844   1.272
  128SOL    HW2 1284   4.207   2.774   1.405
  129SOL     OW 1285   4.996   3.879   5.934
  129SOL    HW1 1286   5.061   3.939   5.981
  129SOL    HW2 1287   4.990   3.791   5.981
  130SOL     OW 1288   0.403   1.395   4.071
  130SOL    HW1 1289   0.317   1.407   4.119
  130SOL    HW2 1290   0.478   1.391   4.137
  131SOL     OW 1291   5.604   1.250   2.219
  131SOL    HW1 1292   5.642   1.325   2.164
  131SOL    HW2 1293   5.587   1.282   2.312
  132SOL     OW 1294   2.184   3.208   0.819
  132SOL    HW1 1295   2.226   3.119   0.835
  132SOL    HW2 1296   2.090   3.208   0.852
  133SOL     OW 1297   5.452   6.839   3.648
  133SOL    HW1 1298   5.498   6.775   3.709
  133SOL    HW2 1299   5.366   6.869   3.691
  134SOL     OW 1300   5.890   2.136   2.879
  134SOL    HW1 1301   5.926   2.217   2.832
  134SOL    HW2 1302   5.871   2.159   2.975
  135SOL     OW 1303   5.497   2.596   2.340
  135SOL    HW1 1304   5.530   2.567   2.430
  135SOL    HW2 1305   5.407   2.557   2.323
  136SOL     OW 1306   4.071   3.811   6.256
  136SOL    HW1 1307   4.041   3.819   6.161
  136SOL    HW2 1308   4.012   3.747   6.305
  137SOL     OW 1309   4.953   0.751   5.213
  137SOL    HW1 1310   4.972   0.776   5.308
  137SOL    HW2 1311   4.969   0.653   5.199
  138SOL     OW 1312   0.309   4.447   3.785
  138SOL    HW1 1313   0.267   4.362   3.753
  138SOL    HW2 1314   0.388   4.425   3.843
  139SOL     OW 1315   2.342   6.291   5.163
  139SOL    HW1 1316   2.335   6.218   5.231
  139SOL    HW2 1317   2.347   6.251   5.072
  140SOL     OW 1318   0.214   6.161   3.374
  140SOL    HW1 1319   0.153   6.085   3.349
  140SOL    HW2 1320   0.296   6.157   3.317
  141SOL     OW 1321   6.357   2.949   5.478
  141SOL    HW1 1322   6.335   2.915   5.570
  141SOL    HW2 1323   6.328   3.044   5.470
  142SOL     OW 1324   1.527   5.685   0.629
  142SOL    HW1 1325   1.588   5.616   0.590
  142SOL    HW2 1326   1.579   5.746   0.688
  143SOL     OW 1327   5.690   4.182   1.873
  143SOL    HW1 1328   5.640   4.240   1.938
  143SOL    HW2 1329   5.637   4.100   1.854
  144SOL     OW 1330   1.313   6.736   6.520
  144SOL    HW1 1331   1.398   6.718   6.570
  144SOL    HW2 1332   1.318   6.694   6.430
  145SOL     OW 1333   0.567   4.627   0.538
  145SOL    HW1 1334   0.654   4.636   0.587
  145SOL    HW2 1335   0.571   4.547   0.478
  146SOL     OW 1336   4.941   0.252   5.683
  146SOL    HW1 1337   4.941   0.186   5.608
  146SOL    HW2 1338   4.954   0.344   5.646
  147SOL     OW 1339   6.100   2.777   6.927
  147SOL    HW1 1340   6.181   2.728   6.960
  147SOL    HW2 1341   6.084   2.754   6.831
  148SOL     OW 1342   0.326   5.048   6.043
  148SOL    HW1 1343   0.390   4.973   6.027
  148SOL    HW2 1344   0.286   5.077   5.955
  149SOL     OW 1345   2.374   1.376   4.451
  149SOL    HW1 1346   2.290   1.323   4.464
  149SOL    HW2 1347   2.453   1.315   4.456
  150SOL     OW 1348   5.814   4.791   6.200
  150SOL    HW1 1349   5.805   4.863   6.268
  150SOL    HW2 1350   5.769   4.708   6.233
  151SOL     OW 1351   3.370   1.949   1.162
  151SOL    HW1 1352   3.348   1.993   1.076
  151SOL    HW2 1353   3.286   1.917   1.206
  152SOL     OW 1354   1.653   1.233   4.429
  152SOL    HW1 1355   1.616   1.293   4.358
  152SOL    HW2 1356   1.622   1.139   4.413
  153SOL     OW 1357   2.739   0.335   1.874
  153SOL    HW1 1358   2.832   0.302   1.889
  153SOL    HW2 1359   2.694   0.277   1.806
  154SOL     OW 1360   0.533   3.005   3.134
  154SOL    HW1 1361   0.504   3.091   3.091
  154SOL    HW2 1362   0.593   2.955   3.071
  155SOL     OW 1363   0.283   1.651   3.334
  155SOL    HW1 1364   0.267   1.748   3.314
  155SOL    HW2 1365   0.342   1.643   3.415
  156SOL     OW 1366   0.109   1.598   1.531
  156SOL    HW1 1367   0.203   1.574   1.509
  156SOL    HW2 1368   0.108   1.664   1.606
  157SOL     OW 1369   6.003   3.771   2.129
  157SOL    HW1 1370   5.928   3.815   2.179
  157SOL    HW2 1371   5.971   3.745   2.038
  158SOL     OW 1372   2.941   0.137   2.653
  158SOL    HW1 1373   3.012   0.181   2.708
  158SOL    HW2 1374   2.973   0.127   2.559
  159SOL     OW 1375   4.584   4.281   1.373
  159SOL    HW1 1376   4.607   4.185   1.391
  159SOL    HW2 1377   4.565   4.327   1.460
  160SOL     OW 1378   0.107   4.687   6.596
  160SOL    HW1 1379   0.183   4.711   6.535
  160SOL    HW2 1380   0.074   4.769   6.642
  161SOL     OW 1381   1.187   4.981   4.365
  161SOL    HW1 1382   1.250   5.054   4.388
  161SOL    HW2 1383   1.136   4.953   4.446
  162SOL     OW 1384   3.943   6.469   0.158
  162SOL    HW1 1385   4.012   6.541   0.147
  162SOL    HW2 1386   3.988   6.380   0.160
  163SOL     OW 1387   5.189   5.571   1.218
  163SOL    HW1 1388   5.119   5.518   1.170
  163SOL    HW2 1389   5.154   5.663   1.235
  164SOL     OW 1390   6.723   3.907   1.261
  164SOL    HW1 1391   6.755   3.812   1.265
  164SOL    HW2 1392   6.670   3.920   1.177
  165SOL     OW 1393   5.572   3.326   1.272
  165SOL    HW1 1394   5.519   3.288   1.348
  165SOL    HW2 1395   5.552   3.274   1.189
  166SOL     OW 1396   0.470   4.983   3.888
  166SOL    HW1 1397   0.465   5.060   3.952
  166SOL    HW2 1398   0.378   4.962   3.856
  167SOL     OW 1399   5.841   1.986   0.730
  167SOL    HW1 1400   5.843   2.048   0.651
  167SOL    HW2 1401   5.747   1.961   0.750
  168SOL     OW 1402   2.686   3.167   1.167
  168SOL    HW1 1403   2.736   3.083   1.146
  168SOL    HW2 1404   2.647   3.204   1.083
  169SOL     OW 1405   3.743   0.258   2.422
  169SOL    HW1 1406   3.827   0.313   2.423
  169SOL    HW2 1407   3.664   0.319   2.413
  170SOL     OW 1408   0.227   1.911   3.276
  170SOL    HW1 1409   0.215   1.966   3.359
  170SOL    HW2 1410   0.137   1.886   3.240
  171SOL     OW 1411   4.066   4.618   0.472
  171SOL    HW1 1412   4.144   4.655   0.421
  171SOL    HW2 1413   4.098   4.546   0.534
  172SOL     OW 1414   6.138   1.954   4.561
  172SOL    HW1 1415   6.046   1.991   4.574
  172SOL    HW2 1416   6.147   1.867   4.611
  173SOL     OW 1417   6.296   1.300   4.479
  173SOL    HW1 1418   6.259   1.385   4.517
  173SOL    HW2 1419   6.240   1.271   4.401
  174SOL     OW 1420   2.836   5.460   4.483
  174SOL    HW1 1421   2.835   5.412   4.396
  174SOL    HW2 1422   2.915   5.521   4.488
  175SOL     OW 1423   1.872   6.777   1.844
  175SOL    HW1 1424   1.925   6.812   1.922
  175SOL    HW2 1425   1.887   6.679   1.835
  176SOL     OW 1426   1.516   4.173   0.537
  176SOL    HW1 1427   1.490   4.218   0.622
  176SOL    HW2 1428   1.534   4.076   0.555
  177SOL     OW 1429   6.041   3.010   2.720
  177SOL    HW1 1430   5.956   3.013   2.667
  177SOL    HW2 1431   6.115   3.050   2.667
  178SOL     OW 1432   4.925   3.406   5.864
  178SOL    HW1 1433   5.023   3.419   5.883
  178SOL    HW2 1434   4.907   3.309   5.848
  179SOL     OW 1435   2.886   1.916   6.182
  179SOL    HW1 1436   2.937   1.833   6.158
  179SOL    HW2 1437   2.950   1.990   6.203
  180SOL     OW 1438   1.265   0.119   6.228
  180SOL    HW1 1439   1.182   0.068   6.250
  180SOL    HW2 1440   1.290   0.176   6.306
  181SOL     OW 1441   3.620   1.062   6.504
  181SOL    HW1 1442   3.534   1.071   6.553
  181SOL    HW2 1443   3.665   0.976   6.531
  182SOL     OW 1444   3.904   1.854   4.559
  182SOL    HW1 1445   3.908   1.954   4.549
  182SOL    HW2 1446   3.997   1.819   4.573
  183SOL     OW 1447   3.562   1.423   3.831
  183SOL    HW1 1448   3.651   1.464   3.853
  183SOL    HW2 1449   3.490   1.470   3.881
  184SOL     OW 1450   1.313   5.629   3.903
  184SOL    HW1 1451   1.310   5.675   3.992
  184SOL    HW2 1452   1.383   5.672   3.846
  185SOL     OW 1453   1.114   2.538   6.585
  185SOL    HW1 1454   1.066   2.616   6.623
  185SOL    HW2 1455   1.048   2.469   6.554
  186SOL     OW 1456   6.792   1.307   3.667
  186SOL    HW1 1457   6.779   1.227   3.726
  186SOL    HW2 1458   6.728   1.301   3.589
  187SOL     OW 1459   4.513   0.855   3.222
  187SOL    HW1 1460   4.596   0.816   3.263
  187SOL    HW2 1461   4.530   0.951   3.197
  188SOL     OW 1462   6.294   2.066   3.168
  188SOL    HW1 1463   6.342   2.011   3.236
  188SOL    HW2 1464   6.219   2.115   3.213
  189SOL     OW 1465   1.740   5.548   2.896
  189SOL    HW1 1466   1.741   5.626   2.833
  189SOL    HW2 1467   1.835   5.521   2.916
  190SOL     OW 1468   3.927   1.360   4.663
  190SOL    HW1 1469   3.845   1.339   4.609
  190SOL    HW2 1470   3.971   1.275   4.692
  191SOL     OW 1471   5.479   5.564   6.235
  191SOL    HW1 1472   5.470   5.580   6.137
  191SOL    HW2 1473   5.525   5.642   6.278
  192SOL     OW 1474   0.154   5.624   1.746
  192SOL    HW1 1475   0.128   5.528   1.755
  192SOL    HW2 1476   0.224   5.633   1.676
  193SOL     OW 1477   4.851   2.634   5.423
  193SOL    HW1 1478   4.938   2.681   5.405
  193SOL    HW2 1479   4.786   2.699   5.462
  194SOL     OW 1480   3.573   1.079   2.944
  194SOL    HW1 1481   3.659   1.086   2.893
  194SOL    HW2 1482   3.584   1.013   3.018
  195SOL     OW 1483   1.981   6.045   3.814
  195SOL    HW1 1484   1.960   6.055   3.911
  195SOL    HW2 1485   2.044   5.969   3.801
  196SOL     OW 1486   2.412   2.104   6.808
  196SOL    HW1 1487   2.467   2.031   6.767
  196SOL    HW2 1488   2.466   2.188   6.814
  197SOL     OW 1489   2.320   1.296   0.370
  197SOL    HW1 1490   2.384   1.241   0.316
  197SOL    HW2 1491   2.231   1.251   0.373
  198SOL     OW 1492   4.656   1.679   3.195
  198SOL    HW1 1493   4.672   1.771   3.233
  198SOL    HW2 1494   4.581   1.683   3.129
  199SOL     OW 1495   1.111   2.400   3.869
  199SOL    HW1 1496   1.196   2.447   3.845
  199SOL    HW2 1497   1.117   2.305   3.838
  200SOL     OW 1498   1.476   3.319   0.887
  200SOL    HW1 1499   1.504   3.410   0.917
  200SOL    HW2 1500   1.446   3.323   0.792
  201SOL     OW 1501   0.278   6.836   5.341
  201SOL    HW1 1502   0.371   6.858   5.370
  201SOL    HW2 1503   0.267   6.860   5.245
  202SOL     OW 1504   3.961   1.548   6.444
  202SOL    HW1 1505   4.050   1.503   6.447
  202SOL    HW2 1506   3.970   1.638   6.401
  203SOL     OW 1507   5.827   2.289   5.555
  203SOL    HW1 1508   5.786   2.223   5.619
  203SOL    HW2 1509   5.755   2.346   5.515
  204SOL     OW 1510   0.604   0.006   5.003
  204SOL    HW1 1511   0.544   6.959   4.965
  204SOL    HW2 1512   0.630   0.070   4.931
  205SOL     OW 1513   1.727   2.291   2.861
  205SOL    HW1 1514   1.666   2.292   2.782
  205SOL    HW2 1515   1.725   2.381   2.905
  206SOL     OW 1516   0.861   3.037   1.447
  206SOL    HW1 1517   0.926   3.093   1.497
  206SOL    HW2 1518   0.910   2.970   1.391
  207SOL     OW 1519   5.030   0.980   3.434
  207SOL    HW1 1520   4.948   0.924   3.438
  207SOL    HW2 1521   5.110   0.921   3.424
  208SOL     OW 1522   6.986   3.933   5.587
  208SOL    HW1 1523   6.950   3.841   5.599
  208SOL    HW2 1524   0.059   3.936   5.615
  209SOL     OW 1525   6.614   4.419   2.994
  209SOL    HW1 1526   6.527   4.464   2.974
  209SOL    HW2 1527   6.601   4.320   2.992
  210SOL     OW 1528   4.342   1.746   0.483
  210SOL    HW1 1529   4.381   1.673   0.539
  210SOL    HW2 1530   4.296   1.812   0.542
  211SOL     OW 1531   0.967   6.691   2.420
  211SOL    HW1 1532   1.061   6.660   2.440
  211SOL    HW2 1533   0.903   6.616   2.439
  212SOL     OW 1534   1.302   3.720   2.376
  212SOL    HW1 1535   1.314   3.787   2.449
  212SOL    HW2 1536   1.383   3.721   2.317
  213SOL     OW 1537   1.682   5.731   0.986
  213SOL    HW1 1538   1.780   5.711   0.992
  213SOL    HW2 1539   1.668   5.809   0.925
  214SOL     OW 1540   3.570   5.041   2.589
  214SOL    HW1 1541   3.524   5.044   2.678
  214SOL    HW2 1542   3.657   5.092   2.595
  215SOL     OW 1543   2.417   4.191   1.223
  215SOL    HW1 1544   2.371   4.112   1.261
  215SOL    HW2 1545   2.394   4.201   1.127
  216SOL     OW 1546   0.477   6.595   3.071
  216SOL    HW1 1547   0.512   6.534   3.142
  216SOL    HW2 1548   0.406   6.654   3.110
  217SOL     OW 1549   1.392   2.424   5.209
  217SOL    HW1 1550   1.347   2.508   5.238
  217SOL    HW2 1551   1.323   2.352   5.198
  218SOL     OW 1552   0.836   2.498   4.614
  218SOL    HW1 1553   0.895   2.552   4.554
  218SOL    HW2 1554   0.756   2.552   4.641
  219SOL     OW 1555   4.480   0.598   0.830
  219SOL    HW1 1556   4.482   0.677   0.769
  219SOL    HW2 1557   4.442   0.626   0.919
  220SOL     OW 1558   2.350   6.891   0.880
  220SOL    HW1 1559   2.406   6.960   0.926
  220SOL    HW2 1560   2.321   6.927   0.791
  221SOL     OW 1561   6.129   4.324   1.468
  221SOL    HW1 1562   6.185   4.351   1.389
  221SOL    HW2 1563   6.033   4.330   1.443
  222SOL     OW 1564   1.681   4.361   5.969
  222SOL    HW1 1565   1.638   4.400   6.051
  222SOL    HW2 1566   1.611   4.343   5.900
  223SOL     OW 1567   6.916   2.755   4.959
  223SOL    HW1 1568   6.958   2.789   4.875
  223SOL    HW2 1569   6.929   2.656   4.966
  224SOL     OW 1570   3.363   1.259   6.736
  224SOL    HW1 1571   3.363   1.166   6.700
  224SOL    HW2 1572   3.331   1.258   6.831
  225SOL     OW 1573   4.448   4.029   6.339
  225SOL    HW1 1574   4.361   3.980   6.333
  225SOL    HW2 1575   4.431   4.127   6.347
  226SOL     OW 1576   0.398   1.793   6.065
  226SOL    HW1 1577   0.368   1.755   6.153
  226SOL    HW2 1578   0.397   1.893   6.069
  227SOL     OW 1579   2.273   4.259   2.774
  227SOL    HW1 1580   2.297   4.334   2.713
  227SOL    HW2 1581   2.268   4.174   2.722
  228SOL     OW 1582   1.782   0.741   2.878
  228SOL    HW1 1583   1.812   0.660   2.829
  228SOL    HW2 1584   1.724   0.714   2.955
  229SOL     OW 1585   5.294   5.237   6.119
  229SOL    HW1 1586   5.271   5.324   6.164
  229SOL    HW2 1587   5.255   5.161   6.171
  230SOL     OW 1588   4.634   5.968   4.487
  230SOL    HW1 1589   4.646   5.944   4.584
  230SOL    HW2 1590   4.698   5.916   4.432
  231SOL     OW 1591   6.125   1.409   6.671
  231SOL    HW1 1592   6.210   1.393   6.622
  231SOL    HW2 1593   6.134   1.377   6.765
  232SOL     OW 1594   0.301   3.278   6.387
  232SOL    HW1 1595   0.220   3.294   6.444
  232SOL    HW2 1596   0.367   3.224   6.439
  233SOL     OW 1597   3.802   1.738   3.207
  233SOL    HW1 1598   3.798   1.746   3.107
  233SOL    HW2 1599   3.742   1.664   3.237
  234SOL     OW 1600   6.175   0.922   6.183
  234SOL    HW1 1601   6.126   0.844   6.145
  234SOL    HW2 1602   6.270   0.896   6.203
  235SOL     OW 1603   4.956   3.420   2.382
  235SOL    HW1 1604   4.937   3.360   2.460
  235SOL    HW2 1605   4.924   3.376   2.298
  236SOL     OW 1606   5.083   2.692   6.955
  236SOL    HW1 1607   5.161   2.676   6.894
  236SOL    HW2 1608   5.111   2.751   0.007
  237SOL     OW 1609   0.341   4.055   2.146
  237SOL    HW1 1610   0.270   3.985   2.152
  237SOL    HW2 1611   0.430   4.015   2.169
  238SOL     OW 1612   6.121   1.590   0.712
  238SOL    HW1 1613   6.211   1.633   0.713
  238SOL    HW2 1614   6.120   1.513   0.777
  239SOL     OW 1615   1.179   3.913   6.964
  239SOL    HW1 1616   1.273   3.888   6.987
  239SOL    HW2 1617   1.148   3.987   0.001
  240SOL     OW 1618   0.519   2.786   3.426
  240SOL    HW1 1619   0.612   2.799   3.391
  240SOL    HW2 1620   0.476   2.875   3.440
  241SOL     OW 1621   2.898   2.162   4.416
  241SOL    HW1 1622   2.965   2.183   4.487
  241SOL    HW2 1623   2.833   2.093   4.449
  242SOL     OW 1624   3.693   3.369   3.556
  242SOL    HW1 1625   3.694   3.303   3.632
  242SOL    HW2 1626   3.658   3.456   3.589
  243SOL     OW 1627   4.736   2.028   0.249
  243SOL    HW1 1628   4.719   1.940   0.294
  243SOL    HW2 1629   4.829   2.059   0.271
  244SOL     OW 1630   5.937   3.848   5.657
  244SOL    HW1 1631   5.950   3.878   5.562
  244SOL    HW2 1632   5.871   3.907   5.702
  245SOL     OW 1633   4.819   2.030   3.608
  245SOL    HW1 1634   4.730   2.071   3.629
  245SOL    HW2 1635   4.888   2.067   3.670
  246SOL     OW 1636   4.856   1.604   3.405
  246SOL    HW1 1637   4.787   1.618   3.335
  246SOL    HW2 1638   4.813   1.608   3.496
  247SOL     OW 1639   2.642   1.599   0.758
  247SOL    HW1 1640   2.710   1.646   0.701
  247SOL    HW2 1641   2.567   1.663   0.779
  248SOL     OW 1642   2.416   0.923   2.855
  248SOL    HW1 1643   2.319   0.918   2.832
  248SOL    HW2 1644   2.431   0.883   2.945
  249SOL     OW 1645   5.112   6.715   5.649
  249SOL    HW1 1646   5.162   6.629   5.654
  249SOL    HW2 1647   5.092   6.737   5.553
  250SOL     OW 1648   4.239   3.958   0.586
  250SOL    HW1 1649   4.288   3.871   0.589
  250SOL    HW2 1650   4.233   3.996   0.679
  251SOL     OW 1651   4.464   3.390   5.340
  251SOL    HW1 1652   4.452   3.447   5.421
  251SOL    HW2 1653   4.485   3.447   5.261
  252SOL     OW 1654   6.412   6.884   5.138
  252SOL    HW1 1655   6.456   6.826   5.070
  252SOL    HW2 1656   6.371   6.828   5.210
  253SOL     OW 1657   3.882   5.195   6.376
  253SOL    HW1 1658   3.940   5.137   6.319
  253SOL    HW2 1659   3.842   5.268   6.320
  254SOL     OW 1660   6.752   2.544   3.514
  254SOL    HW1 1661   6.818   2.600   3.563
  254SOL    HW2 1662   6.754   2.567   3.417
  255SOL     OW 1663   2.318   4.350   5.669
  255SOL    HW1 1664   2.401   4.294   5.664
  255SOL    HW2 1665   2.269   4.345   5.582
  256SOL     OW 1666   5.817   3.140   6.403
  256SOL    HW1 1667   5.825   3.141   6.303
  256SOL    HW2 1668   5.793   3.047   6.433
  257SOL     OW 1669   5.223   0.140   3.126
  257SOL    HW1 1670   5.154   0.079   3.163
  257SOL    HW2 1671   5.191   0.179   3.039
  258SOL     OW 1672   2.384   3.954   5.428
  258SOL    HW1 1673   2.403   3.873   5.484
  258SOL    HW2 1674   2.406   3.935   5.332
  259SOL     OW 1675   5.981   0.901   2.109
  259SOL    HW1 1676   5.928   0.959   2.046
  259SOL    HW2 1677   6.060   0.951   2.142
  260SOL     OW 1678   4.224   6.060   3.239
  260SOL    HW1 1679   4.141   6.017   3.204
  260SOL    HW2 1680   4.234   6.151   3.197
  261SOL     OW 1681   5.276   3.778   1.612
  261SOL    HW1 1682   5.330   3.717   1.553
  261SOL    HW2 1683   5.320   3.784   1.702
  262SOL     OW 1684   1.074   3.894   0.383
  262SOL    HW1 1685   0.991   3.901   0.327
  262SOL    HW2 1686   1.111   3.985   0.400
  263SOL     OW 1687   1.567   0.806   4.428
  263SOL    HW1 1688   1.636   0.863   4.472
  263SOL    HW2 1689   1.568   0.824   4.329
  264SOL     OW 1690   6.619   2.235   0.121
  264SOL    HW1 1691   6.627   2.136   0.128
  264SOL    HW2 1692   6.565   2.270   0.198
  265SOL     OW 1693   5.918   6.510   2.421
  265SOL    HW1 1694   5.951   6.597   2.458
  265SOL    HW2 1695   5.924   6.439   2.491
  266SOL     OW 1696   4.526   3.126   5.737
  266SOL    HW1 1697   4.442   3.089   5.697
  266SOL    HW2 1698   4.506   3.163   5.828
  267SOL     OW 1699   0.675   1.984   5.961
  267SOL    HW1 1700   0.695   1.893   5.997
  267SOL    HW2 1701   0.594   2.021   6.006
  268SOL     OW 1702   2.807   1.078   6.198
  268SOL    HW1 1703   2.728   1.058   6.255
  268SOL    HW2 1704   2.776   1.125   6.115
  269SOL     OW 1705   2.167   4.113   0.807
  269SOL    HW1 1706   2.211   4.024   0.797
  269SOL    HW2 1707   2.076   4.110   0.766
  270SOL     OW 1708   0.640   6.212   0.961
  270SOL    HW1 1709   0.592   6.227   0.875
  270SOL    HW2 1710   0.629   6.117   0.990
  271SOL     OW 1711   6.997   1.588   6.191
  271SOL    HW1 1712   0.059   1.640   6.190
  271SOL    HW2 1713   6.920   1.649   6.209
  272SOL     OW 1714   3.517   6.699   3.915
  272SOL    HW1 1715   3.462   6.632   3.866
  272SOL    HW2 1716   3.458   6.772   3.950
  273SOL     OW 1717   2.152   4.616   4.791
  273SOL    HW1 1718   2.152   4.698   4.735
  273SOL    HW2 1719   2.089   4.628   4.869
  274SOL     OW 1720   3.709   1.532   3.354
  274SOL    HW1 1721   3.669   1.553   3.443
  274SOL    HW2 1722   3.664   1.451   3.316
  275SOL     OW 1723   6.178   6.123   2.471
  275SOL    HW1 1724   6.089   6.148   2.434
  275SOL    HW2 1725   6.211   6.195   2.531
  276SOL     OW 1726   6.928   6.824   3.862
  276SOL    HW1 1727   6.869   6.904   3.865
  276SOL    HW2 1728   6.896   6.756   3.928
  277SOL     OW 1729   1.949   3.940   0.276
  277SOL    HW1 1730   1.932   4.038   0.286
  277SOL    HW2 1731   2.042   3.927   0.242
  278SOL     OW 1732   6.992   3.676   2.089
  278SOL    HW1 1733   0.033   3.747   2.121
  278SOL    HW2 1734   6.972   3.613   2.164
  279SOL     OW 1735   5.858   2.971   4.643
  279SOL    HW1 1736   5.853   2.904   4.570
  279SOL    HW2 1737   5.817   2.933   4.726
  280SOL     OW 1738   2.806   5.582   1.690
  280SOL    HW1 1739   2.747   5.641   1.745
  280SOL    HW2 1740   2.809   5.491   1.729
  281SOL     OW 1741   2.459   4.778   1.896
  281SOL    HW1 1742   2.521   4.755   1.820
  281SOL    HW2 1743   2.464   4.707   1.966
  282SOL     OW 1744   2.814   1.435   5.466
  282SOL    HW1 1745   2.724   1.462   5.501
  282SOL    HW2 1746   2.803   1.360   5.401
  283SOL     OW 1747   6.427   2.431   6.537
  283SOL    HW1 1748   6.499   2.363   6.550
  283SOL    HW2 1749   6.467   2.523   6.543
  284SOL     OW 1750   1.243   3.146   4.031
  284SOL    HW1 1751   1.340   3.148   4.005
  284SOL    HW2 1752   1.235   3.171   4.128
  285SOL     OW 1753   5.234   4.610   3.847
  285SOL    HW1 1754   5.224   4.685   3.912
  285SOL    HW2 1755   5.259   4.527   3.896
  286SOL     OW 1756   3.268   4.746   0.056
  286SOL    HW1 1757   3.177   4.757   0.016
  286SOL    HW2 1758   3.280   4.651   0.086
  287SOL     OW 1759   1.019   2.889   1.292
  287SOL    HW1 1760   1.061   2.860   1.378
  287SOL    HW2 1761   1.072   2.853   1.215
  288SOL     OW 1762   3.590   1.402   6.769
  288SOL    HW1 1763   3.499   1.366   6.752
  288SOL    HW2 1764   3.624   1.448   6.687
  289SOL     OW 1765   1.955   4.209   5.310
  289SOL    HW1 1766   1.858   4.188   5.326
  289SOL    HW2 1767   2.000   4.127   5.274
  290SOL     OW 1768   6.227   1.864   4.895
  290SOL    HW1 1769   6.228   1.964   4.900
  290SOL    HW2 1770   6.290   1.826   4.964
  291SOL     OW 1771   0.427   1.761   4.059
  291SOL    HW1 1772   0.393   1.851   4.031
  291SOL    HW2 1773   0.515   1.743   4.015
  292SOL     OW 1774   1.611   1.049   2.914
  292SOL    HW1 1775   1.612   1.113   2.990
  292SOL    HW2 1776   1.643   1.095   2.831
  293SOL     OW 1777   4.504   5.857   3.177
  293SOL    HW1 1778   4.446   5.776   3.166
  293SOL    HW2 1779   4.450   5.940   3.163
  294SOL     OW 1780   6.192   5.781   6.793
  294SOL    HW1 1781   6.127   5.725   6.845
  294SOL    HW2 1782   6.182   5.762   6.696
  295SOL     OW 1783   3.563   0.718   2.992
  295SOL    HW1 1784   3.640   0.681   3.044
  295SOL    HW2 1785   3.597   0.762   2.909
  296SOL     OW 1786   3.132   1.396   2.685
  296SOL    HW1 1787   3.085   1.376   2.598
  296SOL    HW2 1788   3.225   1.358   2.681
  297SOL     OW 1789   2.275   4.787   3.352
  297SOL    HW1 1790   2.292   4.852   3.425
  297SOL    HW2 1791   2.351   4.787   3.287
  298SOL     OW 1792   4.718   5.888   1.436
  298SOL    HW1 1793   4.705   5.985   1.418
  298SOL    HW2 1794   4.733   5.840   1.350
  299SOL     OW 1795   5.847   3.260   5.267
  299SOL    HW1 1796   5.897   3.248   5.180
  299SOL    HW2 1797   5.904   3.312   5.330
  300SOL     OW 1798   6.574   0.837   2.660
  300SOL    HW1 1799   6.480   0.865   2.680
  300SOL    HW2 1800   6.576   0.787   2.574
  301SOL     OW 1801   5.611   3.696   0.197
  301SOL    HW1 1802   5.695   3.677   0.249
  301SOL    HW2 1803   5.542   3.736   0.258
  302SOL     OW 1804   1.394   0.175   3.475
  302SOL    HW1 1805   1.484   0.131   3.487
  302SOL    HW2 1806   1.406   0.274   3.473
  303SOL     OW 1807   5.531   1.010   1.967
  303SOL    HW1 1808   5.619   1.023   2.014
  303SOL    HW2 1809   5.466   0.968   2.029
  304SOL     OW 1810   1.964   0.399   3.019
  304SOL    HW1 1811   2.029   0.431   2.950
  304SOL    HW2 1812   1.909   0.324   2.980
  305SOL     OW 1813   0.660   3.593   6.823
  305SOL    HW1 1814   0.620   3.554   6.740
  305SOL    HW2 1815   0.646   3.692   6.823
  306SOL     OW 1816   1.502   1.368   4.197
  306SOL    HW1 1817   1.466   1.359   4.104
  306SOL    HW2 1818   1.556   1.451   4.205
  307SOL     OW 1819   5.036   0.014   1.183
  307SOL    HW1 1820   4.973   0.059   1.246
  307SOL    HW2 1821   5.059   6.946   1.219
  308SOL     OW 1822   0.250   5.405   3.761
  308SOL    HW1 1823   0.160   5.431   3.795
  308SOL    HW2 1824   0.309   5.381   3.838
  309SOL     OW 1825   3.876   4.372   5.366
  309SOL    HW1 1826   3.917   4.437   5.303
  309SOL    HW2 1827   3.886   4.279   5.329
  310SOL     OW 1828   6.205   6.746   6.071
  310SOL    HW1 1829   6.214   6.844   6.054
  310SOL    HW2 1830   6.144   6.705   6.003
  311SOL     OW 1831   6.783   5.181   1.887
  311SOL    HW1 1832   6.814   5.148   1.976
  311SOL    HW2 1833   6.683   5.182   1.885
  312SOL     OW 1834   4.886   1.521   4.675
  312SOL    HW1 1835   4.823   1.536   4.599
  312SOL    HW2 1836   4.911   1.609   4.716
  313SOL     OW 1837   2.580   4.204   1.684
  313SOL    HW1 1838   2.617   4.268   1.752
  313SOL    HW2 1839   2.630   4.117   1.690
  314SOL     OW 1840   3.735   5.589   0.435
  314SOL    HW1 1841   3.780   5.521   0.377
  314SOL    HW2 1842   3.783   5.676   0.427
  315SOL     OW 1843   0.781   2.399   3.272
  315SOL    HW1 1844   0.704   2.400   3.207
  315SOL    HW2 1845   0.747   2.411   3.365
  316SOL     OW 1846   2.348   2.827   4.230
  316SOL    HW1 1847   2.324   2.916   4.268
  316SOL    HW2 1848   2.406   2.778   4.295
  317SOL     OW 1849   0.486   1.569   0.039
  317SOL    HW1 1850   0.388   1.558   0.027
  317SOL    HW2 1851   0.527   1.481   0.062
  318SOL     OW 1852   1.566   4.988   1.122
  318SOL    HW1 1853   1.493   5.055   1.115
  318SOL    HW2 1854   1.645   5.029   1.169
  319SOL     OW 1855   1.083   6.975   2.113
  319SOL    HW1 1856   1.052   0.021   2.179
  319SOL    HW2 1857   1.021   6.896   2.117
  320SOL     OW 1858   6.045   2.472   6.959
  320SOL    HW1 1859   6.103   2.449   0.013
  320SOL    HW2 1860   6.005   2.389   6.921
  321SOL     OW 1861   1.807   1.948   2.066
  321SOL    HW1 1862   1.846   1.910   1.982
  321SOL    HW2 1863   1.736   2.015   2.043
  322SOL     OW 1864   3.380   2.896   4.129
  322SOL    HW1 1865   3.294   2.946   4.139
  322SOL    HW2 1866   3.408   2.860   4.218
  323SOL     OW 1867   0.555   4.137   0.822
  323SOL    HW1 1868   0.491   4.188   0.880
  323SOL    HW2 1869   0.632   4.106   0.876
  324SOL     OW 1870   0.902   2.679   4.423
  324SOL    HW1 1871   0.847   2.755   4.458
  324SOL    HW2 1872   0.960   2.712   4.349
  325SOL     OW 1873   2.133   3.606   1.086
  325SOL    HW1 1874   2.145   3.704   1.073
  325SOL    HW2 1875   2.220   3.566   1.115
  326SOL     OW 1876   1.564   6.258   6.552
  326SOL    HW1 1877   1.537   6.281   6.459
  326SOL    HW2 1878   1.507   6.183   6.585
  327SOL     OW 1879   0.429   4.899   4.731
  327SOL    HW1 1880   0.528   4.893   4.717
  327SOL    HW2 1881   0.385   4.815   4.699
  328SOL     OW 1882   3.651   5.412   2.650
  328SOL    HW1 1883   3.575   5.405   2.715
  328SOL    HW2 1884   3.699   5.324   2.646
  329SOL     OW 1885   3.103   3.752   3.466
  329SOL    HW1 1886   3.096   3.658   3.431
  329SOL    HW2 1887   3.081   3.816   3.392
  330SOL     OW 1888   2.993   6.752   2.061
  330SOL    HW1 1889   2.950   6.838   2.087
  330SOL    HW2 1890   2.946   6.713   1.982
  331SOL     OW 1891   4.665   5.609   6.254
  331SOL    HW1 1892   4.754   5.624   6.211
  331SOL    HW2 1893   4.609   5.691   6.245
  332SOL     OW 1894   3.253   1.609   3.517
  332SOL    HW1 1895   3.198   1.562   3.449
  332SOL    HW2 1896   3.238   1.566   3.607
  333SOL     OW 1897   4.204   0.099   5.824
  333SOL    HW1 1898   4.210   0.163   5.900
  333SOL    HW2 1899   4.280   0.033   5.829
  334SOL     OW 1900   3.232   6.975   2.193
  334SOL    HW1 1901   3.137   6.950   2.212
  334SOL    HW2 1902   3.258   0.029   2.251
  335SOL     OW 1903   4.051   6.036   3.758
  335SOL    HW1 1904   4.108   5.963   3.797
  335SOL    HW2 1905   4.027   6.012   3.664
  336SOL     OW 1906   2.115   1.307   3.001
  336SOL    HW1 1907   2.118   1.214   3.039
  336SOL    HW2 1908   2.090   1.372   3.072
  337SOL     OW 1909   0.260   3.215   1.707
  337SOL    HW1 1910   0.278   3.262   1.793
  337SOL    HW2 1911   0.330   3.239   1.640
  338SOL     OW 1912   3.028   2.888   1.841
  338SOL    HW1 1913   3.069   2.813   1.894
  338SOL    HW2 1914   2.976   2.948   1.903
  339SOL     OW 1915   3.762   0.382   2.999
  339SOL    HW1 1916   3.720   0.367   2.910
  339SOL    HW2 1917   3.715   0.325   3.067
  340SOL     OW 1918   5.677   4.448   4.745
  340SOL    HW1 1919   5.707   4.516   4.812
  340SOL    HW2 1920   5.757   4.397   4.711
  341SOL     OW 1921   5.167   6.264   4.331
  341SOL    HW1 1922   5.262   6.288   4.351
  341SOL    HW2 1923   5.152   6.269   4.232
  342SOL     OW 1924   5.502   4.516   6.976
  342SOL    HW1 1925   5.427   4.528   0.018
  342SOL    HW2 1926   5.509   4.419   6.953
  343SOL     OW 1927   3.131   6.486   2.027
  343SOL    HW1 1928   3.077   6.521   1.950
  343SOL    HW2 1929   3.073   6.483   2.109
  344SOL     OW 1930   1.981   5.215   0.449
  344SOL    HW1 1931   2.025   5.215   0.539
  344SOL    HW2 1932   1.976   5.122   0.414
  345SOL     OW 1933   0.780   0.486   5.684
  345SOL    HW1 1934   0.693   0.536   5.682
  345SOL    HW2 1935   0.764   0.390   5.664
  346SOL     OW 1936   1.577   0.298   3.106
  346SOL    HW1 1937   1.513   0.329   3.176
  346SOL    HW2 1938   1.532   0.302   3.016
  347SOL     OW 1939   5.675   6.759   6.467
  347SOL    HW1 1940   5.637   6.848   6.492
  347SOL    HW2 1941   5.769   6.771   6.435
  348SOL     OW 1942   4.038   5.181   1.500
  348SOL    HW1 1943   3.949   5.142   1.523
  348SOL    HW2 1944   4.111   5.122   1.535
  349SOL     OW 1945   0.634   4.212   2.283
  349SOL    HW1 1946   0.682   4.268   2.216
  349SOL    HW2 1947   0.544   4.253   2.302
  350SOL     OW 1948   3.769   3.627   1.573
  350SOL    HW1 1949   3.701   3.693   1.605
  350SOL    HW2 1950   3.860   3.665   1.585
  351SOL     OW 1951   2.812   1.746   0.403
  351SOL    HW1 1952   2.853   1.822   0.454
  351SOL    HW2 1953   2.861   1.661   0.425
  352SOL     OW 1954   3.707   0.636   5.362
  352SOL    HW1 1955   3.648   0.557   5.344
  352SOL    HW2 1956   3.651   0.717   5.376
  353SOL     OW 1957   2.027   6.449   0.496
  353SOL    HW1 1958   2.090   6.405   0.433
  353SOL    HW2 1959   1.992   6.382   0.561
  354SOL     OW 1960   4.219   2.409   0.513
  354SOL    HW1 1961   4.242   2.322   0.469
  354SOL    HW2 1962   4.185   2.391   0.605
  355SOL     OW 1963   6.780   3.123   2.551
  355SOL    HW1 1964   6.789   3.221   2.567
  355SOL    HW2 1965   6.870   3.079   2.557
  356SOL     OW 1966   4.696   5.336   4.990
  356SOL    HW1 1967   4.736   5.331   4.898
  356SOL    HW2 1968   4.643   5.420   4.998
  357SOL     OW 1969   0.656   5.948   5.202
  357SOL    HW1 1970   0.591   5.937   5.278
  357SOL    HW2 1971   0.689   6.042   5.200
  358SOL     OW 1972   6.587   0.341   1.525
  358SOL    HW1 1973   6.555   0.265   1.582
  358SOL    HW2 1974   6.685   0.354   1.538
  359SOL     OW 1975   1.222   2.414   2.450
  359SOL    HW1 1976   1.134   2.459   2.436
  359SOL    HW2 1977   1.281   2.430   2.371
  360SOL     OW 1978   4.215   6.585   6.650
  360SOL    HW1 1979   4.209   6.500   6.597
  360SOL    HW2 1980   4.171   6.573   6.739
  361SOL     OW 1981   5.270   5.809   3.274
  361SOL    HW1 1982   5.241   5.866   3.351
  361SOL    HW2 1983   5.199   5.808   3.204
  362SOL     OW 1984   2.538   4.413   0.194
  362SOL    HW1 1985   2.606   4.482   0.219
  362SOL    HW2 1986   2.472   4.452   0.130
  363SOL     OW 1987   3.738   4.936   4.580
  363SOL    HW1 1988   3.831   4.911   4.609
  363SOL    HW2 1989   3.683   4.960   4.660
  364SOL     OW 1990   0.791   5.463   6.014
  364SOL    HW1 1991   0.709   5.503   5.974
  364SOL    HW2 1992   0.824   5.388   5.956
  365SOL     OW 1993   5.303   5.711   2.270
  365SOL    HW1 1994   5.302   5.781   2.199
  365SOL    HW2 1995   5.306   5.620   2.227
  366SOL     OW 1996   6.488   1.479   7.012
  366SOL    HW1 1997   6.518   1.504   6.920
  366SOL    HW2 1998   6.408   1.533   0.014
  367SOL     OW 1999   5.099   3.156   1.159
  367SOL    HW1 2000   5.110   3.135   1.062
  367SOL    HW2 2001   5.005   3.185   1.178
  368SOL     OW 2002   1.665   4.500   5.082
  368SOL    HW1 2003   1.659   4.533   4.988
  368SOL    HW2 2004   1.750   4.449   5.094
  369SOL     OW 2005   6.576   4.224   1.704
  369SOL    HW1 2006   6.548   4.252   1.796
  369SOL    HW2 2007   6.583   4.124   1.700
  370SOL     OW 2008   2.403   0.535   5.858
  370SOL    HW1 2009   2.496   0.547   5.893
  370SOL    HW2 2010   2.406   0.532   5.758
  371SOL     OW 2011   2.756   3.427   0.221
  371SOL    HW1 2012   2.681   3.478   0.262
  371SOL    HW2 2013   2.757   3.333   0.257
  372SOL     OW 2014   6.967   0.320   5.225
  372SOL    HW1 2015   6.964   0.418   5.241
  372SOL    HW2 2016   7.009   0.302   5.136
  373SOL     OW 2017   0.170   6.132   6.724
  373SOL    HW1 2018   0.221   6.077   6.657
  373SOL    HW2 2019   0.174   6.087   6.813
  374SOL     OW 2020   3.562   0.374   2.821
  374SOL    HW1 2021   3.490   0.404   2.758
  374SOL    HW2 2022   3.599   0.286   2.789
  375SOL     OW 2023   6.118   4.788   3.469
  375SOL    HW1 2024   6.118   4.861   3.536
  375SOL    HW2 2025   6.203   4.791   3.416
  376SOL     OW 2026   1.742   2.644   4.072
  376SOL    HW1 2027   1.687   2.728   4.074
  376SOL    HW2 2028   1.687   2.570   4.033
  377SOL     OW 2029   5.008   2.108   2.498
  377SOL    HW1 2030   4.978   2.071   2.585
  377SOL    HW2 2031   5.031   2.205   2.509
  378SOL     OW 2032   3.976   3.561   5.763
  378SOL    HW1 2033   3.903   3.563   5.694
  378SOL    HW2 2034   4.057   3.606   5.726
  379SOL     OW 2035   6.101   3.500   1.596
  379SOL    HW1 2036   6.037   3.516   1.672
  379SOL    HW2 2037   6.058   3.441   1.528
  380SOL     OW 2038   0.951   1.169   1.005
  380SOL    HW1 2039   0.852   1.184   1.000
  380SOL    HW2 2040   0.976   1.138   1.097
  381SOL     OW 2041   3.227   4.943   1.402
  381SOL    HW1 2042   3.142   4.966   1.354
  381SOL    HW2 2043   3.304   4.958   1.341
  382SOL     OW 2044   3.742   5.890   0.313
  382SOL    HW1 2045   3.814   5.959   0.305
  382SOL    HW2 2046   3.689   5.907   0.396
  383SOL     OW 2047   6.754   2.866   6.833
  383SOL    HW1 2048   6.697   2.893   6.755
  383SOL    HW2 2049   6.825   2.803   6.801
  384SOL     OW 2050   0.461   5.516   5.634
  384SOL    HW1 2051   0.363   5.518   5.618
  384SOL    HW2 2052   0.484   5.441   5.696
  385SOL     OW 2053   4.760   6.192   0.668
  385SOL    HW1 2054   4.717   6.220   0.582
  385SOL    HW2 2055   4.807   6.271   0.708
  386SOL     OW 2056   3.986   6.421   5.254
  386SOL    HW1 2057   3.895   6.461   5.245
  386SOL    HW2 2058   4.048   6.466   5.190
  387SOL     OW 2059   6.997   0.667   4.372
  387SOL    HW1 2060   6.953   0.748   4.335
  387SOL    HW2 2061   0.063   0.655   4.329
  388SOL     OW 2062   6.777   2.727   5.485
  388SOL    HW1 2063   6.850   2.702   5.549
  388SOL    HW2 2064   6.761   2.651   5.422
  389SOL     OW 2065   4.541   4.366   1.643
  389SOL    HW1 2066   4.513   4.463   1.639
  389SOL    HW2 2067   4.480   4.316   1.704
  390SOL     OW 2068   3.761   1.236   0.312
  390SOL    HW1 2069   3.679   1.265   0.264
  390SOL    HW2 2070   3.750   1.255   0.410
  391SOL     OW 2071   3.221   3.619   6.462
  391SOL    HW1 2072   3.264   3.529   6.467
  391SOL    HW2 2073   3.129   3.614   6.501
  392SOL     OW 2074   1.647   4.140   2.049
  392SOL    HW1 2075   1.658   4.041   2.057
  392SOL    HW2 2076   1.573   4.170   2.109
  393SOL     OW 2077   0.807   4.441   0.843
  393SOL    HW1 2078   0.835   4.386   0.765
  393SOL    HW2 2079   0.822   4.389   0.927
  394SOL     OW 2080   6.754   2.022   6.566
  394SOL    HW1 2081   6.675   1.960   6.568
  394SOL    HW2 2082   6.825   1.986   6.626
  395SOL     OW 2083   4.743   4.390   1.841
  395SOL    HW1 2084   4.694   4.389   1.754
  395SOL    HW2 2085   4.695   4.331   1.906
  396SOL     OW 2086   2.943   1.853   2.871
  396SOL    HW1 2087   2.847   1.844   2.899
  396SOL    HW2 2088   2.947   1.889   2.778
  397SOL     OW 2089   4.701   1.280   5.037
  397SOL    HW1 2090   4.744   1.279   5.127
  397SOL    HW2 2091   4.602   1.287   5.048
  398SOL     OW 2092   1.747   0.334   4.786
  398SOL    HW1 2093   1.653   0.358   4.810
  398SOL    HW2 2094   1.752   0.319   4.687
  399SOL     OW 2095   5.257   5.560   4.096
  399SOL    HW1 2096   5.167   5.557   4.052
  399SOL    HW2 2097   5.326   5.523   4.034
  400SOL     OW 2098   6.208   0.708   4.877
  400SOL    HW1 2099   6.109   0.709   4.890
  400SOL    HW2 2100   6.238   0.617   4.848
  401SOL     OW 2101   6.771   6.418   5.810
  401SOL    HW1 2102   6.707   6.407   5.885
  401SOL    HW2 2103   6.806   6.512   5.808
  402SOL     OW 2104   6.609   0.113   2.781
  402SOL    HW1 2105   6.523   0.062   2.774
  402SOL    HW2 2106   6.677   0.057   2.827
  403SOL     OW 2107   2.831   0.498   6.355
  403SOL    HW1 2108   2.875   0.551   6.283
  403SOL    HW2 2109   2.731   0.507   6.348
  404SOL     OW 2110   3.447   5.234   5.223
  404SOL    HW1 2111   3.504   5.165   5.269
  404SOL    HW2 2112   3.506   5.295   5.169
  405SOL     OW 2113   2.358   4.248   3.420
  405SOL    HW1 2114   2.266   4.230   3.387
  405SOL    HW2 2115   2.413   4.291   3.348
  406SOL     OW 2116   0.264   5.001   5.768
  406SOL    HW1 2117   0.224   4.944   5.696
  406SOL    HW2 2118   0.290   5.089   5.729
  407SOL     OW 2119   1.495   3.093   4.271
  407SOL    HW1 2120   1.574   3.117   4.215
  407SOL    HW2 2121   1.517   3.109   4.367
  408SOL     OW 2122   2.721   1.445   3.483
  408SOL    HW1 2123   2.769   1.458   3.396
  408SOL    HW2 2124   2.622   1.457   3.469
  409SOL     OW 2125   1.329   4.055   2.818
  409SOL    HW1 2126   1.421   4.057   2.857
  409SOL    HW2 2127   1.312   3.964   2.779
  410SOL     OW 2128   1.510   2.247   1.290
  410SOL    HW1 2129   1.479   2.340   1.308
  410SOL    HW2 2130   1.581   2.221   1.355
  411SOL     OW 2131   0.523   2.170   1.514
  411SOL    HW1 2132   0.621   2.189   1.511
  411SOL    HW2 2133   0.472   2.256   1.519
  412SOL     OW 2134   1.994   4.920   2.750
  412SOL    HW1 2135   1.999   4.834   2.802
  412SOL    HW2 2136   2.085   4.958   2.738
  413SOL     OW 2137   4.174   4.696   2.714
  413SOL    HW1 2138   4.248   4.737   2.768
  413SOL    HW2 2139   4.186   4.720   2.617
  414SOL     OW 2140   2.933   6.364   3.828
  414SOL    HW1 2141   2.980   6.277   3.843
  414SOL    HW2 2142   2.838   6.356   3.858
  415SOL     OW 2143   6.705   0.931   0.601
  415SOL    HW1 2144   6.644   0.982   0.540
  415SOL    HW2 2145   6.714   0.979   0.688
  416SOL     OW 2146   4.877   3.305   4.702
  416SOL    HW1 2147   4.836   3.338   4.787
  416SOL    HW2 2148   4.976   3.308   4.709
  417SOL     OW 2149   3.334   2.221   6.483
  417SOL    HW1 2150   3.264   2.269   6.536
  417SOL    HW2 2151   3.309   2.125   6.472
  418SOL     OW 2152   3.814   6.435   4.223
  418SOL    HW1 2153   3.810   6.476   4.314
  418SOL    HW2 2154   3.836   6.507   4.156
  419SOL     OW 2155   0.946   0.057   1.654
  419SOL    HW1 2156   0.918   0.116   1.730
  419SOL    HW2 2157   0.981   6.994   1.690
  420SOL     OW 2158   6.264   0.492   6.034
  420SOL    HW1 2159   6.186   0.496   6.096
  420SOL    HW2 2160   6.316   0.577   6.041
  421SOL     OW 2161   5.187   4.039   3.573
  421SOL    HW1 2162   5.099   3.992   3.587
  421SOL    HW2 2163   5.191   4.119   3.633
  422SOL     OW 2164   5.368   2.737   1.910
  422SOL    HW1 2165   5.415   2.781   1.987
  422SOL    HW2 2166   5.291   2.682   1.945
  423SOL     OW 2167   3.413   1.425   6.509
  423SOL    HW1 2168   3.392   1.376   6.594
  423SOL    HW2 2169   3.512   1.437   6.502
  424SOL     OW 2170   1.465   4.239   3.042
  424SOL    HW1 2171   1.437   4.256   3.136
  424SOL    HW2 2172   1.533   4.166   3.040
  425SOL     OW 2173   3.345   0.231   5.646
  425SOL    HW1 2174   3.325   0.141   5.609
  425SOL    HW2 2175   3.432   0.228   5.696
  426SOL     OW 2176   2.447   2.626   4.412
  426SOL    HW1 2177   2.403   2.548   4.457
  426SOL    HW2 2178   2.526   2.656   4.467
  427SOL     OW 2179   3.870   2.089   3.419
  427SOL    HW1 2180   3.785   2.075   3.469
  427SOL    HW2 2181   3.853   2.080   3.321
  428SOL     OW 2182   2.529   1.431   5.220
  428SOL    HW1 2183   2.483   1.470   5.141
  428SOL    HW2 2184   2.628   1.428   5.203
  429SOL     OW 2185   1.139   5.867   3.861
  429SOL    HW1 2186   1.197   5.935   3.816
  429SOL    HW2 2187   1.168   5.775   3.834
  430SOL     OW 2188   1.591   6.657   3.531
  430SOL    HW1 2189   1.641   6.621   3.610
  430SOL    HW2 2190   1.637   6.739   3.498
  431SOL     OW 2191   2.664   1.918   2.157
  431SOL    HW1 2192   2.606   1.968   2.220
  431SOL    HW2 2193   2.625   1.827   2.140
  432SOL     OW 2194   4.119   2.299   1.292
  432SOL    HW1 2195   4.061   2.368   1.335
  432SOL    HW2 2196   4.150   2.234   1.361
  433SOL     OW 2197   2.139   6.588   6.927
  433SOL    HW1 2198   2.237   6.602   6.945
  433SOL    HW2 2199   2.115   6.630   6.839
  434SOL     OW 2200   3.961   6.472   3.681
  434SOL    HW1 2201   3.881   6.429   3.724
  434SOL    HW2 2202   4.036   6.406   3.677
  435SOL     OW 2203   2.708   1.625   5.874
  435SOL    HW1 2204   2.642   1.552   5.891
  435SOL    HW2 2205   2.755   1.609   5.787
  436SOL     OW 2206   4.568   0.228   3.136
  436SOL    HW1 2207   4.666   0.206   3.133
  436SOL    HW2 2208   4.517   0.148   3.166
  437SOL     OW 2209   6.329   6.938   4.499
  437SOL    HW1 2210   6.367   7.004   4.435
  437SOL    HW2 2211   6.240   6.968   4.530
  438SOL     OW 2212   0.752   4.319   2.876
  438SOL    HW1 2213   0.657   4.289   2.890
  438SOL    HW2 2214   0.752   4.410   2.833
  439SOL     OW 2215   5.780   0.522   3.035
  439SOL    HW1 2216   5.846   0.567   3.096
  439SOL    HW2 2217   5.718   0.591   2.998
  440SOL     OW 2218   4.307   1.048   0.440
  440SOL    HW1 2219   4.237   1.084   0.380
  440SOL    HW2 2220   4.390   1.028   0.387
  441SOL     OW 2221   0.399   4.400   2.748
  441SOL    HW1 2222   0.336   4.399   2.671
  441SOL    HW2 2223   0.372   4.472   2.812
  442SOL     OW 2224   5.968   3.394   5.477
  442SOL    HW1 2225   6.036   3.358   5.541
  442SOL    HW2 2226   5.935   3.483   5.509
  443SOL     OW 2227   4.944   3.312   2.829
  443SOL    HW1 2228   4.954   3.407   2.798
  443SOL    HW2 2229   4.931   3.252   2.750
  444SOL     OW 2230   4.521   1.087   1.391
  444SOL    HW1 2231   4.521   1.164   1.455
  444SOL    HW2 2232   4.442   1.029   1.409
  445SOL     OW 2233   1.557   5.228   2.453
  445SOL    HW1 2234   1.473   5.258   2.407
  445SOL    HW2 2235   1.617   5.183   2.386
  446SOL     OW 2236   5.708   6.851   1.797
  446SOL    HW1 2237   5.753   6.931   1.758
  446SOL    HW2 2238   5.777   6.789   1.834
  447SOL     OW 2239   6.206   4.181   0.273
  447SOL    HW1 2240   6.299   4.194   0.309
  447SOL    HW2 2241   6.211   4.151   0.178
  448SOL     OW 2242   2.543   0.065   3.312
  448SOL    HW1 2243   2.486   7.021   3.264
  448SOL    HW2 2244   2.637   0.030   3.319
  449SOL     OW 2245   2.248   2.909   4.565
  449SOL    HW1 2246   2.192   2.826   4.556
  449SOL    HW2 2247   2.309   2.899   4.644
  450SOL     OW 2248   0.736   4.253   3.409
  450SOL    HW1 2249   0.822   4.241   3.458
  450SOL    HW2 2250   0.738   4.339   3.358
  451SOL     OW 2251   0.902   2.018   2.625
  451SOL    HW1 2252   0.842   2.072   2.683
  451SOL    HW2 2253   0.902   2.056   2.532
  452SOL     OW 2254   4.941   6.213   2.936
  452SOL    HW1 2255   4.925   6.146   2.863
  452SOL    HW2 2256   4.915   6.304   2.903
  453SOL     OW 2257   3.802   0.506   0.166
  453SOL    HW1 2258   3.796   0.407   0.152
  453SOL    HW2 2259   3.714   0.548   0.147
  454SOL     OW 2260   0.320   4.200   6.554
  454SOL    HW1 2261   0.238   4.257   6.559
  454SOL    HW2 2262   0.303   4.120   6.496
  455SOL     OW 2263   6.496   4.494   6.384
  455SOL    HW1 2264   6.591   4.470   6.404
  455SOL    HW2 2265   6.492   4.558   6.308
  456SOL     OW 2266   2.546   0.991   2.333
  456SOL    HW1 2267   2.471   0.980   2.268
  456SOL    HW2 2268   2.511   0.983   2.426
  457SOL     OW 2269   2.375   0.062   6.276
  457SOL    HW1 2270   2.464   0.104   6.296
  457SOL    HW2 2271   2.302   0.120   6.313
  458SOL     OW 2272   1.759   1.296   3.586
  458SOL    HW1 2273   1.784   1.311   3.491
  458SOL    HW2 2274   1.660   1.294   3.595
  459SOL     OW 2275   2.557   0.470   4.473
  459SOL    HW1 2276   2.566   0.526   4.391
  459SOL    HW2 2277   2.465   0.432   4.479
  460SOL     OW 2278   1.405   2.003   5.029
  460SOL    HW1 2279   1.479   1.956   4.981
  460SOL    HW2 2280   1.409   1.981   5.126
  461SOL     OW 2281   0.857   5.222   5.812
  461SOL    HW1 2282   0.935   5.284   5.821
  461SOL    HW2 2283   0.887   5.128   5.826
  462SOL     OW 2284   3.219   4.059   4.386
  462SOL    HW1 2285   3.223   4.067   4.485
  462SOL    HW2 2286   3.161   3.981   4.361
  463SOL     OW 2287   5.801   6.887   2.289
  463SOL    HW1 2288   5.734   6.949   2.329
  463SOL    HW2 2289   5.893   6.923   2.304
  464SOL     OW 2290   3.952   6.125   6.526
  464SOL    HW1 2291   3.906   6.058   6.584
  464SOL    HW2 2292   3.919   6.217   6.549
  465SOL     OW 2293   1.551   3.089   0.330
  465SOL    HW1 2294   1.487   3.157   0.293
  465SOL    HW2 2295   1.622   3.135   0.382
  466SOL     OW 2296   3.988   5.611   4.901
  466SOL    HW1 2297   3.953   5.703   4.887
  466SOL    HW2 2298   3.937   5.566   4.974
  467SOL     OW 2299   6.150   0.693   1.814
  467SOL    HW1 2300   6.070   0.647   1.850
  467SOL    HW2 2301   6.210   0.626   1.769
  468SOL     OW 2302   3.963   0.126   0.046
  468SOL    HW1 2303   4.034   0.057   0.057
  468SOL    HW2 2304   3.991   0.210   0.093
  469SOL     OW 2305   2.588   5.214   5.511
  469SOL    HW1 2306   2.528   5.140   5.542
  469SOL    HW2 2307   2.674   5.175   5.479
  470SOL     OW 2308   2.159   5.179   2.759
  470SOL    HW1 2309   2.154   5.258   2.699
  470SOL    HW2 2310   2.251   5.173   2.799
  471SOL     OW 2311   2.610   2.341   4.440
  471SOL    HW1 2312   2.532   2.384   4.486
  471SOL    HW2 2313   2.682   2.324   4.507
  472SOL     OW 2314   6.400   4.143   6.135
  472SOL    HW1 2315   6.339   4.085   6.081
  472SOL    HW2 2316   6.385   4.126   6.232
  473SOL     OW 2317   0.064   3.034   2.760
  473SOL    HW1 2318   0.118   3.009   2.840
  473SOL    HW2 2319   6.996   3.063   2.790
  474SOL     OW 2320   5.103   5.928   4.374
  474SOL    HW1 2321   5.148   5.985   4.305
  474SOL    HW2 2322   5.112   5.971   4.464
  475SOL     OW 2323   5.912   1.327   1.300
  475SOL    HW1 2324   5.994   1.294   1.346
  475SOL    HW2 2325   5.928   1.420   1.267
  476SOL     OW 2326   0.626   5.009   1.108
  476SOL    HW1 2327   0.599   4.923   1.153
  476SOL    HW2 2328   0.593   5.086   1.162
  477SOL     OW 2329   1.099   4.530   3.736
  477SOL    HW1 2330   1.006   4.515   3.704
  477SOL    HW2 2331   1.112   4.482   3.823
  478SOL     OW 2332   4.717   5.592   1.736
  478SOL    HW1 2333   4.811   5.612   1.765
  478SOL    HW2 2334   4.664   5.677   1.736
  479SOL     OW 2335   3.956   3.753   4.356
  479SOL    HW1 2336   3.934   3.843   4.392
  479SOL    HW2 2337   3.882   3.722   4.296
  480SOL     OW 2338   2.045   6.904   2.983
  480SOL    HW1 2339   1.979   6.847   3.032
  480SOL    HW2 2340   2.094   6.963   3.047
  481SOL     OW 2341   0.259   6.890   0.908
  481SOL    HW1 2342   0.174   6.838   0.916
  481SOL    HW2 2343   0.326   6.836   0.857
  482SOL     OW 2344   4.515   5.195   1.606
  482SOL    HW1 2345   4.547   5.150   1.523
  482SOL    HW2 2346   4.471   5.127   1.665
  483SOL     OW 2347   5.354   2.265   3.150
  483SOL    HW1 2348   5.346   2.269   3.051
  483SOL    HW2 2349   5.287   2.199   3.186
  484SOL     OW 2350   2.243   4.145   4.374
  484SOL    HW1 2351   2.317   4.185   4.320
  484SOL    HW2 2352   2.167   4.210   4.380
  485SOL     OW 2353   5.238   3.068   1.861
  485SOL    HW1 2354   5.158   3.014   1.834
  485SOL    HW2 2355   5.268   3.040   1.952
  486SOL     OW 2356   5.788   6.382   5.944
  486SOL    HW1 2357   5.822   6.418   6.031
  486SOL    HW2 2358   5.846   6.305   5.916
  487SOL     OW 2359   7.004   6.673   4.863
  487SOL    HW1 2360   0.024   6.736   4.798
  487SOL    HW2 2361   0.041   6.659   4.942
  488SOL     OW 2362   1.476   5.756   3.709
  488SOL    HW1 2363   1.469   5.768   3.610
  488SOL    HW2 2364   1.569   5.778   3.739
  489SOL     OW 2365   0.646   5.660   5.784
  489SOL    HW1 2366   0.734   5.651   5.737
  489SOL    HW2 2367   0.573   5.622   5.727
  490SOL     OW 2368   1.303   4.578   5.687
  490SOL    HW1 2369   1.347   4.667   5.701
  490SOL    HW2 2370   1.218   4.575   5.739
  491SOL     OW 2371   0.211   2.617   0.816
  491SOL    HW1 2372   0.182   2.544   0.877
  491SOL    HW2 2373   0.298   2.655   0.848
  492SOL     OW 2374   1.308   2.173   5.849
  492SOL    HW1 2375   1.263   2.134   5.930
  492SOL    HW2 2376   1.315   2.103   5.778
  493SOL     OW 2377   2.053   6.009   4.567
  493SOL    HW1 2378   2.149   6.038   4.568
  493SOL    HW2 2379   2.049   5.909   4.562
  494SOL     OW 2380   2.554   6.527   5.255
  494SOL    HW1 2381   2.473   6.473   5.233
  494SOL    HW2 2382   2.606   6.545   5.172
  495SOL     OW 2383   3.786   5.099   5.930
  495SOL    HW1 2384   3.724   5.152   5.989
  495SOL    HW2 2385   3.750   5.006   5.921
  496SOL     OW 2386   4.942   1.481   2.611
  496SOL    HW1 2387   5.000   1.562   2.605
  496SOL    HW2 2388   4.958   1.423   2.532
  497SOL     OW 2389   3.221   0.954   6.882
  497SOL    HW1 2390   3.144   0.899   6.914
  497SOL    HW2 2391   3.216   1.045   6.921
  498SOL     OW 2392   0.480   5.973   1.661
  498SOL    HW1 2393   0.538   6.051   1.638
  498SOL    HW2 2394   0.533   5.889   1.652
  499SOL     OW 2395   3.233   6.197   6.752
  499SOL    HW1 2396   3.290   6.140   6.811
  499SOL    HW2 2397   3.156   6.144   6.719
  500SOL     OW 2398   5.779   2.065   0.105
  500SOL    HW1 2399   5.828   2.026   0.183
  500SOL    HW2 2400   5.772   1.997   0.033
  501SOL     OW 2401   0.951   0.202   3.137
  501SOL    HW1 2402   0.953   0.295   3.172
  501SOL    HW2 2403   0.886   0.147   3.190
  502SOL     OW 2404   1.818   5.116   6.663
  502SOL    HW1 2405   1.873   5.044   6.704
  502SOL    HW2 2406   1.742   5.075   6.612
  503SOL     OW 2407   3.639   4.888   6.785
  503SOL    HW1 2408   3.645   4.841   6.697
  503SOL    HW2 2409   3.713   4.955   6.793
  504SOL     OW 2410   6.404   6.757   1.840
  504SOL    HW1 2411   6.339   6.760   1.916
  504SOL    HW2 2412   6.369   6.811   1.764
  505SOL     OW 2413   5.254   6.721   4.992
  505SOL    HW1 2414   5.207   6.802   5.028
  505SOL    HW2 2415   5.262   6.652   5.064
  506SOL     OW 2416   3.900   5.270   3.041
  506SOL    HW1 2417   3.884   5.335   2.967
  506SOL    HW2 2418   3.994   5.234   3.034
  507SOL     OW 2419   3.536   0.492   0.435
  507SOL    HW1 2420   3.438   0.482   0.448
  507SOL    HW2 2421   3.580   0.402   0.439
  508SOL     OW 2422   6.828   5.172   3.786
  508SOL    HW1 2423   6.781   5.232   3.850
  508SOL    HW2 2424   6.814   5.076   3.812
  509SOL     OW 2425   4.471   6.887   5.528
  509SOL    HW1 2426   4.529   6.967   5.512
  509SOL    HW2 2427   4.429   6.893   5.618
  510SOL     OW 2428   0.052   4.005   6.739
  510SOL    HW1 2429   0.116   3.932   6.762
  510SOL    HW2 2430   0.069   4.037   6.646
  511SOL     OW 2431   0.890   1.552   0.707
  511SOL    HW1 2432   0.905   1.650   0.708
  511SOL    HW2 2433   0.949   1.509   0.777
  512SOL     OW 2434   6.614   2.654   6.421
  512SOL    HW1 2435   6.572   2.590   6.357
  512SOL    HW2 2436   6.713   2.640   6.423
  513SOL     OW 2437   5.213   0.757   2.623
  513SOL    HW1 2438   5.248   0.816   2.696
  513SOL    HW2 2439   5.262   0.777   2.538
  514SOL     OW 2440   6.394   6.497   3.879
  514SOL    HW1 2441   6.375   6.493   3.977
  514SOL    HW2 2442   6.308   6.510   3.829
  515SOL     OW 2443   3.997   0.074   6.670
  515SOL    HW1 2444   4.019   7.003   6.693
  515SOL    HW2 2445   3.957   0.120   6.750
  516SOL     OW 2446   2.088   5.957   1.717
  516SOL    HW1 2447   2.020   5.885   1.708
  516SOL    HW2 2448   2.089   5.990   1.812
  517SOL     OW 2449   3.064   5.630   2.073
  517SOL    HW1 2450   3.065   5.730   2.079
  517SOL    HW2 2451   3.142   5.593   2.124
  518SOL     OW 2452   2.098   3.214   3.556
  518SOL    HW1 2453   2.148   3.188   3.473
  518SOL    HW2 2454   2.127   3.154   3.631
  519SOL     OW 2455   0.371   6.978   3.554
  519SOL    HW1 2456   0.370   6.886   3.514
  519SOL    HW2 2457   0.465   7.012   3.558
  520SOL     OW 2458   1.283   3.190   0.212
  520SOL    HW1 2459   1.242   3.144   0.290
  520SOL    HW2 2460   1.288   3.126   0.135
  521SOL     OW 2461   5.304   5.416   5.415
  521SOL    HW1 2462   5.218   5.432   5.367
  521SOL    HW2 2463   5.358   5.348   5.366
  522SOL     OW 2464   3.827   3.947   1.517
  522SOL    HW1 2465   3.898   3.888   1.556
  522SOL    HW2 2466   3.760   3.971   1.587
  523SOL     OW 2467   0.480   6.375   1.944
  523SOL    HW1 2468   0.421   6.345   1.870
  523SOL    HW2 2469   0.541   6.447   1.912
  524SOL     OW 2470   6.986   2.095   1.919
  524SOL    HW1 2471   6.938   2.160   1.978
  524SOL    HW2 2472   0.061   2.104   1.933
  525SOL     OW 2473   1.771   3.898   6.227
  525SOL    HW1 2474   1.835   3.947   6.285
  525SOL    HW2 2475   1.820   3.826   6.177
  526SOL     OW 2476   2.967   6.922   4.558
  526SOL    HW1 2477   2.973   6.930   4.459
  526SOL    HW2 2478   3.055   6.943   4.600
  527SOL     OW 2479   0.888   1.732   0.357
  527SOL    HW1 2480   0.859   1.642   0.390
  527SOL    HW2 2481   0.984   1.747   0.382
  528SOL     OW 2482   6.785   3.153   4.239
  528SOL    HW1 2483   6.814   3.170   4.145
  528SOL    HW2 2484   6.843   3.204   4.302
  529SOL     OW 2485   1.994   0.153   6.122
  529SOL    HW1 2486   2.048   0.211   6.183
  529SOL    HW2 2487   1.925   0.208   6.075
  530SOL     OW 2488   3.585   3.632   1.106
  530SOL    HW1 2489   3.671   3.682   1.111
  530SOL    HW2 2490   3.603   3.536   1.084
  531SOL     OW 2491   1.987   0.636   1.728
  531SOL    HW1 2492   1.964   0.730   1.702
  531SOL    HW2 2493   2.056   0.600   1.665
  532SOL     OW 2494   3.001   2.392   0.631
  532SOL    HW1 2495   3.078   2.412   0.691
  532SOL    HW2 2496   2.916   2.401   0.683
  533SOL     OW 2497   3.673   0.372   4.308
  533SOL    HW1 2498   3.707   0.428   4.383
  533SOL    HW2 2499   3.602   0.421   4.259
  534SOL     OW 2500   1.265   5.193   1.344
  534SOL    HW1 2501   1.200   5.208   1.269
  534SOL    HW2 2502   1.214   5.178   1.429
  535SOL     OW 2503   5.273   3.491   3.893
  535SOL    HW1 2504   5.316   3.522   3.808
  535SOL    HW2 2505   5.190   3.544   3.909
  536SOL     OW 2506   6.319   6.018   2.827
  536SOL    HW1 2507   6.407   6.061   2.805
  536SOL    HW2 2508   6.256   6.087   2.862
  537SOL     OW 2509   3.332   1.066   4.601
  537SOL    HW1 2510   3.416   1.078   4.549
  537SOL    HW2 2511   3.280   0.989   4.564
  538SOL     OW 2512   2.716   4.480   5.608
  538SOL    HW1 2513   2.662   4.535   5.544
  538SOL    HW2 2514   2.729   4.388   5.571
  539SOL     OW 2515   1.120   6.281   0.349
  539SOL    HW1 2516   1.134   6.314   0.442
  539SOL    HW2 2517   1.072   6.350   0.296
  540SOL     OW 2518   0.901   0.657   3.929
  540SOL    HW1 2519   0.855   0.568   3.936
  540SOL    HW2 2520   0.915   0.695   4.020
  541SOL     OW 2521   4.347   6.285   4.464
  541SOL    HW1 2522   4.296   6.362   4.424
  541SOL    HW2 2523   4.394   6.236   4.391
  542SOL     OW 2524   3.003   6.350   6.956
  542SOL    HW1 2525   2.954   6.315   6.876
  542SOL    HW2 2526   3.059   6.276   6.995
  543SOL     OW 2527   5.513   2.327   4.233
  543SOL    HW1 2528   5.570   2.308   4.313
  543SOL    HW2 2529   5.541   2.415   4.192
  544SOL     OW 2530   0.854   4.207   1.014
  544SOL    HW1 2531   0.924   4.272   1.043
  544SOL    HW2 2532   0.896   4.130   0.967
  545SOL     OW 2533   5.708   1.308   1.877
  545SOL    HW1 2534   5.682   1.399   1.844
  545SOL    HW2 2535   5.661   1.238   1.824
  546SOL     OW 2536   0.828   3.952   2.557
  546SOL    HW1 2537   0.804   3.965   2.653
  546SOL    HW2 2538   0.849   3.856   2.540
  547SOL     OW 2539   4.602   1.490   6.505
  547SOL    HW1 2540   4.626   1.493   6.601
  547SOL    HW2 2541   4.600   1.583   6.468
  548SOL     OW 2542   3.450   2.917   0.141
  548SOL    HW1 2543   3.498   2.946   0.224
  548SOL    HW2 2544   3.383   2.846   0.164
  549SOL     OW 2545   6.052   2.213   1.263
  549SOL    HW1 2546   6.043   2.244   1.358
  549SOL    HW2 2547   6.032   2.115   1.258
  550SOL     OW 2548   0.301   5.073   3.414
  550SOL    HW1 2549   0.241   5.142   3.453
  550SOL    HW2 2550   0.252   5.023   3.342
  551SOL     OW 2551   0.045   0.688   0.401
  551SOL    HW1 2552   0.115   0.739   0.452
  551SOL    HW2 2553   6.978   0.708   0.438
  552SOL     OW 2554   5.869   5.442   5.645
  552SOL    HW1 2555   5.777   5.442   5.686
  552SOL    HW2 2556   5.904   5.535   5.644
  553SOL     OW 2557   3.350   1.150   5.654
  553SOL    HW1 2558   3.313   1.086   5.721
  553SOL    HW2 2559   3.430   1.110   5.610
  554SOL     OW 2560   5.913   5.447   0.760
  554SOL    HW1 2561   5.934   5.495   0.845
  554SOL    HW2 2562   5.817   5.463   0.735
  555SOL     OW 2563   2.266   5.247   5.654
  555SOL    HW1 2564   2.304   5.155   5.640
  555SOL    HW2 2565   2.228   5.281   5.568
  556SOL     OW 2566   4.604   1.646   3.592
  556SOL    HW1 2567   4.554   1.670   3.509
  556SOL    HW2 2568   4.547   1.665   3.672
  557SOL     OW 2569   6.193   4.682   6.081
  557SOL    HW1 2570   6.275   4.735   6.059
  557SOL    HW2 2571   6.178   4.613   6.011
  558SOL     OW 2572   3.460   3.826   2.580
  558SOL    HW1 2573   3.515   3.892   2.632
  558SOL    HW2 2574   3.478   3.734   2.614
  559SOL     OW 2575   6.555   6.294   5.665
  559SOL    HW1 2576   6.640   6.302   5.717
  559SOL    HW2 2577   6.518   6.386   5.647
  560SOL     OW 2578   6.622   3.499   3.172
  560SOL    HW1 2579   6.537   3.469   3.129
  560SOL    HW2 2580   6.618   3.482   3.270
  561SOL     OW 2581   0.686   3.029   6.374
  561SOL    HW1 2582   0.635   2.964   6.318
  561SOL    HW2 2583   0.704   3.111   6.321
  562SOL     OW 2584   4.072   0.794   5.627
  562SOL    HW1 2585   4.046   0.723   5.562
  562SOL    HW2 2586   4.153   0.842   5.594
  563SOL     OW 2587   1.452   2.135   4.084
  563SOL    HW1 2588   1.365   2.122   4.037
  563SOL    HW2 2589   1.480   2.231   4.077
  564SOL     OW 2590   0.300   2.195   5.158
  564SOL    HW1 2591   0.264   2.111   5.198
  564SOL    HW2 2592   0.324   2.178   5.062
  565SOL     OW 2593   3.637   3.190   3.373
  565SOL    HW1 2594   3.615   3.258   3.302
  565SOL    HW2 2595   3.652   3.237   3.460
  566SOL     OW 2596   3.492   5.774   3.101
  566SOL    HW1 2597   3.459   5.807   3.189
  566SOL    HW2 2598   3.441   5.819   3.027
  567SOL     OW 2599   2.005   2.793   6.464
  567SOL    HW1 2600   2.072   2.719   6.474
  567SOL    HW2 2601   1.982   2.829   6.554
  568SOL     OW 2602   6.744   0.528   0.648
  568SOL    HW1 2603   6.688   0.605   0.681
  568SOL    HW2 2604   6.778   0.475   0.725
  569SOL     OW 2605   0.193   1.814   0.444
  569SOL    HW1 2606   0.273   1.796   0.387
  569SOL    HW2 2607   0.191   1.750   0.520
  570SOL     OW 2608   2.888   0.126   5.918
  570SOL    HW1 2609   2.904   0.029   5.939
  570SOL    HW2 2610   2.954   0.182   5.967
  571SOL     OW 2611   2.958   4.999   3.307
  571SOL    HW1 2612   2.954   4.947   3.222
  571SOL    HW2 2613   2.918   4.945   3.381
  572SOL     OW 2614   2.414   6.615   4.002
  572SOL    HW1 2615   2.492   6.611   3.939
  572SOL    HW2 2616   2.443   6.656   4.088
  573SOL     OW 2617   6.109   2.327   5.641
  573SOL    HW1 2618   6.113   2.301   5.738
  573SOL    HW2 2619   6.014   2.343   5.615
  574SOL     OW 2620   2.672   1.889   5.421
  574SOL    HW1 2621   2.618   1.867   5.503
  574SOL    HW2 2622   2.610   1.914   5.346
  575SOL     OW 2623   3.339   3.430   6.828
  575SOL    HW1 2624   3.397   3.426   6.909
  575SOL    HW2 2625   3.247   3.458   6.855
  576SOL     OW 2626   1.886   3.069   2.742
  576SOL    HW1 2627   1.906   2.981   2.786
  576SOL    HW2 2628   1.972   3.115   2.720
  577SOL     OW 2629   0.957   1.636   2.012
  577SOL    HW1 2630   0.953   1.643   1.913
  577SOL    HW2 2631   1.036   1.579   2.038
  578SOL     OW 2632   1.968   5.526   6.725
  578SOL    HW1 2633   1.921   5.565   6.646
  578SOL    HW2 2634   2.001   5.601   6.783
  579SOL     OW 2635   2.589   4.624   2.550
  579SOL    HW1 2636   2.510   4.659   2.501
  579SOL    HW2 2637   2.673   4.651   2.504
  580SOL     OW 2638   4.263   5.497   5.286
  580SOL    HW1 2639   4.352   5.542   5.290
  580SOL    HW2 2640   4.201   5.550   5.228
  581SOL     OW 2641   1.043   2.758   3.751
  581SOL    HW1 2642   1.068   2.738   3.656
  581SOL    HW2 2643   0.991   2.681   3.788
  582SOL     OW 2644   5.501   5.345   3.368
  582SOL    HW1 2645   5.472   5.439   3.349
  582SOL    HW2 2646   5.461   5.314   3.454
  583SOL     OW 2647   3.486   4.928   6.041
  583SOL    HW1 2648   3.468   4.832   6.020
  583SOL    HW2 2649   3.458   4.985   5.963
  584SOL     OW 2650   3.645   0.775   6.769
  584SOL    HW1 2651   3.701   0.692   6.765
  584SOL    HW2 2652   3.677   0.840   6.700
  585SOL     OW 2653   2.658   6.464   2.016
  585SOL    HW1 2654   2.592   6.476   1.943
  585SOL    HW2 2655   2.749   6.451   1.978
  586SOL     OW 2656   4.174   0.343   1.122
  586SOL    HW1 2657   4.256   0.301   1.084
  586SOL    HW2 2658   4.182   0.347   1.222
  587SOL     OW 2659   5.192   1.856   1.599
  587SOL    HW1 2660   5.102   1.857   1.556
  587SOL    HW2 2661   5.209   1.765   1.637
  588SOL     OW 2662   0.741   5.302   1.904
  588SOL    HW1 2663   0.719   5.372   1.836
  588SOL    HW2 2664   0.781   5.222   1.860
  589SOL     OW 2665   3.490   5.812   1.493
  589SOL    HW1 2666   3.444   5.735   1.537
  589SOL    HW2 2667   3.564   5.844   1.552
  590SOL     OW 2668   5.320   1.204   0.854
  590SOL    HW1 2669   5.313   1.259   0.937
  590SOL    HW2 2670   5.249   1.232   0.789
  591SOL     OW 2671   4.240   5.627   4.343
  591SOL    HW1 2672   4.268   5.717   4.375
  591SOL    HW2 2673   4.261   5.619   4.245
  592SOL     OW 2674   4.534   1.982   4.682
  592SOL    HW1 2675   4.471   1.923   4.632
  592SOL    HW2 2676   4.486   2.064   4.712
  593SOL     OW 2677   3.682   1.779   5.493
  593SOL    HW1 2678   3.716   1.685   5.494
  593SOL    HW2 2679   3.590   1.782   5.533
  594SOL     OW 2680   6.090   1.252   1.511
  594SOL    HW1 2681   6.043   1.336   1.539
  594SOL    HW2 2682   6.140   1.214   1.589
  595SOL     OW 2683   5.220   6.113   2.620
  595SOL    HW1 2684   5.262   6.115   2.711
  595SOL    HW2 2685   5.184   6.022   2.601
  596SOL     OW 2686   6.761   4.076   3.848
  596SOL    HW1 2687   6.786   4.035   3.760
  596SOL    HW2 2688   6.806   4.025   3.921
  597SOL     OW 2689   3.071   6.920   6.667
  597SOL    HW1 2690   3.003   6.900   6.737
  597SOL    HW2 2691   3.133   6.841   6.657
  598SOL     OW 2692   2.832   3.476   5.306
  598SOL    HW1 2693   2.867   3.396   5.258
  598SOL    HW2 2694   2.897   3.551   5.296
  599SOL     OW 2695   0.882   5.657   2.002
  599SOL    HW1 2696   0.857   5.621   1.912
  599SOL    HW2 2697   0.962   5.608   2.036
  600SOL     OW 2698   6.843   4.027   4.674
  600SOL    HW1 2699   6.785   4.103   4.643
  600SOL    HW2 2700   6.897   4.057   4.753
  601SOL     OW 2701   1.434   0.924   5.096
  601SOL    HW1 2702   1.454   0.858   5.023
  601SOL    HW2 2703   1.387   0.877   5.171
  602SOL     OW 2704   3.031   6.587   4.625
  602SOL    HW1 2705   3.036   6.508   4.686
  602SOL    HW2 2706   2.984   6.662   4.671
  603SOL     OW 2707   1.667   1.426   5.280
  603SOL    HW1 2708   1.603   1.426   5.203
  603SOL    HW2 2709   1.754   1.466   5.251
  604SOL     OW 2710   6.737   2.122   1.787
  604SOL    HW1 2711   6.817   2.127   1.847
  604SOL    HW2 2712   6.756   2.062   1.709
  605SOL     OW 2713   0.360   4.274   2.298
  605SOL    HW1 2714   0.346   4.352   2.236
  605SOL    HW2 2715   0.339   4.189   2.250
  606SOL     OW 2716   3.638   7.010   5.006
  606SOL    HW1 2717   3.656   0.058   4.938
  606SOL    HW2 2718   3.585   6.937   4.965
  607SOL     OW 2719   1.055   4.564   5.818
  607SOL    HW1 2720   0.981   4.623   5.785
  607SOL    HW2 2721   1.016   4.481   5.859
  608SOL     OW 2722   3.600   0.230   5.774
  608SOL    HW1 2723   3.556   0.239   5.864
  608SOL    HW2 2724   3.682   0.287   5.772
  609SOL     OW 2725   3.872   2.386   1.440
  609SOL    HW1 2726   3.854   2.475   1.399
  609SOL    HW2 2727   3.847   2.387   1.536
  610SOL     OW 2728   4.293   2.896   0.558
  610SOL    HW1 2729   4.201   2.913   0.593
  610SOL    HW2 2730   4.306   2.798   0.544
  611SOL     OW 2731   3.972   0.389   2.378
  611SOL    HW1 2732   3.976   0.485   2.407
  611SOL    HW2 2733   4.051   0.340   2.414
  612SOL     OW 2734   3.758   4.787   5.826
  612SOL    HW1 2735   3.686   4.737   5.873
  612SOL    HW2 2736   3.758   4.761   5.729
  613SOL     OW 2737   4.926   5.311   5.576
  613SOL    HW1 2738   4.828   5.291   5.581
  613SOL    HW2 2739   4.940   5.410   5.575
  614SOL     OW 2740   5.025   5.384   5.853
  614SOL    HW1 2741   4.950   5.436   5.811
  614SOL    HW2 2742   5.065   5.323   5.785
  615SOL     OW 2743   0.317   4.631   1.165
  615SOL    HW1 2744   0.237   4.639   1.225
  615SOL    HW2 2745   0.288   4.637   1.069
  616SOL     OW 2746   6.134   2.769   3.226
  616SOL    HW1 2747   6.166   2.698   3.289
  616SOL    HW2 2748   6.208   2.791   3.162
  617SOL     OW 2749   2.582   5.036   5.916
  617SOL    HW1 2750   2.546   4.974   5.986
  617SOL    HW2 2751   2.667   5.078   5.949
  618SOL     OW 2752   1.291   1.189   1.579
  618SOL    HW1 2753   1.253   1.241   1.655
  618SOL    HW2 2754   1.378   1.149   1.606
  619SOL     OW 2755   1.544   1.662   6.192
  619SOL    HW1 2756   1.552   1.749   6.142
  619SOL    HW2 2757   1.453   1.655   6.232
  620SOL     OW 2758   4.686   2.743   0.282
  620SOL    HW1 2759   4.642   2.784   0.202
  620SOL    HW2 2760   4.654   2.649   0.293
  621SOL     OW 2761   0.205   4.722   0.239
  621SOL    HW1 2762   0.198   4.626   0.267
  621SOL    HW2 2763   0.301   4.750   0.241
  622SOL     OW 2764   1.865   1.564   0.348
  622SOL    HW1 2765   1.948   1.610   0.379
  622SOL    HW2 2766   1.788   1.627   0.354
  623SOL     OW 2767   0.989   4.832   6.421
  623SOL    HW1 2768   0.932   4.795   6.347
  623SOL    HW2 2769   1.072   4.871   6.382
  624SOL     OW 2770   0.700   2.872   2.371
  624SOL    HW1 2771   0.667   2.779   2.386
  624SOL    HW2 2772   0.722   2.884   2.274
  625SOL     OW 2773   2.762   1.115   2.662
  625SOL    HW1 2774   2.761   1.187   2.593
  625SOL    HW2 2775   2.849   1.115   2.711
  626SOL     OW 2776   2.212   6.411   3.851
  626SOL    HW1 2777   2.277   6.438   3.922
  626SOL    HW2 2778   2.261   6.359   3.780
  627SOL     OW 2779   5.334   0.886   7.000
  627SOL    HW1 2780   5.407   0.954   7.005
  627SOL    HW2 2781   5.372   0.795   7.015
  628SOL     OW 2782   4.820   4.534   4.245
  628SOL    HW1 2783   4.811   4.452   4.188
  628SOL    HW2 2784   4.867   4.510   4.330
  629SOL     OW 2785   0.194   0.105   1.202
  629SOL    HW1 2786   0.280   0.068   1.164
  629SOL    HW2 2787   0.131   0.126   1.127
  630SOL     OW 2788   4.469   1.318   1.513
  630SOL    HW1 2789   4.401   1.327   1.585
  630SOL    HW2 2790   4.440   1.371   1.433
  631SOL     OW 2791   2.511   0.017   5.633
  631SOL    HW1 2792   2.506   0.112   5.664
  631SOL    HW2 2793   2.503   0.014   5.533
  632SOL     OW 2794   2.320   1.081   0.730
  632SOL    HW1 2795   2.363   1.165   0.763
  632SOL    HW2 2796   2.239   1.105   0.676
  633SOL     OW 2797   3.358   6.260   0.116
  633SOL    HW1 2798   3.260   6.274   0.129
  633SOL    HW2 2799   3.409   6.319   0.179
  634SOL     OW 2800   4.033   5.793   1.164
  634SOL    HW1 2801   4.064   5.704   1.196
  634SOL    HW2 2802   4.076   5.813   1.076
  635SOL     OW 2803   3.035   6.995   3.094
  635SOL    HW1 2804   3.039   0.048   3.158
  635SOL    HW2 2805   3.084   6.916   3.132
  636SOL     OW 2806   5.302   5.187   6.466
  636SOL    HW1 2807   5.375   5.252   6.445
  636SOL    HW2 2808   5.316   5.103   6.415
  637SOL     OW 2809   4.762   4.694   1.621
  637SOL    HW1 2810   4.836   4.749   1.659
  637SOL    HW2 2811   4.799   4.630   1.554
  638SOL     OW 2812   5.278   1.499   1.663
  638SOL    HW1 2813   5.334   1.554   1.725
  638SOL    HW2 2814   5.336   1.432   1.616
  639SOL     OW 2815   4.164   4.656   1.833
  639SOL    HW1 2816   4.228   4.600   1.886
  639SOL    HW2 2817   4.150   4.614   1.743
  640SOL     OW 2818   2.724   3.891   5.547
  640SOL    HW1 2819   2.639   3.929   5.510
  640SOL    HW2 2820   2.791   3.964   5.559
  641SOL     OW 2821   0.009   5.665   4.910
  641SOL    HW1 2822   0.080   5.600   4.882
  641SOL    HW2 2823   6.996   5.711   4.829
  642SOL     OW 2824   0.399   5.047   4.968
  642SOL    HW1 2825   0.422   4.985   4.892
  642SOL    HW2 2826   0.346   4.997   5.036
  643SOL     OW 2827   6.281   5.503   5.950
  643SOL    HW1 2828   6.372   5.490   5.990
  643SOL    HW2 2829   6.234   5.415   5.943
  644SOL     OW 2830   1.274   6.420   3.015
  644SOL    HW1 2831   1.304   6.352   3.083
  644SOL    HW2 2832   1.252   6.506   3.062
  645SOL     OW 2833   4.937   2.480   3.927
  645SOL    HW1 2834   4.963   2.566   3.971
  645SOL    HW2 2835   4.878   2.427   3.988
  646SOL     OW 2836   0.901   0.860   4.440
  646SOL    HW1 2837   0.836   0.914   4.386
  646SOL    HW2 2838   0.881   0.871   4.538
  647SOL     OW 2839   6.208   2.524   0.282
  647SOL    HW1 2840   6.296   2.568   0.263
  647SOL    HW2 2841   6.135   2.592   0.276
  648SOL     OW 2842   5.774   3.955   2.207
  648SOL    HW1 2843   5.711   3.998   2.271
  648SOL    HW2 2844   5.820   4.026   2.153
  649SOL     OW 2845   3.873   4.937   1.235
  649SOL    HW1 2846   3.956   4.982   1.201
  649SOL    HW2 2847   3.840   4.872   1.168
  650SOL     OW 2848   4.694   4.089   0.672
  650SOL    HW1 2849   4.766   4.031   0.633
  650SOL    HW2 2850   4.705   4.093   0.771
  651SOL     OW 2851   0.582   6.338   1.189
  651SOL    HW1 2852   0.504   6.295   1.235
  651SOL    HW2 2853   0.599   6.292   1.102
  652SOL     OW 2854   4.551   0.723   2.738
  652SOL    HW1 2855   4.607   0.711   2.819
  652SOL    HW2 2856   4.519   0.818   2.733
  653SOL     OW 2857   3.559   5.161   4.054
  653SOL    HW1 2858   3.544   5.062   4.066
  653SOL    HW2 2859   3.478   5.211   4.087
  654SOL     OW 2860   6.930   4.827   6.876
  654SOL    HW1 2861   0.000   4.850   6.851
  654SOL    HW2 2862   6.871   4.907   6.862
  655SOL     OW 2863   0.553   0.288   1.358
  655SOL    HW1 2864   0.639   0.255   1.398
  655SOL    HW2 2865   0.522   0.368   1.408
  656SOL     OW 2866   2.314   6.139   1.983
  656SOL    HW1 2867   2.358   6.153   2.072
  656SOL    HW2 2868   2.221   6.105   1.997
  657SOL     OW 2869   3.065   1.237   0.662
  657SOL    HW1 2870   3.103   1.208   0.750
  657SOL    HW2 2871   2.992   1.303   0.678
  658SOL     OW 2872   3.254   3.927   6.979
  658SOL    HW1 2873   3.334   3.926   0.016
  658SOL    HW2 2874   3.283   3.949   6.886
  659SOL     OW 2875   2.888   6.660   7.010
  659SOL    HW1 2876   2.944   6.578   7.006
  659SOL    HW2 2877   2.878   6.689   0.082
  660SOL     OW 2878   3.542   6.086   2.761
  660SOL    HW1 2879   3.541   6.031   2.678
  660SOL    HW2 2880   3.453   6.128   2.775
  661SOL     OW 2881   4.512   6.028   2.953
  661SOL    HW1 2882   4.536   6.014   2.857
  661SOL    HW2 2883   4.550   5.954   3.008
  662SOL     OW 2884   3.562   1.517   5.876
  662SOL    HW1 2885   3.562   1.422   5.907
  662SOL    HW2 2886   3.468   1.550   5.866
  663SOL     OW 2887   2.064   5.351   5.039
  663SOL    HW1 2888   2.033   5.442   5.067
  663SOL    HW2 2889   2.153   5.332   5.081
  664SOL     OW 2890   0.180   0.263   6.824
  664SOL    HW1 2891   0.175   0.172   6.865
  664SOL    HW2 2892   0.267   0.272   6.775
  665SOL     OW 2893   3.074   5.387   3.715
  665SOL    HW1 2894   3.009   5.336   3.659
  665SOL    HW2 2895   3.110   5.463   3.663
  666SOL     OW 2896   4.025   0.677   2.255
  666SOL    HW1 2897   4.104   0.660   2.197
  666SOL    HW2 2898   3.964   0.743   2.211
  667SOL     OW 2899   0.627   5.756   2.013
  667SOL    HW1 2900   0.712   5.724   2.055
  667SOL    HW2 2901   0.602   5.696   1.937
  668SOL     OW 2902   5.680   4.336   6.182
  668SOL    HW1 2903   5.734   4.255   6.206
  668SOL    HW2 2904   5.664   4.336   6.083
  669SOL     OW 2905   5.982   1.365   2.911
  669SOL    HW1 2906   5.973   1.332   3.005
  669SOL    HW2 2907   6.078   1.362   2.883
  670SOL     OW 2908   1.568   1.836   3.690
  670SOL    HW1 2909   1.592   1.823   3.594
  670SOL    HW2 2910   1.651   1.855   3.743
  671SOL     OW 2911   2.277   6.396   1.848
  671SOL    HW1 2912   2.326   6.314   1.875
  671SOL    HW2 2913   2.205   6.373   1.782
  672SOL     OW 2914   0.384   6.241   1.742
  672SOL    HW1 2915   0.368   6.156   1.691
  672SOL    HW2 2916   0.357   6.319   1.686
  673SOL     OW 2917   5.585   6.409   0.863
  673SOL    HW1 2918   5.492   6.384   0.836
  673SOL    HW2 2919   5.625   6.468   0.793
  674SOL     OW 2920   6.715   1.415   5.199
  674SOL    HW1 2921   6.724   1.369   5.111
  674SOL    HW2 2922   6.701   1.346   5.271
  675SOL     OW 2923   5.901   2.233   2.203
  675SOL    HW1 2924   5.887   2.137   2.226
  675SOL    HW2 2925   5.963   2.240   2.124
  676SOL     OW 2926   2.346   4.838   5.131
  676SOL    HW1 2927   2.250   4.830   5.160
  676SOL    HW2 2928   2.382   4.747   5.109
  677SOL     OW 2929   4.654   1.125   1.117
  677SOL    HW1 2930   4.621   1.070   1.040
  677SOL    HW2 2931   4.612   1.093   1.201
  678SOL     OW 2932   2.514   4.169   5.560
  678SOL    HW1 2933   2.583   4.181   5.489
  678SOL    HW2 2934   2.434   4.123   5.521
  679SOL     OW 2935   5.507   1.222   5.516
  679SOL    HW1 2936   5.481   1.126   5.519
  679SOL    HW2 2937   5.564   1.239   5.436
  680SOL     OW 2938   5.462   0.269   4.327
  680SOL    HW1 2939   5.554   0.259   4.289
  680SOL    HW2 2940   5.466   0.319   4.413
  681SOL     OW 2941   5.341   6.276   1.921
  681SOL    HW1 2942   5.346   6.252   2.018
  681SOL    HW2 2943   5.257   6.327   1.904
  682SOL     OW 2944   1.110   0.739   2.556
  682SOL    HW1 2945   1.202   0.731   2.594
  682SOL    HW2 2946   1.095   0.667   2.489
  683SOL     OW 2947   4.283   3.481   0.991
  683SOL    HW1 2948   4.294   3.580   0.993
  683SOL    HW2 2949   4.335   3.443   0.914
  684SOL     OW 2950   6.365   0.614   6.399
  684SOL    HW1 2951   6.269   0.596   6.378
  684SOL    HW2 2952   6.418   0.529   6.390
  685SOL     OW 2953   3.239   1.469   3.748
  685SOL    HW1 2954   3.264   1.554   3.794
  685SOL    HW2 2955   3.171   1.420   3.802
  686SOL     OW 2956   4.371   0.901   4.210
  686SOL    HW1 2957   4.365   0.988   4.160
  686SOL    HW2 2958   4.363   0.825   4.146
  687SOL     OW 2959   0.726   1.766   4.402
  687SOL    HW1 2960   0.757   1.856   4.371
  687SOL    HW2 2961   0.726   1.702   4.326
  688SOL     OW 2962   6.939   1.597   6.619
  688SOL    HW1 2963   6.955   1.532   6.544
  688SOL    HW2 2964   0.003   1.636   6.648
  689SOL     OW 2965   1.032   4.794   5.520
  689SOL    HW1 2966   1.073   4.721   5.465
  689SOL    HW2 2967   1.104   4.848   5.562
  690SOL     OW 2968   6.200   3.545   3.087
  690SOL    HW1 2969   6.182   3.544   2.989
  690SOL    HW2 2970   6.141   3.479   3.133
  691SOL     OW 2971   3.852   1.952   6.617
  691SOL    HW1 2972   3.876   1.898   6.536
  691SOL    HW2 2973   3.759   1.930   6.645
  692SOL     OW 2974   3.283   1.343   5.300
  692SOL    HW1 2975   3.238   1.254   5.298
  692SOL    HW2 2976   3.317   1.360   5.392
  693SOL     OW 2977   5.107   5.973   3.427
  693SOL    HW1 2978   5.119   6.067   3.396
  693SOL    HW2 2979   5.016   5.940   3.399
  694SOL     OW 2980   3.973   5.956   4.691
  694SOL    HW1 2981   3.995   5.875   4.636
  694SOL    HW2 2982   4.030   6.033   4.662
  695SOL     OW 2983   3.268   6.054   3.891
  695SOL    HW1 2984   3.223   6.135   3.930
  695SOL    HW2 2985   3.314   6.080   3.806
  696SOL     OW 2986   4.866   3.653   3.067
  696SOL    HW1 2987   4.924   3.597   3.126
  696SOL    HW2 2988   4.861   3.612   2.976
  697SOL     OW 2989   0.889   4.700   1.742
  697SOL    HW1 2990   0.842   4.774   1.791
  697SOL    HW2 2991   0.828   4.621   1.737
  698SOL     OW 2992   4.601   6.982   1.508
  698SOL    HW1 2993   4.513   6.984   1.554
  698SOL    HW2 2994   4.635   0.052   1.497
  699SOL     OW 2995   2.735   2.541   0.694
  699SOL    HW1 2996   2.665   2.520   0.763
  699SOL    HW2 2997   2.707   2.622   0.642
  700SOL     OW 2998   3.283   6.937   2.776
  700SOL    HW1 2999   3.305   6.917   2.872
  700SOL    HW2 3000   3.204   6.999   2.773
  701SOL     OW 3001   6.394   4.179   1.006
  701SOL    HW1 3002   6.468   4.246   1.004
  701SOL    HW2 3003   6.307   4.223   0.985
  702SOL     OW 3004   2.857   1.050   4.341
  702SOL    HW1 3005   2.937   1.099   4.307
  702SOL    HW2 3006   2.835   0.973   4.281
  703SOL     OW 3007   2.567   3.038   5.824
  703SOL    HW1 3008   2.648   3.090   5.799
  703SOL    HW2 3009   2.558   2.959   5.764
  704SOL     OW 3010   1.282   2.604   6.358
  704SOL    HW1 3011   1.255   2.687   6.308
  704SOL    HW2 3012   1.203   2.571   6.411
  705SOL     OW 3013   6.558   6.190   3.956
  705SOL    HW1 3014   6.527   6.141   3.874
  705SOL    HW2 3015   6.498   6.167   4.033
  706SOL     OW 3016   4.337   0.975   5.579
  706SOL    HW1 3017   4.325   1.074   5.565
  706SOL    HW2 3018   4.423   0.946   5.537
  707SOL     OW 3019   3.761   5.271   3.738
  707SOL    HW1 3020   3.843   5.327   3.746
  707SOL    HW2 3021   3.768   5.211   3.658
  708SOL     OW 3022   3.001   0.861   3.408
  708SOL    HW1 3023   2.939   0.903   3.342
  708SOL    HW2 3024   3.011   0.764   3.387
  709SOL     OW 3025   2.036   0.057   1.729
  709SOL    HW1 3026   2.031   0.061   1.829
  709SOL    HW2 3027   1.944   0.064   1.691
  710SOL     OW 3028   4.907   2.882   1.523
  710SOL    HW1 3029   4.997   2.921   1.502
  710SOL    HW2 3030   4.863   2.937   1.594
  711SOL     OW 3031   0.121   2.567   5.247
  711SOL    HW1 3032   0.057   2.490   5.236
  711SOL    HW2 3033   0.069   2.650   5.269
  712SOL     OW 3034   4.213   2.951   0.869
  712SOL    HW1 3035   4.309   2.947   0.844
  712SOL    HW2 3036   4.192   3.040   0.909
  713SOL     OW 3037   4.314   2.721   5.314
  713SOL    HW1 3038   4.411   2.702   5.298
  713SOL    HW2 3039   4.259   2.641   5.290
  714SOL     OW 3040   6.123   4.244   3.209
  714SOL    HW1 3041   6.216   4.221   3.179
  714SOL    HW2 3042   6.063   4.247   3.129
  715SOL     OW 3043   6.224   5.057   5.350
  715SOL    HW1 3044   6.268   5.088   5.434
  715SOL    HW2 3045   6.128   5.087   5.349
  716SOL     OW 3046   1.995   0.886   2.585
  716SOL    HW1 3047   1.895   0.880   2.594
  716SOL    HW2 3048   2.019   0.971   2.539
  717SOL     OW 3049   5.537   4.996   3.417
  717SOL    HW1 3050   5.570   5.088   3.398
  717SOL    HW2 3051   5.553   4.975   3.514
  718SOL     OW 3052   5.279   2.057   4.104
  718SOL    HW1 3053   5.220   2.138   4.105
  718SOL    HW2 3054   5.374   2.085   4.097
  719SOL     OW 3055   6.706   0.742   2.894
  719SOL    HW1 3056   6.675   0.781   2.807
  719SOL    HW2 3057   6.628   0.725   2.953
  720SOL     OW 3058   1.887   0.590   6.366
  720SOL    HW1 3059   1.889   0.545   6.455
  720SOL    HW2 3060   1.817   0.548   6.308
  721SOL     OW 3061   0.320   2.634   2.342
  721SOL    HW1 3062   0.401   2.628   2.284
  721SOL    HW2 3063   0.329   2.712   2.404
  722SOL     OW 3064   4.334   0.080   6.726
  722SOL    HW1 3065   4.267   0.137   6.774
  722SOL    HW2 3066   4.342   0.110   6.631
  723SOL     OW 3067   2.205   6.341   3.418
  723SOL    HW1 3068   2.177   6.288   3.498
  723SOL    HW2 3069   2.124   6.381   3.375
  724SOL     OW 3070   1.105   0.953   3.472
  724SOL    HW1 3071   1.169   1.023   3.439
  724SOL    HW2 3072   1.037   0.996   3.530
  725SOL     OW 3073   2.181   4.305   2.477
  725SOL    HW1 3074   2.246   4.351   2.538
  725SOL    HW2 3075   2.170   4.210   2.505
  726SOL     OW 3076   2.326   5.005   0.418
  726SOL    HW1 3077   2.282   5.021   0.506
  726SOL    HW2 3078   2.423   4.986   0.432
  727SOL     OW 3079   4.586   5.346   6.288
  727SOL    HW1 3080   4.624   5.438   6.289
  727SOL    HW2 3081   4.651   5.283   6.245
  728SOL     OW 3082   0.153   3.342   4.664
  728SOL    HW1 3083   0.232   3.289   4.693
  728SOL    HW2 3084   0.070   3.305   4.706
  729SOL     OW 3085   0.256   3.113   0.892
  729SOL    HW1 3086   0.192   3.179   0.931
  729SOL    HW2 3087   0.225   3.084   0.802
  730SOL     OW 3088   4.671   0.676   2.979
  730SOL    HW1 3089   4.606   0.602   2.998
  730SOL    HW2 3090   4.704   0.713   3.066
  731SOL     OW 3091   4.742   4.501   6.688
  731SOL    HW1 3092   4.744   4.449   6.774
  731SOL    HW2 3093   4.765   4.597   6.706
  732SOL     OW 3094   5.135   1.683   2.580
  732SOL    HW1 3095   5.117   1.709   2.675
  732SOL    HW2 3096   5.174   1.760   2.530
  733SOL     OW 3097   5.488   6.465   3.483
  733SOL    HW1 3098   5.540   6.537   3.530
  733SOL    HW2 3099   5.496   6.478   3.385
  734SOL     OW 3100   6.450   5.005   2.604
  734SOL    HW1 3101   6.549   5.005   2.618
  734SOL    HW2 3102   6.423   5.087   2.553
  735SOL     OW 3103   5.751   0.658   1.822
  735SOL    HW1 3104   5.792   0.746   1.799
  735SOL    HW2 3105   5.717   0.660   1.916
  736SOL     OW 3106   1.241   1.397   4.301
  736SOL    HW1 3107   1.317   1.353   4.253
  736SOL    HW2 3108   1.257   1.395   4.400
  737SOL     OW 3109   5.841   1.363   6.225
  737SOL    HW1 3110   5.852   1.451   6.271
  737SOL    HW2 3111   5.931   1.322   6.210
  738SOL     OW 3112   2.745   4.142   1.243
  738SOL    HW1 3113   2.803   4.219   1.269
  738SOL    HW2 3114   2.649   4.171   1.247
  739SOL     OW 3115   3.044   0.194   5.281
  739SOL    HW1 3116   3.127   0.139   5.291
  739SOL    HW2 3117   3.069   0.289   5.265
  740SOL     OW 3118   5.601   1.951   2.898
  740SOL    HW1 3119   5.691   1.973   2.860
  740SOL    HW2 3120   5.531   2.008   2.854
  741SOL     OW 3121   2.560   0.639   4.269
  741SOL    HW1 3122   2.484   0.702   4.285
  741SOL    HW2 3123   2.564   0.617   4.171
  742SOL     OW 3124   1.348   6.504   0.904
  742SOL    HW1 3125   1.379   6.420   0.861
  742SOL    HW2 3126   1.271   6.483   0.965
  743SOL     OW 3127   0.916   6.642   3.651
  743SOL    HW1 3128   0.877   6.602   3.568
  743SOL    HW2 3129   0.843   6.683   3.706
  744SOL     OW 3130   5.836   1.223   0.657
  744SOL    HW1 3131   5.930   1.202   0.684
  744SOL    HW2 3132   5.784   1.138   0.649
  745SOL     OW 3133   2.279   5.891   4.921
  745SOL    HW1 3134   2.183   5.899   4.949
  745SOL    HW2 3135   2.284   5.842   4.834
  746SOL     OW 3136   5.505   4.223   4.925
  746SOL    HW1 3137   5.408   4.233   4.903
  746SOL    HW2 3138   5.561   4.258   4.850
  747SOL     OW 3139   5.495   5.269   3.110
  747SOL    HW1 3140   5.407   5.276   3.063
  747SOL    HW2 3141   5.481   5.279   3.209
  748SOL     OW 3142   5.324   5.652   2.922
  748SOL    HW1 3143   5.375   5.566   2.920
  748SOL    HW2 3144   5.372   5.720   2.867
  749SOL     OW 3145   4.747   4.151   3.749
  749SOL    HW1 3146   4.838   4.191   3.750
  749SOL    HW2 3147   4.713   4.147   3.655
  750SOL     OW 3148   2.414   1.473   1.696
  750SOL    HW1 3149   2.326   1.425   1.690
  750SOL    HW2 3150   2.411   1.538   1.772
  751SOL     OW 3151   4.766   1.639   0.481
  751SOL    HW1 3152   4.716   1.645   0.395
  751SOL    HW2 3153   4.812   1.726   0.499
  752SOL     OW 3154   3.297   2.440   5.315
  752SOL    HW1 3155   3.361   2.515   5.303
  752SOL    HW2 3156   3.273   2.402   5.225
  753SOL     OW 3157   3.715   3.607   5.266
  753SOL    HW1 3158   3.784   3.636   5.331
  753SOL    HW2 3159   3.757   3.594   5.176
  754SOL     OW 3160   5.484   0.726   6.676
  754SOL    HW1 3161   5.537   0.657   6.626
  754SOL    HW2 3162   5.539   0.764   6.750
  755SOL     OW 3163   2.951   4.320   5.344
  755SOL    HW1 3164   3.048   4.342   5.357
  755SOL    HW2 3165   2.914   4.376   5.269
  756SOL     OW 3166   2.442   5.414   6.986
  756SOL    HW1 3167   2.519   5.424   6.924
  756SOL    HW2 3168   2.375   5.486   6.968
  757SOL     OW 3169   1.808   6.569   2.412
  757SOL    HW1 3170   1.899   6.598   2.383
  757SOL    HW2 3171   1.739   6.620   2.360
  758SOL     OW 3172   4.226   1.365   3.880
  758SOL    HW1 3173   4.150   1.317   3.837
  758SOL    HW2 3174   4.310   1.345   3.829
  759SOL     OW 3175   0.336   3.299   3.817
  759SOL    HW1 3176   0.316   3.217   3.870
  759SOL    HW2 3177   0.375   3.369   3.877
  760SOL     OW 3178   0.165   6.943   3.800
  760SOL    HW1 3179   0.077   6.896   3.791
  760SOL    HW2 3180   0.177   7.005   3.722
  761SOL     OW 3181   5.302   3.697   5.357
  761SOL    HW1 3182   5.365   3.686   5.433
  761SOL    HW2 3183   5.266   3.790   5.356
  762SOL     OW 3184   2.822   6.071   5.850
  762SOL    HW1 3185   2.824   6.129   5.932
  762SOL    HW2 3186   2.766   6.115   5.780
  763SOL     OW 3187   5.930   0.635   0.151
  763SOL    HW1 3188   5.990   0.597   0.222
  763SOL    HW2 3189   5.925   0.734   0.162
  764SOL     OW 3190   5.687   0.721   5.733
  764SOL    HW1 3191   5.752   0.795   5.720
  764SOL    HW2 3192   5.736   0.637   5.756
  765SOL     OW 3193   0.599   6.564   1.009
  765SOL    HW1 3194   0.586   6.496   1.082
  765SOL    HW2 3195   0.685   6.545   0.962
  766SOL     OW 3196   2.080   2.018   4.910
  766SOL    HW1 3197   2.062   2.097   4.969
  766SOL    HW2 3198   2.025   2.026   4.826
  767SOL     OW 3199   0.057   6.972   4.289
  767SOL    HW1 3200   0.091   6.892   4.339
  767SOL    HW2 3201   0.091   6.970   4.195
  768SOL     OW 3202   2.155   6.148   2.408
  768SOL    HW1 3203   2.196   6.234   2.378
  768SOL    HW2 3204   2.056   6.160   2.416
  769SOL     OW 3205   3.261   1.402   5.034
  769SOL    HW1 3206   3.283   1.353   5.119
  769SOL    HW2 3207   3.322   1.371   4.961
  770SOL     OW 3208   2.178   4.975   4.313
  770SOL    HW1 3209   2.230   4.953   4.231
  770SOL    HW2 3210   2.186   4.901   4.379
  771SOL     OW 3211   1.381   5.133   2.642
  771SOL    HW1 3212   1.422   5.078   2.715
  771SOL    HW2 3213   1.452   5.173   2.586
  772SOL     OW 3214   5.359   5.113   6.828
  772SOL    HW1 3215   5.283   5.173   6.851
  772SOL    HW2 3216   5.367   5.040   6.896
  773SOL     OW 3217   0.977   3.223   3.671
  773SOL    HW1 3218   1.047   3.276   3.719
  773SOL    HW2 3219   0.977   3.129   3.704
  774SOL     OW 3220   1.760   1.928   3.922
  774SOL    HW1 3221   1.744   1.845   3.976
  774SOL    HW2 3222   1.856   1.953   3.929
  775SOL     OW 3223   2.261   4.038   3.994
  775SOL    HW1 3224   2.276   3.958   3.936
  775SOL    HW2 3225   2.173   4.029   4.041
  776SOL     OW 3226   1.072   6.537   6.186
  776SOL    HW1 3227   1.047   6.628   6.152
  776SOL    HW2 3228   0.990   6.486   6.209
  777SOL     OW 3229   1.856   3.833   0.006
  777SOL    HW1 3230   1.867   3.824   0.105
  777SOL    HW2 3231   1.833   3.927   7.006
  778SOL     OW 3232   3.473   6.720   1.976
  778SOL    HW1 3233   3.550   6.658   1.957
  778SOL    HW2 3234   3.429   6.693   2.061
  779SOL     OW 3235   0.122   2.881   1.904
  779SOL    HW1 3236   0.135   2.963   1.960
  779SOL    HW2 3237   0.094   2.805   1.963
  780SOL     OW 3238   1.664   1.866   4.947
  780SOL    HW1 3239   1.684   1.963   4.935
  780SOL    HW2 3240   1.658   1.822   4.857
  781SOL     OW 3241   0.582   4.311   0.628
  781SOL    HW1 3242   0.575   4.219   0.664
  781SOL    HW2 3243   0.625   4.371   0.695
  782SOL     OW 3244   1.820   4.015   5.832
  782SOL    HW1 3245   1.844   3.928   5.788
  782SOL    HW2 3246   1.902   4.059   5.867
  783SOL     OW 3247   5.037   4.359   6.501
  783SOL    HW1 3248   5.046   4.379   6.599
  783SOL    HW2 3249   4.995   4.438   6.455
  784SOL     OW 3250   3.332   6.015   1.374
  784SOL    HW1 3251   3.261   6.060   1.429
  784SOL    HW2 3252   3.352   5.925   1.412
  785SOL     OW 3253   0.402   0.186   4.022
  785SOL    HW1 3254   0.303   0.179   4.006
  785SOL    HW2 3255   0.431   0.112   4.083
  786SOL     OW 3256   6.451   1.077   3.670
  786SOL    HW1 3257   6.502   1.133   3.604
  786SOL    HW2 3258   6.353   1.092   3.658
  787SOL     OW 3259   2.358   6.909   6.821
  787SOL    HW1 3260   2.261   6.914   6.843
  787SOL    HW2 3261   2.409   6.970   6.882
  788SOL     OW 3262   3.905   3.121   1.014
  788SOL    HW1 3263   3.900   3.069   1.100
  788SOL    HW2 3264   3.980   3.186   1.019
  789SOL     OW 3265   4.485   5.561   1.329
  789SOL    HW1 3266   4.489   5.524   1.422
  789SOL    HW2 3267   4.507   5.489   1.263
  790SOL     OW 3268   0.420   2.857   1.586
  790SOL    HW1 3269   0.399   2.823   1.678
  790SOL    HW2 3270   0.474   2.941   1.594
  791SOL     OW 3271   2.743   5.143   5.305
  791SOL    HW1 3272   2.692   5.058   5.312
  791SOL    HW2 3273   2.841   5.125   5.311
  792SOL     OW 3274   0.677   1.120   0.901
  792SOL    HW1 3275   0.697   1.199   0.843
  792SOL    HW2 3276   0.682   1.037   0.845
  793SOL     OW 3277   4.020   5.735   3.592
  793SOL    HW1 3278   3.990   5.664   3.528
  793SOL    HW2 3279   3.993   5.825   3.558
  794SOL     OW 3280   3.081   3.293   3.844
  794SOL    HW1 3281   3.150   3.223   3.859
  794SOL    HW2 3282   3.123   3.384   3.845
  795SOL     OW 3283   3.899   0.956   6.322
  795SOL    HW1 3284   3.836   0.914   6.257
  795SOL    HW2 3285   3.914   1.052   6.297
  796SOL     OW 3286   1.844   3.296   6.636
  796SOL    HW1 3287   1.933   3.268   6.672
  796SOL    HW2 3288   1.853   3.326   6.541
  797SOL     OW 3289   4.803   6.985   0.502
  797SOL    HW1 3290   4.736   7.000   0.429
  797SOL    HW2 3291   4.772   6.912   0.562
  798SOL     OW 3292   3.583   6.111   1.389
  798SOL    HW1 3293   3.486   6.088   1.380
  798SOL    HW2 3294   3.639   6.031   1.367
  799SOL     OW 3295   1.350   1.903   6.306
  799SOL    HW1 3296   1.292   1.867   6.379
  799SOL    HW2 3297   1.423   1.958   6.347
  800SOL     OW 3298   6.439   1.863   1.918
  800SOL    HW1 3299   6.520   1.808   1.935
  800SOL    HW2 3300   6.457   1.927   1.843
  801SOL     OW 3301   2.099   5.340   5.438
  801SOL    HW1 3302   2.063   5.423   5.395
  801SOL    HW2 3303   2.030   5.301   5.498
  802SOL     OW 3304   5.347   2.399   0.472
  802SOL    HW1 3305   5.376   2.485   0.431
  802SOL    HW2 3306   5.337   2.329   0.401
  803SOL     OW 3307   3.025   1.159   5.573
  803SOL    HW1 3308   3.123   1.173   5.587
  803SOL    HW2 3309   2.985   1.243   5.537
  804SOL     OW 3310   6.368   0.490   1.655
  804SOL    HW1 3311   6.317   0.416   1.700
  804SOL    HW2 3312   6.450   0.452   1.613
  805SOL     OW 3313   3.132   1.333   4.089
  805SOL    HW1 3314   3.145   1.256   4.152
  805SOL    HW2 3315   3.100   1.299   4.001
  806SOL     OW 3316   1.460   6.557   5.330
  806SOL    HW1 3317   1.476   6.635   5.390
  806SOL    HW2 3318   1.479   6.584   5.235
  807SOL     OW 3319   0.464   6.146   4.986
  807SOL    HW1 3320   0.525   6.087   4.934
  807SOL    HW2 3321   0.508   6.171   5.073
  808SOL     OW 3322   5.896   2.993   0.672
  808SOL    HW1 3323   5.849   3.001   0.760
  808SOL    HW2 3324   5.830   2.964   0.602
  809SOL     OW 3325   0.747   5.091   0.414
  809SOL    HW1 3326   0.743   5.020   0.343
  809SOL    HW2 3327   0.782   5.175   0.374
  810SOL     OW 3328   2.911   3.661   0.206
  810SOL    HW1 3329   2.821   3.703   0.205
  810SOL    HW2 3330   2.901   3.561   0.212
  811SOL     OW 3331   5.555   4.981   4.828
  811SOL    HW1 3332   5.465   4.939   4.823
  811SOL    HW2 3333   5.586   5.006   4.737
  812SOL     OW 3334   0.436   1.924   2.120
  812SOL    HW1 3335   0.425   1.825   2.112
  812SOL    HW2 3336   0.446   1.948   2.217
  813SOL     OW 3337   1.461   1.592   4.519
  813SOL    HW1 3338   1.392   1.566   4.587
  813SOL    HW2 3339   1.425   1.667   4.462
  814SOL     OW 3340   0.387   6.010   3.199
  814SOL    HW1 3341   0.373   5.962   3.112
  814SOL    HW2 3342   0.398   5.944   3.273
  815SOL     OW 3343   5.144   2.265   3.743
  815SOL    HW1 3344   5.082   2.187   3.741
  815SOL    HW2 3345   5.099   2.345   3.703
  816SOL     OW 3346   5.229   3.153   0.552
  816SOL    HW1 3347   5.319   3.113   0.534
  816SOL    HW2 3348   5.241   3.245   0.589
  817SOL     OW 3349   1.415   5.643   1.014
  817SOL    HW1 3350   1.441   5.557   0.969
  817SOL    HW2 3351   1.498   5.692   1.040
  818SOL     OW 3352   5.691   2.693   3.398
  818SOL    HW1 3353   5.622   2.664   3.332
  818SOL    HW2 3354   5.647   2.710   3.487
  819SOL     OW 3355   5.548   2.360   1.602
  819SOL    HW1 3356   5.644   2.350   1.628
  819SOL    HW2 3357   5.491   2.357   1.684
  820SOL     OW 3358   2.161   1.988   4.465
  820SOL    HW1 3359   2.089   2.044   4.423
  820SOL    HW2 3360   2.230   1.967   4.396
  821SOL     OW 3361   5.636   3.920   5.286
  821SOL    HW1 3362   5.634   3.821   5.275
  821SOL    HW2 3363   5.571   3.947   5.357
  822SOL     OW 3364   0.853   4.263   3.965
  822SOL    HW1 3365   0.851   4.180   4.021
  822SOL    HW2 3366   0.799   4.334   4.009
  823SOL     OW 3367   0.999   3.591   6.002
  823SOL    HW1 3368   1.034   3.650   5.930
  823SOL    HW2 3369   0.914   3.547   5.970
  824SOL     OW 3370   5.759   1.091   4.972
  824SOL    HW1 3371   5.825   1.068   4.901
  824SOL    HW2 3372   5.765   1.025   5.046
  825SOL     OW 3373   6.448   5.904   1.098
  825SOL    HW1 3374   6.506   5.981   1.073
  825SOL    HW2 3375   6.497   5.844   1.162
  826SOL     OW 3376   3.749   1.235   5.522
  826SOL    HW1 3377   3.783   1.154   5.569
  826SOL    HW2 3378   3.652   1.224   5.501
  827SOL     OW 3379   3.406   3.839   4.737
  827SOL    HW1 3380   3.420   3.812   4.833
  827SOL    HW2 3381   3.350   3.922   4.733
  828SOL     OW 3382   6.309   5.849   4.663
  828SOL    HW1 3383   6.347   5.761   4.689
  828SOL    HW2 3384   6.325   5.864   4.565
  829SOL     OW 3385   3.562   2.858   2.816
  829SOL    HW1 3386   3.644   2.914   2.812
  829SOL    HW2 3387   3.573   2.778   2.756
  830SOL     OW 3388   6.902   4.449   0.115
  830SOL    HW1 3389   6.879   4.351   0.119
  830SOL    HW2 3390   6.869   4.494   0.198
  831SOL     OW 3391   5.396   6.324   1.095
  831SOL    HW1 3392   5.339   6.320   1.177
  831SOL    HW2 3393   5.491   6.308   1.120
  832SOL     OW 3394   3.308   1.699   4.991
  832SOL    HW1 3395   3.240   1.746   4.934
  832SOL    HW2 3396   3.278   1.605   5.008
  833SOL     OW 3397   1.626   3.472   6.185
  833SOL    HW1 3398   1.658   3.563   6.158
  833SOL    HW2 3399   1.600   3.420   6.104
  834SOL     OW 3400   4.782   3.674   6.823
  834SOL    HW1 3401   4.806   3.682   6.726
  834SOL    HW2 3402   4.790   3.578   6.851
  835SOL     OW 3403   1.359   0.473   3.887
  835SOL    HW1 3404   1.377   0.531   3.967
  835SOL    HW2 3405   1.305   0.525   3.820
  836SOL     OW 3406   3.254   1.399   5.601
  836SOL    HW1 3407   3.258   1.466   5.676
  836SOL    HW2 3408   3.302   1.315   5.629
  837SOL     OW 3409   1.176   0.522   0.928
  837SOL    HW1 3410   1.217   0.459   0.994
  837SOL    HW2 3411   1.127   0.470   0.859
  838SOL     OW 3412   2.198   5.809   3.791
  838SOL    HW1 3413   2.252   5.737   3.748
  838SOL    HW2 3414   2.232   5.825   3.884
  839SOL     OW 3415   1.565   1.345   0.965
  839SOL    HW1 3416   1.663   1.330   0.949
  839SOL    HW2 3417   1.525   1.263   1.004
  840SOL     OW 3418   6.036   5.442   0.298
  840SOL    HW1 3419   6.025   5.349   0.264
  840SOL    HW2 3420   5.949   5.490   0.292
  841SOL     OW 3421   4.193   4.847   5.694
  841SOL    HW1 3422   4.271   4.889   5.740
  841SOL    HW2 3423   4.148   4.916   5.637
  842SOL     OW 3424   3.277   0.020   6.975
  842SOL    HW1 3425   3.197   7.016   0.004
  842SOL    HW2 3426   3.323   0.096   7.020
  843SOL     OW 3427   1.715   1.608   1.483
  843SOL    HW1 3428   1.701   1.706   1.472
  843SOL    HW2 3429   1.809   1.591   1.515
  844SOL     OW 3430   6.822   0.073   1.099
  844SOL    HW1 3431   6.785   7.016   1.054
  844SOL    HW2 3432   6.914   0.091   1.065
  845SOL     OW 3433   3.585   1.582   2.574
  845SOL    HW1 3434   3.556   1.542   2.487
  845SOL    HW2 3435   3.510   1.635   2.613
  846SOL     OW 3436   2.372   1.730   7.023
  846SOL    HW1 3437   2.396   1.634   0.016
  846SOL    HW2 3438   2.351   1.743   6.926
  847SOL     OW 3439   2.424   3.592   1.512
  847SOL    HW1 3440   2.445   3.672   1.567
  847SOL    HW2 3441   2.363   3.532   1.562
  848SOL     OW 3442   6.453   6.735   6.235
  848SOL    HW1 3443   6.375   6.690   6.192
  848SOL    HW2 3444   6.479   6.814   6.180
  849SOL     OW 3445   6.048   3.711   0.091
  849SOL    HW1 3446   6.129   3.742   0.141
  849SOL    HW2 3447   5.967   3.759   0.126
  850SOL     OW 3448   6.874   0.842   5.357
  850SOL    HW1 3449   6.843   0.792   5.276
  850SOL    HW2 3450   6.819   0.816   5.436
  851SOL     OW 3451   6.558   3.143   6.571
  851SOL    HW1 3452   6.639   3.084   6.564
  851SOL    HW2 3453   6.570   3.223   6.513
  852SOL     OW 3454   0.196   3.863   1.506
  852SOL    HW1 3455   0.155   3.931   1.446
  852SOL    HW2 3456   0.191   3.894   1.601
  853SOL     OW 3457   1.873   4.192   0.369
  853SOL    HW1 3458   1.783   4.232   0.351
  853SOL    HW2 3459   1.942   4.241   0.316
  854SOL     OW 3460   6.219   6.378   6.723
  854SOL    HW1 3461   6.142   6.321   6.697
  854SOL    HW2 3462   6.298   6.320   6.743
  855SOL     OW 3463   0.216   0.829   0.231
  855SOL    HW1 3464   0.247   0.779   0.150
  855SOL    HW2 3465   0.116   0.833   0.232
  856SOL     OW 3466   1.962   6.567   6.501
  856SOL    HW1 3467   1.882   6.509   6.517
  856SOL    HW2 3468   1.931   6.658   6.473
  857SOL     OW 3469   0.039   5.097   3.993
  857SOL    HW1 3470   0.023   4.998   3.998
  857SOL    HW2 3471   6.979   5.145   4.019
  858SOL     OW 3472   3.887   4.141   0.474
  858SOL    HW1 3473   3.974   4.094   0.457
  858SOL    HW2 3474   3.811   4.079   0.456
  859SOL     OW 3475   3.770   6.770   5.107
  859SOL    HW1 3476   3.708   6.845   5.086
  859SOL    HW2 3477   3.860   6.807   5.130
  860SOL     OW 3478   5.223   2.566   5.257
  860SOL    HW1 3479   5.305   2.524   5.218
  860SOL    HW2 3480   5.183   2.505   5.325
  861SOL     OW 3481   2.019   5.569   3.096
  861SOL    HW1 3482   2.051   5.664   3.097
  861SOL    HW2 3483   2.097   5.508   3.095
  862SOL     OW 3484   1.730   4.525   3.658
  862SOL    HW1 3485   1.818   4.487   3.687
  862SOL    HW2 3486   1.700   4.592   3.725
  863SOL     OW 3487   6.968   0.175   5.893
  863SOL    HW1 3488   6.967   0.184   5.993
  863SOL    HW2 3489   6.875   0.159   5.860
  864SOL     OW 3490   4.657   0.246   5.312
  864SOL    HW1 3491   4.678   0.207   5.222
  864SOL    HW2 3492   4.721   0.320   5.332
  865SOL     OW 3493   1.786   6.089   4.403
  865SOL    HW1 3494   1.870   6.053   4.445
  865SOL    HW2 3495   1.775   6.184   4.430
  866SOL     OW 3496   2.380   6.956   1.407
  866SOL    HW1 3497   2.480   6.960   1.407
  866SOL    HW2 3498   2.343   0.004   1.347
  867SOL     OW 3499   5.595   1.868   0.764
  867SOL    HW1 3500   5.609   1.769   0.774
  867SOL    HW2 3501   5.568   1.907   0.852
  868SOL     OW 3502   6.876   2.505   2.068
  868SOL    HW1 3503   6.790   2.477   2.112
  868SOL    HW2 3504   6.860   2.520   1.971
  869SOL     OW 3505   0.194   3.768   3.955
  869SOL    HW1 3506   0.197   3.861   3.919
  869SOL    HW2 3507   0.171   3.770   4.052
  870SOL     OW 3508   3.235   5.049   1.672
  870SOL    HW1 3509   3.316   5.040   1.730
  870SOL    HW2 3510   3.254   5.009   1.582
  871SOL     OW 3511   4.823   1.780   3.699
  871SOL    HW1 3512   4.823   1.880   3.691
  871SOL    HW2 3513   4.748   1.742   3.645
  872SOL     OW 3514   6.776   2.340   4.570
  872SOL    HW1 3515   6.800   2.424   4.618
  872SOL    HW2 3516   6.844   2.320   4.499
  873SOL     OW 3517   4.263   6.575   5.249
  873SOL    HW1 3518   4.228   6.595   5.340
  873SOL    HW2 3519   4.233   6.645   5.185
  874SOL     OW 3520   5.769   4.183   0.271
  874SOL    HW1 3521   5.787   4.277   0.241
  874SOL    HW2 3522   5.710   4.137   0.204
  875SOL     OW 3523   5.236   5.181   1.416
  875SOL    HW1 3524   5.142   5.211   1.435
  875SOL    HW2 3525   5.264   5.216   1.327
  876SOL     OW 3526   0.177   5.239   2.020
  876SOL    HW1 3527   0.085   5.277   2.012
  876SOL    HW2 3528   0.190   5.202   2.112
  877SOL     OW 3529   2.784   4.525   7.002
  877SOL    HW1 3530   2.783   4.566   0.070
  877SOL    HW2 3531   2.815   4.592   6.935
  878SOL     OW 3532   4.327   6.685   3.972
  878SOL    HW1 3533   4.267   6.687   4.052
  878SOL    HW2 3534   4.325   6.775   3.928
  879SOL     OW 3535   4.425   0.674   1.098
  879SOL    HW1 3536   4.511   0.724   1.089
  879SOL    HW2 3537   4.445   0.576   1.108
  880SOL     OW 3538   3.080   3.920   3.679
  880SOL    HW1 3539   3.069   3.835   3.628
  880SOL    HW2 3540   3.134   3.985   3.624
  881SOL     OW 3541   4.409   2.445   5.252
  881SOL    HW1 3542   4.498   2.427   5.211
  881SOL    HW2 3543   4.338   2.442   5.182
  882SOL     OW 3544   0.641   3.264   4.801
  882SOL    HW1 3545   0.654   3.328   4.878
  882SOL    HW2 3546   0.600   3.313   4.724
  883SOL     OW 3547   3.060   0.282   3.027
  883SOL    HW1 3548   2.968   0.260   3.060
  883SOL    HW2 3549   3.084   0.375   3.053
  884SOL     OW 3550   4.714   3.096   5.221
  884SOL    HW1 3551   4.731   3.163   5.295
  884SOL    HW2 3552   4.634   3.041   5.244
  885SOL     OW 3553   2.917   1.550   5.709
  885SOL    HW1 3554   2.894   1.518   5.617
  885SOL    HW2 3555   2.917   1.650   5.709
  886SOL     OW 3556   3.538   0.564   0.158
  886SOL    HW1 3557   3.442   0.553   0.131
  886SOL    HW2 3558   3.549   0.536   0.253
  887SOL     OW 3559   3.731   6.944   3.565
  887SOL    HW1 3560   3.795   6.883   3.611
  887SOL    HW2 3561   3.645   6.946   3.615
  888SOL     OW 3562   0.608   0.232   3.079
  888SOL    HW1 3563   0.512   0.223   3.106
  888SOL    HW2 3564   0.656   0.145   3.096
  889SOL     OW 3565   0.513   3.549   0.266
  889SOL    HW1 3566   0.459   3.545   0.181
  889SOL    HW2 3567   0.600   3.502   0.253
  890SOL     OW 3568   1.453   5.394   3.731
  890SOL    HW1 3569   1.376   5.398   3.796
  890SOL    HW2 3570   1.536   5.426   3.776
  891SOL     OW 3571   5.412   5.717   1.313
  891SOL    HW1 3572   5.491   5.732   1.254
  891SOL    HW2 3573   5.336   5.680   1.260
  892SOL     OW 3574   2.448   3.705   5.844
  892SOL    HW1 3575   2.546   3.711   5.864
  892SOL    HW2 3576   2.397   3.755   5.913
  893SOL     OW 3577   2.345   6.395   2.834
  893SOL    HW1 3578   2.273   6.461   2.815
  893SOL    HW2 3579   2.308   6.317   2.884
  894SOL     OW 3580   1.096   3.485   1.587
  894SOL    HW1 3581   1.064   3.560   1.529
  894SOL    HW2 3582   1.169   3.518   1.647
  895SOL     OW 3583   0.536   4.850   3.254
  895SOL    HW1 3584   0.441   4.878   3.270
  895SOL    HW2 3585   0.588   4.928   3.219
  896SOL     OW 3586   5.939   5.147   0.499
  896SOL    HW1 3587   5.997   5.172   0.576
  896SOL    HW2 3588   5.991   5.093   0.433
  897SOL     OW 3589   4.980   0.946   0.678
  897SOL    HW1 3590   4.907   1.007   0.709
  897SOL    HW2 3591   4.961   0.914   0.585
  898SOL     OW 3592   3.699   6.300   2.631
  898SOL    HW1 3593   3.622   6.339   2.581
  898SOL    HW2 3594   3.671   6.215   2.675
  899SOL     OW 3595   0.279   5.654   6.229
  899SOL    HW1 3596   0.367   5.701   6.238
  899SOL    HW2 3597   0.272   5.582   6.298
  900SOL     OW 3598   6.190   0.001   0.122
  900SOL    HW1 3599   6.151   0.068   0.058
  900SOL    HW2 3600   6.284   0.029   0.145
  901SOL     OW 3601   2.125   0.427   2.585
  901SOL    HW1 3602   2.045   0.442   2.527
  901SOL    HW2 3603   2.145   0.329   2.589
  902SOL     OW 3604   0.037   3.333   0.430
  902SOL    HW1 3605   6.977   3.389   0.422
  902SOL    HW2 3606   0.058   3.319   0.527
  903SOL     OW 3607   6.760   2.183   6.338
  903SOL    HW1 3608   6.674   2.166   6.289
  903SOL    HW2 3609   6.765   2.122   6.417
  904SOL     OW 3610   2.758   2.267   3.531
  904SOL    HW1 3611   2.786   2.324   3.454
  904SOL    HW2 3612   2.675   2.305   3.572
  905SOL     OW 3613   5.350   1.973   0.312
  905SOL    HW1 3614   5.404   1.943   0.390
  905SOL    HW2 3615   5.313   1.893   0.264
  906SOL     OW 3616   0.275   2.450   5.766
  906SOL    HW1 3617   0.311   2.501   5.688
  906SOL    HW2 3618   0.307   2.356   5.762
  907SOL     OW 3619   5.087   2.970   0.397
  907SOL    HW1 3620   5.042   3.033   0.333
  907SOL    HW2 3621   5.109   3.019   0.481
  908SOL     OW 3622   2.634   5.023   2.644
  908SOL    HW1 3623   2.607   4.979   2.558
  908SOL    HW2 3624   2.565   5.002   2.714
  909SOL     OW 3625   4.025   5.371   6.531
  909SOL    HW1 3626   4.104   5.332   6.579
  909SOL    HW2 3627   3.976   5.299   6.483
  910SOL     OW 3628   2.519   3.058   1.410
  910SOL    HW1 3629   2.531   3.024   1.317
  910SOL    HW2 3630   2.570   3.143   1.421
  911SOL     OW 3631   1.761   5.870   6.048
  911SOL    HW1 3632   1.810   5.944   6.002
  911SOL    HW2 3633   1.670   5.860   6.009
  912SOL     OW 3634   5.484   2.623   3.234
  912SOL    HW1 3635   5.459   2.552   3.299
  912SOL    HW2 3636   5.439   2.709   3.260
  913SOL     OW 3637   5.226   6.280   3.288
  913SOL    HW1 3638   5.313   6.249   3.326
  913SOL    HW2 3639   5.204   6.226   3.207
  914SOL     OW 3640   2.549   0.195   6.445
  914SOL    HW1 3641   2.475   0.223   6.506
  914SOL    HW2 3642   2.612   0.135   6.495
  915SOL     OW 3643   5.977   4.591   7.011
  915SOL    HW1 3644   6.021   4.505   0.014
  915SOL    HW2 3645   6.037   4.668   0.010
  916SOL     OW 3646   1.327   2.396   2.142
  916SOL    HW1 3647   1.387   2.447   2.081
  916SOL    HW2 3648   1.359   2.301   2.149
  917SOL     OW 3649   6.888   6.456   0.859
  917SOL    HW1 3650   6.942   6.526   0.812
  917SOL    HW2 3651   6.794   6.489   0.871
  918SOL     OW 3652   2.269   6.668   1.044
  918SOL    HW1 3653   2.322   6.734   0.991
  918SOL    HW2 3654   2.318   6.582   1.048
  919SOL     OW 3655   5.843   1.151   3.703
  919SOL    HW1 3656   5.847   1.120   3.608
  919SOL    HW2 3657   5.808   1.245   3.706
  920SOL     OW 3658   2.192   4.620   1.778
  920SOL    HW1 3659   2.170   4.527   1.805
  920SOL    HW2 3660   2.279   4.622   1.730
  921SOL     OW 3661   5.210   5.385   4.368
  921SOL    HW1 3662   5.246   5.427   4.285
  921SOL    HW2 3663   5.284   5.375   4.435
  922SOL     OW 3664   3.776   3.386   4.314
  922SOL    HW1 3665   3.763   3.328   4.234
  922SOL    HW2 3666   3.869   3.424   4.313
  923SOL     OW 3667   2.217   3.058   5.841
  923SOL    HW1 3668   2.296   3.067   5.902
  923SOL    HW2 3669   2.240   2.997   5.766
  924SOL     OW 3670   6.442   3.649   2.513
  924SOL    HW1 3671   6.485   3.659   2.424
  924SOL    HW2 3672   6.382   3.728   2.530
  925SOL     OW 3673   6.892   2.056   0.293
  925SOL    HW1 3674   6.928   1.963   0.302
  925SOL    HW2 3675   6.797   2.052   0.262
  926SOL     OW 3676   6.903   1.419   1.485
  926SOL    HW1 3677   6.996   1.447   1.510
  926SOL    HW2 3678   6.852   1.395   1.568
  927SOL     OW 3679   5.716   3.961   3.922
  927SOL    HW1 3680   5.800   3.908   3.915
  927SOL    HW2 3681   5.657   3.921   3.992
  928SOL     OW 3682   3.089   6.201   0.167
  928SOL    HW1 3683   3.118   6.130   0.232
  928SOL    HW2 3684   3.008   6.169   0.118
  929SOL     OW 3685   6.673   1.481   6.791
  929SOL    HW1 3686   6.756   1.443   6.830
  929SOL    HW2 3687   6.664   1.451   6.695
  930SOL     OW 3688   4.182   5.117   6.053
  930SOL    HW1 3689   4.159   5.104   5.956
  930SOL    HW2 3690   4.141   5.202   6.086
  931SOL     OW 3691   6.429   2.333   3.582
  931SOL    HW1 3692   6.428   2.429   3.556
  931SOL    HW2 3693   6.335   2.302   3.598
  932SOL     OW 3694   3.749   1.062   3.633
  932SOL    HW1 3695   3.715   1.083   3.725
  932SOL    HW2 3696   3.793   0.972   3.634
  933SOL     OW 3697   0.996   4.942   2.836
  933SOL    HW1 3698   0.977   4.961   2.932
  933SOL    HW2 3699   1.049   5.018   2.797
  934SOL     OW 3700   2.314   5.679   5.934
  934SOL    HW1 3701   2.376   5.647   5.862
  934SOL    HW2 3702   2.265   5.601   5.973
  935SOL     OW 3703   5.105   4.334   3.389
  935SOL    HW1 3704   5.074   4.309   3.481
  935SOL    HW2 3705   5.026   4.364   3.335
  936SOL     OW 3706   1.398   0.432   5.797
  936SOL    HW1 3707   1.343   0.378   5.861
  936SOL    HW2 3708   1.485   0.456   5.841
  937SOL     OW 3709   4.322   1.239   5.484
  937SOL    HW1 3710   4.271   1.304   5.427
  937SOL    HW2 3711   4.420   1.259   5.478
  938SOL     OW 3712   6.968   5.605   4.131
  938SOL    HW1 3713   6.920   5.693   4.131
  938SOL    HW2 3714   0.036   5.617   4.169
  939SOL     OW 3715   6.782   6.549   4.742
  939SOL    HW1 3716   6.865   6.589   4.782
  939SOL    HW2 3717   6.719   6.522   4.815
  940SOL     OW 3718   1.085   4.851   1.012
  940SOL    HW1 3719   1.150   4.823   1.083
  940SOL    HW2 3720   1.004   4.890   1.054
  941SOL     OW 3721   4.313   0.437   6.470
  941SOL    HW1 3722   4.366   0.370   6.418
  941SOL    HW2 3723   4.251   0.390   6.532
  942SOL     OW 3724   6.650   5.983   0.865
  942SOL    HW1 3725   6.701   6.066   0.843
  942SOL    HW2 3726   6.578   5.968   0.797
  943SOL     OW 3727   2.892   4.769   2.819
  943SOL    HW1 3728   2.844   4.694   2.774
  943SOL    HW2 3729   2.915   4.839   2.752
  944SOL     OW 3730   0.295   6.340   4.375
  944SOL    HW1 3731   0.233   6.413   4.345
  944SOL    HW2 3732   0.249   6.284   4.443
  945SOL     OW 3733   0.136   5.798   5.821
  945SOL    HW1 3734   0.169   5.781   5.728
  945SOL    HW2 3735   0.134   5.712   5.872
  946SOL     OW 3736   4.982   4.940   4.301
  946SOL    HW1 3737   5.030   4.897   4.377
  946SOL    HW2 3738   4.978   5.039   4.317
  947SOL     OW 3739   4.008   3.637   3.910
  947SOL    HW1 3740   4.026   3.623   3.812
  947SOL    HW2 3741   4.019   3.734   3.932
  948SOL     OW 3742   4.717   1.067   2.794
  948SOL    HW1 3743   4.756   1.147   2.840
  948SOL    HW2 3744   4.757   1.057   2.703
  949SOL     OW 3745   3.207   6.545   0.386
  949SOL    HW1 3746   3.190   6.453   0.420
  949SOL    HW2 3747   3.278   6.589   0.442
  950SOL     OW 3748   6.713   5.871   1.913
  950SOL    HW1 3749   6.762   5.908   1.835
  950SOL    HW2 3750   6.614   5.880   1.898
  951SOL     OW 3751   1.634   6.915   3.438
  951SOL    HW1 3752   1.713   6.943   3.383
  951SOL    HW2 3753   1.620   6.981   3.512
  952SOL     OW 3754   4.036   2.116   2.478
  952SOL    HW1 3755   4.050   2.126   2.380
  952SOL    HW2 3756   3.943   2.083   2.495
  953SOL     OW 3757   6.704   5.336   4.822
  953SOL    HW1 3758   6.667   5.416   4.869
  953SOL    HW2 3759   6.793   5.358   4.783
  954SOL     OW 3760   4.897   5.234   2.358
  954SOL    HW1 3761   4.910   5.159   2.423
  954SOL    HW2 3762   4.972   5.235   2.292
  955SOL     OW 3763   1.439   4.748   6.914
  955SOL    HW1 3764   1.506   4.815   6.945
  955SOL    HW2 3765   1.480   4.657   6.914
  956SOL     OW 3766   0.170   0.612   0.844
  956SOL    HW1 3767   0.141   0.524   0.880
  956SOL    HW2 3768   0.229   0.658   0.911
  957SOL     OW 3769   6.323   1.992   2.895
  957SOL    HW1 3770   6.267   2.000   2.978
  957SOL    HW2 3771   6.418   1.974   2.920
  958SOL     OW 3772   5.145   6.798   2.213
  958SOL    HW1 3773   5.238   6.773   2.238
  958SOL    HW2 3774   5.092   6.716   2.192
  959SOL     OW 3775   3.359   6.943   3.979
  959SOL    HW1 3776   3.259   6.941   3.986
  959SOL    HW2 3777   3.395   7.012   4.041
  960SOL     OW 3778   0.676   0.189   0.007
  960SOL    HW1 3779   0.662   0.163   0.103
  960SOL    HW2 3780   0.654   0.112   6.971
  961SOL     OW 3781   3.263   6.250   3.036
  961SOL    HW1 3782   3.265   6.282   2.941
  961SOL    HW2 3783   3.346   6.197   3.055
  962SOL     OW 3784   6.366   0.169   4.856
  962SOL    HW1 3785   6.390   0.220   4.939
  962SOL    HW2 3786   6.272   0.136   4.864
  963SOL     OW 3787   4.694   2.121   1.189
  963SOL    HW1 3788   4.682   2.088   1.283
  963SOL    HW2 3789   4.619   2.086   1.132
  964SOL     OW 3790   5.081   4.716   4.912
  964SOL    HW1 3791   5.006   4.651   4.899
  964SOL    HW2 3792   5.065   4.768   4.996
  965SOL     OW 3793   5.418   2.173   2.828
  965SOL    HW1 3794   5.324   2.206   2.838
  965SOL    HW2 3795   5.480   2.251   2.821
  966SOL     OW 3796   5.115   1.984   3.466
  966SOL    HW1 3797   5.155   1.946   3.549
  966SOL    HW2 3798   5.041   2.047   3.491
  967SOL     OW 3799   4.804   4.282   6.365
  967SOL    HW1 3800   4.895   4.291   6.404
  967SOL    HW2 3801   4.765   4.372   6.349
  968SOL     OW 3802   3.933   0.275   1.861
  968SOL    HW1 3803   3.863   0.305   1.926
  968SOL    HW2 3804   3.998   0.215   1.907
  969SOL     OW 3805   3.267   4.798   5.623
  969SOL    HW1 3806   3.332   4.827   5.553
  969SOL    HW2 3807   3.188   4.754   5.579
  970SOL     OW 3808   6.444   0.341   5.336
  970SOL    HW1 3809   6.535   0.381   5.325
  970SOL    HW2 3810   6.452   0.241   5.341
  971SOL     OW 3811   0.059   4.561   3.341
  971SOL    HW1 3812   0.144   4.554   3.393
  971SOL    HW2 3813   7.008   4.518   3.393
  972SOL     OW 3814   0.038   2.446   0.929
  972SOL    HW1 3815   7.018   2.437   1.019
  972SOL    HW2 3816   6.990   2.451   0.859
  973SOL     OW 3817   0.426   4.282   6.137
  973SOL    HW1 3818   0.395   4.196   6.096
  973SOL    HW2 3819   0.462   4.342   6.065
  974SOL     OW 3820   0.329   4.907   4.452
  974SOL    HW1 3821   0.250   4.945   4.404
  974SOL    HW2 3822   0.302   4.822   4.498
  975SOL     OW 3823   2.189   6.469   2.127
  975SOL    HW1 3824   2.235   6.463   2.038
  975SOL    HW2 3825   2.096   6.502   2.114
  976SOL     OW 3826   6.454   4.253   2.172
  976SOL    HW1 3827   6.448   4.226   2.076
  976SOL    HW2 3828   6.547   4.282   2.193
  977SOL     OW 3829   0.729   1.251   2.216
  977SOL    HW1 3830   0.760   1.156   2.218
  977SOL    HW2 3831   0.749   1.294   2.305
  978SOL     OW 3832   5.625   2.103   2.129
  978SOL    HW1 3833   5.689   2.052   2.072
  978SOL    HW2 3834   5.659   2.106   2.223
  979SOL     OW 3835   0.126   3.717   6.592
  979SOL    HW1 3836   0.049   3.671   6.636
  979SOL    HW2 3837   0.207   3.658   6.596
  980SOL     OW 3838   3.871   1.415   4.930
  980SOL    HW1 3839   3.899   1.380   4.840
  980SOL    HW2 3840   3.784   1.374   4.956
  981SOL     OW 3841   0.088   0.279   4.992
  981SOL    HW1 3842   0.140   0.364   4.981
  981SOL    HW2 3843   0.058   0.247   4.902
  982SOL     OW 3844   0.684   1.954   5.321
  982SOL    HW1 3845   0.780   1.928   5.328
  982SOL    HW2 3846   0.626   1.874   5.336
  983SOL     OW 3847   0.572   3.845   3.740
  983SOL    HW1 3848   0.499   3.795   3.787
  983SOL    HW2 3849   0.568   3.827   3.642
  984SOL     OW 3850   1.459   2.467   3.301
  984SOL    HW1 3851   1.536   2.406   3.317
  984SOL    HW2 3852   1.491   2.562   3.295
  985SOL     OW 3853   6.302   3.691   3.985
  985SOL    HW1 3854   6.325   3.758   4.057
  985SOL    HW2 3855   6.258   3.612   4.027
  986SOL     OW 3856   5.026   4.248   1.371
  986SOL    HW1 3857   5.000   4.154   1.396
  986SOL    HW2 3858   5.126   4.254   1.364
  987SOL     OW 3859   5.950   5.452   3.341
  987SOL    HW1 3860   5.908   5.481   3.427
  987SOL    HW2 3861   6.048   5.437   3.354
  988SOL     OW 3862   3.653   4.078   1.695
  988SOL    HW1 3863   3.696   4.116   1.777
  988SOL    HW2 3864   3.614   4.153   1.641
  989SOL     OW 3865   0.182   2.229   0.681
  989SOL    HW1 3866   0.271   2.233   0.728
  989SOL    HW2 3867   0.179   2.301   0.612
  990SOL     OW 3868   3.570   0.928   3.168
  990SOL    HW1 3869   3.580   0.844   3.115
  990SOL    HW2 3870   3.552   0.906   3.264
  991SOL     OW 3871   6.883   3.918   4.059
  991SOL    HW1 3872   6.831   3.879   4.135
  991SOL    HW2 3873   6.976   3.938   4.089
  992SOL     OW 3874   1.052   2.584   1.384
  992SOL    HW1 3875   1.104   2.647   1.442
  992SOL    HW2 3876   1.027   2.630   1.299
  993SOL     OW 3877   1.623   4.710   1.128
  993SOL    HW1 3878   1.651   4.691   1.222
  993SOL    HW2 3879   1.584   4.802   1.123
  994SOL     OW 3880   3.313   6.626   1.763
  994SOL    HW1 3881   3.392   6.574   1.727
  994SOL    HW2 3882   3.317   6.627   1.863
  995SOL     OW 3883   5.209   3.408   5.829
  995SOL    HW1 3884   5.182   3.372   5.740
  995SOL    HW2 3885   5.280   3.478   5.817
  996SOL     OW 3886   4.060   5.895   5.455
  996SOL    HW1 3887   4.147   5.885   5.406
  996SOL    HW2 3888   3.985   5.896   5.389
  997SOL     OW 3889   1.344   6.636   3.858
  997SOL    HW1 3890   1.274   6.584   3.808
  997SOL    HW2 3891   1.336   6.733   3.834
  998SOL     OW 3892   5.956   0.264   6.280
  998SOL    HW1 3893   6.023   0.213   6.225
  998SOL    HW2 3894   5.871   0.272   6.229
  999SOL     OW 3895   4.762   3.232   1.513
  999SOL    HW1 3896   4.780   3.183   1.598
  999SOL    HW2 3897   4.686   3.295   1.526
 1000SOL     OW 3898   3.870   1.810   1.362
 1000SOL    HW1 3899   3.828   1.789   1.450
 1000SOL    HW2 3900   3.799   1.817   1.292
 1001SOL     OW 3901   2.856   6.999   1.986
 1001SOL    HW1 3902   2.767   0.010   1.954
 1001SOL    HW2 3903   2.909   0.052   2.023
 1002SOL     OW 3904   5.245   2.624   1.486
 1002SOL    HW1 3905   5.162   2.654   1.440
 1002SOL    HW2 3906   5.222   2.565   1.563
 1003SOL     OW 3907   1.228   6.180   2.466
 1003SOL    HW1 3908   1.129   6.174   2.450
 1003SOL    HW2 3909   1.276   6.123   2.400
 1004SOL     OW 3910   6.268   1.523   3.748
 1004SOL    HW1 3911   6.344   1.563   3.799
 1004SOL    HW2 3912   6.293   1.512   3.652
 1005SOL     OW 3913   1.436   4.489   4.012
 1005SOL    HW1 3914   1.429   4.575   3.963
 1005SOL    HW2 3915   1.396   4.499   4.103
 1006SOL     OW 3916   2.261   4.239   0.555
 1006SOL    HW1 3917   2.217   4.219   0.643
 1006SOL    HW2 3918   2.338   4.177   0.542
 1007SOL     OW 3919   4.545   1.863   6.735
 1007SOL    HW1 3920   4.473   1.932   6.741
 1007SOL    HW2 3921   4.504   1.775   6.711
 1008SOL     OW 3922   0.598   4.733   5.121
 1008SOL    HW1 3923   0.681   4.790   5.123
 1008SOL    HW2 3924   0.546   4.748   5.204
 1009SOL     OW 3925   5.964   4.882   5.066
 1009SOL    HW1 3926   5.918   4.818   5.127
 1009SOL    HW2 3927   6.044   4.838   5.025
 1010SOL     OW 3928   2.131   3.141   1.441
 1010SOL    HW1 3929   2.180   3.077   1.500
 1010SOL    HW2 3930   2.146   3.234   1.473
 1011SOL     OW 3931   0.780   5.195   2.556
 1011SOL    HW1 3932   0.747   5.130   2.625
 1011SOL    HW2 3933   0.773   5.155   2.465
 1012SOL     OW 3934   5.909   0.348   2.302
 1012SOL    HW1 3935   5.981   0.338   2.234
 1012SOL    HW2 3936   5.821   0.360   2.255
 1013SOL     OW 3937   6.963   0.671   5.882
 1013SOL    HW1 3938   6.864   0.664   5.881
 1013SOL    HW2 3939   7.002   0.602   5.820
 1014SOL     OW 3940   1.727   5.049   3.987
 1014SOL    HW1 3941   1.769   5.132   4.023
 1014SOL    HW2 3942   1.781   4.969   4.013
 1015SOL     OW 3943   3.430   0.117   6.341
 1015SOL    HW1 3944   3.483   0.196   6.311
 1015SOL    HW2 3945   3.478   0.072   6.417
 1016SOL     OW 3946   5.206   3.958   1.337
 1016SOL    HW1 3947   5.242   3.865   1.326
 1016SOL    HW2 3948   5.167   3.968   1.429
 1017SOL     OW 3949   1.971   1.491   1.841
 1017SOL    HW1 3950   1.893   1.511   1.900
 1017SOL    HW2 3951   1.991   1.571   1.784
 1018SOL     OW 3952   0.121   5.232   3.549
 1018SOL    HW1 3953   0.168   5.275   3.626
 1018SOL    HW2 3954   0.053   5.296   3.512
 1019SOL     OW 3955   6.936   4.781   0.738
 1019SOL    HW1 3956   6.845   4.821   0.725
 1019SOL    HW2 3957   6.930   4.681   0.731
 1020SOL     OW 3958   0.248   0.120   1.659
 1020SOL    HW1 3959   0.208   0.173   1.584
 1020SOL    HW2 3960   0.346   0.138   1.665
 1021SOL     OW 3961   6.266   5.983   1.743
 1021SOL    HW1 3962   6.317   5.992   1.829
 1021SOL    HW2 3963   6.308   5.913   1.686
 1022SOL     OW 3964   2.295   6.227   6.428
 1022SOL    HW1 3965   2.269   6.318   6.396
 1022SOL    HW2 3966   2.259   6.213   6.521
 1023SOL     OW 3967   0.283   1.567   2.963
 1023SOL    HW1 3968   0.267   1.516   2.878
 1023SOL    HW2 3969   0.289   1.664   2.942
 1024SOL     OW 3970   1.064   1.816   4.710
 1024SOL    HW1 3971   1.022   1.725   4.707
 1024SOL    HW2 3972   1.013   1.874   4.772
 1025SOL     OW 3973   5.408   3.793   6.537
 1025SOL    HW1 3974   5.330   3.755   6.487
 1025SOL    HW2 3975   5.374   3.858   6.606
 1026SOL     OW 3976   2.914   2.332   1.501
 1026SOL    HW1 3977   2.924   2.404   1.569
 1026SOL    HW2 3978   3.004   2.306   1.465
 1027SOL     OW 3979   1.165   6.088   1.633
 1027SOL    HW1 3980   1.082   6.133   1.667
 1027SOL    HW2 3981   1.162   5.990   1.655
 1028SOL     OW 3982   0.810   6.430   3.114
 1028SOL    HW1 3983   0.799   6.492   3.037
 1028SOL    HW2 3984   0.829   6.338   3.081
 1029SOL     OW 3985   1.254   2.326   5.581
 1029SOL    HW1 3986   1.163   2.283   5.579
 1029SOL    HW2 3987   1.301   2.302   5.666
 1030SOL     OW 3988   3.334   3.372   1.628
 1030SOL    HW1 3989   3.298   3.452   1.579
 1030SOL    HW2 3990   3.434   3.374   1.624
 1031SOL     OW 3991   3.700   3.142   1.723
 1031SOL    HW1 3992   3.659   3.052   1.707
 1031SOL    HW2 3993   3.789   3.146   1.676
 1032SOL     OW 3994   2.238   1.247   6.120
 1032SOL    HW1 3995   2.282   1.304   6.190
 1032SOL    HW2 3996   2.192   1.306   6.053
 1033SOL     OW 3997   0.887   5.979   2.398
 1033SOL    HW1 3998   0.887   6.015   2.305
 1033SOL    HW2 3999   0.798   5.938   2.418
 1034SOL     OW 4000   3.624   6.840   4.411
 1034SOL    HW1 4001   3.614   6.940   4.403
 1034SOL    HW2 4002   3.555   6.796   4.353
 1035SOL     OW 4003   0.779   1.715   5.554
 1035SOL    HW1 4004   0.822   1.759   5.475
 1035SOL    HW2 4005   0.699   1.767   5.582
 1036SOL     OW 4006   5.179   1.043   1.167
 1036SOL    HW1 4007   5.257   1.009   1.115
 1036SOL    HW2 4008   5.117   1.091   1.106
 1037SOL     OW 4009   2.201   2.318   2.812
 1037SOL    HW1 4010   2.115   2.345   2.854
 1037SOL    HW2 4011   2.248   2.400   2.778
 1038SOL     OW 4012   2.591   0.218   0.035
 1038SOL    HW1 4013   2.620   0.226   6.963
 1038SOL    HW2 4014   2.580   0.309   0.075
 1039SOL     OW 4015   3.345   3.265   3.594
 1039SOL    HW1 4016   3.264   3.230   3.546
 1039SOL    HW2 4017   3.347   3.365   3.586
 1040SOL     OW 4018   4.546   1.175   2.472
 1040SOL    HW1 4019   4.607   1.113   2.521
 1040SOL    HW2 4020   4.464   1.191   2.527
 1041SOL     OW 4021   6.853   5.968   4.819
 1041SOL    HW1 4022   6.927   5.940   4.759
 1041SOL    HW2 4023   6.887   6.035   4.886
 1042SOL     OW 4024   4.671   4.798   2.298
 1042SOL    HW1 4025   4.582   4.755   2.312
 1042SOL    HW2 4026   4.743   4.733   2.324
 1043SOL     OW 4027   3.551   1.276   3.596
 1043SOL    HW1 4028   3.536   1.322   3.683
 1043SOL    HW2 4029   3.630   1.216   3.602
 1044SOL     OW 4030   6.040   4.485   1.008
 1044SOL    HW1 4031   5.942   4.503   0.997
 1044SOL    HW2 4032   6.053   4.407   1.068
 1045SOL     OW 4033   2.089   0.558   3.653
 1045SOL    HW1 4034   2.158   0.620   3.616
 1045SOL    HW2 4035   2.023   0.611   3.707
 1046SOL     OW 4036   3.169   1.425   1.121
 1046SOL    HW1 4037   3.252   1.395   1.168
 1046SOL    HW2 4038   3.182   1.518   1.087
 1047SOL     OW 4039   3.204   6.821   3.612
 1047SOL    HW1 4040   3.163   6.819   3.703
 1047SOL    HW2 4041   3.159   6.753   3.554
 1048SOL     OW 4042   1.898   5.913   2.237
 1048SOL    HW1 4043   1.800   5.926   2.250
 1048SOL    HW2 4044   1.914   5.860   2.154
 1049SOL     OW 4045   3.764   0.086   4.580
 1049SOL    HW1 4046   3.829   0.011   4.565
 1049SOL    HW2 4047   3.714   0.104   4.495
 1050SOL     OW 4048   4.073   5.167   3.811
 1050SOL    HW1 4049   4.164   5.191   3.844
 1050SOL    HW2 4050   4.013   5.150   3.889
 1051SOL     OW 4051   7.002   6.757   0.098
 1051SOL    HW1 4052   7.005   6.809   0.184
 1051SOL    HW2 4053   6.912   6.768   0.056
 1052SOL     OW 4054   4.177   0.557   6.250
 1052SOL    HW1 4055   4.153   0.652   6.270
 1052SOL    HW2 4056   4.207   0.512   6.334
 1053SOL     OW 4057   5.795   3.561   2.256
 1053SOL    HW1 4058   5.835   3.633   2.312
 1053SOL    HW2 4059   5.733   3.507   2.311
 1054SOL     OW 4060   3.114   4.354   0.794
 1054SOL    HW1 4061   3.151   4.445   0.776
 1054SOL    HW2 4062   3.189   4.290   0.812
 1055SOL     OW 4063   5.042   5.825   0.176
 1055SOL    HW1 4064   5.101   5.903   0.201
 1055SOL    HW2 4065   5.044   5.757   0.250
 1056SOL     OW 4066   1.889   4.565   0.303
 1056SOL    HW1 4067   1.936   4.480   0.329
 1056SOL    HW2 4068   1.842   4.602   0.383
 1057SOL     OW 4069   3.655   1.849   1.542
 1057SOL    HW1 4070   3.650   1.861   1.443
 1057SOL    HW2 4071   3.692   1.932   1.583
 1058SOL     OW 4072   3.830   2.146   2.899
 1058SOL    HW1 4073   3.738   2.120   2.870
 1058SOL    HW2 4074   3.853   2.235   2.861
 1059SOL     OW 4075   2.041   6.053   2.014
 1059SOL    HW1 4076   1.999   6.034   2.103
 1059SOL    HW2 4077   1.986   6.010   1.943
 1060SOL     OW 4078   0.297   5.510   4.501
 1060SOL    HW1 4079   0.272   5.498   4.597
 1060SOL    HW2 4080   0.325   5.604   4.485
 1061SOL     OW 4081   6.836   3.767   0.157
 1061SOL    HW1 4082   6.738   3.770   0.137
 1061SOL    HW2 4083   6.884   3.829   0.096
 1062SOL     OW 4084   4.141   6.437   4.987
 1062SOL    HW1 4085   4.096   6.421   4.899
 1062SOL    HW2 4086   4.227   6.387   4.989
 1063SOL     OW 4087   1.078   6.961   5.728
 1063SOL    HW1 4088   1.030   6.970   5.815
 1063SOL    HW2 4089   1.165   6.914   5.744
 1064SOL     OW 4090   0.813   4.629   1.225
 1064SOL    HW1 4091   0.871   4.709   1.240
 1064SOL    HW2 4092   0.718   4.659   1.215
 1065SOL     OW 4093   3.879   0.705   4.267
 1065SOL    HW1 4094   3.977   0.711   4.248
 1065SOL    HW2 4095   3.865   0.680   4.363
 1066SOL     OW 4096   4.874   0.481   2.229
 1066SOL    HW1 4097   4.789   0.461   2.180
 1066SOL    HW2 4098   4.852   0.517   2.320
 1067SOL     OW 4099   2.899   0.940   0.385
 1067SOL    HW1 4100   2.894   0.976   0.292
 1067SOL    HW2 4101   2.985   0.968   0.427
 1068SOL     OW 4102   6.336   3.328   0.799
 1068SOL    HW1 4103   6.338   3.291   0.707
 1068SOL    HW2 4104   6.242   3.351   0.825
 1069SOL     OW 4105   5.734   4.232   0.831
 1069SOL    HW1 4106   5.816   4.255   0.778
 1069SOL    HW2 4107   5.696   4.146   0.798
 1070SOL     OW 4108   2.275   0.669   2.583
 1070SOL    HW1 4109   2.205   0.732   2.617
 1070SOL    HW2 4110   2.232   0.584   2.552
 1071SOL     OW 4111   6.884   2.249   4.802
 1071SOL    HW1 4112   6.812   2.199   4.850
 1071SOL    HW2 4113   6.849   2.284   4.716
 1072SOL     OW 4114   2.956   0.635   1.685
 1072SOL    HW1 4115   2.982   0.625   1.781
 1072SOL    HW2 4116   2.862   0.668   1.680
 1073SOL     OW 4117   5.395   1.616   3.467
 1073SOL    HW1 4118   5.315   1.577   3.513
 1073SOL    HW2 4119   5.370   1.644   3.374
 1074SOL     OW 4120   3.157   5.105   2.014
 1074SOL    HW1 4121   3.099   5.151   2.080
 1074SOL    HW2 4122   3.214   5.037   2.061
 1075SOL     OW 4123   5.709   1.986   5.320
 1075SOL    HW1 4124   5.723   1.980   5.418
 1075SOL    HW2 4125   5.705   2.083   5.292
 1076SOL     OW 4126   2.110   3.972   5.267
 1076SOL    HW1 4127   2.192   3.946   5.316
 1076SOL    HW2 4128   2.107   3.925   5.179
 1077SOL     OW 4129   6.939   0.760   6.891
 1077SOL    HW1 4130   6.942   0.700   6.812
 1077SOL    HW2 4131   6.956   0.707   6.974
 1078SOL     OW 4132   6.565   6.716   3.871
 1078SOL    HW1 4133   6.503   6.638   3.867
 1078SOL    HW2 4134   6.657   6.684   3.894
 1079SOL     OW 4135   1.358   5.788   2.277
 1079SOL    HW1 4136   1.445   5.838   2.276
 1079SOL    HW2 4137   1.347   5.742   2.365
 1080SOL     OW 4138   2.100   5.625   5.097
 1080SOL    HW1 4139   2.041   5.655   5.021
 1080SOL    HW2 4140   2.195   5.625   5.067
 1081SOL     OW 4141   6.504   5.521   4.547
 1081SOL    HW1 4142   6.593   5.562   4.562
 1081SOL    HW2 4143   6.446   5.534   4.628
 1082SOL     OW 4144   5.518   6.952   5.782
 1082SOL    HW1 4145   5.534   6.994   5.692
 1082SOL    HW2 4146   5.437   6.894   5.778
 1083SOL     OW 4147   4.971   3.797   0.744
 1083SOL    HW1 4148   4.984   3.848   0.829
 1083SOL    HW2 4149   4.937   3.859   0.673
 1084SOL     OW 4150   6.815   6.784   6.617
 1084SOL    HW1 4151   6.856   6.714   6.557
 1084SOL    HW2 4152   6.725   6.753   6.647
 1085SOL     OW 4153   1.873   4.035   4.103
 1085SOL    HW1 4154   1.959   4.027   4.154
 1085SOL    HW2 4155   1.805   3.974   4.143
 1086SOL     OW 4156   6.514   4.609   6.142
 1086SOL    HW1 4157   6.614   4.622   6.139
 1086SOL    HW2 4158   6.472   4.669   6.073
 1087SOL     OW 4159   1.623   0.792   5.471
 1087SOL    HW1 4160   1.619   0.743   5.558
 1087SOL    HW2 4161   1.596   0.731   5.397
 1088SOL     OW 4162   6.987   4.951   3.679
 1088SOL    HW1 4163   6.949   5.038   3.711
 1088SOL    HW2 4164   6.946   4.927   3.591
 1089SOL     OW 4165   0.033   4.944   4.619
 1089SOL    HW1 4166   6.988   4.873   4.636
 1089SOL    HW2 4167   0.044   4.999   4.702
 1090SOL     OW 4168   5.897   1.568   4.522
 1090SOL    HW1 4169   5.860   1.581   4.430
 1090SOL    HW2 4170   5.932   1.654   4.557
 1091SOL     OW 4171   2.083   3.175   3.850
 1091SOL    HW1 4172   2.049   3.081   3.854
 1091SOL    HW2 4173   2.153   3.189   3.920
 1092SOL     OW 4174   1.101   5.175   1.085
 1092SOL    HW1 4175   1.059   5.255   1.043
 1092SOL    HW2 4176   1.038   5.098   1.081
 1093SOL     OW 4177   2.536   6.583   1.524
 1093SOL    HW1 4178   2.580   6.494   1.511
 1093SOL    HW2 4179   2.460   6.592   1.460
 1094SOL     OW 4180   0.734   0.008   2.461
 1094SOL    HW1 4181   0.745   6.938   2.497
 1094SOL    HW2 4182   0.732   0.073   2.537
 1095SOL     OW 4183   6.955   2.754   6.684
 1095SOL    HW1 4184   6.982   2.848   6.662
 1095SOL    HW2 4185   6.891   2.721   6.615
 1096SOL     OW 4186   3.096   5.751   0.871
 1096SOL    HW1 4187   3.174   5.706   0.827
 1096SOL    HW2 4188   3.113   5.850   0.876
 1097SOL     OW 4189   2.099   5.163   3.893
 1097SOL    HW1 4190   2.007   5.167   3.932
 1097SOL    HW2 4191   2.101   5.097   3.818
 1098SOL     OW 4192   6.058   4.346   0.080
 1098SOL    HW1 4193   6.058   4.305   7.012
 1098SOL    HW2 4194   6.056   4.274   0.149
 1099SOL     OW 4195   4.603   1.592   6.036
 1099SOL    HW1 4196   4.599   1.531   6.116
 1099SOL    HW2 4197   4.645   1.542   5.960
 1100SOL     OW 4198   4.120   0.814   3.799
 1100SOL    HW1 4199   4.166   0.882   3.742
 1100SOL    HW2 4200   4.183   0.780   3.869
 1101SOL     OW 4201   5.558   3.003   5.505
 1101SOL    HW1 4202   5.553   3.100   5.477
 1101SOL    HW2 4203   5.654   2.977   5.516
 1102SOL     OW 4204   2.346   0.765   4.370
 1102SOL    HW1 4205   2.254   0.749   4.333
 1102SOL    HW2 4206   2.342   0.766   4.469
 1103SOL     OW 4207   2.849   0.879   6.443
 1103SOL    HW1 4208   2.774   0.941   6.419
 1103SOL    HW2 4209   2.821   0.785   6.427
 1104SOL     OW 4210   0.722   4.636   3.178
 1104SOL    HW1 4211   0.692   4.581   3.101
 1104SOL    HW2 4212   0.659   4.712   3.192
 1105SOL     OW 4213   5.616   1.467   5.016
 1105SOL    HW1 4214   5.517   1.455   5.004
 1105SOL    HW2 4215   5.638   1.459   5.113
 1106SOL     OW 4216   0.737   1.372   0.091
 1106SOL    HW1 4217   0.759   1.318   0.010
 1106SOL    HW2 4218   0.752   1.316   0.173
 1107SOL     OW 4219   1.528   0.933   6.390
 1107SOL    HW1 4220   1.476   0.875   6.452
 1107SOL    HW2 4221   1.587   0.994   6.443
 1108SOL     OW 4222   3.197   6.169   4.444
 1108SOL    HW1 4223   3.291   6.201   4.456
 1108SOL    HW2 4224   3.196   6.093   4.379
 1109SOL     OW 4225   5.498   1.404   3.883
 1109SOL    HW1 4226   5.407   1.403   3.842
 1109SOL    HW2 4227   5.567   1.407   3.810
 1110SOL     OW 4228   3.387   0.764   2.720
 1110SOL    HW1 4229   3.320   0.772   2.646
 1110SOL    HW2 4230   3.340   0.772   2.808
 1111SOL     OW 4231   4.828   4.061   6.222
 1111SOL    HW1 4232   4.808   4.133   6.289
 1111SOL    HW2 4233   4.922   4.070   6.191
 1112SOL     OW 4234   6.394   0.341   2.965
 1112SOL    HW1 4235   6.452   0.414   2.930
 1112SOL    HW2 4236   6.321   0.322   2.899
 1113SOL     OW 4237   6.402   4.007   2.873
 1113SOL    HW1 4238   6.437   3.914   2.878
 1113SOL    HW2 4239   6.436   4.052   2.791
 1114SOL     OW 4240   4.016   2.358   6.053
 1114SOL    HW1 4241   4.052   2.451   6.059
 1114SOL    HW2 4242   3.990   2.338   5.959
 1115SOL     OW 4243   3.222   3.948   5.762
 1115SOL    HW1 4244   3.175   3.862   5.740
 1115SOL    HW2 4245   3.310   3.950   5.715
 1116SOL     OW 4246   4.927   1.045   0.357
 1116SOL    HW1 4247   4.863   1.106   0.402
 1116SOL    HW2 4248   4.947   1.078   0.265
 1117SOL     OW 4249   1.050   2.488   1.780
 1117SOL    HW1 4250   0.976   2.493   1.713
 1117SOL    HW2 4251   1.126   2.436   1.742
 1118SOL     OW 4252   2.677   5.408   6.872
 1118SOL    HW1 4253   2.721   5.497   6.886
 1118SOL    HW2 4254   2.710   5.367   6.787
 1119SOL     OW 4255   4.020   4.899   3.387
 1119SOL    HW1 4256   3.957   4.905   3.465
 1119SOL    HW2 4257   4.076   4.817   3.396
 1120SOL     OW 4258   6.475   5.548   1.088
 1120SOL    HW1 4259   6.532   5.626   1.061
 1120SOL    HW2 4260   6.527   5.490   1.151
 1121SOL     OW 4261   0.907   5.330   4.581
 1121SOL    HW1 4262   0.923   5.269   4.659
 1121SOL    HW2 4263   0.889   5.276   4.499
 1122SOL     OW 4264   5.469   2.820   2.153
 1122SOL    HW1 4265   5.552   2.870   2.129
 1122SOL    HW2 4266   5.488   2.760   2.231
 1123SOL     OW 4267   4.072   1.762   3.022
 1123SOL    HW1 4268   4.130   1.827   2.974
 1123SOL    HW2 4269   4.107   1.747   3.114
 1124SOL     OW 4270   2.012   2.903   4.923
 1124SOL    HW1 4271   1.995   2.862   5.012
 1124SOL    HW2 4272   1.975   2.996   4.921
 1125SOL     OW 4273   1.840   3.578   4.620
 1125SOL    HW1 4274   1.843   3.593   4.521
 1125SOL    HW2 4275   1.923   3.531   4.649
 1126SOL     OW 4276   3.987   5.743   5.722
 1126SOL    HW1 4277   3.992   5.814   5.652
 1126SOL    HW2 4278   4.026   5.778   5.807
 1127SOL     OW 4279   5.358   6.126   4.114
 1127SOL    HW1 4280   5.393   6.054   4.054
 1127SOL    HW2 4281   5.261   6.141   4.095
 1128SOL     OW 4282   6.189   1.101   3.650
 1128SOL    HW1 4283   6.119   1.059   3.708
 1128SOL    HW2 4284   6.148   1.172   3.593
 1129SOL     OW 4285   1.730   6.747   1.091
 1129SOL    HW1 4286   1.733   6.809   1.012
 1129SOL    HW2 4287   1.737   6.801   1.175
 1130SOL     OW 4288   1.979   5.139   2.961
 1130SOL    HW1 4289   1.922   5.057   2.962
 1130SOL    HW2 4290   2.029   5.144   2.875
 1131SOL     OW 4291   1.199   6.979   4.061
 1131SOL    HW1 4292   1.262   6.943   3.992
 1131SOL    HW2 4293   1.121   7.022   4.015
 1132SOL     OW 4294   4.428   0.947   2.656
 1132SOL    HW1 4295   4.377   1.030   2.678
 1132SOL    HW2 4296   4.396   0.910   2.569
 1133SOL     OW 4297   1.238   0.026   5.256
 1133SOL    HW1 4298   1.227   0.037   5.158
 1133SOL    HW2 4299   1.301   6.974   5.275
 1134SOL     OW 4300   4.694   6.974   1.913
 1134SOL    HW1 4301   4.786   6.949   1.883
 1134SOL    HW2 4302   4.668   6.919   1.992
 1135SOL     OW 4303   2.483   6.234   3.377
 1135SOL    HW1 4304   2.535   6.197   3.454
 1135SOL    HW2 4305   2.395   6.268   3.410
 1136SOL     OW 4306   2.713   6.096   2.888
 1136SOL    HW1 4307   2.683   6.189   2.868
 1136SOL    HW2 4308   2.648   6.031   2.849
 1137SOL     OW 4309   0.446   6.213   6.485
 1137SOL    HW1 4310   0.396   6.132   6.456
 1137SOL    HW2 4311   0.382   6.281   6.521
 1138SOL     OW 4312   2.110   3.137   5.372
 1138SOL    HW1 4313   2.192   3.189   5.346
 1138SOL    HW2 4314   2.130   3.080   5.452
 1139SOL     OW 4315   2.606   4.648   4.025
 1139SOL    HW1 4316   2.701   4.648   3.993
 1139SOL    HW2 4317   2.595   4.719   4.094
 1140SOL     OW 4318   2.098   1.198   1.499
 1140SOL    HW1 4319   2.026   1.262   1.472
 1140SOL    HW2 4320   2.149   1.235   1.577
 1141SOL     OW 4321   5.671   5.154   6.203
 1141SOL    HW1 4322   5.682   5.106   6.116
 1141SOL    HW2 4323   5.684   5.252   6.190
 1142SOL     OW 4324   2.351   0.039   3.523
 1142SOL    HW1 4325   2.401   7.012   3.452
 1142SOL    HW2 4326   2.374   0.136   3.517
 1143SOL     OW 4327   1.377   3.642   1.693
 1143SOL    HW1 4328   1.401   3.654   1.596
 1143SOL    HW2 4329   1.387   3.729   1.741
 1144SOL     OW 4330   5.414   4.241   2.655
 1144SOL    HW1 4331   5.502   4.224   2.700
 1144SOL    HW2 4332   5.348   4.274   2.722
 1145SOL     OW 4333   1.099   2.436   0.519
 1145SOL    HW1 4334   1.183   2.489   0.523
 1145SOL    HW2 4335   1.120   2.339   0.525
 1146SOL     OW 4336   0.939   1.192   1.744
 1146SOL    HW1 4337   1.035   1.205   1.769
 1146SOL    HW2 4338   0.888   1.161   1.825
 1147SOL     OW 4339   3.098   5.745   1.420
 1147SOL    HW1 4340   3.010   5.757   1.465
 1147SOL    HW2 4341   3.160   5.697   1.482
 1148SOL     OW 4342   3.981   6.259   2.102
 1148SOL    HW1 4343   3.977   6.341   2.046
 1148SOL    HW2 4344   4.026   6.280   2.189
 1149SOL     OW 4345   5.996   2.850   1.942
 1149SOL    HW1 4346   5.969   2.881   1.851
 1149SOL    HW2 4347   5.959   2.758   1.958
 1150SOL     OW 4348   1.533   4.496   6.840
 1150SOL    HW1 4349   1.620   4.473   6.797
 1150SOL    HW2 4350   1.459   4.451   6.790
 1151SOL     OW 4351   6.505   5.067   3.470
 1151SOL    HW1 4352   6.514   5.080   3.372
 1151SOL    HW2 4353   6.595   5.076   3.514
 1152SOL     OW 4354   4.370   0.925   0.107
 1152SOL    HW1 4355   4.451   0.884   0.149
 1152SOL    HW2 4356   4.393   1.015   0.070
 1153SOL     OW 4357   6.821   7.018   1.480
 1153SOL    HW1 4358   6.856   0.085   1.454
 1153SOL    HW2 4359   6.878   6.947   1.439
 1154SOL     OW 4360   1.308   3.467   2.740
 1154SOL    HW1 4361   1.244   3.459   2.664
 1154SOL    HW2 4362   1.395   3.424   2.715
 1155SOL     OW 4363   2.335   6.947   4.836
 1155SOL    HW1 4364   2.365   6.913   4.925
 1155SOL    HW2 4365   2.367   0.018   4.825
 1156SOL     OW 4366   3.971   1.668   4.311
 1156SOL    HW1 4367   3.959   1.717   4.397
 1156SOL    HW2 4368   3.933   1.576   4.319
 1157SOL     OW 4369   4.200   0.608   5.255
 1157SOL    HW1 4370   4.123   0.645   5.308
 1157SOL    HW2 4371   4.211   0.661   5.171
 1158SOL     OW 4372   5.398   5.933   3.915
 1158SOL    HW1 4373   5.346   5.933   3.830
 1158SOL    HW2 4374   5.470   5.863   3.910
 1159SOL     OW 4375   6.444   6.490   3.166
 1159SOL    HW1 4376   6.354   6.523   3.196
 1159SOL    HW2 4377   6.507   6.491   3.243
 1160SOL     OW 4378   4.350   6.910   1.051
 1160SOL    HW1 4379   4.384   7.003   1.069
 1160SOL    HW2 4380   4.313   6.871   1.135
 1161SOL     OW 4381   6.618   5.387   6.597
 1161SOL    HW1 4382   6.662   5.477   6.597
 1161SOL    HW2 4383   6.625   5.346   6.506
 1162SOL     OW 4384   1.888   3.044   5.541
 1162SOL    HW1 4385   1.889   3.034   5.641
 1162SOL    HW2 4386   1.961   3.107   5.514
 1163SOL     OW 4387   5.926   4.185   2.132
 1163SOL    HW1 4388   5.863   4.262   2.120
 1163SOL    HW2 4389   6.002   4.195   2.068
 1164SOL     OW 4390   5.648   2.287   4.497
 1164SOL    HW1 4391   5.675   2.211   4.556
 1164SOL    HW2 4392   5.628   2.367   4.553
 1165SOL     OW 4393   4.505   5.993   3.522
 1165SOL    HW1 4394   4.482   5.905   3.481
 1165SOL    HW2 4395   4.546   6.052   3.452
 1166SOL     OW 4396   2.179   6.475   6.405
 1166SOL    HW1 4397   2.243   6.541   6.443
 1166SOL    HW2 4398   2.087   6.495   6.437
 1167SOL     OW 4399   4.802   4.140   2.099
 1167SOL    HW1 4400   4.830   4.196   2.177
 1167SOL    HW2 4401   4.707   4.160   2.076
 1168SOL     OW 4402   5.870   2.583   2.574
 1168SOL    HW1 4403   5.967   2.599   2.556
 1168SOL    HW2 4404   5.836   2.512   2.512
 1169SOL     OW 4405   5.754   0.988   5.615
 1169SOL    HW1 4406   5.822   1.052   5.650
 1169SOL    HW2 4407   5.663   1.022   5.636
 1170SOL     OW 4408   4.818   0.167   3.132
 1170SOL    HW1 4409   4.866   0.190   3.048
 1170SOL    HW2 4410   4.851   0.078   3.166
 1171SOL     OW 4411   1.581   6.970   0.532
 1171SOL    HW1 4412   1.666   7.001   0.490
 1171SOL    HW2 4413   1.523   6.927   0.462
 1172SOL     OW 4414   5.979   3.540   0.401
 1172SOL    HW1 4415   5.886   3.577   0.405
 1172SOL    HW2 4416   6.018   3.540   0.493
 1173SOL     OW 4417   2.875   0.792   1.145
 1173SOL    HW1 4418   2.857   0.823   1.238
 1173SOL    HW2 4419   2.854   0.695   1.138
 1174SOL     OW 4420   3.573   3.804   1.680
 1174SOL    HW1 4421   3.598   3.863   1.757
 1174SOL    HW2 4422   3.500   3.742   1.707
 1175SOL     OW 4423   4.109   3.253   5.594
 1175SOL    HW1 4424   4.132   3.303   5.678
 1175SOL    HW2 4425   4.047   3.178   5.616
 1176SOL     OW 4426   4.850   3.146   5.767
 1176SOL    HW1 4427   4.940   3.115   5.737
 1176SOL    HW2 4428   4.784   3.135   5.692
 1177SOL     OW 4429   6.242   2.551   5.178
 1177SOL    HW1 4430   6.156   2.600   5.189
 1177SOL    HW2 4431   6.228   2.470   5.121
 1178SOL     OW 4432   3.074   3.956   0.837
 1178SOL    HW1 4433   3.088   3.859   0.817
 1178SOL    HW2 4434   3.006   3.993   0.775
 1179SOL     OW 4435   2.317   6.360   0.443
 1179SOL    HW1 4436   2.320   6.459   0.450
 1179SOL    HW2 4437   2.336   6.319   0.532
 1180SOL     OW 4438   3.108   5.526   1.805
 1180SOL    HW1 4439   3.013   5.513   1.778
 1180SOL    HW2 4440   3.112   5.577   1.891
 1181SOL     OW 4441   0.636   5.332   6.583
 1181SOL    HW1 4442   0.637   5.313   6.484
 1181SOL    HW2 4443   0.650   5.247   6.633
 1182SOL     OW 4444   3.525   5.519   3.039
 1182SOL    HW1 4445   3.483   5.605   3.066
 1182SOL    HW2 4446   3.557   5.471   3.121
 1183SOL     OW 4447   1.822   4.978   0.387
 1183SOL    HW1 4448   1.813   4.965   0.486
 1183SOL    HW2 4449   1.737   5.015   0.350
 1184SOL     OW 4450   0.602   0.611   4.176
 1184SOL    HW1 4451   0.589   0.706   4.149
 1184SOL    HW2 4452   0.638   0.559   4.099
 1185SOL     OW 4453   0.076   1.088   6.221
 1185SOL    HW1 4454   0.064   1.028   6.142
 1185SOL    HW2 4455   0.135   1.044   6.289
 1186SOL     OW 4456   4.790   5.340   4.695
 1186SOL    HW1 4457   4.785   5.409   4.623
 1186SOL    HW2 4458   4.818   5.252   4.656
 1187SOL     OW 4459   6.788   6.827   6.903
 1187SOL    HW1 4460   6.780   6.839   6.804
 1187SOL    HW2 4461   6.738   6.901   6.949
 1188SOL     OW 4462   2.976   6.167   5.177
 1188SOL    HW1 4463   2.997   6.265   5.165
 1188SOL    HW2 4464   2.880   6.151   5.158
 1189SOL     OW 4465   6.635   3.414   2.801
 1189SOL    HW1 4466   6.539   3.442   2.797
 1189SOL    HW2 4467   6.680   3.436   2.714
 1190SOL     OW 4468   2.464   5.882   3.445
 1190SOL    HW1 4469   2.370   5.902   3.420
 1190SOL    HW2 4470   2.499   5.953   3.506
 1191SOL     OW 4471   4.407   5.032   3.438
 1191SOL    HW1 4472   4.332   5.097   3.424
 1191SOL    HW2 4473   4.379   4.963   3.504
 1192SOL     OW 4474   3.660   5.744   3.433
 1192SOL    HW1 4475   3.649   5.669   3.498
 1192SOL    HW2 4476   3.712   5.712   3.354
 1193SOL     OW 4477   5.845   4.406   4.434
 1193SOL    HW1 4478   5.906   4.464   4.381
 1193SOL    HW2 4479   5.750   4.434   4.418
 1194SOL     OW 4480   5.389   0.040   1.653
 1194SOL    HW1 4481   5.340   6.984   1.690
 1194SOL    HW2 4482   5.331   0.121   1.659
 1195SOL     OW 4483   6.308   4.496   1.912
 1195SOL    HW1 4484   6.248   4.561   1.959
 1195SOL    HW2 4485   6.294   4.501   1.814
 1196SOL     OW 4486   6.989   5.822   2.969
 1196SOL    HW1 4487   0.027   5.883   2.919
 1196SOL    HW2 4488   6.974   5.739   2.914
 1197SOL     OW 4489   3.751   0.828   6.525
 1197SOL    HW1 4490   3.806   0.866   6.450
 1197SOL    HW2 4491   3.803   0.756   6.571
 1198SOL     OW 4492   1.251   3.138   1.750
 1198SOL    HW1 4493   1.248   3.233   1.782
 1198SOL    HW2 4494   1.321   3.088   1.799
 1199SOL     OW 4495   4.563   4.924   1.818
 1199SOL    HW1 4496   4.593   4.846   1.873
 1199SOL    HW2 4497   4.503   4.892   1.745
 1200SOL     OW 4498   3.227   3.591   2.880
 1200SOL    HW1 4499   3.291   3.625   2.949
 1200SOL    HW2 4500   3.149   3.548   2.926
 1201SOL     OW 4501   0.908   0.926   4.738
 1201SOL    HW1 4502   0.997   0.895   4.771
 1201SOL    HW2 4503   0.838   0.858   4.761
 1202SOL     OW 4504   0.755   6.136   6.495
 1202SOL    HW1 4505   0.674   6.093   6.537
 1202SOL    HW2 4506   0.793   6.075   6.426
 1203SOL     OW 4507   5.447   6.184   6.781
 1203SOL    HW1 4508   5.385   6.122   6.733
 1203SOL    HW2 4509   5.536   6.139   6.793
 1204SOL     OW 4510   2.739   0.494   1.080
 1204SOL    HW1 4511   2.672   0.509   1.008
 1204SOL    HW2 4512   2.699   0.519   1.168
 1205SOL     OW 4513   5.114   4.010   1.620
 1205SOL    HW1 4514   5.038   4.008   1.686
 1205SOL    HW2 4515   5.170   3.928   1.632
 1206SOL     OW 4516   3.348   2.839   5.045
 1206SOL    HW1 4517   3.333   2.748   5.008
 1206SOL    HW2 4518   3.260   2.879   5.073
 1207SOL     OW 4519   2.043   0.221   1.007
 1207SOL    HW1 4520   2.017   0.142   1.062
 1207SOL    HW2 4521   1.982   0.298   1.029
 1208SOL     OW 4522   3.474   4.180   0.548
 1208SOL    HW1 4523   3.437   4.206   0.459
 1208SOL    HW2 4524   3.497   4.262   0.600
 1209SOL     OW 4525   3.982   0.669   5.395
 1209SOL    HW1 4526   3.956   0.762   5.367
 1209SOL    HW2 4527   3.900   0.613   5.403
 1210SOL     OW 4528   2.465   0.054   2.932
 1210SOL    HW1 4529   2.557   0.042   2.967
 1210SOL    HW2 4530   2.435   6.993   2.886
 1211SOL     OW 4531   1.871   3.599   1.105
 1211SOL    HW1 4532   1.970   3.591   1.094
 1211SOL    HW2 4533   1.851   3.669   1.173
 1212SOL     OW 4534   0.338   0.838   5.984
 1212SOL    HW1 4535   0.316   0.887   5.900
 1212SOL    HW2 4536   0.306   0.743   5.977
 1213SOL     OW 4537   5.800   2.493   0.397
 1213SOL    HW1 4538   5.894   2.459   0.387
 1213SOL    HW2 4539   5.797   2.566   0.465
 1214SOL     OW 4540   6.984   2.090   0.801
 1214SOL    HW1 4541   0.018   2.163   0.764
 1214SOL    HW2 4542   6.895   2.128   0.828
 1215SOL     OW 4543   1.707   4.506   4.086
 1215SOL    HW1 4544   1.746   4.425   4.043
 1215SOL    HW2 4545   1.608   4.507   4.070
 1216SOL     OW 4546   3.958   0.679   0.306
 1216SOL    HW1 4547   3.895   0.612   0.267
 1216SOL    HW2 4548   3.920   0.716   0.390
 1217SOL     OW 4549   1.519   5.453   0.823
 1217SOL    HW1 4550   1.613   5.425   0.803
 1217SOL    HW2 4551   1.463   5.441   0.741
 1218SOL     OW 4552   1.639   5.007   4.332
 1218SOL    HW1 4553   1.726   4.967   4.304
 1218SOL    HW2 4554   1.572   4.933   4.346
 1219SOL     OW 4555   5.245   5.516   2.023
 1219SOL    HW1 4556   5.147   5.497   2.035
 1219SOL    HW2 4557   5.265   5.528   1.926
 1220SOL     OW 4558   0.902   5.256   3.011
 1220SOL    HW1 4559   0.855   5.227   3.094
 1220SOL    HW2 4560   0.834   5.290   2.945
 1221SOL     OW 4561   5.074   2.806   5.426
 1221SOL    HW1 4562   5.174   2.809   5.422
 1221SOL    HW2 4563   5.036   2.847   5.343
 1222SOL     OW 4564   6.075   0.169   6.942
 1222SOL    HW1 4565   6.140   0.137   6.874
 1222SOL    HW2 4566   6.023   0.246   6.905
 1223SOL     OW 4567   4.040   0.546   0.653
 1223SOL    HW1 4568   4.002   0.639   0.656
 1223SOL    HW2 4569   4.054   0.513   0.746
 1224SOL     OW 4570   2.396   6.698   1.287
 1224SOL    HW1 4571   2.400   6.779   1.345
 1224SOL    HW2 4572   2.358   6.723   1.197
 1225SOL     OW 4573   3.238   4.369   6.320
 1225SOL    HW1 4574   3.225   4.463   6.289
 1225SOL    HW2 4575   3.266   4.311   6.244
 1226SOL     OW 4576   2.439   4.607   1.660
 1226SOL    HW1 4577   2.537   4.626   1.663
 1226SOL    HW2 4578   2.424   4.515   1.625
 1227SOL     OW 4579   6.966   3.146   6.904
 1227SOL    HW1 4580   6.868   3.165   6.907
 1227SOL    HW2 4581   7.016   3.231   6.891
 1228SOL     OW 4582   4.085   3.432   6.423
 1228SOL    HW1 4583   4.046   3.348   6.462
 1228SOL    HW2 4584   4.015   3.479   6.369
 1229SOL     OW 4585   4.583   4.457   5.870
 1229SOL    HW1 4586   4.615   4.466   5.965
 1229SOL    HW2 4587   4.484   4.445   5.870
 1230SOL     OW 4588   4.511   0.463   4.553
 1230SOL    HW1 4589   4.599   0.421   4.528
 1230SOL    HW2 4590   4.444   0.392   4.570
 1231SOL     OW 4591   1.815   3.921   5.109
 1231SOL    HW1 4592   1.738   3.894   5.167
 1231SOL    HW2 4593   1.878   3.844   5.099
 1232SOL     OW 4594   0.964   2.302   5.160
 1232SOL    HW1 4595   1.061   2.281   5.147
 1232SOL    HW2 4596   0.931   2.354   5.082
 1233SOL     OW 4597   1.600   3.104   5.270
 1233SOL    HW1 4598   1.700   3.107   5.279
 1233SOL    HW2 4599   1.562   3.046   5.341
 1234SOL     OW 4600   6.950   4.294   3.836
 1234SOL    HW1 4601   6.956   4.245   3.749
 1234SOL    HW2 4602   6.859   4.283   3.875
 1235SOL     OW 4603   6.834   6.066   2.444
 1235SOL    HW1 4604   6.880   6.110   2.521
 1235SOL    HW2 4605   6.897   6.059   2.367
 1236SOL     OW 4606   5.214   1.049   6.415
 1236SOL    HW1 4607   5.118   1.068   6.433
 1236SOL    HW2 4608   5.242   0.965   6.462
 1237SOL     OW 4609   2.728   4.796   6.149
 1237SOL    HW1 4610   2.675   4.716   6.119
 1237SOL    HW2 4611   2.802   4.813   6.084
 1238SOL     OW 4612   2.018   1.148   0.865
 1238SOL    HW1 4613   2.084   1.081   0.901
 1238SOL    HW2 4614   1.988   1.119   0.774
 1239SOL     OW 4615   6.714   6.120   6.319
 1239SOL    HW1 4616   6.635   6.099   6.376
 1239SOL    HW2 4617   6.719   6.219   6.304
 1240SOL     OW 4618   5.469   6.329   1.570
 1240SOL    HW1 4619   5.439   6.414   1.614
 1240SOL    HW2 4620   5.568   6.320   1.579
 1241SOL     OW 4621   6.547   3.469   4.017
 1241SOL    HW1 4622   6.617   3.503   4.079
 1241SOL    HW2 4623   6.457   3.497   4.050
 1242SOL     OW 4624   1.782   3.742   6.799
 1242SOL    HW1 4625   1.813   3.745   6.894
 1242SOL    HW2 4626   1.850   3.695   6.743
 1243SOL     OW 4627   1.831   5.475   5.574
 1243SOL    HW1 4628   1.752   5.492   5.516
 1243SOL    HW2 4629   1.848   5.376   5.578
 1244SOL     OW 4630   0.040   0.428   2.668
 1244SOL    HW1 4631   6.985   0.468   2.716
 1244SOL    HW2 4632   0.022   0.426   2.570
 1245SOL     OW 4633   3.530   3.687   6.439
 1245SOL    HW1 4634   3.536   3.684   6.539
 1245SOL    HW2 4635   3.438   3.713   6.412
 1246SOL     OW 4636   2.269   6.402   2.379
 1246SOL    HW1 4637   2.264   6.471   2.451
 1246SOL    HW2 4638   2.234   6.439   2.294
 1247SOL     OW 4639   2.716   7.003   6.693
 1247SOL    HW1 4640   2.700   6.977   6.788
 1247SOL    HW2 4641   2.805   6.969   6.663
 1248SOL     OW 4642   1.593   6.847   3.818
 1248SOL    HW1 4643   1.635   6.937   3.828
 1248SOL    HW2 4644   1.661   6.783   3.781
 1249SOL     OW 4645   5.401   2.849   2.671
 1249SOL    HW1 4646   5.452   2.806   2.745
 1249SOL    HW2 4647   5.307   2.865   2.701
 1250SOL     OW 4648   1.051   4.638   4.372
 1250SOL    HW1 4649   1.118   4.575   4.411
 1250SOL    HW2 4650   1.049   4.722   4.426
 1251SOL     OW 4651   4.050   0.353   4.685
 1251SOL    HW1 4652   4.096   0.278   4.638
 1251SOL    HW2 4653   4.026   0.325   4.778
 1252SOL     OW 4654   3.401   4.169   5.987
 1252SOL    HW1 4655   3.308   4.139   6.007
 1252SOL    HW2 4656   3.465   4.097   6.013
 1253SOL     OW 4657   3.692   5.444   2.234
 1253SOL    HW1 4658   3.639   5.516   2.188
 1253SOL    HW2 4659   3.646   5.356   2.220
 1254SOL     OW 4660   6.054   2.762   2.813
 1254SOL    HW1 4661   6.135   2.704   2.820
 1254SOL    HW2 4662   6.081   2.859   2.818
 1255SOL     OW 4663   0.212   0.314   5.368
 1255SOL    HW1 4664   0.244   0.350   5.280
 1255SOL    HW2 4665   0.143   0.376   5.406
 1256SOL     OW 4666   6.996   0.095   2.601
 1256SOL    HW1 4667   7.002   0.171   2.536
 1256SOL    HW2 4668   6.907   0.097   2.646
 1257SOL     OW 4669   6.877   0.839   3.120
 1257SOL    HW1 4670   6.817   0.821   3.042
 1257SOL    HW2 4671   6.849   0.781   3.197
 1258SOL     OW 4672   0.679   5.902   3.123
 1258SOL    HW1 4673   0.639   5.825   3.072
 1258SOL    HW2 4674   0.768   5.924   3.085
 1259SOL     OW 4675   4.148   1.770   4.625
 1259SOL    HW1 4676   4.135   1.821   4.710
 1259SOL    HW2 4677   4.157   1.673   4.645
 1260SOL     OW 4678   1.059   1.140   6.351
 1260SOL    HW1 4679   1.041   1.057   6.297
 1260SOL    HW2 4680   1.157   1.160   6.349
 1261SOL     OW 4681   6.857   4.907   0.129
 1261SOL    HW1 4682   6.864   4.831   0.064
 1261SOL    HW2 4683   6.935   4.905   0.191
 1262SOL     OW 4684   5.734   5.455   1.830
 1262SOL    HW1 4685   5.648   5.447   1.880
 1262SOL    HW2 4686   5.811   5.452   1.894
 1263SOL     OW 4687   0.891   1.922   2.126
 1263SOL    HW1 4688   0.828   1.974   2.068
 1263SOL    HW2 4689   0.920   1.839   2.078
 1264SOL     OW 4690   1.012   3.967   5.109
 1264SOL    HW1 4691   1.042   4.052   5.067
 1264SOL    HW2 4692   0.912   3.964   5.112
 1265SOL     OW 4693   6.312   5.375   5.246
 1265SOL    HW1 4694   6.353   5.464   5.228
 1265SOL    HW2 4695   6.252   5.350   5.170
 1266SOL     OW 4696   1.332   1.163   5.076
 1266SOL    HW1 4697   1.372   1.072   5.082
 1266SOL    HW2 4698   1.282   1.172   4.990
 1267SOL     OW 4699   5.137   0.699   1.753
 1267SOL    HW1 4700   5.235   0.716   1.740
 1267SOL    HW2 4701   5.111   0.721   1.847
 1268SOL     OW 4702   4.203   2.387   5.424
 1268SOL    HW1 4703   4.302   2.399   5.430
 1268SOL    HW2 4704   4.170   2.434   5.342
 1269SOL     OW 4705   5.339   2.379   3.926
 1269SOL    HW1 4706   5.265   2.363   3.861
 1269SOL    HW2 4707   5.318   2.333   4.013
 1270SOL     OW 4708   1.638   4.600   2.532
 1270SOL    HW1 4709   1.710   4.559   2.589
 1270SOL    HW2 4710   1.617   4.691   2.567
 1271SOL     OW 4711   1.835   1.275   1.020
 1271SOL    HW1 4712   1.887   1.198   0.983
 1271SOL    HW2 4713   1.816   1.258   1.117
 1272SOL     OW 4714   6.372   3.898   6.721
 1272SOL    HW1 4715   6.457   3.939   6.753
 1272SOL    HW2 4716   6.388   3.850   6.635
 1273SOL     OW 4717   1.351   4.410   4.963
 1273SOL    HW1 4718   1.344   4.509   4.979
 1273SOL    HW2 4719   1.372   4.393   4.867
 1274SOL     OW 4720   0.322   4.499   2.125
 1274SOL    HW1 4721   0.398   4.551   2.086
 1274SOL    HW2 4722   0.276   4.448   2.052
 1275SOL     OW 4723   3.277   1.230   3.577
 1275SOL    HW1 4724   3.355   1.286   3.551
 1275SOL    HW2 4725   3.199   1.289   3.599
 1276SOL     OW 4726   5.310   5.026   4.309
 1276SOL    HW1 4727   5.278   5.011   4.216
 1276SOL    HW2 4728   5.392   5.083   4.307
 1277SOL     OW 4729   0.528   5.727   6.865
 1277SOL    HW1 4730   0.615   5.765   6.834
 1277SOL    HW2 4731   0.508   5.644   6.812
 1278SOL     OW 4732   1.453   6.835   3.260
 1278SOL    HW1 4733   1.512   6.854   3.339
 1278SOL    HW2 4734   1.386   6.765   3.285
 1279SOL     OW 4735   3.021   3.087   6.348
 1279SOL    HW1 4736   2.944   3.076   6.409
 1279SOL    HW2 4737   3.044   2.998   6.307
 1280SOL     OW 4738   3.151   1.402   3.331
 1280SOL    HW1 4739   3.202   1.424   3.248
 1280SOL    HW2 4740   3.105   1.314   3.319
 1281SOL     OW 4741   3.530   6.254   3.863
 1281SOL    HW1 4742   3.603   6.295   3.808
 1281SOL    HW2 4743   3.557   6.162   3.890
 1282SOL     OW 4744   6.887   2.950   0.628
 1282SOL    HW1 4745   6.828   2.937   0.707
 1282SOL    HW2 4746   6.851   3.023   0.570
 1283SOL     OW 4747   6.264   3.962   5.082
 1283SOL    HW1 4748   6.173   4.001   5.093
 1283SOL    HW2 4749   6.297   3.979   4.989
 1284SOL     OW 4750   3.564   1.285   1.313
 1284SOL    HW1 4751   3.650   1.270   1.361
 1284SOL    HW2 4752   3.574   1.259   1.217
 1285SOL     OW 4753   3.460   1.460   4.548
 1285SOL    HW1 4754   3.427   1.421   4.463
 1285SOL    HW2 4755   3.398   1.532   4.579
 1286SOL     OW 4756   4.921   2.618   1.640
 1286SOL    HW1 4757   5.011   2.583   1.668
 1286SOL    HW2 4758   4.932   2.706   1.596
 1287SOL     OW 4759   6.666   4.932   4.643
 1287SOL    HW1 4760   6.657   5.031   4.634
 1287SOL    HW2 4761   6.719   4.911   4.725
 1288SOL     OW 4762   4.410   4.300   6.329
 1288SOL    HW1 4763   4.425   4.304   6.428
 1288SOL    HW2 4764   4.318   4.332   6.308
 1289SOL     OW 4765   6.237   0.616   1.052
 1289SOL    HW1 4766   6.189   0.548   0.996
 1289SOL    HW2 4767   6.200   0.707   1.033
 1290SOL     OW 4768   1.436   0.493   0.041
 1290SOL    HW1 4769   1.446   0.593   0.037
 1290SOL    HW2 4770   1.465   0.460   0.130
 1291SOL     OW 4771   6.612   4.894   2.961
 1291SOL    HW1 4772   6.528   4.911   2.909
 1291SOL    HW2 4773   6.610   4.801   2.998
 1292SOL     OW 4774   0.282   5.525   2.236
 1292SOL    HW1 4775   0.213   5.553   2.303
 1292SOL    HW2 4776   0.273   5.581   2.153
 1293SOL     OW 4777   2.290   1.515   6.795
 1293SOL    HW1 4778   2.292   1.615   6.803
 1293SOL    HW2 4779   2.234   1.477   6.869
 1294SOL     OW 4780   1.948   4.228   6.348
 1294SOL    HW1 4781   2.012   4.304   6.357
 1294SOL    HW2 4782   1.900   4.235   6.261
 1295SOL     OW 4783   0.117   3.664   1.290
 1295SOL    HW1 4784   0.136   3.761   1.306
 1295SOL    HW2 4785   0.049   3.655   1.217
 1296SOL     OW 4786   4.802   6.731   5.697
 1296SOL    HW1 4787   4.894   6.719   5.732
 1296SOL    HW2 4788   4.806   6.769   5.605
 1297SOL     OW 4789   0.727   0.435   2.948
 1297SOL    HW1 4790   0.702   0.525   2.983
 1297SOL    HW2 4791   0.697   0.365   3.012
 1298SOL     OW 4792   5.545   5.406   2.713
 1298SOL    HW1 4793   5.482   5.329   2.704
 1298SOL    HW2 4794   5.635   5.372   2.738
 1299SOL     OW 4795   2.212   3.180   4.090
 1299SOL    HW1 4796   2.243   3.103   4.034
 1299SOL    HW2 4797   2.236   3.163   4.186
 1300SOL     OW 4798   2.622   4.318   0.927
 1300SOL    HW1 4799   2.676   4.263   0.992
 1300SOL    HW2 4800   2.525   4.307   0.948
 1301SOL     OW 4801   1.055   0.604   1.516
 1301SOL    HW1 4802   1.086   0.510   1.501
 1301SOL    HW2 4803   0.955   0.607   1.511
 1302SOL     OW 4804   5.522   0.021   6.417
 1302SOL    HW1 4805   5.426   0.021   6.447
 1302SOL    HW2 4806   5.539   0.102   6.360
 1303SOL     OW 4807   4.162   6.733   1.889
 1303SOL    HW1 4808   4.069   6.767   1.872
 1303SOL    HW2 4809   4.213   6.800   1.941
 1304SOL     OW 4810   1.034   1.026   1.260
 1304SOL    HW1 4811   1.053   0.929   1.245
 1304SOL    HW2 4812   1.114   1.069   1.301
 1305SOL     OW 4813   5.340   4.864   6.529
 1305SOL    HW1 4814   5.432   4.882   6.495
 1305SOL    HW2 4815   5.305   4.947   6.573
 1306SOL     OW 4816   1.239   5.978   5.117
 1306SOL    HW1 4817   1.316   5.919   5.142
 1306SOL    HW2 4818   1.202   5.949   5.029
 1307SOL     OW 4819   1.721   3.068   3.835
 1307SOL    HW1 4820   1.776   3.143   3.799
 1307SOL    HW2 4821   1.760   2.981   3.806
 1308SOL     OW 4822   6.689   5.344   6.858
 1308SOL    HW1 4823   6.737   5.432   6.864
 1308SOL    HW2 4824   6.658   5.329   6.764
 1309SOL     OW 4825   5.148   4.494   6.173
 1309SOL    HW1 4826   5.155   4.468   6.076
 1309SOL    HW2 4827   5.052   4.506   6.197
 1310SOL     OW 4828   1.382   3.554   3.988
 1310SOL    HW1 4829   1.391   3.636   3.932
 1310SOL    HW2 4830   1.455   3.552   4.057
 1311SOL     OW 4831   6.200   5.608   0.180
 1311SOL    HW1 4832   6.195   5.582   0.084
 1311SOL    HW2 4833   6.143   5.546   0.235
 1312SOL     OW 4834   1.135   0.803   5.538
 1312SOL    HW1 4835   1.094   0.861   5.468
 1312SOL    HW2 4836   1.157   0.857   5.619
 1313SOL     OW 4837   6.285   5.108   3.082
 1313SOL    HW1 4838   6.252   5.200   3.064
 1313SOL    HW2 4839   6.375   5.112   3.124
 1314SOL     OW 4840   2.510   1.781   4.785
 1314SOL    HW1 4841   2.589   1.836   4.810
 1314SOL    HW2 4842   2.430   1.840   4.772
 1315SOL     OW 4843   6.210   0.699   4.084
 1315SOL    HW1 4844   6.211   0.795   4.056
 1315SOL    HW2 4845   6.121   0.678   4.127
 1316SOL     OW 4846   4.028   0.456   5.091
 1316SOL    HW1 4847   3.935   0.493   5.096
 1316SOL    HW2 4848   4.086   0.500   5.159
 1317SOL     OW 4849   2.857   3.546   6.147
 1317SOL    HW1 4850   2.885   3.598   6.228
 1317SOL    HW2 4851   2.938   3.520   6.095
 1318SOL     OW 4852   2.208   2.551   0.094
 1318SOL    HW1 4853   2.200   2.592   0.004
 1318SOL    HW2 4854   2.305   2.546   0.120
 1319SOL     OW 4855   6.847   6.386   0.183
 1319SOL    HW1 4856   6.819   6.298   0.146
 1319SOL    HW2 4857   6.809   6.459   0.126
 1320SOL     OW 4858   3.705   2.913   6.290
 1320SOL    HW1 4859   3.664   2.845   6.229
 1320SOL    HW2 4860   3.771   2.968   6.238
 1321SOL     OW 4861   5.520   1.879   6.820
 1321SOL    HW1 4862   5.537   1.813   6.746
 1321SOL    HW2 4863   5.569   1.849   6.902
 1322SOL     OW 4864   3.146   1.167   6.156
 1322SOL    HW1 4865   3.104   1.078   6.136
 1322SOL    HW2 4866   3.146   1.223   6.073
 1323SOL     OW 4867   3.526   0.104   0.670
 1323SOL    HW1 4868   3.567   0.093   0.760
 1323SOL    HW2 4869   3.472   0.022   0.648
 1324SOL     OW 4870   1.405   3.927   0.213
 1324SOL    HW1 4871   1.348   3.927   0.295
 1324SOL    HW2 4872   1.452   3.839   0.204
 1325SOL     OW 4873   2.336   6.058   5.811
 1325SOL    HW1 4874   2.313   6.096   5.900
 1325SOL    HW2 4875   2.288   6.110   5.740
 1326SOL     OW 4876   4.829   4.092   4.732
 1326SOL    HW1 4877   4.917   4.108   4.776
 1326SOL    HW2 4878   4.756   4.108   4.798
 1327SOL     OW 4879   0.211   6.804   1.194
 1327SOL    HW1 4880   0.263   6.858   1.127
 1327SOL    HW2 4881   0.264   6.796   1.278
 1328SOL     OW 4882   0.871   3.321   5.865
 1328SOL    HW1 4883   0.947   3.256   5.855
 1328SOL    HW2 4884   0.803   3.283   5.927
 1329SOL     OW 4885   0.388   2.486   2.645
 1329SOL    HW1 4886   0.337   2.544   2.708
 1329SOL    HW2 4887   0.330   2.462   2.567
 1330SOL     OW 4888   6.705   2.144   0.866
 1330SOL    HW1 4889   6.637   2.087   0.819
 1330SOL    HW2 4890   6.683   2.240   0.853
 1331SOL     OW 4891   4.406   2.406   2.431
 1331SOL    HW1 4892   4.361   2.494   2.449
 1331SOL    HW2 4893   4.440   2.368   2.517
 1332SOL     OW 4894   1.601   0.467   0.860
 1332SOL    HW1 4895   1.525   0.440   0.920
 1332SOL    HW2 4896   1.578   0.552   0.814
 1333SOL     OW 4897   3.937   3.959   3.366
 1333SOL    HW1 4898   3.910   4.017   3.443
 1333SOL    HW2 4899   4.012   3.899   3.394
 1334SOL     OW 4900   6.889   1.703   2.820
 1334SOL    HW1 4901   6.946   1.686   2.900
 1334SOL    HW2 4902   6.939   1.678   2.737
 1335SOL     OW 4903   1.820   3.875   1.764
 1335SOL    HW1 4904   1.824   3.851   1.861
 1335SOL    HW2 4905   1.783   3.798   1.713
 1336SOL     OW 4906   3.801   0.835   5.728
 1336SOL    HW1 4907   3.898   0.818   5.713
 1336SOL    HW2 4908   3.749   0.751   5.715
 1337SOL     OW 4909   6.352   1.529   3.492
 1337SOL    HW1 4910   6.267   1.555   3.446
 1337SOL    HW2 4911   6.382   1.440   3.459
 1338SOL     OW 4912   6.372   3.884   4.179
 1338SOL    HW1 4913   6.410   3.912   4.267
 1338SOL    HW2 4914   6.396   3.952   4.110
 1339SOL     OW 4915   0.146   0.485   7.008
 1339SOL    HW1 4916   0.048   0.473   0.001
 1339SOL    HW2 4917   0.166   0.464   6.913
 1340SOL     OW 4918   5.367   1.598   1.897
 1340SOL    HW1 4919   5.352   1.563   1.989
 1340SOL    HW2 4920   5.335   1.692   1.891
 1341SOL     OW 4921   4.385   6.678   6.932
 1341SOL    HW1 4922   4.372   6.777   6.938
 1341SOL    HW2 4923   4.443   6.657   6.853
 1342SOL     OW 4924   3.343   5.587   0.785
 1342SOL    HW1 4925   3.280   5.549   0.718
 1342SOL    HW2 4926   3.367   5.517   0.852
 1343SOL     OW 4927   5.154   4.759   2.922
 1343SOL    HW1 4928   5.150   4.766   3.022
 1343SOL    HW2 4929   5.164   4.851   2.884
 1344SOL     OW 4930   0.018   0.113   4.503
 1344SOL    HW1 4931   0.004   0.037   4.440
 1344SOL    HW2 4932   0.073   0.184   4.457
 1345SOL     OW 4933   0.398   5.280   1.837
 1345SOL    HW1 4934   0.359   5.300   1.748
 1345SOL    HW2 4935   0.328   5.292   1.908
 1346SOL     OW 4936   2.426   5.459   5.742
 1346SOL    HW1 4937   2.365   5.393   5.701
 1346SOL    HW2 4938   2.451   5.529   5.674
 1347SOL     OW 4939   1.488   0.117   6.062
 1347SOL    HW1 4940   1.429   0.144   6.139
 1347SOL    HW2 4941   1.479   0.019   6.047
 1348SOL     OW 4942   6.890   5.725   5.378
 1348SOL    HW1 4943   6.924   5.756   5.290
 1348SOL    HW2 4944   6.872   5.804   5.437
 1349SOL     OW 4945   5.663   2.973   3.776
 1349SOL    HW1 4946   5.634   3.068   3.775
 1349SOL    HW2 4947   5.762   2.967   3.786
 1350SOL     OW 4948   3.681   3.954   0.501
 1350SOL    HW1 4949   3.628   4.016   0.559
 1350SOL    HW2 4950   3.619   3.902   0.442
 1351SOL     OW 4951   6.138   2.081   3.983
 1351SOL    HW1 4952   6.118   2.106   4.077
 1351SOL    HW2 4953   6.160   1.984   3.978
 1352SOL     OW 4954   6.627   0.275   2.298
 1352SOL    HW1 4955   6.633   0.301   2.202
 1352SOL    HW2 4956   6.581   0.348   2.350
 1353SOL     OW 4957   0.088   1.663   1.005
 1353SOL    HW1 4958   0.109   1.760   0.996
 1353SOL    HW2 4959   0.157   1.609   0.956
 1354SOL     OW 4960   6.721   4.324   2.237
 1354SOL    HW1 4961   6.715   4.285   2.329
 1354SOL    HW2 4962   6.772   4.410   2.240
 1355SOL     OW 4963   5.875   3.450   4.367
 1355SOL    HW1 4964   5.841   3.367   4.411
 1355SOL    HW2 4965   5.799   3.496   4.321
 1356SOL     OW 4966   3.828   3.098   2.511
 1356SOL    HW1 4967   3.800   3.013   2.466
 1356SOL    HW2 4968   3.754   3.165   2.503
 1357SOL     OW 4969   6.553   3.833   5.890
 1357SOL    HW1 4970   6.479   3.772   5.861
 1357SOL    HW2 4971   6.566   3.905   5.822
 1358SOL     OW 4972   0.839   6.824   6.817
 1358SOL    HW1 4973   0.798   6.753   6.760
 1358SOL    HW2 4974   0.927   6.851   6.780
 1359SOL     OW 4975   6.226   4.266   1.716
 1359SOL    HW1 4976   6.325   4.249   1.724
 1359SOL    HW2 4977   6.201   4.269   1.619
 1360SOL     OW 4978   3.515   2.898   6.708
 1360SOL    HW1 4979   3.490   2.816   6.657
 1360SOL    HW2 4980   3.584   2.949   6.656
 1361SOL     OW 4981   0.211   4.396   4.697
 1361SOL    HW1 4982   0.268   4.410   4.616
 1361SOL    HW2 4983   0.266   4.360   4.771
 1362SOL     OW 4984   4.060   3.155   2.675
 1362SOL    HW1 4985   3.997   3.102   2.617
 1362SOL    HW2 4986   4.026   3.154   2.769
 1363SOL     OW 4987   6.820   5.486   5.123
 1363SOL    HW1 4988   6.919   5.480   5.132
 1363SOL    HW2 4989   6.781   5.522   5.208
 1364SOL     OW 4990   4.508   4.369   0.037
 1364SOL    HW1 4991   4.520   4.430   6.982
 1364SOL    HW2 4992   4.534   4.276   0.011
 1365SOL     OW 4993   0.472   3.628   6.502
 1365SOL    HW1 4994   0.521   3.614   6.416
 1365SOL    HW2 4995   0.465   3.542   6.551
 1366SOL     OW 4996   1.056   0.499   4.750
 1366SOL    HW1 4997   1.116   0.464   4.679
 1366SOL    HW2 4998   1.068   0.446   4.834
 1367SOL     OW 4999   1.735   1.420   2.427
 1367SOL    HW1 5000   1.794   1.476   2.485
 1367SOL    HW2 5001   1.770   1.327   2.423
 1368SOL     OW 5002   5.825   0.049   4.114
 1368SOL    HW1 5003   5.793   0.115   4.182
 1368SOL    HW2 5004   5.804   0.083   4.022
 1369SOL     OW 5005   0.446   0.025   3.225
 1369SOL    HW1 5006   0.465   7.008   3.314
 1369SOL    HW2 5007   0.390   6.986   3.171
 1370SOL     OW 5008   3.189   0.809   1.881
 1370SOL    HW1 5009   3.258   0.811   1.953
 1370SOL    HW2 5010   3.128   0.888   1.891
 1371SOL     OW 5011   3.801   0.392   5.591
 1371SOL    HW1 5012   3.875   0.424   5.650
 1371SOL    HW2 5013   3.831   0.310   5.541
 1372SOL     OW 5014   2.629   2.240   2.188
 1372SOL    HW1 5015   2.684   2.237   2.271
 1372SOL    HW2 5016   2.685   2.213   2.109
 1373SOL     OW 5017   0.615   5.200   1.291
 1373SOL    HW1 5018   0.564   5.272   1.245
 1373SOL    HW2 5019   0.633   5.227   1.386
 1374SOL     OW 5020   4.395   2.269   1.147
 1374SOL    HW1 5021   4.317   2.307   1.198
 1374SOL    HW2 5022   4.463   2.341   1.133
 1375SOL     OW 5023   0.084   4.913   6.118
 1375SOL    HW1 5024   0.150   4.981   6.086
 1375SOL    HW2 5025   0.067   4.926   6.216
 1376SOL     OW 5026   4.875   3.147   3.409
 1376SOL    HW1 5027   4.852   3.116   3.501
 1376SOL    HW2 5028   4.795   3.135   3.350
 1377SOL     OW 5029   6.863   5.093   5.370
 1377SOL    HW1 5030   6.897   5.161   5.435
 1377SOL    HW2 5031   6.763   5.095   5.368
 1378SOL     OW 5032   1.263   2.352   0.176
 1378SOL    HW1 5033   1.290   2.375   0.270
 1378SOL    HW2 5034   1.345   2.340   0.120
 1379SOL     OW 5035   3.793   6.742   2.568
 1379SOL    HW1 5036   3.740   6.771   2.488
 1379SOL    HW2 5037   3.852   6.816   2.598
 1380SOL     OW 5038   6.359   0.090   2.424
 1380SOL    HW1 5039   6.445   0.047   2.396
 1380SOL    HW2 5040   6.344   0.173   2.370
 1381SOL     OW 5041   6.328   2.034   0.025
 1381SOL    HW1 5042   6.419   1.992   0.017
 1381SOL    HW2 5043   6.320   2.077   0.115
 1382SOL     OW 5044   5.486   4.821   6.215
 1382SOL    HW1 5045   5.520   4.878   6.291
 1382SOL    HW2 5046   5.392   4.791   6.236
 1383SOL     OW 5047   1.740   0.264   0.394
 1383SOL    HW1 5048   1.727   0.240   0.490
 1383SOL    HW2 5049   1.800   0.198   0.350
 1384SOL     OW 5050   3.406   1.737   2.695
 1384SOL    HW1 5051   3.390   1.827   2.654
 1384SOL    HW2 5052   3.387   1.741   2.793
 1385SOL     OW 5053   0.011   3.413   3.006
 1385SOL    HW1 5054   6.970   3.337   3.002
 1385SOL    HW2 5055   0.070   3.403   3.086
 1386SOL     OW 5056   2.165   3.056   4.342
 1386SOL    HW1 5057   2.071   3.030   4.361
 1386SOL    HW2 5058   2.227   3.007   4.404
 1387SOL     OW 5059   2.860   0.320   4.903
 1387SOL    HW1 5060   2.948   0.304   4.859
 1387SOL    HW2 5061   2.828   0.412   4.880
 1388SOL     OW 5062   6.520   1.264   4.053
 1388SOL    HW1 5063   6.555   1.311   4.134
 1388SOL    HW2 5064   6.436   1.308   4.022
 1389SOL     OW 5065   5.766   6.993   4.554
 1389SOL    HW1 5066   5.787   6.955   4.644
 1389SOL    HW2 5067   5.714   6.926   4.501
 1390SOL     OW 5068   4.543   2.074   1.656
 1390SOL    HW1 5069   4.475   2.148   1.653
 1390SOL    HW2 5070   4.634   2.114   1.673
 1391SOL     OW 5071   5.449   0.695   4.445
 1391SOL    HW1 5072   5.507   0.619   4.474
 1391SOL    HW2 5073   5.490   0.781   4.474
 1392SOL     OW 5074   5.364   5.627   6.692
 1392SOL    HW1 5075   5.290   5.567   6.663
 1392SOL    HW2 5076   5.449   5.574   6.699
 1393SOL     OW 5077   6.853   1.204   6.401
 1393SOL    HW1 5078   6.875   1.163   6.312
 1393SOL    HW2 5079   6.882   1.143   6.474
 1394SOL     OW 5080   4.505   6.764   3.762
 1394SOL    HW1 5081   4.460   6.724   3.842
 1394SOL    HW2 5082   4.568   6.836   3.792
 1395SOL     OW 5083   1.567   4.853   2.618
 1395SOL    HW1 5084   1.646   4.893   2.571
 1395SOL    HW2 5085   1.571   4.876   2.715
 1396SOL     OW 5086   1.963   0.924   4.132
 1396SOL    HW1 5087   1.932   1.003   4.186
 1396SOL    HW2 5088   1.980   0.953   4.038
 1397SOL     OW 5089   0.528   5.381   4.377
 1397SOL    HW1 5090   0.457   5.447   4.401
 1397SOL    HW2 5091   0.490   5.289   4.377
 1398SOL     OW 5092   0.756   0.830   1.232
 1398SOL    HW1 5093   0.817   0.876   1.297
 1398SOL    HW2 5094   0.803   0.751   1.193
 1399SOL     OW 5095   3.963   0.031   0.528
 1399SOL    HW1 5096   3.947   6.973   0.584
 1399SOL    HW2 5097   4.049   0.074   0.555
 1400SOL     OW 5098   6.014   0.437   4.840
 1400SOL    HW1 5099   6.114   0.430   4.842
 1400SOL    HW2 5100   5.984   0.448   4.745
 1401SOL     OW 5101   5.289   0.546   3.228
 1401SOL    HW1 5102   5.290   0.540   3.129
 1401SOL    HW2 5103   5.382   0.551   3.263
 1402SOL     OW 5104   6.133   4.283   1.990
 1402SOL    HW1 5105   6.175   4.370   2.017
 1402SOL    HW2 5106   6.134   4.275   1.890
 1403SOL     OW 5107   3.235   2.995   7.001
 1403SOL    HW1 5108   3.308   2.943   0.022
 1403SOL    HW2 5109   3.268   3.087   6.981
 1404SOL     OW 5110   4.348   6.742   0.742
 1404SOL    HW1 5111   4.344   6.828   0.690
 1404SOL    HW2 5112   4.276   6.741   0.811
 1405SOL     OW 5113   1.657   3.395   0.463
 1405SOL    HW1 5114   1.729   3.452   0.501
 1405SOL    HW2 5115   1.604   3.449   0.396
 1406SOL     OW 5116   2.400   3.296   1.190
 1406SOL    HW1 5117   2.478   3.312   1.250
 1406SOL    HW2 5118   2.421   3.220   1.128
 1407SOL     OW 5119   0.677   3.046   1.098
 1407SOL    HW1 5120   0.607   3.099   1.051
 1407SOL    HW2 5121   0.765   3.093   1.091
 1408SOL     OW 5122   5.817   6.152   6.973
 1408SOL    HW1 5123   5.860   6.062   6.963
 1408SOL    HW2 5124   5.806   6.193   6.883
 1409SOL     OW 5125   6.773   1.750   5.700
 1409SOL    HW1 5126   6.847   1.732   5.636
 1409SOL    HW2 5127   6.743   1.664   5.742
 1410SOL     OW 5128   3.692   1.796   6.274
 1410SOL    HW1 5129   3.690   1.756   6.182
 1410SOL    HW2 5130   3.631   1.875   6.277
 1411SOL     OW 5131   4.379   5.273   0.107
 1411SOL    HW1 5132   4.310   5.346   0.106
 1411SOL    HW2 5133   4.333   5.185   0.120
 1412SOL     OW 5134   2.015   2.680   0.757
 1412SOL    HW1 5135   1.927   2.709   0.794
 1412SOL    HW2 5136   2.064   2.759   0.720
 1413SOL     OW 5137   1.800   1.987   5.282
 1413SOL    HW1 5138   1.737   1.910   5.294
 1413SOL    HW2 5139   1.813   2.033   5.370
 1414SOL     OW 5140   1.438   4.210   2.209
 1414SOL    HW1 5141   1.415   4.292   2.261
 1414SOL    HW2 5142   1.364   4.188   2.145
 1415SOL     OW 5143   1.960   2.019   4.687
 1415SOL    HW1 5144   1.996   1.976   4.604
 1415SOL    HW2 5145   1.919   2.107   4.664
 1416SOL     OW 5146   4.054   0.130   5.458
 1416SOL    HW1 5147   4.138   0.183   5.450
 1416SOL    HW2 5148   4.063   0.046   5.404
 1417SOL     OW 5149   3.732   3.104   5.814
 1417SOL    HW1 5150   3.681   3.072   5.895
 1417SOL    HW2 5151   3.671   3.105   5.735
 1418SOL     OW 5152   3.375   4.097   6.777
 1418SOL    HW1 5153   3.407   4.192   6.776
 1418SOL    HW2 5154   3.446   4.038   6.814
 1419SOL     OW 5155   1.922   4.611   2.624
 1419SOL    HW1 5156   1.913   4.524   2.576
 1419SOL    HW2 5157   1.879   4.604   2.714
 1420SOL     OW 5158   2.869   5.933   3.349
 1420SOL    HW1 5159   2.906   5.873   3.421
 1420SOL    HW2 5160   2.944   5.965   3.291
 1421SOL     OW 5161   1.259   4.889   5.629
 1421SOL    HW1 5162   1.271   4.941   5.545
 1421SOL    HW2 5163   1.298   4.939   5.706
 1422SOL     OW 5164   2.317   4.128   5.980
 1422SOL    HW1 5165   2.383   4.179   5.926
 1422SOL    HW2 5166   2.365   4.064   6.040
 1423SOL     OW 5167   4.331   1.117   5.165
 1423SOL    HW1 5168   4.390   1.047   5.206
 1423SOL    HW2 5169   4.380   1.161   5.090
 1424SOL     OW 5170   5.860   2.847   6.590
 1424SOL    HW1 5171   5.955   2.825   6.608
 1424SOL    HW2 5172   5.840   2.835   6.493
 1425SOL     OW 5173   4.869   6.437   4.013
 1425SOL    HW1 5174   4.829   6.528   4.024
 1425SOL    HW2 5175   4.855   6.406   3.919
 1426SOL     OW 5176   3.138   2.180   6.874
 1426SOL    HW1 5177   3.068   2.142   6.812
 1426SOL    HW2 5178   3.210   2.112   6.888
 1427SOL     OW 5179   1.642   0.985   4.201
 1427SOL    HW1 5180   1.552   0.997   4.159
 1427SOL    HW2 5181   1.701   1.063   4.177
 1428SOL     OW 5182   0.392   3.648   3.808
 1428SOL    HW1 5183   0.319   3.691   3.861
 1428SOL    HW2 5184   0.435   3.577   3.863
 1429SOL     OW 5185   5.960   0.768   0.938
 1429SOL    HW1 5186   5.875   0.819   0.928
 1429SOL    HW2 5187   6.026   0.797   0.869
 1430SOL     OW 5188   1.661   3.692   3.433
 1430SOL    HW1 5189   1.592   3.764   3.429
 1430SOL    HW2 5190   1.624   3.614   3.484
 1431SOL     OW 5191   2.028   0.997   5.977
 1431SOL    HW1 5192   2.108   0.966   6.028
 1431SOL    HW2 5193   2.039   1.094   5.954
 1432SOL     OW 5194   2.485   1.669   2.556
 1432SOL    HW1 5195   2.575   1.655   2.515
 1432SOL    HW2 5196   2.490   1.657   2.655
 1433SOL     OW 5197   2.619   0.141   4.166
 1433SOL    HW1 5198   2.555   0.202   4.118
 1433SOL    HW2 5199   2.683   0.102   4.099
 1434SOL     OW 5200   0.426   2.916   0.315
 1434SOL    HW1 5201   0.332   2.897   0.288
 1434SOL    HW2 5202   0.443   2.881   0.407
 1435SOL     OW 5203   0.694   0.008   4.254
 1435SOL    HW1 5204   0.719   6.997   4.345
 1435SOL    HW2 5205   0.627   6.970   4.213
 1436SOL     OW 5206   5.293   1.549   0.239
 1436SOL    HW1 5207   5.227   1.612   0.280
 1436SOL    HW2 5208   5.289   1.557   0.140
 1437SOL     OW 5209   4.456   0.276   6.067
 1437SOL    HW1 5210   4.384   0.331   6.026
 1437SOL    HW2 5211   4.517   0.242   5.996
 1438SOL     OW 5212   2.787   0.178   2.185
 1438SOL    HW1 5213   2.704   0.123   2.201
 1438SOL    HW2 5214   2.763   0.260   2.134
 1439SOL     OW 5215   0.618   4.963   7.004
 1439SOL    HW1 5216   0.679   4.952   0.059
 1439SOL    HW2 5217   0.527   4.988   0.013
 1440SOL     OW 5218   3.199   2.974   3.844
 1440SOL    HW1 5219   3.114   2.966   3.791
 1440SOL    HW2 5220   3.277   2.973   3.782
 1441SOL     OW 5221   6.611   3.092   3.614
 1441SOL    HW1 5222   6.630   3.118   3.520
 1441SOL    HW2 5223   6.564   3.167   3.661
 1442SOL     OW 5224   5.135   4.226   0.583
 1442SOL    HW1 5225   5.105   4.321   0.581
 1442SOL    HW2 5226   5.215   4.215   0.524
 1443SOL     OW 5227   0.615   2.352   2.796
 1443SOL    HW1 5228   0.689   2.407   2.757
 1443SOL    HW2 5229   0.535   2.359   2.737
 1444SOL     OW 5230   4.577   0.843   3.708
 1444SOL    HW1 5231   4.495   0.899   3.719
 1444SOL    HW2 5232   4.655   0.889   3.752
 1445SOL     OW 5233   6.315   2.224   1.499
 1445SOL    HW1 5234   6.245   2.295   1.491
 1445SOL    HW2 5235   6.394   2.247   1.442
 1446SOL     OW 5236   4.149   0.690   1.276
 1446SOL    HW1 5237   4.065   0.680   1.328
 1446SOL    HW2 5238   4.128   0.689   1.178
 1447SOL     OW 5239   6.390   0.346   5.061
 1447SOL    HW1 5240   6.395   0.339   5.161
 1447SOL    HW2 5241   6.432   0.432   5.032
 1448SOL     OW 5242   5.256   0.820   6.544
 1448SOL    HW1 5243   5.229   0.876   6.623
 1448SOL    HW2 5244   5.348   0.783   6.560
 1449SOL     OW 5245   5.197   6.147   1.035
 1449SOL    HW1 5246   5.150   6.122   1.120
 1449SOL    HW2 5247   5.269   6.214   1.056
 1450SOL     OW 5248   5.863   2.744   3.176
 1450SOL    HW1 5249   5.795   2.725   3.247
 1450SOL    HW2 5250   5.954   2.740   3.216
 1451SOL     OW 5251   1.259   6.043   3.328
 1451SOL    HW1 5252   1.172   6.069   3.285
 1451SOL    HW2 5253   1.246   5.960   3.382
 1452SOL     OW 5254   4.573   1.283   5.436
 1452SOL    HW1 5255   4.661   1.237   5.421
 1452SOL    HW2 5256   4.589   1.377   5.467
 1453SOL     OW 5257   5.320   4.759   5.382
 1453SOL    HW1 5258   5.377   4.717   5.311
 1453SOL    HW2 5259   5.253   4.692   5.414
 1454SOL     OW 5260   4.024   3.937   1.287
 1454SOL    HW1 5261   4.117   3.962   1.312
 1454SOL    HW2 5262   3.965   3.945   1.367
 1455SOL     OW 5263   1.921   2.031   1.597
 1455SOL    HW1 5264   2.002   2.012   1.541
 1455SOL    HW2 5265   1.842   2.046   1.538
 1456SOL     OW 5266   6.007   6.249   3.476
 1456SOL    HW1 5267   6.069   6.318   3.513
 1456SOL    HW2 5268   6.029   6.160   3.517
 1457SOL     OW 5269   1.527   0.553   2.893
 1457SOL    HW1 5270   1.492   0.601   2.973
 1457SOL    HW2 5271   1.523   0.614   2.813
 1458SOL     OW 5272   5.579   5.449   6.696
 1458SOL    HW1 5273   5.672   5.415   6.714
 1458SOL    HW2 5274   5.542   5.402   6.616
 1459SOL     OW 5275   2.149   6.721   6.666
 1459SOL    HW1 5276   2.169   6.800   6.724
 1459SOL    HW2 5277   2.074   6.744   6.604
 1460SOL     OW 5278   1.247   6.985   6.690
 1460SOL    HW1 5279   1.296   6.955   6.608
 1460SOL    HW2 5280   1.200   6.907   6.731
 1461SOL     OW 5281   5.613   4.420   1.654
 1461SOL    HW1 5282   5.653   4.441   1.744
 1461SOL    HW2 5283   5.578   4.326   1.655
 1462SOL     OW 5284   5.952   1.057   6.411
 1462SOL    HW1 5285   5.929   1.019   6.321
 1462SOL    HW2 5286   5.909   1.002   6.482
 1463SOL     OW 5287   0.823   1.306   4.812
 1463SOL    HW1 5288   0.806   1.211   4.840
 1463SOL    HW2 5289   0.792   1.368   4.884
 1464SOL     OW 5290   0.114   6.526   1.240
 1464SOL    HW1 5291   0.018   6.550   1.255
 1464SOL    HW2 5292   0.162   6.603   1.198
 1465SOL     OW 5293   6.930   6.831   4.535
 1465SOL    HW1 5294   7.018   6.798   4.569
 1465SOL    HW2 5295   6.893   6.899   4.598
 1466SOL     OW 5296   5.635   4.687   3.481
 1466SOL    HW1 5297   5.568   4.640   3.423
 1466SOL    HW2 5298   5.726   4.680   3.440
 1467SOL     OW 5299   0.940   2.132   3.207
 1467SOL    HW1 5300   0.857   2.087   3.238
 1467SOL    HW2 5301   0.931   2.231   3.219
 1468SOL     OW 5302   5.537   5.954   3.598
 1468SOL    HW1 5303   5.451   5.998   3.624
 1468SOL    HW2 5304   5.517   5.875   3.539
 1469SOL     OW 5305   0.985   1.342   2.672
 1469SOL    HW1 5306   0.911   1.291   2.715
 1469SOL    HW2 5307   1.040   1.388   2.742
 1470SOL     OW 5308   0.990   1.328   3.130
 1470SOL    HW1 5309   0.976   1.238   3.088
 1470SOL    HW2 5310   0.904   1.361   3.168
 1471SOL     OW 5311   0.469   6.896   6.940
 1471SOL    HW1 5312   0.515   6.974   6.896
 1471SOL    HW2 5313   0.538   6.837   6.982
 1472SOL     OW 5314   4.295   1.163   5.867
 1472SOL    HW1 5315   4.264   1.196   5.778
 1472SOL    HW2 5316   4.295   1.063   5.868
 1473SOL     OW 5317   6.280   4.001   3.673
 1473SOL    HW1 5318   6.303   3.911   3.636
 1473SOL    HW2 5319   6.183   4.021   3.657
 1474SOL     OW 5320   4.742   5.785   3.927
 1474SOL    HW1 5321   4.718   5.830   3.841
 1474SOL    HW2 5322   4.696   5.830   4.003
 1475SOL     OW 5323   0.587   1.094   2.580
 1475SOL    HW1 5324   0.487   1.098   2.579
 1475SOL    HW2 5325   0.616   1.014   2.632
 1476SOL     OW 5326   6.617   1.679   1.991
 1476SOL    HW1 5327   6.713   1.668   2.017
 1476SOL    HW2 5328   6.562   1.698   2.073
 1477SOL     OW 5329   2.954   5.704   4.485
 1477SOL    HW1 5330   3.045   5.702   4.527
 1477SOL    HW2 5331   2.961   5.738   4.392
 1478SOL     OW 5332   6.448   4.356   0.767
 1478SOL    HW1 5333   6.349   4.360   0.761
 1478SOL    HW2 5334   6.482   4.287   0.703
 1479SOL     OW 5335   1.756   5.359   0.773
 1479SOL    HW1 5336   1.784   5.269   0.805
 1479SOL    HW2 5337   1.834   5.407   0.732
 1480SOL     OW 5338   2.596   0.847   0.126
 1480SOL    HW1 5339   2.639   0.801   0.204
 1480SOL    HW2 5340   2.581   0.943   0.149
 1481SOL     OW 5341   6.010   2.428   6.139
 1481SOL    HW1 5342   5.947   2.350   6.141
 1481SOL    HW2 5343   6.025   2.457   6.044
 1482SOL     OW 5344   6.561   0.367   6.388
 1482SOL    HW1 5345   6.484   0.359   6.452
 1482SOL    HW2 5346   6.637   0.311   6.420
 1483SOL     OW 5347   5.836   2.196   0.507
 1483SOL    HW1 5348   5.897   2.274   0.495
 1483SOL    HW2 5349   5.767   2.195   0.434
 1484SOL     OW 5350   6.382   5.225   2.471
 1484SOL    HW1 5351   6.436   5.292   2.420
 1484SOL    HW2 5352   6.287   5.256   2.477
 1485SOL     OW 5353   5.075   2.775   3.879
 1485SOL    HW1 5354   5.000   2.828   3.918
 1485SOL    HW2 5355   5.088   2.800   3.783
 1486SOL     OW 5356   4.767   1.825   2.220
 1486SOL    HW1 5357   4.679   1.779   2.208
 1486SOL    HW2 5358   4.757   1.923   2.203
 1487SOL     OW 5359   6.169   1.399   5.503
 1487SOL    HW1 5360   6.176   1.483   5.557
 1487SOL    HW2 5361   6.256   1.380   5.459
 1488SOL     OW 5362   4.457   1.807   3.018
 1488SOL    HW1 5363   4.499   1.765   2.937
 1488SOL    HW2 5364   4.455   1.906   3.007
 1489SOL     OW 5365   3.632   5.746   5.263
 1489SOL    HW1 5366   3.671   5.656   5.244
 1489SOL    HW2 5367   3.562   5.768   5.195
 1490SOL     OW 5368   1.830   2.839   0.190
 1490SOL    HW1 5369   1.920   2.865   0.155
 1490SOL    HW2 5370   1.759   2.881   0.133
 1491SOL     OW 5371   0.240   3.075   3.965
 1491SOL    HW1 5372   0.154   3.026   3.954
 1491SOL    HW2 5373   0.292   3.034   4.041
 1492SOL     OW 5374   5.075   2.194   1.589
 1492SOL    HW1 5375   5.172   2.181   1.573
 1492SOL    HW2 5376   5.023   2.133   1.529
 1493SOL     OW 5377   4.949   0.769   5.510
 1493SOL    HW1 5378   5.008   0.821   5.572
 1493SOL    HW2 5379   4.858   0.810   5.510
 1494SOL     OW 5380   4.686   2.658   5.885
 1494SOL    HW1 5381   4.621   2.587   5.858
 1494SOL    HW2 5382   4.648   2.748   5.862
 1495SOL     OW 5383   1.597   2.887   2.267
 1495SOL    HW1 5384   1.567   2.935   2.185
 1495SOL    HW2 5385   1.660   2.945   2.318
 1496SOL     OW 5386   0.671   0.388   2.205
 1496SOL    HW1 5387   0.573   0.394   2.186
 1496SOL    HW2 5388   0.685   0.342   2.293
 1497SOL     OW 5389   6.055   5.327   4.408
 1497SOL    HW1 5390   6.039   5.405   4.347
 1497SOL    HW2 5391   6.085   5.360   4.498
 1498SOL     OW 5392   2.286   6.301   0.179
 1498SOL    HW1 5393   2.369   6.327   0.130
 1498SOL    HW2 5394   2.300   6.313   0.277
 1499SOL     OW 5395   0.978   3.746   5.581
 1499SOL    HW1 5396   0.913   3.804   5.530
 1499SOL    HW2 5397   0.927   3.678   5.634
 1500SOL     OW 5398   4.857   0.154   6.203
 1500SOL    HW1 5399   4.890   0.154   6.298
 1500SOL    HW2 5400   4.823   0.063   6.180
 1501SOL     OW 5401   3.962   6.242   6.098
 1501SOL    HW1 5402   3.876   6.292   6.089
 1501SOL    HW2 5403   3.947   6.161   6.155
 1502SOL     OW 5404   6.122   6.449   0.126
 1502SOL    HW1 5405   6.078   6.359   0.128
 1502SOL    HW2 5406   6.104   6.497   0.213
 1503SOL     OW 5407   3.991   2.965   5.992
 1503SOL    HW1 5408   3.980   3.063   5.972
 1503SOL    HW2 5409   3.925   2.913   5.938
 1504SOL     OW 5410   2.991   6.032   4.851
 1504SOL    HW1 5411   2.987   5.940   4.888
 1504SOL    HW2 5412   3.085   6.066   4.856
 1505SOL     OW 5413   5.681   5.488   0.226
 1505SOL    HW1 5414   5.606   5.528   0.279
 1505SOL    HW2 5415   5.742   5.561   0.195
 1506SOL     OW 5416   0.924   6.326   4.519
 1506SOL    HW1 5417   0.954   6.421   4.532
 1506SOL    HW2 5418   0.943   6.297   4.426
 1507SOL     OW 5419   1.664   1.524   5.852
 1507SOL    HW1 5420   1.707   1.457   5.792
 1507SOL    HW2 5421   1.674   1.495   5.947
 1508SOL     OW 5422   5.156   0.102   0.386
 1508SOL    HW1 5423   5.164   0.032   0.315
 1508SOL    HW2 5424   5.190   0.065   0.473
 1509SOL     OW 5425   4.904   2.442   0.563
 1509SOL    HW1 5426   4.900   2.343   0.574
 1509SOL    HW2 5427   4.989   2.477   0.602
 1510SOL     OW 5428   6.952   2.026   3.897
 1510SOL    HW1 5429   6.886   2.006   3.970
 1510SOL    HW2 5430   6.963   2.125   3.889
 1511SOL     OW 5431   1.817   3.159   0.479
 1511SOL    HW1 5432   1.863   3.152   0.568
 1511SOL    HW2 5433   1.760   3.241   0.477
 1512SOL     OW 5434   0.334   1.006   2.056
 1512SOL    HW1 5435   0.394   0.927   2.047
 1512SOL    HW2 5436   0.363   1.062   2.133
 1513SOL     OW 5437   3.718   1.160   3.238
 1513SOL    HW1 5438   3.677   1.070   3.220
 1513SOL    HW2 5439   3.783   1.182   3.166
 1514SOL     OW 5440   5.698   1.259   5.311
 1514SOL    HW1 5441   5.771   1.319   5.345
 1514SOL    HW2 5442   5.738   1.175   5.275
 1515SOL     OW 5443   0.047   4.472   4.304
 1515SOL    HW1 5444   0.044   4.426   4.214
 1515SOL    HW2 5445   7.023   4.560   4.298
 1516SOL     OW 5446   0.902   0.740   0.465
 1516SOL    HW1 5447   0.847   0.659   0.482
 1516SOL    HW2 5448   0.996   0.713   0.443
 1517SOL     OW 5449   4.687   5.631   3.572
 1517SOL    HW1 5450   4.674   5.533   3.586
 1517SOL    HW2 5451   4.598   5.674   3.560
 1518SOL     OW 5452   0.681   4.416   1.363
 1518SOL    HW1 5453   0.709   4.333   1.411
 1518SOL    HW2 5454   0.759   4.454   1.314
 1519SOL     OW 5455   6.266   4.442   0.351
 1519SOL    HW1 5456   6.207   4.366   0.323
 1519SOL    HW2 5457   6.210   4.523   0.365
 1520SOL     OW 5458   1.614   3.665   2.994
 1520SOL    HW1 5459   1.671   3.625   3.065
 1520SOL    HW2 5460   1.609   3.765   3.006
 1521SOL     OW 5461   2.874   3.585   6.764
 1521SOL    HW1 5462   2.896   3.680   6.742
 1521SOL    HW2 5463   2.791   3.582   6.820
 1522SOL     OW 5464   5.902   2.252   6.924
 1522SOL    HW1 5465   5.866   2.190   6.993
 1522SOL    HW2 5466   5.992   2.219   6.895
 1523SOL     OW 5467   0.290   2.058   1.138
 1523SOL    HW1 5468   0.257   2.152   1.132
 1523SOL    HW2 5469   0.381   2.057   1.178
 1524SOL     OW 5470   0.104   0.828   2.322
 1524SOL    HW1 5471   0.036   0.895   2.292
 1524SOL    HW2 5472   0.063   0.769   2.392
 1525SOL     OW 5473   4.858   2.001   6.331
 1525SOL    HW1 5474   4.799   1.928   6.364
 1525SOL    HW2 5475   4.804   2.086   6.322
 1526SOL     OW 5476   6.589   2.461   1.766
 1526SOL    HW1 5477   6.639   2.389   1.717
 1526SOL    HW2 5478   6.511   2.422   1.813
 1527SOL     OW 5479   3.677   2.161   5.669
 1527SOL    HW1 5480   3.752   2.123   5.615
 1527SOL    HW2 5481   3.605   2.093   5.680
 1528SOL     OW 5482   4.931   6.232   3.578
 1528SOL    HW1 5483   4.878   6.194   3.655
 1528SOL    HW2 5484   4.868   6.274   3.513
 1529SOL     OW 5485   3.427   0.214   6.018
 1529SOL    HW1 5486   3.327   0.214   6.006
 1529SOL    HW2 5487   3.450   0.274   6.095
 1530SOL     OW 5488   3.616   6.734   2.334
 1530SOL    HW1 5489   3.540   6.674   2.310
 1530SOL    HW2 5490   3.611   6.818   2.280
 1531SOL     OW 5491   6.447   6.910   4.741
 1531SOL    HW1 5492   6.420   6.913   4.645
 1531SOL    HW2 5493   6.435   7.001   4.782
 1532SOL     OW 5494   3.049   2.019   5.011
 1532SOL    HW1 5495   2.975   2.010   5.078
 1532SOL    HW2 5496   3.078   2.115   5.007
 1533SOL     OW 5497   5.984   2.966   0.059
 1533SOL    HW1 5498   6.047   2.907   0.008
 1533SOL    HW2 5499   6.008   3.062   0.042
 1534SOL     OW 5500   6.897   5.934   0.972
 1534SOL    HW1 5501   6.933   5.995   1.042
 1534SOL    HW2 5502   6.810   5.969   0.938
 1535SOL     OW 5503   4.219   5.099   4.414
 1535SOL    HW1 5504   4.250   5.167   4.481
 1535SOL    HW2 5505   4.179   5.145   4.335
 1536SOL     OW 5506   2.853   6.095   5.417
 1536SOL    HW1 5507   2.924   6.065   5.481
 1536SOL    HW2 5508   2.896   6.138   5.338
 1537SOL     OW 5509   1.486   5.735   4.546
 1537SOL    HW1 5510   1.514   5.653   4.496
 1537SOL    HW2 5511   1.387   5.737   4.554
 1538SOL     OW 5512   2.185   5.511   6.546
 1538SOL    HW1 5513   2.139   5.429   6.511
 1538SOL    HW2 5514   2.153   5.531   6.638
 1539SOL     OW 5515   3.553   4.840   1.624
 1539SOL    HW1 5516   3.470   4.891   1.649
 1539SOL    HW2 5517   3.582   4.784   1.702
 1540SOL     OW 5518   0.374   6.755   4.842
 1540SOL    HW1 5519   0.416   6.799   4.762
 1540SOL    HW2 5520   0.444   6.704   4.892
 1541SOL     OW 5521   5.174   2.331   0.848
 1541SOL    HW1 5522   5.113   2.380   0.910
 1541SOL    HW2 5523   5.163   2.232   0.861
 1542SOL     OW 5524   0.631   6.829   1.100
 1542SOL    HW1 5525   0.729   6.849   1.102
 1542SOL    HW2 5526   0.618   6.732   1.079
 1543SOL     OW 5527   3.330   4.179   4.179
 1543SOL    HW1 5528   3.287   4.146   4.263
 1543SOL    HW2 5529   3.374   4.267   4.197
 1544SOL     OW 5530   3.207   4.107   2.957
 1544SOL    HW1 5531   3.196   4.137   2.863
 1544SOL    HW2 5532   3.304   4.108   2.982
 1545SOL     OW 5533   5.811   0.107   4.931
 1545SOL    HW1 5534   5.750   0.182   4.906
 1545SOL    HW2 5535   5.803   0.088   5.028
 1546SOL     OW 5536   0.702   6.553   5.870
 1546SOL    HW1 5537   0.668   6.594   5.954
 1546SOL    HW2 5538   0.626   6.538   5.806
 1547SOL     OW 5539   3.713   5.901   1.038
 1547SOL    HW1 5540   3.681   5.821   0.987
 1547SOL    HW2 5541   3.712   5.881   1.136
 1548SOL     OW 5542   5.190   4.266   4.729
 1548SOL    HW1 5543   5.167   4.170   4.745
 1548SOL    HW2 5544   5.132   4.303   4.657
 1549SOL     OW 5545   6.975   1.887   1.383
 1549SOL    HW1 5546   0.030   1.876   1.322
 1549SOL    HW2 5547   6.891   1.870   1.331
 1550SOL     OW 5548   2.303   5.853   4.350
 1550SOL    HW1 5549   2.304   5.948   4.380
 1550SOL    HW2 5550   2.237   5.843   4.276
 1551SOL     OW 5551   1.599   2.087   1.056
 1551SOL    HW1 5552   1.671   2.149   1.026
 1551SOL    HW2 5553   1.552   2.126   1.135
 1552SOL     OW 5554   0.946   0.440   0.781
 1552SOL    HW1 5555   0.916   0.531   0.754
 1552SOL    HW2 5556   0.866   0.379   0.786
 1553SOL     OW 5557   5.881   1.647   6.286
 1553SOL    HW1 5558   5.977   1.663   6.311
 1553SOL    HW2 5559   5.847   1.726   6.234
 1554SOL     OW 5560   3.852   1.706   1.825
 1554SOL    HW1 5561   3.773   1.767   1.835
 1554SOL    HW2 5562   3.917   1.723   1.899
 1555SOL     OW 5563   3.780   1.644   5.763
 1555SOL    HW1 5564   3.700   1.602   5.805
 1555SOL    HW2 5565   3.776   1.631   5.664
 1556SOL     OW 5566   3.439   1.407   0.836
 1556SOL    HW1 5567   3.404   1.387   0.744
 1556SOL    HW2 5568   3.428   1.327   0.894
 1557SOL     OW 5569   1.831   1.794   0.836
 1557SOL    HW1 5570   1.891   1.716   0.815
 1557SOL    HW2 5571   1.869   1.846   0.912
 1558SOL     OW 5572   6.734   3.273   6.260
 1558SOL    HW1 5573   6.751   3.175   6.271
 1558SOL    HW2 5574   6.638   3.293   6.280
 1559SOL     OW 5575   1.504   4.938   2.880
 1559SOL    HW1 5576   1.466   5.010   2.938
 1559SOL    HW2 5577   1.471   4.849   2.911
 1560SOL     OW 5578   3.911   1.303   1.632
 1560SOL    HW1 5579   3.976   1.227   1.622
 1560SOL    HW2 5580   3.959   1.383   1.667
 1561SOL     OW 5581   6.137   5.904   1.202
 1561SOL    HW1 5582   6.145   5.884   1.104
 1561SOL    HW2 5583   6.204   5.975   1.227
 1562SOL     OW 5584   3.416   6.578   2.234
 1562SOL    HW1 5585   3.400   6.488   2.275
 1562SOL    HW2 5586   3.331   6.632   2.238
 1563SOL     OW 5587   4.066   2.148   4.330
 1563SOL    HW1 5588   3.996   2.140   4.400
 1563SOL    HW2 5589   4.045   2.226   4.271
 1564SOL     OW 5590   1.283   2.063   2.631
 1564SOL    HW1 5591   1.219   2.100   2.563
 1564SOL    HW2 5592   1.233   2.007   2.697
 1565SOL     OW 5593   4.018   0.927   4.638
 1565SOL    HW1 5594   4.031   0.995   4.565
 1565SOL    HW2 5595   4.060   0.841   4.611
 1566SOL     OW 5596   4.726   4.792   3.115
 1566SOL    HW1 5597   4.808   4.836   3.151
 1566SOL    HW2 5598   4.750   4.739   3.033
 1567SOL     OW 5599   5.159   6.514   4.827
 1567SOL    HW1 5600   5.062   6.531   4.812
 1567SOL    HW2 5601   5.181   6.528   4.923
 1568SOL     OW 5602   2.587   5.870   2.791
 1568SOL    HW1 5603   2.564   5.810   2.867
 1568SOL    HW2 5604   2.518   5.862   2.720
 1569SOL     OW 5605   2.751   6.795   3.444
 1569SOL    HW1 5606   2.814   6.736   3.494
 1569SOL    HW2 5607   2.663   6.748   3.434
 1570SOL     OW 5608   3.482   6.897   0.319
 1570SOL    HW1 5609   3.494   6.810   0.271
 1570SOL    HW2 5610   3.572   6.936   0.341
 1571SOL     OW 5611   0.743   2.585   4.081
 1571SOL    HW1 5612   0.749   2.556   4.176
 1571SOL    HW2 5613   0.649   2.577   4.049
 1572SOL     OW 5614   2.034   5.167   2.045
 1572SOL    HW1 5615   2.077   5.172   1.954
 1572SOL    HW2 5616   2.029   5.072   2.074
 1573SOL     OW 5617   5.257   5.021   0.701
 1573SOL    HW1 5618   5.210   4.977   0.778
 1573SOL    HW2 5619   5.198   5.092   0.662
 1574SOL     OW 5620   6.965   3.510   2.755
 1574SOL    HW1 5621   6.914   3.595   2.773
 1574SOL    HW2 5622   7.009   3.479   2.839
 1575SOL     OW 5623   0.492   1.283   0.390
 1575SOL    HW1 5624   0.430   1.206   0.372
 1575SOL    HW2 5625   0.442   1.369   0.378
 1576SOL     OW 5626   0.250   0.074   2.634
 1576SOL    HW1 5627   0.151   0.080   2.623
 1576SOL    HW2 5628   0.286   0.005   2.570
 1577SOL     OW 5629   4.696   0.052   5.489
 1577SOL    HW1 5630   4.670   0.131   5.432
 1577SOL    HW2 5631   4.785   0.018   5.458
 1578SOL     OW 5632   4.954   0.839   0.168
 1578SOL    HW1 5633   4.878   0.775   0.159
 1578SOL    HW2 5634   4.935   0.904   0.242
 1579SOL     OW 5635   1.380   2.483   1.392
 1579SOL    HW1 5636   1.302   2.421   1.399
 1579SOL    HW2 5637   1.367   2.545   1.315
 1580SOL     OW 5638   3.431   3.608   3.139
 1580SOL    HW1 5639   3.375   3.690   3.148
 1580SOL    HW2 5640   3.528   3.634   3.140
 1581SOL     OW 5641   6.774   4.425   5.661
 1581SOL    HW1 5642   6.694   4.401   5.607
 1581SOL    HW2 5643   6.848   4.360   5.642
 1582SOL     OW 5644   4.863   6.707   5.404
 1582SOL    HW1 5645   4.777   6.666   5.434
 1582SOL    HW2 5646   4.854   6.740   5.310
 1583SOL     OW 5647   0.906   5.851   5.308
 1583SOL    HW1 5648   0.913   5.917   5.383
 1583SOL    HW2 5649   0.833   5.878   5.245
 1584SOL     OW 5650   0.663   5.095   6.758
 1584SOL    HW1 5651   0.746   5.039   6.753
 1584SOL    HW2 5652   0.658   5.139   6.848
 1585SOL     OW 5653   4.016   0.391   3.076
 1585SOL    HW1 5654   4.073   0.327   3.025
 1585SOL    HW2 5655   3.928   0.401   3.030
 1586SOL     OW 5656   2.805   4.835   3.847
 1586SOL    HW1 5657   2.840   4.907   3.787
 1586SOL    HW2 5658   2.739   4.779   3.798
 1587SOL     OW 5659   1.943   6.189   5.637
 1587SOL    HW1 5660   2.040   6.208   5.620
 1587SOL    HW2 5661   1.898   6.167   5.551
 1588SOL     OW 5662   5.742   0.676   2.334
 1588SOL    HW1 5663   5.665   0.621   2.366
 1588SOL    HW2 5664   5.813   0.616   2.298
 1589SOL     OW 5665   6.540   4.496   3.839
 1589SOL    HW1 5666   6.579   4.414   3.880
 1589SOL    HW2 5667   6.476   4.539   3.903
 1590SOL     OW 5668   6.621   2.190   3.724
 1590SOL    HW1 5669   6.564   2.262   3.684
 1590SOL    HW2 5670   6.717   2.217   3.717
 1591SOL     OW 5671   0.625   6.129   1.923
 1591SOL    HW1 5672   0.584   6.063   1.860
 1591SOL    HW2 5673   0.564   6.208   1.932
 1592SOL     OW 5674   0.679   3.904   6.860
 1592SOL    HW1 5675   0.770   3.881   6.827
 1592SOL    HW2 5676   0.632   3.961   6.792
 1593SOL     OW 5677   2.211   0.212   6.804
 1593SOL    HW1 5678   2.138   0.156   6.765
 1593SOL    HW2 5679   2.243   0.277   6.735
 1594SOL     OW 5680   6.437   0.556   1.996
 1594SOL    HW1 5681   6.368   0.549   1.923
 1594SOL    HW2 5682   6.394   0.594   2.078
 1595SOL     OW 5683   1.070   4.725   6.666
 1595SOL    HW1 5684   1.005   4.763   6.732
 1595SOL    HW2 5685   1.044   4.752   6.573
 1596SOL     OW 5686   5.309   4.509   2.200
 1596SOL    HW1 5687   5.329   4.492   2.296
 1596SOL    HW2 5688   5.245   4.440   2.166
 1597SOL     OW 5689   3.732   6.602   0.018
 1597SOL    HW1 5690   3.783   6.683   7.014
 1597SOL    HW2 5691   3.796   6.528   0.039
 1598SOL     OW 5692   1.550   5.941   6.838
 1598SOL    HW1 5693   1.507   5.883   6.906
 1598SOL    HW2 5694   1.582   6.026   6.880
 1599SOL     OW 5695   4.557   5.007   4.062
 1599SOL    HW1 5696   4.524   5.019   4.156
 1599SOL    HW2 5697   4.647   4.964   4.064
 1600SOL     OW 5698   3.936   0.307   2.746
 1600SOL    HW1 5699   4.008   0.357   2.699
 1600SOL    HW2 5700   3.899   0.363   2.820
 1601SOL     OW 5701   5.750   6.335   4.068
 1601SOL    HW1 5702   5.671   6.397   4.068
 1601SOL    HW2 5703   5.807   6.356   4.147
 1602SOL     OW 5704   4.400   5.196   3.774
 1602SOL    HW1 5705   4.465   5.144   3.830
 1602SOL    HW2 5706   4.447   5.228   3.691
 1603SOL     OW 5707   2.892   5.223   3.580
 1603SOL    HW1 5708   2.800   5.259   3.594
 1603SOL    HW2 5709   2.922   5.243   3.487
 1604SOL     OW 5710   3.941   5.172   2.407
 1604SOL    HW1 5711   3.852   5.140   2.373
 1604SOL    HW2 5712   3.950   5.270   2.390
 1605SOL     OW 5713   4.850   4.972   1.146
 1605SOL    HW1 5714   4.853   4.932   1.238
 1605SOL    HW2 5715   4.863   4.900   1.078
 1606SOL     OW 5716   4.401   6.282   4.935
 1606SOL    HW1 5717   4.441   6.191   4.937
 1606SOL    HW2 5718   4.450   6.338   4.868
 1607SOL     OW 5719   4.881   5.804   2.876
 1607SOL    HW1 5720   4.833   5.826   2.961
 1607SOL    HW2 5721   4.827   5.738   2.824
 1608SOL     OW 5722   6.571   0.962   3.053
 1608SOL    HW1 5723   6.607   1.017   2.978
 1608SOL    HW2 5724   6.566   1.019   3.136
 1609SOL     OW 5725   3.493   6.131   1.091
 1609SOL    HW1 5726   3.522   6.038   1.113
 1609SOL    HW2 5727   3.569   6.194   1.104
 1610SOL     OW 5728   4.497   0.368   0.135
 1610SOL    HW1 5729   4.591   0.392   0.162
 1610SOL    HW2 5730   4.437   0.375   0.215
 1611SOL     OW 5731   1.241   3.770   1.066
 1611SOL    HW1 5732   1.312   3.710   1.103
 1611SOL    HW2 5733   1.161   3.716   1.041
 1612SOL     OW 5734   3.676   0.044   1.828
 1612SOL    HW1 5735   3.682   0.097   1.743
 1612SOL    HW2 5736   3.768   0.037   1.868
 1613SOL     OW 5737   6.780   5.817   2.518
 1613SOL    HW1 5738   6.722   5.798   2.597
 1613SOL    HW2 5739   6.771   5.914   2.493
 1614SOL     OW 5740   6.284   2.350   6.208
 1614SOL    HW1 5741   6.271   2.318   6.301
 1614SOL    HW2 5742   6.204   2.327   6.153
 1615SOL     OW 5743   0.722   5.085   6.081
 1615SOL    HW1 5744   0.685   5.062   6.171
 1615SOL    HW2 5745   0.795   5.152   6.092
 1616SOL     OW 5746   2.462   1.619   5.006
 1616SOL    HW1 5747   2.366   1.592   5.001
 1616SOL    HW2 5748   2.485   1.677   4.928
 1617SOL     OW 5749   5.459   6.200   3.430
 1617SOL    HW1 5750   5.510   6.140   3.491
 1617SOL    HW2 5751   5.489   6.295   3.445
 1618SOL     OW 5752   2.956   5.555   3.160
 1618SOL    HW1 5753   3.047   5.537   3.197
 1618SOL    HW2 5754   2.903   5.471   3.158
 1619SOL     OW 5755   1.277   5.116   0.132
 1619SOL    HW1 5756   1.335   5.046   0.173
 1619SOL    HW2 5757   1.188   5.116   0.177
 1620SOL     OW 5758   3.723   5.511   6.857
 1620SOL    HW1 5759   3.764   5.467   6.936
 1620SOL    HW2 5760   3.739   5.455   6.775
 1621SOL     OW 5761   5.658   6.679   0.380
 1621SOL    HW1 5762   5.672   6.603   0.317
 1621SOL    HW2 5763   5.660   6.765   0.329
 1622SOL     OW 5764   0.510   4.276   4.487
 1622SOL    HW1 5765   0.432   4.228   4.526
 1622SOL    HW2 5766   0.540   4.230   4.404
 1623SOL     OW 5767   0.773   2.021   4.549
 1623SOL    HW1 5768   0.763   1.922   4.555
 1623SOL    HW2 5769   0.870   2.045   4.559
 1624SOL     OW 5770   3.978   1.070   1.071
 1624SOL    HW1 5771   3.983   1.166   1.044
 1624SOL    HW2 5772   4.000   1.061   1.168
 1625SOL     OW 5773   1.791   5.312   1.388
 1625SOL    HW1 5774   1.786   5.384   1.458
 1625SOL    HW2 5775   1.736   5.339   1.309
 1626SOL     OW 5776   3.090   1.710   1.539
 1626SOL    HW1 5777   3.059   1.654   1.616
 1626SOL    HW2 5778   3.111   1.802   1.570
 1627SOL     OW 5779   4.283   1.617   4.261
 1627SOL    HW1 5780   4.318   1.528   4.288
 1627SOL    HW2 5781   4.183   1.615   4.259
 1628SOL     OW 5782   5.630   6.505   6.584
 1628SOL    HW1 5783   5.669   6.583   6.535
 1628SOL    HW2 5784   5.591   6.537   6.670
 1629SOL     OW 5785   1.913   0.984   2.923
 1629SOL    HW1 5786   1.860   0.909   2.885
 1629SOL    HW2 5787   1.866   1.071   2.904
 1630SOL     OW 5788   0.877   3.776   0.175
 1630SOL    HW1 5789   0.855   3.722   0.256
 1630SOL    HW2 5790   0.907   3.715   0.102
 1631SOL     OW 5791   0.324   3.244   0.480
 1631SOL    HW1 5792   0.241   3.196   0.453
 1631SOL    HW2 5793   0.377   3.268   0.399
 1632SOL     OW 5794   6.679   4.677   2.681
 1632SOL    HW1 5795   6.694   4.769   2.644
 1632SOL    HW2 5796   6.584   4.667   2.709
 1633SOL     OW 5797   4.854   3.123   3.879
 1633SOL    HW1 5798   4.925   3.129   3.948
 1633SOL    HW2 5799   4.828   3.215   3.849
 1634SOL     OW 5800   5.489   0.384   4.584
 1634SOL    HW1 5801   5.530   0.341   4.665
 1634SOL    HW2 5802   5.398   0.418   4.608
 1635SOL     OW 5803   3.822   5.665   4.151
 1635SOL    HW1 5804   3.883   5.719   4.209
 1635SOL    HW2 5805   3.748   5.628   4.207
 1636SOL     OW 5806   5.719   6.247   1.601
 1636SOL    HW1 5807   5.800   6.254   1.543
 1636SOL    HW2 5808   5.712   6.154   1.637
 1637SOL     OW 5809   0.176   0.186   2.233
 1637SOL    HW1 5810   0.097   0.138   2.194
 1637SOL    HW2 5811   0.255   0.125   2.235
 1638SOL     OW 5812   0.061   3.000   1.674
 1638SOL    HW1 5813   0.097   2.934   1.740
 1638SOL    HW2 5814   0.110   3.087   1.683
 1639SOL     OW 5815   5.109   2.902   2.647
 1639SOL    HW1 5816   5.009   2.912   2.641
 1639SOL    HW2 5817   5.151   2.947   2.568
 1640SOL     OW 5818   6.431   0.323   0.210
 1640SOL    HW1 5819   6.434   0.372   0.123
 1640SOL    HW2 5820   6.460   0.228   0.196
 1641SOL     OW 5821   6.613   2.538   2.907
 1641SOL    HW1 5822   6.699   2.568   2.865
 1641SOL    HW2 5823   6.586   2.450   2.867
 1642SOL     OW 5824   5.473   1.992   5.576
 1642SOL    HW1 5825   5.490   2.086   5.545
 1642SOL    HW2 5826   5.395   1.992   5.638
 1643SOL     OW 5827   3.178   5.472   4.462
 1643SOL    HW1 5828   3.270   5.434   4.453
 1643SOL    HW2 5829   3.184   5.562   4.505
 1644SOL     OW 5830   5.807   2.965   0.923
 1644SOL    HW1 5831   5.842   2.874   0.903
 1644SOL    HW2 5832   5.744   2.960   1.000
 1645SOL     OW 5833   2.610   1.019   5.517
 1645SOL    HW1 5834   2.551   1.012   5.597
 1645SOL    HW2 5835   2.558   1.060   5.442
 1646SOL     OW 5836   0.869   5.679   0.758
 1646SOL    HW1 5837   0.958   5.639   0.739
 1646SOL    HW2 5838   0.797   5.623   0.716
 1647SOL     OW 5839   6.497   2.656   4.515
 1647SOL    HW1 5840   6.453   2.590   4.454
 1647SOL    HW2 5841   6.427   2.703   4.569
 1648SOL     OW 5842   5.302   6.384   0.850
 1648SOL    HW1 5843   5.331   6.382   0.946
 1648SOL    HW2 5844   5.298   6.290   0.815
 1649SOL     OW 5845   2.995   0.583   3.370
 1649SOL    HW1 5846   2.957   0.591   3.462
 1649SOL    HW2 5847   3.057   0.504   3.366
 1650SOL     OW 5848   2.812   5.200   6.689
 1650SOL    HW1 5849   2.877   5.221   6.762
 1650SOL    HW2 5850   2.825   5.264   6.613
 1651SOL     OW 5851   0.787   2.833   4.005
 1651SOL    HW1 5852   0.774   2.735   4.011
 1651SOL    HW2 5853   0.860   2.861   4.068
 1652SOL     OW 5854   0.699   2.630   1.398
 1652SOL    HW1 5855   0.715   2.729   1.388
 1652SOL    HW2 5856   0.691   2.589   1.307
 1653SOL     OW 5857   0.134   4.661   3.087
 1653SOL    HW1 5858   0.072   4.671   3.010
 1653SOL    HW2 5859   0.102   4.587   3.147
 1654SOL     OW 5860   0.672   3.028   1.633
 1654SOL    HW1 5861   0.733   3.038   1.554
 1654SOL    HW2 5862   0.631   3.117   1.655
 1655SOL     OW 5863   7.011   0.109   4.775
 1655SOL    HW1 5864   0.022   0.118   4.681
 1655SOL    HW2 5865   6.915   0.080   4.772
 1656SOL     OW 5866   2.342   4.930   4.086
 1656SOL    HW1 5867   2.399   4.923   4.168
 1656SOL    HW2 5868   2.384   4.994   4.021
 1657SOL     OW 5869   1.276   0.442   5.521
 1657SOL    HW1 5870   1.293   0.353   5.563
 1657SOL    HW2 5871   1.196   0.484   5.563
 1658SOL     OW 5872   6.872   7.014   6.447
 1658SOL    HW1 5873   6.972   7.008   6.453
 1658SOL    HW2 5874   6.831   6.950   6.511
 1659SOL     OW 5875   4.401   6.773   6.524
 1659SOL    HW1 5876   4.347   6.693   6.498
 1659SOL    HW2 5877   4.348   6.856   6.507
 1660SOL     OW 5878   1.768   6.970   1.673
 1660SOL    HW1 5879   1.825   6.906   1.724
 1660SOL    HW2 5880   1.691   6.998   1.731
 1661SOL     OW 5881   3.755   4.850   2.772
 1661SOL    HW1 5882   3.847   4.855   2.735
 1661SOL    HW2 5883   3.702   4.782   2.720
 1662SOL     OW 5884   0.312   0.947   4.852
 1662SOL    HW1 5885   0.292   0.880   4.923
 1662SOL    HW2 5886   0.308   0.903   4.762
 1663SOL     OW 5887   4.317   4.295   1.224
 1663SOL    HW1 5888   4.336   4.394   1.226
 1663SOL    HW2 5889   4.287   4.266   1.315
 1664SOL     OW 5890   0.757   0.253   5.200
 1664SOL    HW1 5891   0.838   0.207   5.238
 1664SOL    HW2 5892   0.677   0.232   5.256
 1665SOL     OW 5893   2.103   4.191   1.129
 1665SOL    HW1 5894   2.146   4.212   1.041
 1665SOL    HW2 5895   2.027   4.129   1.114
 1666SOL     OW 5896   5.930   0.017   6.493
 1666SOL    HW1 5897   6.005   6.979   6.516
 1666SOL    HW2 5898   5.931   0.036   6.395
 1667SOL     OW 5899   0.288   6.458   1.549
 1667SOL    HW1 5900   0.369   6.517   1.554
 1667SOL    HW2 5901   0.248   6.465   1.458
 1668SOL     OW 5902   4.762   4.296   4.113
 1668SOL    HW1 5903   4.689   4.291   4.046
 1668SOL    HW2 5904   4.729   4.261   4.201
 1669SOL     OW 5905   0.140   3.956   4.981
 1669SOL    HW1 5906   0.156   3.866   4.940
 1669SOL    HW2 5907   0.153   3.950   5.080
 1670SOL     OW 5908   2.147   4.495   5.843
 1670SOL    HW1 5909   2.212   4.471   5.770
 1670SOL    HW2 5910   2.058   4.454   5.823
 1671SOL     OW 5911   5.495   1.858   1.410
 1671SOL    HW1 5912   5.398   1.860   1.435
 1671SOL    HW2 5913   5.508   1.793   1.336
 1672SOL     OW 5914   0.621   2.932   6.918
 1672SOL    HW1 5915   0.651   2.925   6.823
 1672SOL    HW2 5916   0.689   2.984   6.970
 1673SOL     OW 5917   2.341   1.635   4.360
 1673SOL    HW1 5918   2.436   1.664   4.352
 1673SOL    HW2 5919   2.337   1.552   4.416
 1674SOL     OW 5920   4.737   2.322   2.732
 1674SOL    HW1 5921   4.718   2.410   2.689
 1674SOL    HW2 5922   4.669   2.255   2.700
 1675SOL     OW 5923   5.383   0.902   1.061
 1675SOL    HW1 5924   5.339   0.821   1.099
 1675SOL    HW2 5925   5.367   0.906   0.962
 1676SOL     OW 5926   1.651   1.814   3.061
 1676SOL    HW1 5927   1.722   1.815   3.131
 1676SOL    HW2 5928   1.661   1.894   3.002
 1677SOL     OW 5929   4.050   3.733   3.559
 1677SOL    HW1 5930   4.046   3.636   3.580
 1677SOL    HW2 5931   3.993   3.784   3.624
 1678SOL     OW 5932   0.436   6.699   0.793
 1678SOL    HW1 5933   0.454   6.656   0.882
 1678SOL    HW2 5934   0.522   6.734   0.755
 1679SOL     OW 5935   1.943   1.716   5.777
 1679SOL    HW1 5936   1.973   1.760   5.692
 1679SOL    HW2 5937   1.843   1.718   5.781
 1680SOL     OW 5938   4.641   2.648   4.104
 1680SOL    HW1 5939   4.665   2.745   4.099
 1680SOL    HW2 5940   4.708   2.599   4.159
 1681SOL     OW 5941   2.021   6.310   3.696
 1681SOL    HW1 5942   2.032   6.215   3.724
 1681SOL    HW2 5943   2.071   6.369   3.760
 1682SOL     OW 5944   2.479   0.042   5.365
 1682SOL    HW1 5945   2.552   0.005   5.308
 1682SOL    HW2 5946   2.441   0.124   5.323
 1683SOL     OW 5947   6.228   4.670   2.526
 1683SOL    HW1 5948   6.276   4.710   2.603
 1683SOL    HW2 5949   6.294   4.642   2.456
 1684SOL     OW 5950   2.085   5.016   1.427
 1684SOL    HW1 5951   2.117   4.966   1.508
 1684SOL    HW2 5952   1.985   5.010   1.422
 1685SOL     OW 5953   0.652   1.305   5.750
 1685SOL    HW1 5954   0.663   1.207   5.765
 1685SOL    HW2 5955   0.738   1.352   5.771
 1686SOL     OW 5956   4.851   5.675   3.337
 1686SOL    HW1 5957   4.785   5.628   3.395
 1686SOL    HW2 5958   4.882   5.614   3.264
 1687SOL     OW 5959   6.530   3.850   2.684
 1687SOL    HW1 5960   6.542   3.799   2.769
 1687SOL    HW2 5961   6.499   3.788   2.612
 1688SOL     OW 5962   2.118   1.965   3.593
 1688SOL    HW1 5963   2.036   1.972   3.537
 1688SOL    HW2 5964   2.103   1.902   3.669
 1689SOL     OW 5965   5.887   0.867   1.739
 1689SOL    HW1 5966   5.850   0.944   1.687
 1689SOL    HW2 5967   5.981   0.888   1.768
 1690SOL     OW 5968   0.878   4.211   4.483
 1690SOL    HW1 5969   0.832   4.270   4.417
 1690SOL    HW2 5970   0.822   4.130   4.499
 1691SOL     OW 5971   5.009   2.656   5.099
 1691SOL    HW1 5972   5.086   2.615   5.147
 1691SOL    HW2 5973   5.042   2.718   5.028
 1692SOL     OW 5974   6.156   5.372   1.379
 1692SOL    HW1 5975   6.176   5.435   1.304
 1692SOL    HW2 5976   6.168   5.278   1.347
 1693SOL     OW 5977   6.138   0.354   5.509
 1693SOL    HW1 5978   6.190   0.407   5.442
 1693SOL    HW2 5979   6.187   0.270   5.531
 1694SOL     OW 5980   5.624   0.728   5.473
 1694SOL    HW1 5981   5.696   0.705   5.408
 1694SOL    HW2 5982   5.660   0.721   5.566
 1695SOL     OW 5983   3.906   0.591   6.234
 1695SOL    HW1 5984   3.931   0.558   6.325
 1695SOL    HW2 5985   3.985   0.587   6.173
 1696SOL     OW 5986   4.774   5.916   0.370
 1696SOL    HW1 5987   4.772   5.840   0.305
 1696SOL    HW2 5988   4.847   5.979   0.345
 1697SOL     OW 5989   6.016   1.941   1.233
 1697SOL    HW1 5990   6.028   1.843   1.242
 1697SOL    HW2 5991   5.924   1.961   1.202
 1698SOL     OW 5992   3.292   0.646   1.688
 1698SOL    HW1 5993   3.228   0.705   1.737
 1698SOL    HW2 5994   3.246   0.607   1.608
 1699SOL     OW 5995   2.423   0.324   0.348
 1699SOL    HW1 5996   2.356   0.392   0.318
 1699SOL    HW2 5997   2.515   0.356   0.328
 1700SOL     OW 5998   5.748   3.703   3.162
 1700SOL    HW1 5999   5.839   3.743   3.165
 1700SOL    HW2 6000   5.750   3.613   3.205
 1701SOL     OW 6001   0.026   5.131   4.826
 1701SOL    HW1 6002   0.112   5.168   4.861
 1701SOL    HW2 6003   6.991   5.105   4.903
 1702SOL     OW 6004   1.905   2.595   5.796
 1702SOL    HW1 6005   1.887   2.499   5.777
 1702SOL    HW2 6006   1.960   2.634   5.722
 1703SOL     OW 6007   3.316   1.972   6.910
 1703SOL    HW1 6008   3.227   1.928   6.927
 1703SOL    HW2 6009   3.349   1.945   6.819
 1704SOL     OW 6010   2.322   1.937   1.035
 1704SOL    HW1 6011   2.362   2.000   0.969
 1704SOL    HW2 6012   2.383   1.859   1.049
 1705SOL     OW 6013   4.332   0.925   1.163
 1705SOL    HW1 6014   4.428   0.954   1.160
 1705SOL    HW2 6015   4.327   0.825   1.162
 1706SOL     OW 6016   3.896   2.125   0.798
 1706SOL    HW1 6017   3.853   2.050   0.749
 1706SOL    HW2 6018   3.882   2.113   0.897
 1707SOL     OW 6019   4.435   1.713   2.310
 1707SOL    HW1 6020   4.453   1.615   2.312
 1707SOL    HW2 6021   4.336   1.729   2.302
 1708SOL     OW 6022   2.988   5.086   1.380
 1708SOL    HW1 6023   2.953   5.083   1.286
 1708SOL    HW2 6024   3.071   5.142   1.382
 1709SOL     OW 6025   4.978   5.420   0.566
 1709SOL    HW1 6026   4.963   5.519   0.564
 1709SOL    HW2 6027   4.967   5.384   0.473
 1710SOL     OW 6028   4.336   5.452   3.189
 1710SOL    HW1 6029   4.360   5.539   3.144
 1710SOL    HW2 6030   4.244   5.458   3.226
 1711SOL     OW 6031   3.782   5.365   6.192
 1711SOL    HW1 6032   3.736   5.452   6.209
 1711SOL    HW2 6033   3.716   5.300   6.154
 1712SOL     OW 6034   0.122   1.888   4.077
 1712SOL    HW1 6035   0.118   1.790   4.056
 1712SOL    HW2 6036   0.174   1.935   4.006
 1713SOL     OW 6037   4.122   0.674   2.500
 1713SOL    HW1 6038   4.199   0.738   2.508
 1713SOL    HW2 6039   4.105   0.654   2.404
 1714SOL     OW 6040   3.651   2.824   6.916
 1714SOL    HW1 6041   3.591   2.858   6.843
 1714SOL    HW2 6042   3.618   2.857   7.004
 1715SOL     OW 6043   1.527   6.457   2.810
 1715SOL    HW1 6044   1.603   6.397   2.836
 1715SOL    HW2 6045   1.502   6.514   2.888
 1716SOL     OW 6046   4.416   0.239   4.169
 1716SOL    HW1 6047   4.336   0.258   4.112
 1716SOL    HW2 6048   4.498   0.275   4.123
 1717SOL     OW 6049   3.875   6.056   5.869
 1717SOL    HW1 6050   3.812   6.107   5.927
 1717SOL    HW2 6051   3.930   5.994   5.925
 1718SOL     OW 6052   1.766   2.918   1.806
 1718SOL    HW1 6053   1.842   2.870   1.850
 1718SOL    HW2 6054   1.685   2.914   1.865
 1719SOL     OW 6055   0.923   5.377   1.345
 1719SOL    HW1 6056   0.909   5.425   1.259
 1719SOL    HW2 6057   0.918   5.279   1.330
 1720SOL     OW 6058   6.300   3.264   5.814
 1720SOL    HW1 6059   6.222   3.328   5.815
 1720SOL    HW2 6060   6.319   3.237   5.720
 1721SOL     OW 6061   1.616   1.758   1.822
 1721SOL    HW1 6062   1.560   1.774   1.741
 1721SOL    HW2 6063   1.700   1.812   1.817
 1722SOL     OW 6064   2.768   2.397   3.270
 1722SOL    HW1 6065   2.770   2.325   3.200
 1722SOL    HW2 6066   2.832   2.469   3.245
 1723SOL     OW 6067   5.702   2.940   0.497
 1723SOL    HW1 6068   5.646   2.991   0.430
 1723SOL    HW2 6069   5.662   2.850   0.512
 1724SOL     OW 6070   6.917   2.446   1.147
 1724SOL    HW1 6071   6.850   2.373   1.151
 1724SOL    HW2 6072   6.872   2.534   1.166
 1725SOL     OW 6073   1.894   6.150   6.897
 1725SOL    HW1 6074   1.934   6.222   6.840
 1725SOL    HW2 6075   1.931   6.158   6.990
 1726SOL     OW 6076   5.889   4.178   3.876
 1726SOL    HW1 6077   5.841   4.266   3.879
 1726SOL    HW2 6078   5.827   4.105   3.904
 1727SOL     OW 6079   3.476   3.331   3.118
 1727SOL    HW1 6080   3.388   3.293   3.088
 1727SOL    HW2 6081   3.465   3.429   3.134
 1728SOL     OW 6082   5.024   2.382   4.846
 1728SOL    HW1 6083   4.951   2.341   4.792
 1728SOL    HW2 6084   4.986   2.421   4.930
 1729SOL     OW 6085   1.987   4.109   2.168
 1729SOL    HW1 6086   1.993   4.206   2.144
 1729SOL    HW2 6087   2.077   4.066   2.156
 1730SOL     OW 6088   2.730   4.998   5.612
 1730SOL    HW1 6089   2.695   4.959   5.697
 1730SOL    HW2 6090   2.782   4.929   5.562
 1731SOL     OW 6091   6.081   4.074   4.247
 1731SOL    HW1 6092   6.078   4.126   4.162
 1731SOL    HW2 6093   5.995   4.023   4.258
 1732SOL     OW 6094   2.115   4.423   6.413
 1732SOL    HW1 6095   2.186   4.407   6.343
 1732SOL    HW2 6096   2.145   4.497   6.474
 1733SOL     OW 6097   3.257   4.274   0.260
 1733SOL    HW1 6098   3.209   4.270   0.348
 1733SOL    HW2 6099   3.202   4.228   0.191
 1734SOL     OW 6100   6.923   3.076   1.012
 1734SOL    HW1 6101   6.968   2.987   1.012
 1734SOL    HW2 6102   6.829   3.066   0.981
 1735SOL     OW 6103   4.028   4.987   6.254
 1735SOL    HW1 6104   4.073   5.038   6.181
 1735SOL    HW2 6105   4.040   4.889   6.238
 1736SOL     OW 6106   4.575   3.184   0.954
 1736SOL    HW1 6107   4.657   3.213   0.904
 1736SOL    HW2 6108   4.534   3.106   0.907
 1737SOL     OW 6109   4.728   1.309   4.755
 1737SOL    HW1 6110   4.698   1.302   4.850
 1737SOL    HW2 6111   4.787   1.389   4.744
 1738SOL     OW 6112   1.154   3.573   4.444
 1738SOL    HW1 6113   1.249   3.603   4.448
 1738SOL    HW2 6114   1.143   3.487   4.493
 1739SOL     OW 6115   5.198   0.359   4.134
 1739SOL    HW1 6116   5.237   0.318   4.051
 1739SOL    HW2 6117   5.269   0.365   4.204
 1740SOL     OW 6118   6.745   2.642   4.432
 1740SOL    HW1 6119   6.786   2.573   4.373
 1740SOL    HW2 6120   6.649   2.618   4.449
 1741SOL     OW 6121   1.208   1.935   4.520
 1741SOL    HW1 6122   1.160   1.889   4.595
 1741SOL    HW2 6123   1.146   1.947   4.442
 1742SOL     OW 6124   6.183   5.797   6.212
 1742SOL    HW1 6125   6.156   5.878   6.159
 1742SOL    HW2 6126   6.278   5.774   6.190
 1743SOL     OW 6127   1.410   0.861   2.815
 1743SOL    HW1 6128   1.488   0.919   2.840
 1743SOL    HW2 6129   1.326   0.914   2.821
 1744SOL     OW 6130   4.455   2.034   3.868
 1744SOL    HW1 6131   4.508   2.119   3.863
 1744SOL    HW2 6132   4.400   2.034   3.951
 1745SOL     OW 6133   6.850   6.380   1.220
 1745SOL    HW1 6134   6.775   6.404   1.281
 1745SOL    HW2 6135   6.816   6.368   1.127
 1746SOL     OW 6136   1.942   4.253   3.775
 1746SOL    HW1 6137   2.033   4.291   3.759
 1746SOL    HW2 6138   1.915   4.198   3.696
 1747SOL     OW 6139   3.798   0.869   2.464
 1747SOL    HW1 6140   3.832   0.831   2.378
 1747SOL    HW2 6141   3.872   0.870   2.531
 1748SOL     OW 6142   6.737   2.035   4.885
 1748SOL    HW1 6143   6.644   2.013   4.854
 1748SOL    HW2 6144   6.789   1.950   4.895
 1749SOL     OW 6145   1.845   5.128   0.892
 1749SOL    HW1 6146   1.769   5.065   0.876
 1749SOL    HW2 6147   1.872   5.122   0.988
 1750SOL     OW 6148   4.407   0.123   5.285
 1750SOL    HW1 6149   4.355   0.131   5.370
 1750SOL    HW2 6150   4.502   0.147   5.302
 1751SOL     OW 6151   5.875   2.491   4.970
 1751SOL    HW1 6152   5.953   2.432   4.946
 1751SOL    HW2 6153   5.879   2.512   5.067
 1752SOL     OW 6154   6.645   0.910   1.114
 1752SOL    HW1 6155   6.571   0.857   1.156
 1752SOL    HW2 6156   6.607   0.990   1.067
 1753SOL     OW 6157   6.382   1.266   1.869
 1753SOL    HW1 6158   6.473   1.267   1.910
 1753SOL    HW2 6159   6.389   1.277   1.770
 1754SOL     OW 6160   3.308   5.249   5.654
 1754SOL    HW1 6161   3.375   5.318   5.681
 1754SOL    HW2 6162   3.272   5.272   5.563
 1755SOL     OW 6163   6.527   6.740   4.932
 1755SOL    HW1 6164   6.510   6.794   4.850
 1755SOL    HW2 6165   6.597   6.671   4.912
 1756SOL     OW 6166   5.330   0.407   6.095
 1756SOL    HW1 6167   5.319   0.404   5.996
 1756SOL    HW2 6168   5.247   0.371   6.139
 1757SOL     OW 6169   2.261   5.285   5.232
 1757SOL    HW1 6170   2.352   5.303   5.268
 1757SOL    HW2 6171   2.192   5.308   5.302
 1758SOL     OW 6172   2.520   6.468   4.847
 1758SOL    HW1 6173   2.458   6.431   4.916
 1758SOL    HW2 6174   2.481   6.550   4.807
 1759SOL     OW 6175   1.363   6.523   6.865
 1759SOL    HW1 6176   1.329   6.469   6.942
 1759SOL    HW2 6177   1.456   6.554   6.884
 1760SOL     OW 6178   6.021   0.986   5.212
 1760SOL    HW1 6179   6.044   0.895   5.180
 1760SOL    HW2 6180   5.955   0.980   5.287
 1761SOL     OW 6181   6.127   1.842   2.199
 1761SOL    HW1 6182   6.154   1.809   2.290
 1761SOL    HW2 6183   6.030   1.866   2.199
 1762SOL     OW 6184   6.981   1.374   5.261
 1762SOL    HW1 6185   6.892   1.407   5.230
 1762SOL    HW2 6186   6.971   1.324   5.347
 1763SOL     OW 6187   0.790   3.935   4.526
 1763SOL    HW1 6188   0.854   3.860   4.544
 1763SOL    HW2 6189   0.707   3.899   4.485
 1764SOL     OW 6190   1.012   5.442   2.621
 1764SOL    HW1 6191   1.063   5.500   2.684
 1764SOL    HW2 6192   1.023   5.346   2.647
 1765SOL     OW 6193   5.225   3.344   2.370
 1765SOL    HW1 6194   5.303   3.362   2.310
 1765SOL    HW2 6195   5.145   3.394   2.338
 1766SOL     OW 6196   4.516   5.137   4.722
 1766SOL    HW1 6197   4.470   5.107   4.806
 1766SOL    HW2 6198   4.576   5.063   4.689
 1767SOL     OW 6199   0.525   4.878   2.306
 1767SOL    HW1 6200   0.553   4.808   2.241
 1767SOL    HW2 6201   0.443   4.924   2.271
 1768SOL     OW 6202   5.040   6.560   2.081
 1768SOL    HW1 6203   4.980   6.606   2.015
 1768SOL    HW2 6204   5.134   6.564   2.048
 1769SOL     OW 6205   5.069   0.442   6.864
 1769SOL    HW1 6206   5.058   0.484   6.954
 1769SOL    HW2 6207   5.148   0.482   6.818
 1770SOL     OW 6208   2.137   5.151   6.345
 1770SOL    HW1 6209   2.153   5.210   6.424
 1770SOL    HW2 6210   2.116   5.059   6.376
 1771SOL     OW 6211   1.002   3.527   6.270
 1771SOL    HW1 6212   1.083   3.571   6.308
 1771SOL    HW2 6213   1.004   3.533   6.170
 1772SOL     OW 6214   2.383   4.543   3.513
 1772SOL    HW1 6215   2.411   4.463   3.459
 1772SOL    HW2 6216   2.357   4.617   3.452
 1773SOL     OW 6217   0.666   6.560   4.792
 1773SOL    HW1 6218   0.655   6.597   4.884
 1773SOL    HW2 6219   0.717   6.474   4.796
 1774SOL     OW 6220   5.670   4.978   1.302
 1774SOL    HW1 6221   5.633   5.066   1.274
 1774SOL    HW2 6222   5.599   4.924   1.348
 1775SOL     OW 6223   2.277   5.751   6.406
 1775SOL    HW1 6224   2.239   5.667   6.444
 1775SOL    HW2 6225   2.252   5.759   6.309
 1776SOL     OW 6226   4.822   1.219   6.170
 1776SOL    HW1 6227   4.753   1.233   6.240
 1776SOL    HW2 6228   4.848   1.307   6.130
 1777SOL     OW 6229   4.762   6.896   6.518
 1777SOL    HW1 6230   4.673   6.880   6.561
 1777SOL    HW2 6231   4.795   6.988   6.542
 1778SOL     OW 6232   5.990   6.891   4.207
 1778SOL    HW1 6233   6.057   6.943   4.260
 1778SOL    HW2 6234   5.920   6.954   4.172
 1779SOL     OW 6235   5.703   6.045   4.071
 1779SOL    HW1 6236   5.692   6.064   3.973
 1779SOL    HW2 6237   5.707   6.132   4.121
 1780SOL     OW 6238   2.268   5.532   4.820
 1780SOL    HW1 6239   2.176   5.567   4.839
 1780SOL    HW2 6240   2.263   5.435   4.798
 1781SOL     OW 6241   4.051   0.498   3.964
 1781SOL    HW1 6242   4.035   0.465   3.871
 1781SOL    HW2 6243   4.144   0.537   3.970
 1782SOL     OW 6244   1.357   1.582   2.533
 1782SOL    HW1 6245   1.452   1.568   2.505
 1782SOL    HW2 6246   1.328   1.674   2.508
 1783SOL     OW 6247   2.067   4.238   6.674
 1783SOL    HW1 6248   2.050   4.287   6.588
 1783SOL    HW2 6249   2.162   4.250   6.701
 1784SOL     OW 6250   2.489   0.077   0.986
 1784SOL    HW1 6251   2.479   0.159   0.930
 1784SOL    HW2 6252   2.577   0.034   0.966
 1785SOL     OW 6253   0.956   6.250   4.235
 1785SOL    HW1 6254   0.986   6.155   4.241
 1785SOL    HW2 6255   1.017   6.300   4.173
 1786SOL     OW 6256   1.041   6.125   0.643
 1786SOL    HW1 6257   1.135   6.091   0.637
 1786SOL    HW2 6258   1.010   6.120   0.737
 1787SOL     OW 6259   2.452   3.982   6.257
 1787SOL    HW1 6260   2.526   4.049   6.254
 1787SOL    HW2 6261   2.476   3.909   6.321
 1788SOL     OW 6262   4.652   3.785   0.998
 1788SOL    HW1 6263   4.673   3.689   0.977
 1788SOL    HW2 6264   4.586   3.821   0.932
 1789SOL     OW 6265   6.387   3.878   1.867
 1789SOL    HW1 6266   6.437   3.794   1.890
 1789SOL    HW2 6267   6.315   3.894   1.934
 1790SOL     OW 6268   2.688   2.339   4.705
 1790SOL    HW1 6269   2.641   2.386   4.779
 1790SOL    HW2 6270   2.781   2.316   4.734
 1791SOL     OW 6271   5.041   6.497   3.257
 1791SOL    HW1 6272   5.123   6.440   3.259
 1791SOL    HW2 6273   4.964   6.444   3.219
 1792SOL     OW 6274   7.020   1.390   5.556
 1792SOL    HW1 6275   6.982   1.391   5.649
 1792SOL    HW2 6276   0.096   1.396   5.561
 1793SOL     OW 6277   0.048   1.393   5.850
 1793SOL    HW1 6278   0.126   1.344   5.889
 1793SOL    HW2 6279   6.989   1.374   5.904
 1794SOL     OW 6280   0.703   6.807   6.183
 1794SOL    HW1 6281   0.690   6.828   6.279
 1794SOL    HW2 6282   0.633   6.742   6.153
 1795SOL     OW 6283   6.139   4.311   0.815
 1795SOL    HW1 6284   6.124   4.349   0.907
 1795SOL    HW2 6285   6.120   4.213   0.816
 1796SOL     OW 6286   1.037   6.991   6.246
 1796SOL    HW1 6287   1.007   6.960   6.337
 1796SOL    HW2 6288   1.013   6.922   6.178
 1797SOL     OW 6289   2.529   5.527   4.927
 1797SOL    HW1 6290   2.605   5.573   4.880
 1797SOL    HW2 6291   2.451   5.521   4.865
 1798SOL     OW 6292   2.977   3.537   4.245
 1798SOL    HW1 6293   2.917   3.554   4.167
 1798SOL    HW2 6294   3.064   3.499   4.213
 1799SOL     OW 6295   3.550   1.310   0.171
 1799SOL    HW1 6296   3.496   1.226   0.171
 1799SOL    HW2 6297   3.489   1.389   0.169
 1800SOL     OW 6298   5.593   3.548   4.723
 1800SOL    HW1 6299   5.550   3.536   4.634
 1800SOL    HW2 6300   5.669   3.484   4.733
 1801SOL     OW 6301   1.448   1.439   1.754
 1801SOL    HW1 6302   1.481   1.425   1.661
 1801SOL    HW2 6303   1.478   1.364   1.812
 1802SOL     OW 6304   6.857   4.869   3.428
 1802SOL    HW1 6305   6.912   4.824   3.358
 1802SOL    HW2 6306   6.838   4.963   3.400
 1803SOL     OW 6307   0.753   6.927   3.450
 1803SOL    HW1 6308   0.720   6.836   3.424
 1803SOL    HW2 6309   0.851   6.923   3.467
 1804SOL     OW 6310   2.089   3.294   5.773
 1804SOL    HW1 6311   2.154   3.366   5.799
 1804SOL    HW2 6312   2.128   3.205   5.793
 1805SOL     OW 6313   0.303   5.889   6.640
 1805SOL    HW1 6314   0.217   5.852   6.674
 1805SOL    HW2 6315   0.360   5.815   6.603
 1806SOL     OW 6316   0.090   1.583   1.928
 1806SOL    HW1 6317   0.023   1.634   1.983
 1806SOL    HW2 6318   0.132   1.646   1.863
 1807SOL     OW 6319   6.576   3.280   2.099
 1807SOL    HW1 6320   6.505   3.350   2.106
 1807SOL    HW2 6321   6.618   3.283   2.008
 1808SOL     OW 6322   5.042   2.072   6.036
 1808SOL    HW1 6323   5.002   2.161   6.055
 1808SOL    HW2 6324   5.108   2.049   6.107
 1809SOL     OW 6325   4.000   1.140   5.744
 1809SOL    HW1 6326   3.948   1.206   5.800
 1809SOL    HW2 6327   4.017   1.057   5.797
 1810SOL     OW 6328   0.195   0.244   4.272
 1810SOL    HW1 6329   0.159   0.186   4.199
 1810SOL    HW2 6330   0.209   0.337   4.236
 1811SOL     OW 6331   4.253   5.708   1.945
 1811SOL    HW1 6332   4.169   5.683   1.897
 1811SOL    HW2 6333   4.320   5.635   1.936
 1812SOL     OW 6334   4.706   6.564   5.034
 1812SOL    HW1 6335   4.626   6.574   4.975
 1812SOL    HW2 6336   4.703   6.633   5.106
 1813SOL     OW 6337   4.387   4.579   2.965
 1813SOL    HW1 6338   4.301   4.562   3.013
 1813SOL    HW2 6339   4.431   4.492   2.943
 1814SOL     OW 6340   6.984   6.163   0.402
 1814SOL    HW1 6341   0.038   6.222   0.424
 1814SOL    HW2 6342   6.916   6.215   0.351
 1815SOL     OW 6343   5.713   6.535   1.275
 1815SOL    HW1 6344   5.803   6.547   1.317
 1815SOL    HW2 6345   5.696   6.437   1.260
 1816SOL     OW 6346   4.412   5.295   6.023
 1816SOL    HW1 6347   4.457   5.317   6.110
 1816SOL    HW2 6348   4.318   5.268   6.040
 1817SOL     OW 6349   0.826   1.454   3.678
 1817SOL    HW1 6350   0.756   1.434   3.609
 1817SOL    HW2 6351   0.911   1.406   3.654
 1818SOL     OW 6352   2.009   6.763   1.024
 1818SOL    HW1 6353   1.949   6.715   1.088
 1818SOL    HW2 6354   2.102   6.727   1.031
 1819SOL     OW 6355   1.956   5.187   3.518
 1819SOL    HW1 6356   1.918   5.123   3.452
 1819SOL    HW2 6357   2.028   5.142   3.570
 1820SOL     OW 6358   3.745   0.411   4.597
 1820SOL    HW1 6359   3.723   0.316   4.616
 1820SOL    HW2 6360   3.833   0.435   4.638
 1821SOL     OW 6361   3.540   1.948   2.857
 1821SOL    HW1 6362   3.489   1.985   2.779
 1821SOL    HW2 6363   3.481   1.945   2.937
 1822SOL     OW 6364   6.908   2.759   2.418
 1822SOL    HW1 6365   6.812   2.781   2.404
 1822SOL    HW2 6366   6.963   2.842   2.410
 1823SOL     OW 6367   3.861   6.648   2.269
 1823SOL    HW1 6368   3.926   6.639   2.345
 1823SOL    HW2 6369   3.777   6.691   2.302
 1824SOL     OW 6370   3.928   2.693   1.439
 1824SOL    HW1 6371   3.837   2.706   1.399
 1824SOL    HW2 6372   3.993   2.753   1.393
 1825SOL     OW 6373   2.142   1.674   5.209
 1825SOL    HW1 6374   2.044   1.657   5.197
 1825SOL    HW2 6375   2.167   1.761   5.167
 1826SOL     OW 6376   3.711   2.084   1.669
 1826SOL    HW1 6377   3.703   2.142   1.750
 1826SOL    HW2 6378   3.668   2.130   1.591
 1827SOL     OW 6379   5.814   4.179   1.212
 1827SOL    HW1 6380   5.809   4.087   1.250
 1827SOL    HW2 6381   5.732   4.197   1.157
 1828SOL     OW 6382   1.666   3.402   5.209
 1828SOL    HW1 6383   1.723   3.446   5.140
 1828SOL    HW2 6384   1.665   3.303   5.195
 1829SOL     OW 6385   3.387   0.492   3.535
 1829SOL    HW1 6386   3.478   0.451   3.530
 1829SOL    HW2 6387   3.390   0.585   3.500
 1830SOL     OW 6388   4.857   0.009   4.967
 1830SOL    HW1 6389   4.800   7.000   4.892
 1830SOL    HW2 6390   4.838   0.106   4.985
 1831SOL     OW 6391   4.152   5.545   1.239
 1831SOL    HW1 6392   4.242   5.505   1.257
 1831SOL    HW2 6393   4.081   5.491   1.283
 1832SOL     OW 6394   2.489   3.477   0.273
 1832SOL    HW1 6395   2.456   3.427   0.193
 1832SOL    HW2 6396   2.462   3.573   0.265
 1833SOL     OW 6397   5.046   0.299   0.572
 1833SOL    HW1 6398   5.130   0.330   0.617
 1833SOL    HW2 6399   5.068   0.235   0.499
 1834SOL     OW 6400   2.160   2.071   6.247
 1834SOL    HW1 6401   2.078   2.119   6.215
 1834SOL    HW2 6402   2.191   2.112   6.332
 1835SOL     OW 6403   6.313   5.914   0.873
 1835SOL    HW1 6404   6.371   5.877   0.944
 1835SOL    HW2 6405   6.367   5.976   0.815
 1836SOL     OW 6406   5.183   2.470   1.690
 1836SOL    HW1 6407   5.144   2.394   1.638
 1836SOL    HW2 6408   5.189   2.446   1.786
 1837SOL     OW 6409   3.378   2.514   6.446
 1837SOL    HW1 6410   3.454   2.493   6.507
 1837SOL    HW2 6411   3.295   2.468   6.479
 1838SOL     OW 6412   6.530   1.076   0.177
 1838SOL    HW1 6413   6.434   1.056   0.155
 1838SOL    HW2 6414   6.575   1.115   0.097
 1839SOL     OW 6415   0.651   1.337   6.818
 1839SOL    HW1 6416   0.636   1.333   6.719
 1839SOL    HW2 6417   0.644   1.432   6.849
 1840SOL     OW 6418   4.903   6.083   3.205
 1840SOL    HW1 6419   4.932   6.115   3.114
 1840SOL    HW2 6420   4.857   5.995   3.196
 1841SOL     OW 6421   2.425   1.285   2.331
 1841SOL    HW1 6422   2.389   1.238   2.412
 1841SOL    HW2 6423   2.397   1.237   2.248
 1842SOL     OW 6424   1.509   5.395   0.065
 1842SOL    HW1 6425   1.475   5.415   0.157
 1842SOL    HW2 6426   1.605   5.421   0.059
 1843SOL     OW 6427   3.394   1.332   4.781
 1843SOL    HW1 6428   3.421   1.386   4.701
 1843SOL    HW2 6429   3.342   1.252   4.752
 1844SOL     OW 6430   5.517   2.326   0.001
 1844SOL    HW1 6431   5.604   2.315   0.048
 1844SOL    HW2 6432   5.494   2.423   7.017
 1845SOL     OW 6433   1.480   1.669   3.378
 1845SOL    HW1 6434   1.453   1.659   3.282
 1845SOL    HW2 6435   1.439   1.596   3.432
 1846SOL     OW 6436   4.353   1.599   1.945
 1846SOL    HW1 6437   4.398   1.671   1.892
 1846SOL    HW2 6438   4.399   1.589   2.033
 1847SOL     OW 6439   2.206   6.692   5.505
 1847SOL    HW1 6440   2.257   6.682   5.420
 1847SOL    HW2 6441   2.210   6.787   5.535
 1848SOL     OW 6442   2.950   5.798   4.215
 1848SOL    HW1 6443   2.869   5.758   4.171
 1848SOL    HW2 6444   3.024   5.730   4.216
 1849SOL     OW 6445   4.646   2.755   1.823
 1849SOL    HW1 6446   4.732   2.735   1.870
 1849SOL    HW2 6447   4.612   2.845   1.852
 1850SOL     OW 6448   5.126   1.595   1.056
 1850SOL    HW1 6449   5.097   1.642   1.140
 1850SOL    HW2 6450   5.066   1.623   0.980
 1851SOL     OW 6451   0.085   4.157   5.286
 1851SOL    HW1 6452   0.089   4.058   5.273
 1851SOL    HW2 6453   7.017   4.190   5.261
 1852SOL     OW 6454   0.809   6.455   2.435
 1852SOL    HW1 6455   0.750   6.389   2.388
 1852SOL    HW2 6456   0.849   6.411   2.516
 1853SOL     OW 6457   0.380   2.596   4.299
 1853SOL    HW1 6458   0.376   2.656   4.219
 1853SOL    HW2 6459   0.422   2.646   4.375
 1854SOL     OW 6460   0.299   0.221   3.539
 1854SOL    HW1 6461   0.315   0.123   3.541
 1854SOL    HW2 6462   0.200   0.239   3.539
 1855SOL     OW 6463   4.674   2.758   4.442
 1855SOL    HW1 6464   4.691   2.838   4.384
 1855SOL    HW2 6465   4.706   2.676   4.395
 1856SOL     OW 6466   3.644   2.528   6.924
 1856SOL    HW1 6467   3.737   2.501   6.900
 1856SOL    HW2 6468   3.640   2.627   6.937
 1857SOL     OW 6469   4.176   1.559   1.075
 1857SOL    HW1 6470   4.108   1.610   1.022
 1857SOL    HW2 6471   4.129   1.491   1.132
 1858SOL     OW 6472   4.455   2.468   4.157
 1858SOL    HW1 6473   4.423   2.453   4.250
 1858SOL    HW2 6474   4.529   2.535   4.156
 1859SOL     OW 6475   6.153   2.350   3.929
 1859SOL    HW1 6476   6.086   2.363   4.002
 1859SOL    HW2 6477   6.176   2.253   3.922
 1860SOL     OW 6478   1.271   1.568   4.709
 1860SOL    HW1 6479   1.322   1.554   4.794
 1860SOL    HW2 6480   1.215   1.650   4.717
 1861SOL     OW 6481   6.792   0.241   3.405
 1861SOL    HW1 6482   6.771   0.222   3.310
 1861SOL    HW2 6483   6.710   0.230   3.461
 1862SOL     OW 6484   2.457   5.472   6.608
 1862SOL    HW1 6485   2.490   5.412   6.535
 1862SOL    HW2 6486   2.360   5.491   6.593
 1863SOL     OW 6487   1.032   2.798   0.629
 1863SOL    HW1 6488   0.943   2.841   0.646
 1863SOL    HW2 6489   1.077   2.778   0.716
 1864SOL     OW 6490   4.179   5.586   2.873
 1864SOL    HW1 6491   4.121   5.563   2.795
 1864SOL    HW2 6492   4.133   5.559   2.958
 1865SOL     OW 6493   5.329   1.845   6.532
 1865SOL    HW1 6494   5.290   1.866   6.621
 1865SOL    HW2 6495   5.259   1.854   6.461
 1866SOL     OW 6496   0.633   5.260   3.717
 1866SOL    HW1 6497   0.589   5.174   3.742
 1866SOL    HW2 6498   0.658   5.257   3.620
 1867SOL     OW 6499   2.004   2.326   1.415
 1867SOL    HW1 6500   2.097   2.352   1.443
 1867SOL    HW2 6501   1.947   2.407   1.406
 1868SOL     OW 6502   6.201   4.099   5.550
 1868SOL    HW1 6503   6.129   4.167   5.539
 1868SOL    HW2 6504   6.235   4.100   5.644
 1869SOL     OW 6505   4.529   1.329   4.111
 1869SOL    HW1 6506   4.615   1.279   4.122
 1869SOL    HW2 6507   4.547   1.427   4.119
 1870SOL     OW 6508   0.264   5.921   4.307
 1870SOL    HW1 6509   0.310   5.889   4.389
 1870SOL    HW2 6510   0.166   5.933   4.327
 1871SOL     OW 6511   0.388   6.399   0.726
 1871SOL    HW1 6512   0.430   6.483   0.759
 1871SOL    HW2 6513   0.459   6.335   0.696
 1872SOL     OW 6514   2.536   2.649   1.400
 1872SOL    HW1 6515   2.575   2.735   1.434
 1872SOL    HW2 6516   2.509   2.660   1.305
 1873SOL     OW 6517   0.182   1.581   0.632
 1873SOL    HW1 6518   0.141   1.490   0.628
 1873SOL    HW2 6519   0.273   1.574   0.674
 1874SOL     OW 6520   0.596   6.241   0.197
 1874SOL    HW1 6521   0.534   6.303   0.151
 1874SOL    HW2 6522   0.546   6.162   0.231
 1875SOL     OW 6523   6.724   4.816   0.375
 1875SOL    HW1 6524   6.712   4.896   0.434
 1875SOL    HW2 6525   6.772   4.844   0.291
 1876SOL     OW 6526   6.935   6.157   6.906
 1876SOL    HW1 6527   6.920   6.112   6.818
 1876SOL    HW2 6528   6.848   6.191   6.942
 1877SOL     OW 6529   0.727   0.904   2.696
 1877SOL    HW1 6530   0.743   0.815   2.740
 1877SOL    HW2 6531   0.810   0.959   2.702
 1878SOL     OW 6532   6.549   4.082   3.354
 1878SOL    HW1 6533   6.544   4.043   3.446
 1878SOL    HW2 6534   6.644   4.094   3.327
 1879SOL     OW 6535   4.169   5.764   4.594
 1879SOL    HW1 6536   4.252   5.799   4.637
 1879SOL    HW2 6537   4.157   5.667   4.617
 1880SOL     OW 6538   0.607   1.770   3.850
 1880SOL    HW1 6539   0.700   1.798   3.877
 1880SOL    HW2 6540   0.561   1.846   3.805
 1881SOL     OW 6541   0.816   1.366   4.446
 1881SOL    HW1 6542   0.802   1.372   4.545
 1881SOL    HW2 6543   0.889   1.428   4.418
 1882SOL     OW 6544   1.798   5.656   6.373
 1882SOL    HW1 6545   1.787   5.561   6.400
 1882SOL    HW2 6546   1.866   5.700   6.432
 1883SOL     OW 6547   1.492   2.676   2.382
 1883SOL    HW1 6548   1.544   2.754   2.348
 1883SOL    HW2 6549   1.526   2.651   2.473
 1884SOL     OW 6550   2.893   1.022   0.135
 1884SOL    HW1 6551   2.932   0.976   0.055
 1884SOL    HW2 6552   2.807   1.066   0.110
 1885SOL     OW 6553   0.230   2.096   1.458
 1885SOL    HW1 6554   0.218   2.072   1.362
 1885SOL    HW2 6555   0.282   2.181   1.466
 1886SOL     OW 6556   2.852   2.790   6.127
 1886SOL    HW1 6557   2.939   2.815   6.171
 1886SOL    HW2 6558   2.781   2.784   6.197
 1887SOL     OW 6559   0.752   6.663   5.224
 1887SOL    HW1 6560   0.734   6.624   5.314
 1887SOL    HW2 6561   0.716   6.756   5.220
 1888SOL     OW 6562   2.440   1.958   6.150
 1888SOL    HW1 6563   2.371   2.001   6.092
 1888SOL    HW2 6564   2.528   1.957   6.104
 1889SOL     OW 6565   3.882   2.739   0.187
 1889SOL    HW1 6566   3.785   2.721   0.203
 1889SOL    HW2 6567   3.901   2.835   0.210
 1890SOL     OW 6568   6.343   5.337   6.515
 1890SOL    HW1 6569   6.327   5.355   6.612
 1890SOL    HW2 6570   6.430   5.377   6.487
 1891SOL     OW 6571   6.033   4.078   5.064
 1891SOL    HW1 6572   6.029   4.177   5.050
 1891SOL    HW2 6573   5.957   4.050   5.122
 1892SOL     OW 6574   4.015   6.118   1.614
 1892SOL    HW1 6575   4.059   6.082   1.532
 1892SOL    HW2 6576   4.071   6.192   1.652
 1893SOL     OW 6577   3.818   2.112   4.002
 1893SOL    HW1 6578   3.749   2.112   4.075
 1893SOL    HW2 6579   3.902   2.070   4.036
 1894SOL     OW 6580   4.043   4.027   1.016
 1894SOL    HW1 6581   4.076   4.000   1.107
 1894SOL    HW2 6582   4.016   3.945   0.965
 1895SOL     OW 6583   5.032   0.638   3.304
 1895SOL    HW1 6584   5.126   0.606   3.291
 1895SOL    HW2 6585   4.970   0.559   3.299
 1896SOL     OW 6586   6.831   1.123   5.951
 1896SOL    HW1 6587   6.826   1.045   6.014
 1896SOL    HW2 6588   6.872   1.201   5.997
 1897SOL     OW 6589   5.921   4.653   3.370
 1897SOL    HW1 6590   5.912   4.693   3.279
 1897SOL    HW2 6591   5.995   4.698   3.420
 1898SOL     OW 6592   5.929   5.065   6.884
 1898SOL    HW1 6593   5.914   5.015   6.799
 1898SOL    HW2 6594   5.864   5.032   6.953
 1899SOL     OW 6595   1.170   3.313   3.003
 1899SOL    HW1 6596   1.190   3.407   2.975
 1899SOL    HW2 6597   1.107   3.271   2.937
 1900SOL     OW 6598   2.318   5.655   6.908
 1900SOL    HW1 6599   2.226   5.692   6.895
 1900SOL    HW2 6600   2.372   5.672   6.826
 1901SOL     OW 6601   1.551   1.361   6.763
 1901SOL    HW1 6602   1.561   1.442   6.706
 1901SOL    HW2 6603   1.601   1.373   6.849
 1902SOL     OW 6604   1.144   3.020   4.736
 1902SOL    HW1 6605   1.185   3.007   4.646
 1902SOL    HW2 6606   1.216   3.023   4.805
 1903SOL     OW 6607   6.230   3.208   3.820
 1903SOL    HW1 6608   6.203   3.142   3.750
 1903SOL    HW2 6609   6.190   3.181   3.907
 1904SOL     OW 6610   6.717   6.880   3.652
 1904SOL    HW1 6611   6.792   6.944   3.636
 1904SOL    HW2 6612   6.729   6.836   3.741
 1905SOL     OW 6613   6.873   2.976   3.687
 1905SOL    HW1 6614   6.783   3.019   3.679
 1905SOL    HW2 6615   6.943   3.042   3.662
 1906SOL     OW 6616   2.323   6.971   0.610
 1906SOL    HW1 6617   2.423   6.963   0.610
 1906SOL    HW2 6618   2.296   0.024   0.551
 1907SOL     OW 6619   3.845   6.212   3.409
 1907SOL    HW1 6620   3.938   6.239   3.432
 1907SOL    HW2 6621   3.824   6.241   3.315
 1908SOL     OW 6622   4.862   1.669   6.332
 1908SOL    HW1 6623   4.930   1.629   6.394
 1908SOL    HW2 6624   4.909   1.710   6.254
 1909SOL     OW 6625   2.769   5.054   4.429
 1909SOL    HW1 6626   2.763   4.964   4.473
 1909SOL    HW2 6627   2.864   5.074   4.408
 1910SOL     OW 6628   5.201   1.766   5.495
 1910SOL    HW1 6629   5.300   1.761   5.507
 1910SOL    HW2 6630   5.173   1.861   5.485
 1911SOL     OW 6631   6.415   3.511   6.070
 1911SOL    HW1 6632   6.357   3.433   6.051
 1911SOL    HW2 6633   6.417   3.572   5.990
 1912SOL     OW 6634   3.839   0.378   3.328
 1912SOL    HW1 6635   3.769   0.333   3.274
 1912SOL    HW2 6636   3.925   0.381   3.276
 1913SOL     OW 6637   1.376   4.356   5.501
 1913SOL    HW1 6638   1.405   4.392   5.412
 1913SOL    HW2 6639   1.353   4.432   5.561
 1914SOL     OW 6640   4.128   1.966   5.609
 1914SOL    HW1 6641   4.129   1.874   5.647
 1914SOL    HW2 6642   4.222   1.995   5.588
 1915SOL     OW 6643   3.105   0.412   5.745
 1915SOL    HW1 6644   3.120   0.387   5.841
 1915SOL    HW2 6645   3.186   0.388   5.692
 1916SOL     OW 6646   3.508   6.421   1.715
 1916SOL    HW1 6647   3.438   6.406   1.784
 1916SOL    HW2 6648   3.553   6.334   1.694
 1917SOL     OW 6649   2.978   3.205   4.253
 1917SOL    HW1 6650   3.058   3.265   4.250
 1917SOL    HW2 6651   2.906   3.243   4.195
 1918SOL     OW 6652   5.592   6.827   4.389
 1918SOL    HW1 6653   5.609   6.729   4.399
 1918SOL    HW2 6654   5.528   6.857   4.461
 1919SOL     OW 6655   6.560   6.862   1.572
 1919SOL    HW1 6656   6.601   6.802   1.641
 1919SOL    HW2 6657   6.608   6.950   1.571
 1920SOL     OW 6658   6.730   5.973   4.349
 1920SOL    HW1 6659   6.697   5.915   4.274
 1920SOL    HW2 6660   6.691   5.940   4.436
 1921SOL     OW 6661   1.080   6.719   6.684
 1921SOL    HW1 6662   1.069   6.641   6.746
 1921SOL    HW2 6663   1.139   6.693   6.608
 1922SOL     OW 6664   3.531   4.357   0.743
 1922SOL    HW1 6665   3.495   4.444   0.779
 1922SOL    HW2 6666   3.629   4.367   0.725
 1923SOL     OW 6667   1.546   1.761   0.891
 1923SOL    HW1 6668   1.519   1.756   0.795
 1923SOL    HW2 6669   1.644   1.780   0.897
 1924SOL     OW 6670   0.486   4.642   1.579
 1924SOL    HW1 6671   0.419   4.715   1.591
 1924SOL    HW2 6672   0.448   4.571   1.520
 1925SOL     OW 6673   2.980   3.956   1.349
 1925SOL    HW1 6674   2.992   3.862   1.317
 1925SOL    HW2 6675   2.918   4.004   1.286
 1926SOL     OW 6676   1.322   6.893   3.795
 1926SOL    HW1 6677   1.299   6.958   3.722
 1926SOL    HW2 6678   1.416   6.910   3.825
 1927SOL     OW 6679   3.929   3.685   6.610
 1927SOL    HW1 6680   3.886   3.701   6.521
 1927SOL    HW2 6681   4.027   3.706   6.604
 1928SOL     OW 6682   6.500   4.297   5.552
 1928SOL    HW1 6683   6.477   4.268   5.459
 1928SOL    HW2 6684   6.507   4.217   5.611
 1929SOL     OW 6685   1.363   0.176   1.790
 1929SOL    HW1 6686   1.425   0.177   1.868
 1929SOL    HW2 6687   1.272   0.146   1.819
 1930SOL     OW 6688   5.733   3.758   6.044
 1930SOL    HW1 6689   5.637   3.784   6.034
 1930SOL    HW2 6690   5.744   3.661   6.019
 1931SOL     OW 6691   0.695   2.850   4.555
 1931SOL    HW1 6692   0.720   2.903   4.636
 1931SOL    HW2 6693   0.603   2.812   4.567
 1932SOL     OW 6694   6.031   3.830   1.342
 1932SOL    HW1 6695   6.090   3.880   1.406
 1932SOL    HW2 6696   6.087   3.791   1.270
 1933SOL     OW 6697   2.950   4.587   1.367
 1933SOL    HW1 6698   2.894   4.536   1.432
 1933SOL    HW2 6699   3.010   4.649   1.417
 1934SOL     OW 6700   0.923   6.017   5.528
 1934SOL    HW1 6701   0.930   5.960   5.609
 1934SOL    HW2 6702   0.868   6.098   5.549
 1935SOL     OW 6703   2.235   1.019   3.646
 1935SOL    HW1 6704   2.258   0.983   3.736
 1935SOL    HW2 6705   2.136   1.027   3.637
 1936SOL     OW 6706   5.951   5.436   5.340
 1936SOL    HW1 6707   5.933   5.415   5.436
 1936SOL    HW2 6708   5.875   5.405   5.284
 1937SOL     OW 6709   3.776   6.516   1.705
 1937SOL    HW1 6710   3.687   6.491   1.669
 1937SOL    HW2 6711   3.795   6.612   1.682
 1938SOL     OW 6712   4.784   1.000   3.830
 1938SOL    HW1 6713   4.796   0.998   3.929
 1938SOL    HW2 6714   4.870   1.026   3.787
 1939SOL     OW 6715   1.880   1.117   3.205
 1939SOL    HW1 6716   1.967   1.116   3.253
 1939SOL    HW2 6717   1.830   1.033   3.225
 1940SOL     OW 6718   0.221   5.044   0.037
 1940SOL    HW1 6719   0.266   4.969   7.011
 1940SOL    HW2 6720   0.168   5.007   0.113
 1941SOL     OW 6721   4.743   4.137   2.905
 1941SOL    HW1 6722   4.715   4.084   2.825
 1941SOL    HW2 6723   4.794   4.079   2.968
 1942SOL     OW 6724   6.004   4.793   2.449
 1942SOL    HW1 6725   6.073   4.721   2.457
 1942SOL    HW2 6726   6.047   4.882   2.465
 1943SOL     OW 6727   2.382   5.127   2.942
 1943SOL    HW1 6728   2.296   5.155   2.983
 1943SOL    HW2 6729   2.458   5.155   3.001
 1944SOL     OW 6730   6.800   1.355   1.024
 1944SOL    HW1 6731   6.839   1.270   1.059
 1944SOL    HW2 6732   6.748   1.401   1.096
 1945SOL     OW 6733   3.236   4.994   4.009
 1945SOL    HW1 6734   3.145   5.001   3.968
 1945SOL    HW2 6735   3.227   4.971   4.106
 1946SOL     OW 6736   1.224   0.404   6.570
 1946SOL    HW1 6737   1.159   0.328   6.564
 1946SOL    HW2 6738   1.233   0.432   6.665
 1947SOL     OW 6739   5.851   5.523   3.585
 1947SOL    HW1 6740   5.925   5.488   3.642
 1947SOL    HW2 6741   5.767   5.532   3.640
 1948SOL     OW 6742   6.425   5.314   4.323
 1948SOL    HW1 6743   6.493   5.242   4.338
 1948SOL    HW2 6744   6.447   5.393   4.380
 1949SOL     OW 6745   4.206   4.082   6.594
 1949SOL    HW1 6746   4.192   4.043   6.503
 1949SOL    HW2 6747   4.281   4.149   6.590
 1950SOL     OW 6748   3.264   4.011   6.550
 1950SOL    HW1 6749   3.165   4.016   6.539
 1950SOL    HW2 6750   3.289   4.038   6.643
 1951SOL     OW 6751   6.153   1.672   6.756
 1951SOL    HW1 6752   6.252   1.657   6.754
 1951SOL    HW2 6753   6.107   1.591   6.719
 1952SOL     OW 6754   3.693   2.240   6.957
 1952SOL    HW1 6755   3.629   2.308   6.919
 1952SOL    HW2 6756   3.786   2.276   6.953
 1953SOL     OW 6757   6.910   2.610   6.419
 1953SOL    HW1 6758   6.906   2.523   6.468
 1953SOL    HW2 6759   6.968   2.600   6.338
 1954SOL     OW 6760   3.470   2.118   4.131
 1954SOL    HW1 6761   3.422   2.119   4.043
 1954SOL    HW2 6762   3.404   2.126   4.205
 1955SOL     OW 6763   0.103   6.439   3.074
 1955SOL    HW1 6764   0.062   6.528   3.057
 1955SOL    HW2 6765   0.115   6.426   3.172
 1956SOL     OW 6766   6.249   5.618   2.535
 1956SOL    HW1 6767   6.332   5.663   2.502
 1956SOL    HW2 6768   6.169   5.659   2.491
 1957SOL     OW 6769   0.280   6.555   5.134
 1957SOL    HW1 6770   0.262   6.651   5.117
 1957SOL    HW2 6771   0.299   6.541   5.231
 1958SOL     OW 6772   5.521   3.204   5.819
 1958SOL    HW1 6773   5.434   3.177   5.777
 1958SOL    HW2 6774   5.503   3.260   5.899
 1959SOL     OW 6775   1.604   2.353   6.212
 1959SOL    HW1 6776   1.596   2.260   6.246
 1959SOL    HW2 6777   1.658   2.354   6.128
 1960SOL     OW 6778   5.394   5.485   0.808
 1960SOL    HW1 6779   5.465   5.484   0.878
 1960SOL    HW2 6780   5.312   5.437   0.842
 1961SOL     OW 6781   5.625   4.116   3.705
 1961SOL    HW1 6782   5.582   4.195   3.750
 1961SOL    HW2 6783   5.648   4.047   3.773
 1962SOL     OW 6784   1.159   6.262   3.673
 1962SOL    HW1 6785   1.247   6.298   3.641
 1962SOL    HW2 6786   1.175   6.185   3.734
 1963SOL     OW 6787   1.195   0.297   2.987
 1963SOL    HW1 6788   1.131   0.249   3.047
 1963SOL    HW2 6789   1.145   0.357   2.925
 1964SOL     OW 6790   5.021   3.141   3.012
 1964SOL    HW1 6791   4.983   3.211   2.952
 1964SOL    HW2 6792   5.050   3.182   3.098
 1965SOL     OW 6793   1.247   3.694   3.512
 1965SOL    HW1 6794   1.259   3.601   3.547
 1965SOL    HW2 6795   1.237   3.691   3.413
 1966SOL     OW 6796   6.653   5.589   5.345
 1966SOL    HW1 6797   6.637   5.574   5.442
 1966SOL    HW2 6798   6.732   5.650   5.333
 1967SOL     OW 6799   4.622   2.737   5.194
 1967SOL    HW1 6800   4.721   2.737   5.209
 1967SOL    HW2 6801   4.580   2.807   5.251
 1968SOL     OW 6802   3.500   6.142   6.943
 1968SOL    HW1 6803   3.514   6.047   6.970
 1968SOL    HW2 6804   3.439   6.186   7.009
 1969SOL     OW 6805   0.310   2.358   1.468
 1969SOL    HW1 6806   0.238   2.389   1.406
 1969SOL    HW2 6807   0.358   2.438   1.505
 1970SOL     OW 6808   1.591   0.338   4.482
 1970SOL    HW1 6809   1.621   0.430   4.508
 1970SOL    HW2 6810   1.555   0.290   4.562
 1971SOL     OW 6811   0.039   6.759   6.774
 1971SOL    HW1 6812   7.019   6.750   6.864
 1971SOL    HW2 6813   6.996   6.794   6.708
 1972SOL     OW 6814   0.834   4.522   4.091
 1972SOL    HW1 6815   0.903   4.594   4.103
 1972SOL    HW2 6816   0.743   4.564   4.087
 1973SOL     OW 6817   3.172   3.132   1.605
 1973SOL    HW1 6818   3.229   3.059   1.643
 1973SOL    HW2 6819   3.221   3.219   1.614
 1974SOL     OW 6820   5.469   0.738   4.148
 1974SOL    HW1 6821   5.388   0.723   4.093
 1974SOL    HW2 6822   5.443   0.753   4.243
 1975SOL     OW 6823   3.430   0.480   4.198
 1975SOL    HW1 6824   3.480   0.556   4.159
 1975SOL    HW2 6825   3.355   0.515   4.254
 1976SOL     OW 6826   0.020   5.955   0.200
 1976SOL    HW1 6827   6.948   5.943   0.175
 1976SOL    HW2 6828   0.027   6.027   0.269
 1977SOL     OW 6829   1.161   2.388   4.843
 1977SOL    HW1 6830   1.175   2.334   4.760
 1977SOL    HW2 6831   1.211   2.474   4.835
 1978SOL     OW 6832   6.528   2.016   4.348
 1978SOL    HW1 6833   6.589   1.996   4.425
 1978SOL    HW2 6834   6.436   2.035   4.382
 1979SOL     OW 6835   6.156   4.701   3.829
 1979SOL    HW1 6836   6.136   4.770   3.760
 1979SOL    HW2 6837   6.158   4.745   3.920
 1980SOL     OW 6838   3.823   0.204   1.425
 1980SOL    HW1 6839   3.806   0.116   1.380
 1980SOL    HW2 6840   3.753   0.270   1.397
 1981SOL     OW 6841   4.968   2.950   1.905
 1981SOL    HW1 6842   4.963   2.852   1.887
 1981SOL    HW2 6843   4.880   2.982   1.940
 1982SOL     OW 6844   5.761   5.383   4.574
 1982SOL    HW1 6845   5.790   5.287   4.571
 1982SOL    HW2 6846   5.712   5.400   4.660
 1983SOL     OW 6847   0.946   3.338   3.417
 1983SOL    HW1 6848   1.020   3.404   3.403
 1983SOL    HW2 6849   0.951   3.301   3.509
 1984SOL     OW 6850   4.204   1.819   6.203
 1984SOL    HW1 6851   4.203   1.845   6.106
 1984SOL    HW2 6852   4.178   1.722   6.211
 1985SOL     OW 6853   1.246   0.225   1.333
 1985SOL    HW1 6854   1.240   0.192   1.239
 1985SOL    HW2 6855   1.303   0.308   1.336
 1986SOL     OW 6856   1.634   2.110   6.757
 1986SOL    HW1 6857   1.598   2.202   6.761
 1986SOL    HW2 6858   1.713   2.102   6.819
 1987SOL     OW 6859   2.254   3.470   0.872
 1987SOL    HW1 6860   2.204   3.507   0.950
 1987SOL    HW2 6861   2.231   3.373   0.860
 1988SOL     OW 6862   4.848   4.010   0.125
 1988SOL    HW1 6863   4.765   4.063   0.142
 1988SOL    HW2 6864   4.920   4.041   0.188
 1989SOL     OW 6865   2.361   0.172   4.080
 1989SOL    HW1 6866   2.262   0.163   4.089
 1989SOL    HW2 6867   2.383   0.258   4.034
 1990SOL     OW 6868   2.922   1.119   1.255
 1990SOL    HW1 6869   2.889   1.119   1.160
 1990SOL    HW2 6870   3.021   1.100   1.255
 1991SOL     OW 6871   3.127   5.567   4.169
 1991SOL    HW1 6872   3.126   5.470   4.191
 1991SOL    HW2 6873   3.219   5.604   4.183
 1992SOL     OW 6874   2.264   6.455   5.651
 1992SOL    HW1 6875   2.210   6.481   5.731
 1992SOL    HW2 6876   2.234   6.508   5.572
 1993SOL     OW 6877   3.748   3.522   5.600
 1993SOL    HW1 6878   3.792   3.565   5.521
 1993SOL    HW2 6879   3.650   3.545   5.601
 1994SOL     OW 6880   6.567   2.105   2.271
 1994SOL    HW1 6881   6.607   2.142   2.186
 1994SOL    HW2 6882   6.514   2.023   2.250
 1995SOL     OW 6883   5.952   1.765   1.903
 1995SOL    HW1 6884   5.906   1.821   1.834
 1995SOL    HW2 6885   6.051   1.784   1.900
 1996SOL     OW 6886   3.594   4.442   0.061
 1996SOL    HW1 6887   3.568   4.352   0.025
 1996SOL    HW2 6888   3.620   4.432   0.157
 1997SOL     OW 6889   4.980   0.504   4.073
 1997SOL    HW1 6890   5.019   0.580   4.022
 1997SOL    HW2 6891   5.052   0.438   4.096
 1998SOL     OW 6892   2.743   4.145   6.220
 1998SOL    HW1 6893   2.795   4.215   6.170
 1998SOL    HW2 6894   2.663   4.187   6.262
 1999SOL     OW 6895   2.594   0.006   2.238
 1999SOL    HW1 6896   2.578   6.942   2.191
 1999SOL    HW2 6897   2.564   7.022   2.333
 2000SOL     OW 6898   4.099   1.337   5.103
 2000SOL    HW1 6899   4.102   1.238   5.096
 2000SOL    HW2 6900   4.022   1.372   5.051
 2001SOL     OW 6901   2.938   1.359   0.985
 2001SOL    HW1 6902   3.000   1.387   1.059
 2001SOL    HW2 6903   2.910   1.264   1.000
 2002SOL     OW 6904   1.996   5.264   5.934
 2002SOL    HW1 6905   2.038   5.353   5.918
 2002SOL    HW2 6906   2.056   5.209   5.992
 2003SOL     OW 6907   5.982   6.184   3.232
 2003SOL    HW1 6908   6.034   6.098   3.225
 2003SOL    HW2 6909   5.978   6.212   3.327
 2004SOL     OW 6910   3.276   0.896   5.809
 2004SOL    HW1 6911   3.322   0.881   5.896
 2004SOL    HW2 6912   3.331   0.856   5.735
 2005SOL     OW 6913   2.029   5.540   5.921
 2005SOL    HW1 6914   2.096   5.604   5.884
 2005SOL    HW2 6915   2.012   5.563   6.017
 2006SOL     OW 6916   4.313   5.263   4.599
 2006SOL    HW1 6917   4.393   5.220   4.641
 2006SOL    HW2 6918   4.339   5.352   4.562
 2007SOL     OW 6919   5.339   5.636   0.598
 2007SOL    HW1 6920   5.364   5.601   0.689
 2007SOL    HW2 6921   5.301   5.728   0.607
 2008SOL     OW 6922   6.906   6.438   3.515
 2008SOL    HW1 6923   6.876   6.435   3.610
 2008SOL    HW2 6924   7.000   6.404   3.509
 2009SOL     OW 6925   0.060   0.565   2.044
 2009SOL    HW1 6926   0.005   0.524   2.117
 2009SOL    HW2 6927   0.133   0.501   2.019
 2010SOL     OW 6928   0.924   0.320   0.446
 2010SOL    HW1 6929   0.851   0.365   0.497
 2010SOL    HW2 6930   0.925   0.355   0.352
 2011SOL     OW 6931   6.462   1.768   5.033
 2011SOL    HW1 6932   6.443   1.677   5.071
 2011SOL    HW2 6933   6.449   1.837   5.103
 2012SOL     OW 6934   1.548   4.465   0.999
 2012SOL    HW1 6935   1.576   4.552   1.039
 2012SOL    HW2 6936   1.607   4.443   0.921
 2013SOL     OW 6937   5.631   1.875   2.567
 2013SOL    HW1 6938   5.611   1.786   2.526
 2013SOL    HW2 6939   5.709   1.867   2.629
 2014SOL     OW 6940   1.740   5.498   3.805
 2014SOL    HW1 6941   1.732   5.596   3.790
 2014SOL    HW2 6942   1.837   5.472   3.805
 2015SOL     OW 6943   3.292   0.499   0.048
 2015SOL    HW1 6944   3.306   0.500   6.973
 2015SOL    HW2 6945   3.248   0.584   0.077
 2016SOL     OW 6946   0.771   5.533   4.336
 2016SOL    HW1 6947   0.863   5.501   4.361
 2016SOL    HW2 6948   0.706   5.458   4.345
 2017SOL     OW 6949   2.557   5.700   3.029
 2017SOL    HW1 6950   2.595   5.713   3.120
 2017SOL    HW2 6951   2.495   5.622   3.029
 2018SOL     OW 6952   0.450   5.527   5.971
 2018SOL    HW1 6953   0.495   5.593   6.032
 2018SOL    HW2 6954   0.377   5.572   5.920
 2019SOL     OW 6955   5.952   2.220   1.853
 2019SOL    HW1 6956   6.009   2.197   1.931
 2019SOL    HW2 6957   5.984   2.170   1.772
 2020SOL     OW 6958   2.544   5.258   3.325
 2020SOL    HW1 6959   2.488   5.175   3.328
 2020SOL    HW2 6960   2.485   5.337   3.306
 2021SOL     OW 6961   1.702   0.959   2.307
 2021SOL    HW1 6962   1.758   0.903   2.246
 2021SOL    HW2 6963   1.605   0.940   2.290
 2022SOL     OW 6964   2.149   3.682   1.655
 2022SOL    HW1 6965   2.171   3.775   1.686
 2022SOL    HW2 6966   2.118   3.628   1.733
 2023SOL     OW 6967   6.497   1.165   6.325
 2023SOL    HW1 6968   6.424   1.190   6.389
 2023SOL    HW2 6969   6.492   1.067   6.305
 2024SOL     OW 6970   6.012   0.399   3.567
 2024SOL    HW1 6971   5.964   0.383   3.481
 2024SOL    HW2 6972   6.001   0.321   3.627
 2025SOL     OW 6973   0.420   1.477   1.807
 2025SOL    HW1 6974   0.517   1.455   1.808
 2025SOL    HW2 6975   0.382   1.466   1.898
 2026SOL     OW 6976   2.489   1.782   5.619
 2026SOL    HW1 6977   2.457   1.776   5.714
 2026SOL    HW2 6978   2.539   1.699   5.596
 2027SOL     OW 6979   1.281   1.245   2.136
 2027SOL    HW1 6980   1.320   1.244   2.227
 2027SOL    HW2 6981   1.347   1.208   2.070
 2028SOL     OW 6982   3.436   2.461   0.070
 2028SOL    HW1 6983   3.448   2.393   0.142
 2028SOL    HW2 6984   3.514   2.455   0.006
 2029SOL     OW 6985   0.886   1.378   6.196
 2029SOL    HW1 6986   0.913   1.290   6.157
 2029SOL    HW2 6987   0.875   1.368   6.295
 2030SOL     OW 6988   1.894   1.986   3.114
 2030SOL    HW1 6989   1.966   1.953   3.175
 2030SOL    HW2 6990   1.824   2.034   3.167
 2031SOL     OW 6991   5.703   6.611   1.957
 2031SOL    HW1 6992   5.785   6.607   1.900
 2031SOL    HW2 6993   5.729   6.619   2.053
 2032SOL     OW 6994   4.923   6.149   0.318
 2032SOL    HW1 6995   4.866   6.156   0.237
 2032SOL    HW2 6996   4.954   6.240   0.345
 2033SOL     OW 6997   5.429   4.491   6.284
 2033SOL    HW1 6998   5.503   4.483   6.217
 2033SOL    HW2 6999   5.341   4.487   6.236
 2034SOL     OW 7000   2.362   6.866   2.811
 2034SOL    HW1 7001   2.423   6.790   2.786
 2034SOL    HW2 7002   2.335   6.915   2.728
 2035SOL     OW 7003   0.796   1.578   2.568
 2035SOL    HW1 7004   0.732   1.503   2.559
 2035SOL    HW2 7005   0.890   1.543   2.566
 2036SOL     OW 7006   0.504   5.558   0.672
 2036SOL    HW1 7007   0.432   5.511   0.621
 2036SOL    HW2 7008   0.558   5.614   0.609
 2037SOL     OW 7009   6.712   2.435   5.644
 2037SOL    HW1 7010   6.669   2.415   5.555
 2037SOL    HW2 7011   6.809   2.455   5.630
 2038SOL     OW 7012   0.470   1.449   4.454
 2038SOL    HW1 7013   0.443   1.546   4.453
 2038SOL    HW2 7014   0.509   1.427   4.543
 2039SOL     OW 7015   6.636   5.342   3.136
 2039SOL    HW1 7016   6.720   5.390   3.113
 2039SOL    HW2 7017   6.561   5.376   3.080
 2040SOL     OW 7018   3.840   2.921   4.720
 2040SOL    HW1 7019   3.884   2.847   4.770
 2040SOL    HW2 7020   3.877   2.926   4.627
 2041SOL     OW 7021   5.836   4.542   5.500
 2041SOL    HW1 7022   5.795   4.452   5.492
 2041SOL    HW2 7023   5.837   4.570   5.596
 2042SOL     OW 7024   4.974   5.087   0.418
 2042SOL    HW1 7025   5.068   5.057   0.406
 2042SOL    HW2 7026   4.933   5.039   0.496
 2043SOL     OW 7027   5.676   4.507   2.559
 2043SOL    HW1 7028   5.650   4.427   2.506
 2043SOL    HW2 7029   5.731   4.569   2.502
 2044SOL     OW 7030   5.894   0.317   1.604
 2044SOL    HW1 7031   5.816   0.370   1.638
 2044SOL    HW2 7032   5.887   0.306   1.505
 2045SOL     OW 7033   2.545   4.631   6.019
 2045SOL    HW1 7034   2.510   4.538   6.013
 2045SOL    HW2 7035   2.552   4.670   5.927
 2046SOL     OW 7036   6.305   0.431   4.326
 2046SOL    HW1 7037   6.217   0.477   4.331
 2046SOL    HW2 7038   6.374   0.484   4.376
 2047SOL     OW 7039   5.225   2.604   0.995
 2047SOL    HW1 7040   5.240   2.661   0.913
 2047SOL    HW2 7041   5.288   2.633   1.067
 2048SOL     OW 7042   4.078   0.472   6.863
 2048SOL    HW1 7043   4.087   0.568   6.890
 2048SOL    HW2 7044   4.167   0.426   6.874
 2049SOL     OW 7045   4.070   1.649   0.172
 2049SOL    HW1 7046   3.996   1.640   0.105
 2049SOL    HW2 7047   4.105   1.743   0.171
 2050SOL     OW 7048   6.213   2.820   3.796
 2050SOL    HW1 7049   6.213   2.894   3.730
 2050SOL    HW2 7050   6.228   2.857   3.888
 2051SOL     OW 7051   1.240   6.008   0.330
 2051SOL    HW1 7052   1.270   5.994   0.236
 2051SOL    HW2 7053   1.214   6.103   0.344
 2052SOL     OW 7054   0.757   2.917   6.638
 2052SOL    HW1 7055   0.798   2.999   6.678
 2052SOL    HW2 7056   0.703   2.943   6.558
 2053SOL     OW 7057   6.483   1.169   6.693
 2053SOL    HW1 7058   6.524   1.078   6.698
 2053SOL    HW2 7059   6.389   1.162   6.661
 2054SOL     OW 7060   5.909   2.627   0.626
 2054SOL    HW1 7061   6.001   2.598   0.600
 2054SOL    HW2 7062   5.895   2.609   0.723
 2055SOL     OW 7063   5.453   2.352   3.390
 2055SOL    HW1 7064   5.428   2.314   3.301
 2055SOL    HW2 7065   5.372   2.388   3.435
 2056SOL     OW 7066   2.109   0.887   3.119
 2056SOL    HW1 7067   2.189   0.880   3.059
 2056SOL    HW2 7068   2.029   0.914   3.066
 2057SOL     OW 7069   6.120   2.693   4.090
 2057SOL    HW1 7070   6.189   2.765   4.082
 2057SOL    HW2 7071   6.156   2.608   4.052
 2058SOL     OW 7072   0.184   2.091   2.701
 2058SOL    HW1 7073   0.123   2.164   2.670
 2058SOL    HW2 7074   0.196   2.097   2.800
 2059SOL     OW 7075   2.095   1.245   6.745
 2059SOL    HW1 7076   2.113   1.296   6.661
 2059SOL    HW2 7077   2.006   1.274   6.782
 2060SOL     OW 7078   0.088   4.470   1.768
 2060SOL    HW1 7079   0.142   4.439   1.689
 2060SOL    HW2 7080   0.110   4.414   1.848
 2061SOL     OW 7081   0.243   1.316   2.490
 2061SOL    HW1 7082   0.208   1.330   2.397
 2061SOL    HW2 7083   0.177   1.262   2.542
 2062SOL     OW 7084   4.558   0.171   2.193
 2062SOL    HW1 7085   4.575   0.134   2.102
 2062SOL    HW2 7086   4.516   0.261   2.185
 2063SOL     OW 7087   1.930   2.947   6.101
 2063SOL    HW1 7088   1.881   3.033   6.117
 2063SOL    HW2 7089   1.867   2.878   6.067
 2064SOL     OW 7090   0.731   2.327   5.645
 2064SOL    HW1 7091   0.660   2.376   5.595
 2064SOL    HW2 7092   0.743   2.369   5.735
 2065SOL     OW 7093   6.101   3.530   2.831
 2065SOL    HW1 7094   6.108   3.623   2.795
 2065SOL    HW2 7095   6.023   3.483   2.788
 2066SOL     OW 7096   0.196   6.789   5.045
 2066SOL    HW1 7097   0.257   6.819   4.971
 2066SOL    HW2 7098   0.112   6.843   5.043
 2067SOL     OW 7099   6.112   6.775   0.504
 2067SOL    HW1 7100   6.107   6.873   0.487
 2067SOL    HW2 7101   6.205   6.751   0.531
 2068SOL     OW 7102   2.269   1.401   5.313
 2068SOL    HW1 7103   2.359   1.393   5.268
 2068SOL    HW2 7104   2.228   1.488   5.290
 2069SOL     OW 7105   0.789   3.001   1.931
 2069SOL    HW1 7106   0.748   2.923   1.977
 2069SOL    HW2 7107   0.727   3.036   1.861
 2070SOL     OW 7108   1.538   0.722   2.485
 2070SOL    HW1 7109   1.475   0.679   2.551
 2070SOL    HW2 7110   1.597   0.787   2.533
 2071SOL     OW 7111   0.217   6.711   4.394
 2071SOL    HW1 7112   0.305   6.723   4.349
 2071SOL    HW2 7113   0.181   6.619   4.375
 2072SOL     OW 7114   4.682   6.170   1.742
 2072SOL    HW1 7115   4.681   6.071   1.755
 2072SOL    HW2 7116   4.734   6.213   1.815
 2073SOL     OW 7117   3.703   6.465   5.285
 2073SOL    HW1 7118   3.669   6.376   5.256
 2073SOL    HW2 7119   3.727   6.462   5.382
 2074SOL     OW 7120   6.675   1.778   1.018
 2074SOL    HW1 7121   6.750   1.786   0.951
 2074SOL    HW2 7122   6.713   1.761   1.108
 2075SOL     OW 7123   3.812   3.572   0.883
 2075SOL    HW1 7124   3.878   3.550   0.956
 2075SOL    HW2 7125   3.726   3.525   0.901
 2076SOL     OW 7126   5.273   5.889   0.597
 2076SOL    HW1 7127   5.175   5.899   0.611
 2076SOL    HW2 7128   5.309   5.971   0.551
 2077SOL     OW 7129   5.919   1.553   2.556
 2077SOL    HW1 7130   5.908   1.575   2.653
 2077SOL    HW2 7131   5.983   1.618   2.515
 2078SOL     OW 7132   2.807   5.447   6.581
 2078SOL    HW1 7133   2.810   5.547   6.586
 2078SOL    HW2 7134   2.745   5.419   6.508
 2079SOL     OW 7135   5.935   0.654   3.624
 2079SOL    HW1 7136   5.912   0.695   3.536
 2079SOL    HW2 7137   5.966   0.560   3.610
 2080SOL     OW 7138   2.811   2.250   4.955
 2080SOL    HW1 7139   2.758   2.311   5.014
 2080SOL    HW2 7140   2.908   2.266   4.968
 2081SOL     OW 7141   1.397   6.628   5.034
 2081SOL    HW1 7142   1.389   6.534   5.001
 2081SOL    HW2 7143   1.454   6.681   4.971
 2082SOL     OW 7144   5.417   0.803   0.651
 2082SOL    HW1 7145   5.365   0.852   0.721
 2082SOL    HW2 7146   5.385   0.831   0.560
 2083SOL     OW 7147   3.735   5.148   6.878
 2083SOL    HW1 7148   3.745   5.216   6.805
 2083SOL    HW2 7149   3.638   5.131   6.895
 2084SOL     OW 7150   0.012   2.245   3.313
 2084SOL    HW1 7151   0.011   2.344   3.302
 2084SOL    HW2 7152   6.942   2.210   3.313
 2085SOL     OW 7153   4.845   0.967   6.288
 2085SOL    HW1 7154   4.861   1.039   6.221
 2085SOL    HW2 7155   4.890   0.991   6.374
 2086SOL     OW 7156   3.455   4.882   0.772
 2086SOL    HW1 7157   3.526   4.879   0.701
 2086SOL    HW2 7158   3.459   4.971   0.818
 2087SOL     OW 7159   5.615   6.514   2.411
 2087SOL    HW1 7160   5.577   6.466   2.490
 2087SOL    HW2 7161   5.705   6.551   2.435
 2088SOL     OW 7162   3.465   6.662   1.076
 2088SOL    HW1 7163   3.403   6.668   0.998
 2088SOL    HW2 7164   3.412   6.655   1.160
 2089SOL     OW 7165   4.706   1.359   0.213
 2089SOL    HW1 7166   4.667   1.316   0.131
 2089SOL    HW2 7167   4.783   1.418   0.186
 2090SOL     OW 7168   3.800   3.657   4.631
 2090SOL    HW1 7169   3.786   3.667   4.729
 2090SOL    HW2 7170   3.883   3.603   4.615
 2091SOL     OW 7171   0.518   5.894   0.680
 2091SOL    HW1 7172   0.550   5.829   0.611
 2091SOL    HW2 7173   0.420   5.909   0.668
 2092SOL     OW 7174   5.874   6.136   1.147
 2092SOL    HW1 7175   5.899   6.174   1.237
 2092SOL    HW2 7176   5.870   6.209   1.080
 2093SOL     OW 7177   1.163   2.834   2.079
 2093SOL    HW1 7178   1.177   2.782   2.163
 2093SOL    HW2 7179   1.101   2.784   2.019
 2094SOL     OW 7180   5.955   0.499   1.896
 2094SOL    HW1 7181   5.943   0.400   1.889
 2094SOL    HW2 7182   5.872   0.545   1.865
 2095SOL     OW 7183   5.838   6.121   4.373
 2095SOL    HW1 7184   5.791   6.038   4.400
 2095SOL    HW2 7185   5.822   6.192   4.442
 2096SOL     OW 7186   4.755   4.100   2.486
 2096SOL    HW1 7187   4.788   4.043   2.561
 2096SOL    HW2 7188   4.775   4.196   2.505
 2097SOL     OW 7189   0.314   2.461   6.823
 2097SOL    HW1 7190   0.298   2.370   6.860
 2097SOL    HW2 7191   0.324   2.526   6.898
 2098SOL     OW 7192   4.525   6.573   3.574
 2098SOL    HW1 7193   4.477   6.634   3.637
 2098SOL    HW2 7194   4.623   6.595   3.576
 2099SOL     OW 7195   2.649   1.262   4.440
 2099SOL    HW1 7196   2.705   1.193   4.394
 2099SOL    HW2 7197   2.702   1.347   4.450
 2100SOL     OW 7198   4.095   4.000   6.903
 2100SOL    HW1 7199   4.097   4.020   6.805
 2100SOL    HW2 7200   4.077   3.902   6.916
 2101SOL     OW 7201   0.310   0.454   3.145
 2101SOL    HW1 7202   0.270   0.370   3.108
 2101SOL    HW2 7203   0.373   0.430   3.219
 2102SOL     OW 7204   6.882   5.634   2.777
 2102SOL    HW1 7205   6.875   5.537   2.753
 2102SOL    HW2 7206   6.912   5.686   2.698
 2103SOL     OW 7207   3.559   3.207   6.812
 2103SOL    HW1 7208   3.553   3.230   6.909
 2103SOL    HW2 7209   3.471   3.175   6.779
 2104SOL     OW 7210   1.540   3.337   5.908
 2104SOL    HW1 7211   1.578   3.417   5.861
 2104SOL    HW2 7212   1.568   3.254   5.860
 2105SOL     OW 7213   5.383   5.180   2.718
 2105SOL    HW1 7214   5.459   5.156   2.658
 2105SOL    HW2 7215   5.297   5.160   2.671
 2106SOL     OW 7216   4.448   5.371   6.555
 2106SOL    HW1 7217   4.467   5.369   6.457
 2106SOL    HW2 7218   4.490   5.292   6.599
 2107SOL     OW 7219   3.793   4.224   5.870
 2107SOL    HW1 7220   3.837   4.313   5.858
 2107SOL    HW2 7221   3.694   4.235   5.863
 2108SOL     OW 7222   6.277   5.667   5.718
 2108SOL    HW1 7223   6.273   5.607   5.639
 2108SOL    HW2 7224   6.248   5.617   5.800
 2109SOL     OW 7225   5.812   5.903   2.853
 2109SOL    HW1 7226   5.727   5.934   2.811
 2109SOL    HW2 7227   5.890   5.932   2.798
 2110SOL     OW 7228   2.986   4.514   6.617
 2110SOL    HW1 7229   3.044   4.595   6.602
 2110SOL    HW2 7230   2.956   4.478   6.529
 2111SOL     OW 7231   0.660   2.543   6.225
 2111SOL    HW1 7232   0.758   2.562   6.222
 2111SOL    HW2 7233   0.628   2.545   6.320
 2112SOL     OW 7234   3.942   2.692   1.718
 2112SOL    HW1 7235   3.987   2.772   1.759
 2112SOL    HW2 7236   3.936   2.705   1.619
 2113SOL     OW 7237   1.624   0.319   2.746
 2113SOL    HW1 7238   1.628   0.406   2.796
 2113SOL    HW2 7239   1.563   0.257   2.795
 2114SOL     OW 7240   1.240   4.552   0.405
 2114SOL    HW1 7241   1.148   4.530   0.436
 2114SOL    HW2 7242   1.239   4.640   0.357
 2115SOL     OW 7243   2.322   4.596   2.971
 2115SOL    HW1 7244   2.241   4.551   2.933
 2115SOL    HW2 7245   2.403   4.562   2.923
 2116SOL     OW 7246   6.844   3.745   2.843
 2116SOL    HW1 7247   6.807   3.827   2.798
 2116SOL    HW2 7248   6.805   3.737   2.935
 2117SOL     OW 7249   0.119   4.362   1.527
 2117SOL    HW1 7250   0.134   4.371   1.428
 2117SOL    HW2 7251   0.022   4.371   1.547
 2118SOL     OW 7252   6.867   3.753   2.458
 2118SOL    HW1 7253   6.830   3.846   2.454
 2118SOL    HW2 7254   6.801   3.689   2.419
 2119SOL     OW 7255   2.187   5.671   1.401
 2119SOL    HW1 7256   2.244   5.647   1.322
 2119SOL    HW2 7257   2.175   5.591   1.460
 2120SOL     OW 7258   6.056   4.483   2.211
 2120SOL    HW1 7259   6.090   4.563   2.162
 2120SOL    HW2 7260   6.131   4.438   2.259
 2121SOL     OW 7261   0.645   5.484   5.159
 2121SOL    HW1 7262   0.574   5.431   5.205
 2121SOL    HW2 7263   0.704   5.528   5.226
 2122SOL     OW 7264   5.315   4.390   5.255
 2122SOL    HW1 7265   5.271   4.407   5.167
 2122SOL    HW2 7266   5.414   4.395   5.243
 2123SOL     OW 7267   7.021   4.348   2.553
 2123SOL    HW1 7268   0.097   4.353   2.543
 2123SOL    HW2 7269   6.998   4.283   2.626
 2124SOL     OW 7270   1.864   1.338   1.481
 2124SOL    HW1 7271   1.876   1.437   1.468
 2124SOL    HW2 7272   1.792   1.306   1.420
 2125SOL     OW 7273   1.845   0.678   6.806
 2125SOL    HW1 7274   1.943   0.671   6.822
 2125SOL    HW2 7275   1.796   0.634   6.881
 2126SOL     OW 7276   2.676   0.913   6.667
 2126SOL    HW1 7277   2.752   0.876   6.613
 2126SOL    HW2 7278   2.688   1.012   6.679
 2127SOL     OW 7279   6.137   3.140   4.070
 2127SOL    HW1 7280   6.209   3.192   4.115
 2127SOL    HW2 7281   6.051   3.150   4.121
 2128SOL     OW 7282   0.678   4.343   4.744
 2128SOL    HW1 7283   0.657   4.245   4.747
 2128SOL    HW2 7284   0.697   4.370   4.650
 2129SOL     OW 7285   4.514   2.991   5.352
 2129SOL    HW1 7286   4.545   2.923   5.418
 2129SOL    HW2 7287   4.451   3.054   5.396
 2130SOL     OW 7288   5.218   6.865   2.672
 2130SOL    HW1 7289   5.221   6.811   2.756
 2130SOL    HW2 7290   5.254   6.957   2.691
 2131SOL     OW 7291   0.225   1.063   0.930
 2131SOL    HW1 7292   0.142   1.114   0.908
 2131SOL    HW2 7293   0.201   0.969   0.954
 2132SOL     OW 7294   2.569   2.902   1.166
 2132SOL    HW1 7295   2.544   2.820   1.113
 2132SOL    HW2 7296   2.655   2.886   1.213
 2133SOL     OW 7297   2.891   2.505   5.967
 2133SOL    HW1 7298   2.910   2.453   6.050
 2133SOL    HW2 7299   2.951   2.586   5.964
 2134SOL     OW 7300   6.747   1.735   1.280
 2134SOL    HW1 7301   6.826   1.674   1.284
 2134SOL    HW2 7302   6.665   1.685   1.308
 2135SOL     OW 7303   1.096   4.270   4.639
 2135SOL    HW1 7304   1.136   4.180   4.655
 2135SOL    HW2 7305   1.012   4.259   4.584
 2136SOL     OW 7306   2.544   5.200   1.930
 2136SOL    HW1 7307   2.640   5.171   1.929
 2136SOL    HW2 7308   2.539   5.298   1.947
 2137SOL     OW 7309   3.059   5.812   4.986
 2137SOL    HW1 7310   2.988   5.782   5.049
 2137SOL    HW2 7311   3.098   5.732   4.939
 2138SOL     OW 7312   6.343   0.916   2.749
 2138SOL    HW1 7313   6.359   0.898   2.846
 2138SOL    HW2 7314   6.256   0.876   2.721
 2139SOL     OW 7315   3.442   0.803   5.595
 2139SOL    HW1 7316   3.378   0.747   5.541
 2139SOL    HW2 7317   3.508   0.846   5.534
 2140SOL     OW 7318   2.924   0.784   4.479
 2140SOL    HW1 7319   2.889   0.751   4.391
 2140SOL    HW2 7320   2.894   0.878   4.494
 2141SOL     OW 7321   6.274   4.412   2.331
 2141SOL    HW1 7322   6.333   4.488   2.354
 2141SOL    HW2 7323   6.314   4.360   2.255
 2142SOL     OW 7324   1.873   2.820   3.798
 2142SOL    HW1 7325   1.813   2.750   3.759
 2142SOL    HW2 7326   1.899   2.793   3.891
 2143SOL     OW 7327   2.538   5.341   1.285
 2143SOL    HW1 7328   2.563   5.425   1.333
 2143SOL    HW2 7329   2.600   5.267   1.312
 2144SOL     OW 7330   6.968   5.641   4.476
 2144SOL    HW1 7331   6.900   5.628   4.549
 2144SOL    HW2 7332   7.004   5.552   4.448
 2145SOL     OW 7333   4.245   6.516   4.405
 2145SOL    HW1 7334   4.267   6.538   4.501
 2145SOL    HW2 7335   4.175   6.579   4.372
 2146SOL     OW 7336   2.247   2.940   0.896
 2146SOL    HW1 7337   2.305   2.865   0.864
 2146SOL    HW2 7338   2.166   2.904   0.940
 2147SOL     OW 7339   6.605   1.521   5.728
 2147SOL    HW1 7340   6.624   1.432   5.771
 2147SOL    HW2 7341   6.525   1.562   5.771
 2148SOL     OW 7342   7.015   3.019   6.648
 2148SOL    HW1 7343   0.074   3.037   6.594
 2148SOL    HW2 7344   7.020   3.069   6.735
 2149SOL     OW 7345   0.723   0.489   0.530
 2149SOL    HW1 7346   0.677   0.482   0.441
 2149SOL    HW2 7347   0.672   0.551   0.589
 2150SOL     OW 7348   2.575   2.742   1.728
 2150SOL    HW1 7349   2.504   2.759   1.797
 2150SOL    HW2 7350   2.584   2.644   1.713
 2151SOL     OW 7351   0.527   6.687   0.107
 2151SOL    HW1 7352   0.587   6.690   0.187
 2151SOL    HW2 7353   0.431   6.694   0.136
 2152SOL     OW 7354   4.066   5.749   2.458
 2152SOL    HW1 7355   4.110   5.839   2.452
 2152SOL    HW2 7356   4.088   5.695   2.377
 2153SOL     OW 7357   4.319   0.850   2.429
 2153SOL    HW1 7358   4.252   0.905   2.378
 2153SOL    HW2 7359   4.376   0.799   2.365
 2154SOL     OW 7360   3.606   6.607   3.572
 2154SOL    HW1 7361   3.644   6.615   3.480
 2154SOL    HW2 7362   3.509   6.583   3.567
 2155SOL     OW 7363   4.148   6.753   0.946
 2155SOL    HW1 7364   4.058   6.779   0.980
 2155SOL    HW2 7365   4.216   6.819   0.978
 2156SOL     OW 7366   5.743   1.422   3.738
 2156SOL    HW1 7367   5.721   1.460   3.648
 2156SOL    HW2 7368   5.806   1.483   3.785
 2157SOL     OW 7369   4.262   4.975   4.089
 2157SOL    HW1 7370   4.351   4.983   4.044
 2157SOL    HW2 7371   4.261   4.893   4.146
 2158SOL     OW 7372   3.761   0.370   0.676
 2158SOL    HW1 7373   3.784   0.458   0.635
 2158SOL    HW2 7374   3.687   0.327   0.624
 2159SOL     OW 7375   1.574   0.705   5.752
 2159SOL    HW1 7376   1.601   0.775   5.819
 2159SOL    HW2 7377   1.474   0.698   5.750
 2160SOL     OW 7378   5.170   6.082   0.159
 2160SOL    HW1 7379   5.082   6.105   0.198
 2160SOL    HW2 7380   5.216   6.165   0.127
 2161SOL     OW 7381   1.255   3.906   2.170
 2161SOL    HW1 7382   1.249   3.876   2.266
 2161SOL    HW2 7383   1.228   3.831   2.110
 2162SOL     OW 7384   2.160   6.881   3.326
 2162SOL    HW1 7385   2.193   6.964   3.280
 2162SOL    HW2 7386   2.065   6.894   3.353
 2163SOL     OW 7387   1.252   3.186   0.720
 2163SOL    HW1 7388   1.257   3.150   0.813
 2163SOL    HW2 7389   1.342   3.181   0.678
 2164SOL     OW 7390   2.284   2.892   1.371
 2164SOL    HW1 7391   2.304   2.873   1.275
 2164SOL    HW2 7392   2.348   2.962   1.404
 2165SOL     OW 7393   0.193   2.130   3.508
 2165SOL    HW1 7394   0.271   2.192   3.514
 2165SOL    HW2 7395   0.127   2.166   3.442
 2166SOL     OW 7396   0.576   4.102   4.291
 2166SOL    HW1 7397   0.527   4.070   4.210
 2166SOL    HW2 7398   0.675   4.095   4.274
 2167SOL     OW 7399   1.736   2.705   4.342
 2167SOL    HW1 7400   1.647   2.749   4.328
 2167SOL    HW2 7401   1.757   2.649   4.262
 2168SOL     OW 7402   1.192   2.092   3.322
 2168SOL    HW1 7403   1.103   2.073   3.282
 2168SOL    HW2 7404   1.237   2.165   3.269
 2169SOL     OW 7405   0.283   0.540   1.390
 2169SOL    HW1 7406   0.369   0.579   1.423
 2169SOL    HW2 7407   0.210   0.561   1.455
 2170SOL     OW 7408   0.944   4.134   5.813
 2170SOL    HW1 7409   0.983   4.181   5.734
 2170SOL    HW2 7410   0.905   4.047   5.784
 2171SOL     OW 7411   0.311   5.454   1.371
 2171SOL    HW1 7412   0.302   5.522   1.298
 2171SOL    HW2 7413   0.323   5.364   1.330
 2172SOL     OW 7414   0.172   1.945   5.137
 2172SOL    HW1 7415   0.149   1.985   5.048
 2172SOL    HW2 7416   0.214   1.855   5.122
 2173SOL     OW 7417   5.903   0.504   5.293
 2173SOL    HW1 7418   5.810   0.517   5.258
 2173SOL    HW2 7419   5.949   0.434   5.239
 2174SOL     OW 7420   0.065   5.981   5.097
 2174SOL    HW1 7421   0.003   5.903   5.101
 2174SOL    HW2 7422   0.159   5.949   5.095
 2175SOL     OW 7423   2.847   2.823   5.498
 2175SOL    HW1 7424   2.806   2.895   5.442
 2175SOL    HW2 7425   2.789   2.804   5.577
 2176SOL     OW 7426   5.554   2.820   1.378
 2176SOL    HW1 7427   5.572   2.741   1.436
 2176SOL    HW2 7428   5.504   2.889   1.430
 2177SOL     OW 7429   6.793   1.082   3.268
 2177SOL    HW1 7430   6.784   1.005   3.205
 2177SOL    HW2 7431   6.833   1.050   3.354
 2178SOL     OW 7432   0.712   1.524   2.144
 2178SOL    HW1 7433   0.803   1.563   2.124
 2178SOL    HW2 7434   0.720   1.425   2.157
 2179SOL     OW 7435   2.315   4.381   6.728
 2179SOL    HW1 7436   2.272   4.445   6.665
 2179SOL    HW2 7437   2.405   4.416   6.755
 2180SOL     OW 7438   1.412   4.771   1.994
 2180SOL    HW1 7439   1.368   4.746   2.081
 2180SOL    HW2 7440   1.343   4.778   1.923
 2181SOL     OW 7441   4.970   4.743   4.540
 2181SOL    HW1 7442   5.006   4.651   4.530
 2181SOL    HW2 7443   4.870   4.741   4.538
 2182SOL     OW 7444   0.698   4.948   3.507
 2182SOL    HW1 7445   0.627   4.902   3.453
 2182SOL    HW2 7446   0.756   4.879   3.550
 2183SOL     OW 7447   3.642   3.503   7.022
 2183SOL    HW1 7448   3.557   3.537   0.041
 2183SOL    HW2 7449   3.705   3.580   7.008
 2184SOL     OW 7450   6.557   0.742   0.308
 2184SOL    HW1 7451   6.491   0.672   0.336
 2184SOL    HW2 7452   6.629   0.750   0.377
 2185SOL     OW 7453   1.161   1.868   6.526
 2185SOL    HW1 7454   1.104   1.831   6.453
 2185SOL    HW2 7455   1.107   1.875   6.610
 2186SOL     OW 7456   6.592   5.174   4.603
 2186SOL    HW1 7457   6.656   5.219   4.665
 2186SOL    HW2 7458   6.502   5.216   4.612
 2187SOL     OW 7459   0.557   5.720   2.858
 2187SOL    HW1 7460   0.512   5.639   2.896
 2187SOL    HW2 7461   0.607   5.695   2.775
 2188SOL     OW 7462   1.898   6.524   7.013
 2188SOL    HW1 7463   1.996   6.533   6.993
 2188SOL    HW2 7464   1.852   6.483   6.934
 2189SOL     OW 7465   1.948   1.333   2.237
 2189SOL    HW1 7466   1.932   1.429   2.259
 2189SOL    HW2 7467   2.005   1.325   2.155
 2190SOL     OW 7468   6.687   4.239   2.543
 2190SOL    HW1 7469   6.763   4.265   2.602
 2190SOL    HW2 7470   6.607   4.294   2.565
 2191SOL     OW 7471   2.133   0.958   5.420
 2191SOL    HW1 7472   2.170   1.035   5.368
 2191SOL    HW2 7473   2.033   0.962   5.418
 2192SOL     OW 7474   5.355   0.891   2.136
 2192SOL    HW1 7475   5.259   0.885   2.109
 2192SOL    HW2 7476   5.367   0.857   2.229
 2193SOL     OW 7477   6.684   6.760   6.351
 2193SOL    HW1 7478   6.595   6.744   6.309
 2193SOL    HW2 7479   6.682   6.845   6.404
 2194SOL     OW 7480   0.670   4.487   5.158
 2194SOL    HW1 7481   0.657   4.585   5.148
 2194SOL    HW2 7482   0.765   4.468   5.185
 2195SOL     OW 7483   0.615   5.349   6.312
 2195SOL    HW1 7484   0.534   5.290   6.306
 2195SOL    HW2 7485   0.672   5.336   6.231
 2196SOL     OW 7486   2.413   6.079   5.316
 2196SOL    HW1 7487   2.494   6.138   5.321
 2196SOL    HW2 7488   2.436   5.989   5.351
 2197SOL     OW 7489   2.985   3.010   5.858
 2197SOL    HW1 7490   3.027   2.977   5.773
 2197SOL    HW2 7491   3.054   3.014   5.930
 2198SOL     OW 7492   0.217   0.146   6.332
 2198SOL    HW1 7493   0.256   0.235   6.353
 2198SOL    HW2 7494   0.280   0.095   6.273
 2199SOL     OW 7495   4.915   6.780   4.282
 2199SOL    HW1 7496   4.987   6.831   4.235
 2199SOL    HW2 7497   4.863   6.727   4.215
 2200SOL     OW 7498   3.216   1.049   3.969
 2200SOL    HW1 7499   3.296   1.020   4.022
 2200SOL    HW2 7500   3.232   1.028   3.872
 2201SOL     OW 7501   6.638   2.769   3.284
 2201SOL    HW1 7502   6.586   2.689   3.254
 2201SOL    HW2 7503   6.581   2.851   3.274
 2202SOL     OW 7504   3.440   5.022   2.827
 2202SOL    HW1 7505   3.429   5.121   2.840
 2202SOL    HW2 7506   3.498   4.985   2.899
 2203SOL     OW 7507   2.284   3.878   0.777
 2203SOL    HW1 7508   2.263   3.828   0.694
 2203SOL    HW2 7509   2.364   3.838   0.822
 2204SOL     OW 7510   4.266   3.089   1.299
 2204SOL    HW1 7511   4.357   3.048   1.303
 2204SOL    HW2 7512   4.206   3.044   1.365
 2205SOL     OW 7513   1.490   6.727   0.854
 2205SOL    HW1 7514   1.450   6.639   0.881
 2205SOL    HW2 7515   1.548   6.714   0.774
 2206SOL     OW 7516   2.948   3.436   6.548
 2206SOL    HW1 7517   2.936   3.458   6.645
 2206SOL    HW2 7518   2.998   3.350   6.539
 2207SOL     OW 7519   4.266   5.696   0.817
 2207SOL    HW1 7520   4.256   5.775   0.877
 2207SOL    HW2 7521   4.220   5.617   0.857
 2208SOL     OW 7522   0.929   5.979   3.485
 2208SOL    HW1 7523   0.850   5.925   3.456
 2208SOL    HW2 7524   0.995   5.984   3.410
 2209SOL     OW 7525   2.822   5.547   4.791
 2209SOL    HW1 7526   2.854   5.626   4.740
 2209SOL    HW2 7527   2.784   5.479   4.728
 2210SOL     OW 7528   5.965   6.044   1.696
 2210SOL    HW1 7529   6.018   5.972   1.740
 2210SOL    HW2 7530   5.874   6.010   1.673
 2211SOL     OW 7531   6.352   0.423   0.720
 2211SOL    HW1 7532   6.265   0.421   0.771
 2211SOL    HW2 7533   6.428   0.427   0.785
 2212SOL     OW 7534   2.194   6.238   6.691
 2212SOL    HW1 7535   2.272   6.289   6.726
 2212SOL    HW2 7536   2.110   6.290   6.707
 2213SOL     OW 7537   4.554   2.501   4.520
 2213SOL    HW1 7538   4.543   2.599   4.505
 2213SOL    HW2 7539   4.542   2.480   4.617
 2214SOL     OW 7540   4.280   2.982   5.716
 2214SOL    HW1 7541   4.256   2.947   5.807
 2214SOL    HW2 7542   4.196   2.997   5.663
 2215SOL     OW 7543   5.385   1.388   6.735
 2215SOL    HW1 7544   5.291   1.414   6.714
 2215SOL    HW2 7545   5.422   1.332   6.661
 2216SOL     OW 7546   0.284   5.982   5.937
 2216SOL    HW1 7547   0.214   5.923   5.898
 2216SOL    HW2 7548   0.371   5.932   5.941
 2217SOL     OW 7549   4.388   0.423   3.758
 2217SOL    HW1 7550   4.348   0.349   3.705
 2217SOL    HW2 7551   4.395   0.505   3.702
 2218SOL     OW 7552   0.558   5.443   6.812
 2218SOL    HW1 7553   0.594   5.392   6.735
 2218SOL    HW2 7554   0.574   5.392   6.897
 2219SOL     OW 7555   5.596   1.385   0.692
 2219SOL    HW1 7556   5.507   1.339   0.685
 2219SOL    HW2 7557   5.665   1.330   0.645
 2220SOL     OW 7558   1.840   6.124   5.406
 2220SOL    HW1 7559   1.762   6.148   5.348
 2220SOL    HW2 7560   1.916   6.093   5.348
 2221SOL     OW 7561   6.421   1.236   4.793
 2221SOL    HW1 7562   6.440   1.297   4.716
 2221SOL    HW2 7563   6.340   1.268   4.842
 2222SOL     OW 7564   6.187   0.009   0.835
 2222SOL    HW1 7565   6.163   0.062   0.754
 2222SOL    HW2 7566   6.281   7.001   0.827
 2223SOL     OW 7567   6.755   0.746   5.674
 2223SOL    HW1 7568   6.684   0.770   5.740
 2223SOL    HW2 7569   6.834   0.807   5.688
 2224SOL     OW 7570   5.710   3.706   2.041
 2224SOL    HW1 7571   5.715   3.632   2.107
 2224SOL    HW2 7572   5.681   3.790   2.086
 2225SOL     OW 7573   0.050   6.543   3.791
 2225SOL    HW1 7574   0.124   6.505   3.736
 2225SOL    HW2 7575   0.026   6.634   3.756
 2226SOL     OW 7576   3.619   5.246   0.597
 2226SOL    HW1 7577   3.571   5.332   0.580
 2226SOL    HW2 7578   3.553   5.171   0.598
 2227SOL     OW 7579   4.278   2.636   1.444
 2227SOL    HW1 7580   4.235   2.605   1.529
 2227SOL    HW2 7581   4.271   2.564   1.375
 2228SOL     OW 7582   4.419   5.573   0.232
 2228SOL    HW1 7583   4.457   5.515   0.160
 2228SOL    HW2 7584   4.475   5.655   0.242
 2229SOL     OW 7585   3.228   3.587   4.928
 2229SOL    HW1 7586   3.275   3.650   4.991
 2229SOL    HW2 7587   3.206   3.636   4.843
 2230SOL     OW 7588   5.007   6.345   1.354
 2230SOL    HW1 7589   5.010   6.443   1.338
 2230SOL    HW2 7590   4.953   6.300   1.283
 2231SOL     OW 7591   0.890   1.292   6.494
 2231SOL    HW1 7592   0.957   1.234   6.447
 2231SOL    HW2 7593   0.933   1.338   6.571
 2232SOL     OW 7594   0.774   0.726   4.877
 2232SOL    HW1 7595   0.811   0.686   4.961
 2232SOL    HW2 7596   0.789   0.663   4.801
 2233SOL     OW 7597   3.102   3.301   0.779
 2233SOL    HW1 7598   3.061   3.325   0.867
 2233SOL    HW2 7599   3.201   3.295   0.789
 2234SOL     OW 7600   3.381   1.556   0.532
 2234SOL    HW1 7601   3.346   1.572   0.624
 2234SOL    HW2 7602   3.444   1.629   0.507
 2235SOL     OW 7603   2.692   0.185   2.500
 2235SOL    HW1 7604   2.765   0.165   2.566
 2235SOL    HW2 7605   2.719   0.154   2.409
 2236SOL     OW 7606   2.049   4.145   5.946
 2236SOL    HW1 7607   2.148   4.142   5.950
 2236SOL    HW2 7608   2.019   4.240   5.934
 2237SOL     OW 7609   6.283   5.569   4.748
 2237SOL    HW1 7610   6.285   5.477   4.786
 2237SOL    HW2 7611   6.202   5.580   4.690
 2238SOL     OW 7612   4.826   4.751   2.624
 2238SOL    HW1 7613   4.838   4.848   2.602
 2238SOL    HW2 7614   4.733   4.724   2.600
 2239SOL     OW 7615   4.104   5.577   3.963
 2239SOL    HW1 7616   4.033   5.510   3.984
 2239SOL    HW2 7617   4.171   5.537   3.901
 2240SOL     OW 7618   3.779   5.938   2.675
 2240SOL    HW1 7619   3.728   5.871   2.621
 2240SOL    HW2 7620   3.715   5.985   2.737
 2241SOL     OW 7621   6.662   6.676   1.754
 2241SOL    HW1 7622   6.690   6.581   1.769
 2241SOL    HW2 7623   6.582   6.697   1.810
 2242SOL     OW 7624   5.473   3.117   2.610
 2242SOL    HW1 7625   5.458   3.018   2.608
 2242SOL    HW2 7626   5.385   3.164   2.602
 2243SOL     OW 7627   2.535   6.249   0.034
 2243SOL    HW1 7628   2.615   6.290   0.077
 2243SOL    HW2 7629   2.524   6.155   0.067
 2244SOL     OW 7630   2.992   0.169   1.274
 2244SOL    HW1 7631   3.069   0.170   1.210
 2244SOL    HW2 7632   2.935   0.088   1.256
 2245SOL     OW 7633   0.261   1.350   0.918
 2245SOL    HW1 7634   0.304   1.261   0.903
 2245SOL    HW2 7635   0.200   1.345   0.997
 2246SOL     OW 7636   1.826   0.372   3.606
 2246SOL    HW1 7637   1.919   0.407   3.613
 2246SOL    HW2 7638   1.771   0.411   3.680
 2247SOL     OW 7639   3.202   3.799   2.681
 2247SOL    HW1 7640   3.265   3.778   2.606
 2247SOL    HW2 7641   3.216   3.734   2.756
 2248SOL     OW 7642   6.519   4.237   4.229
 2248SOL    HW1 7643   6.453   4.196   4.292
 2248SOL    HW2 7644   6.611   4.209   4.256
 2249SOL     OW 7645   3.350   6.520   3.807
 2249SOL    HW1 7646   3.355   6.512   3.707
 2249SOL    HW2 7647   3.339   6.429   3.847
 2250SOL     OW 7648   3.498   3.937   5.660
 2250SOL    HW1 7649   3.584   3.958   5.706
 2250SOL    HW2 7650   3.492   3.838   5.644
 2251SOL     OW 7651   4.994   6.931   5.955
 2251SOL    HW1 7652   4.904   6.961   5.986
 2251SOL    HW2 7653   5.046   7.010   5.921
 2252SOL     OW 7654   5.390   1.643   3.195
 2252SOL    HW1 7655   5.323   1.641   3.121
 2252SOL    HW2 7656   5.414   1.738   3.215
 2253SOL     OW 7657   0.540   3.222   0.293
 2253SOL    HW1 7658   0.554   3.173   0.207
 2253SOL    HW2 7659   0.611   3.292   0.304
 2254SOL     OW 7660   3.687   3.805   3.438
 2254SOL    HW1 7661   3.682   3.892   3.488
 2254SOL    HW2 7662   3.748   3.816   3.359
 2255SOL     OW 7663   2.757   4.042   5.961
 2255SOL    HW1 7664   2.754   3.942   5.963
 2255SOL    HW2 7665   2.773   4.077   6.053
 2256SOL     OW 7666   4.313   6.371   2.061
 2256SOL    HW1 7667   4.215   6.376   2.041
 2256SOL    HW2 7668   4.365   6.377   1.976
 2257SOL     OW 7669   0.350   1.703   4.348
 2257SOL    HW1 7670   0.389   1.718   4.257
 2257SOL    HW2 7671   0.383   1.774   4.410
 2258SOL     OW 7672   2.218   6.158   3.982
 2258SOL    HW1 7673   2.316   6.141   3.980
 2258SOL    HW2 7674   2.193   6.216   3.904
 2259SOL     OW 7675   5.749   2.825   4.849
 2259SOL    HW1 7676   5.770   2.746   4.792
 2259SOL    HW2 7677   5.826   2.843   4.911
 2260SOL     OW 7678   1.152   3.368   1.012
 2260SOL    HW1 7679   1.205   3.388   0.930
 2260SOL    HW2 7680   1.215   3.355   1.089
 2261SOL     OW 7681   6.661   3.768   0.731
 2261SOL    HW1 7682   6.757   3.791   0.744
 2261SOL    HW2 7683   6.632   3.795   0.639
 2262SOL     OW 7684   6.548   0.902   3.370
 2262SOL    HW1 7685   6.450   0.919   3.364
 2262SOL    HW2 7686   6.569   0.858   3.457
 2263SOL     OW 7687   1.967   5.806   1.334
 2263SOL    HW1 7688   2.042   5.744   1.355
 2263SOL    HW2 7689   1.884   5.752   1.315
 2264SOL     OW 7690   2.723   6.716   6.607
 2264SOL    HW1 7691   2.822   6.729   6.602
 2264SOL    HW2 7692   2.681   6.751   6.524
 2265SOL     OW 7693   1.422   0.432   4.274
 2265SOL    HW1 7694   1.486   0.399   4.344
 2265SOL    HW2 7695   1.378   0.353   4.231
 2266SOL     OW 7696   4.889   1.485   6.068
 2266SOL    HW1 7697   4.975   1.502   6.020
 2266SOL    HW2 7698   4.851   1.572   6.099
 2267SOL     OW 7699   4.706   2.784   4.726
 2267SOL    HW1 7700   4.687   2.788   4.628
 2267SOL    HW2 7701   4.763   2.861   4.752
 2268SOL     OW 7702   6.240   3.390   6.529
 2268SOL    HW1 7703   6.176   3.466   6.517
 2268SOL    HW2 7704   6.190   3.307   6.552
 2269SOL     OW 7705   0.620   3.471   5.007
 2269SOL    HW1 7706   0.640   3.439   5.100
 2269SOL    HW2 7707   0.663   3.560   4.993
 2270SOL     OW 7708   4.321   3.335   6.258
 2270SOL    HW1 7709   4.231   3.326   6.301
 2270SOL    HW2 7710   4.336   3.432   6.235
 2271SOL     OW 7711   5.736   4.712   6.949
 2271SOL    HW1 7712   5.671   4.643   6.917
 2271SOL    HW2 7713   5.826   4.670   6.963
 2272SOL     OW 7714   6.698   1.594   6.351
 2272SOL    HW1 7715   6.701   1.633   6.443
 2272SOL    HW2 7716   6.695   1.667   6.284
 2273SOL     OW 7717   1.780   2.334   2.326
 2273SOL    HW1 7718   1.704   2.383   2.284
 2273SOL    HW2 7719   1.826   2.394   2.392
 2274SOL     OW 7720   0.549   1.852   6.677
 2274SOL    HW1 7721   0.636   1.822   6.638
 2274SOL    HW2 7722   0.540   1.951   6.666
 2275SOL     OW 7723   5.969   5.308   2.393
 2275SOL    HW1 7724   6.002   5.388   2.342
 2275SOL    HW2 7725   6.018   5.300   2.479
 2276SOL     OW 7726   1.360   6.296   1.377
 2276SOL    HW1 7727   1.264   6.325   1.385
 2276SOL    HW2 7728   1.411   6.329   1.455
 2277SOL     OW 7729   3.356   3.668   4.509
 2277SOL    HW1 7730   3.356   3.707   4.601
 2277SOL    HW2 7731   3.438   3.611   4.497
 2278SOL     OW 7732   6.750   2.860   4.091
 2278SOL    HW1 7733   6.786   2.921   4.021
 2278SOL    HW2 7734   6.667   2.900   4.130
 2279SOL     OW 7735   6.634   6.276   5.998
 2279SOL    HW1 7736   6.543   6.236   6.010
 2279SOL    HW2 7737   6.703   6.207   6.019
 2280SOL     OW 7738   6.577   0.585   5.056
 2280SOL    HW1 7739   6.604   0.542   4.970
 2280SOL    HW2 7740   6.657   0.628   5.099
 2281SOL     OW 7741   4.435   0.827   1.837
 2281SOL    HW1 7742   4.373   0.768   1.889
 2281SOL    HW2 7743   4.405   0.922   1.845
 2282SOL     OW 7744   4.780   6.190   5.527
 2282SOL    HW1 7745   4.711   6.238   5.472
 2282SOL    HW2 7746   4.823   6.255   5.590
 2283SOL     OW 7747   1.691   0.494   2.459
 2283SOL    HW1 7748   1.656   0.587   2.466
 2283SOL    HW2 7749   1.783   0.495   2.421
 2284SOL     OW 7750   0.847   3.532   5.698
 2284SOL    HW1 7751   0.805   3.477   5.626
 2284SOL    HW2 7752   0.883   3.472   5.769
 2285SOL     OW 7753   1.035   3.403   0.234
 2285SOL    HW1 7754   1.010   3.306   0.231
 2285SOL    HW2 7755   1.104   3.422   0.164
 2286SOL     OW 7756   5.102   6.735   3.430
 2286SOL    HW1 7757   5.078   6.666   3.362
 2286SOL    HW2 7758   5.145   6.692   3.509
 2287SOL     OW 7759   2.677   0.964   3.729
 2287SOL    HW1 7760   2.627   0.959   3.643
 2287SOL    HW2 7761   2.639   1.037   3.785
 2288SOL     OW 7762   0.732   5.668   3.775
 2288SOL    HW1 7763   0.761   5.622   3.858
 2288SOL    HW2 7764   0.794   5.744   3.756
 2289SOL     OW 7765   6.723   4.849   1.135
 2289SOL    HW1 7766   6.631   4.833   1.170
 2289SOL    HW2 7767   6.790   4.811   1.199
 2290SOL     OW 7768   0.992   4.439   1.112
 2290SOL    HW1 7769   0.944   4.523   1.136
 2290SOL    HW2 7770   1.073   4.428   1.170
 2291SOL     OW 7771   3.042   2.139   5.874
 2291SOL    HW1 7772   3.125   2.189   5.848
 2291SOL    HW2 7773   3.009   2.172   5.962
 2292SOL     OW 7774   1.234   1.537   5.022
 2292SOL    HW1 7775   1.176   1.456   5.035
 2292SOL    HW2 7776   1.328   1.516   5.048
 2293SOL     OW 7777   5.676   5.755   1.986
 2293SOL    HW1 7778   5.578   5.773   1.994
 2293SOL    HW2 7779   5.721   5.782   2.072
 2294SOL     OW 7780   3.591   6.676   0.637
 2294SOL    HW1 7781   3.604   6.740   0.712
 2294SOL    HW2 7782   3.675   6.672   0.582
 2295SOL     OW 7783   0.499   2.024   2.419
 2295SOL    HW1 7784   0.407   2.009   2.453
 2295SOL    HW2 7785   0.565   1.989   2.485
 2296SOL     OW 7786   3.320   6.932   0.739
 2296SOL    HW1 7787   3.328   6.882   0.826
 2296SOL    HW2 7788   3.335   6.869   0.663
 2297SOL     OW 7789   4.061   4.271   5.584
 2297SOL    HW1 7790   4.033   4.322   5.502
 2297SOL    HW2 7791   4.054   4.173   5.566
 2298SOL     OW 7792   3.540   2.410   1.193
 2298SOL    HW1 7793   3.481   2.487   1.169
 2298SOL    HW2 7794   3.504   2.326   1.152
 2299SOL     OW 7795   5.474   0.002   0.024
 2299SOL    HW1 7796   5.550   0.066   0.036
 2299SOL    HW2 7797   5.481   6.953   0.092
 2300SOL     OW 7798   1.434   5.338   1.747
 2300SOL    HW1 7799   1.391   5.413   1.696
 2300SOL    HW2 7800   1.526   5.364   1.775
 2301SOL     OW 7801   2.973   3.651   3.140
 2301SOL    HW1 7802   2.990   3.585   3.067
 2301SOL    HW2 7803   2.917   3.726   3.103
 2302SOL     OW 7804   4.074   6.598   2.508
 2302SOL    HW1 7805   4.097   6.686   2.549
 2302SOL    HW2 7806   4.156   6.540   2.508
 2303SOL     OW 7807   1.435   3.703   5.457
 2303SOL    HW1 7808   1.361   3.668   5.400
 2303SOL    HW2 7809   1.515   3.644   5.448
 2304SOL     OW 7810   2.656   0.503   3.650
 2304SOL    HW1 7811   2.593   0.580   3.647
 2304SOL    HW2 7812   2.751   0.536   3.650
 2305SOL     OW 7813   3.979   5.888   3.180
 2305SOL    HW1 7814   4.016   5.812   3.234
 2305SOL    HW2 7815   3.893   5.861   3.139
 2306SOL     OW 7816   2.472   5.565   1.573
 2306SOL    HW1 7817   2.559   5.577   1.525
 2306SOL    HW2 7818   2.454   5.646   1.629
 2307SOL     OW 7819   2.102   4.378   2.978
 2307SOL    HW1 7820   2.013   4.351   2.943
 2307SOL    HW2 7821   2.174   4.329   2.927
 2308SOL     OW 7822   0.979   0.504   6.431
 2308SOL    HW1 7823   1.036   0.582   6.407
 2308SOL    HW2 7824   0.965   0.446   6.351
 2309SOL     OW 7825   2.764   6.364   0.128
 2309SOL    HW1 7826   2.744   6.445   0.183
 2309SOL    HW2 7827   2.859   6.367   0.097
 2310SOL     OW 7828   6.399   6.733   1.141
 2310SOL    HW1 7829   6.307   6.735   1.102
 2310SOL    HW2 7830   6.458   6.676   1.084
 2311SOL     OW 7831   2.502   6.950   2.471
 2311SOL    HW1 7832   2.544   6.901   2.548
 2311SOL    HW2 7833   2.414   6.987   2.499
 2312SOL     OW 7834   3.019   6.599   3.408
 2312SOL    HW1 7835   2.985   6.546   3.486
 2312SOL    HW2 7836   3.045   6.538   3.334
 2313SOL     OW 7837   4.345   4.869   2.139
 2313SOL    HW1 7838   4.269   4.853   2.077
 2313SOL    HW2 7839   4.418   4.919   2.092
 2314SOL     OW 7840   5.622   0.832   3.349
 2314SOL    HW1 7841   5.604   0.876   3.437
 2314SOL    HW2 7842   5.585   0.889   3.276
 2315SOL     OW 7843   5.160   3.253   5.565
 2315SOL    HW1 7844   5.099   3.184   5.526
 2315SOL    HW2 7845   5.139   3.343   5.527
 2316SOL     OW 7846   2.564   1.507   5.520
 2316SOL    HW1 7847   2.537   1.512   5.424
 2316SOL    HW2 7848   2.517   1.431   5.565
 2317SOL     OW 7849   6.597   6.351   3.716
 2317SOL    HW1 7850   6.694   6.349   3.740
 2317SOL    HW2 7851   6.544   6.378   3.797
 2318SOL     OW 7852   1.958   3.239   4.175
 2318SOL    HW1 7853   2.034   3.201   4.122
 2318SOL    HW2 7854   1.986   3.251   4.270
 2319SOL     OW 7855   3.558   5.307   4.816
 2319SOL    HW1 7856   3.511   5.393   4.798
 2319SOL    HW2 7857   3.622   5.319   4.892
 2320SOL     OW 7858   1.202   2.612   5.343
 2320SOL    HW1 7859   1.236   2.599   5.436
 2320SOL    HW2 7860   1.105   2.586   5.339
 2321SOL     OW 7861   2.574   5.544   6.168
 2321SOL    HW1 7862   2.615   5.586   6.086
 2321SOL    HW2 7863   2.502   5.604   6.203
 2322SOL     OW 7864   1.766   4.357   2.175
 2322SOL    HW1 7865   1.860   4.383   2.153
 2322SOL    HW2 7866   1.725   4.309   2.098
 2323SOL     OW 7867   3.330   4.823   1.857
 2323SOL    HW1 7868   3.415   4.777   1.882
 2323SOL    HW2 7869   3.273   4.760   1.804
 2324SOL     OW 7870   6.622   5.694   0.907
 2324SOL    HW1 7871   6.603   5.659   0.815
 2324SOL    HW2 7872   6.673   5.780   0.900
 2325SOL     OW 7873   0.083   4.659   1.299
 2325SOL    HW1 7874   0.077   4.561   1.282
 2325SOL    HW2 7875   7.018   4.693   1.331
 2326SOL     OW 7876   1.324   6.090   6.115
 2326SOL    HW1 7877   1.310   6.188   6.109
 2326SOL    HW2 7878   1.353   6.065   6.207
 2327SOL     OW 7879   0.450   1.230   3.448
 2327SOL    HW1 7880   0.356   1.229   3.414
 2327SOL    HW2 7881   0.511   1.192   3.378
 2328SOL     OW 7882   1.620   2.059   2.928
 2328SOL    HW1 7883   1.674   2.141   2.908
 2328SOL    HW2 7884   1.568   2.074   3.013
 2329SOL     OW 7885   0.869   4.709   4.667
 2329SOL    HW1 7886   0.823   4.681   4.751
 2329SOL    HW2 7887   0.832   4.657   4.590
 2330SOL     OW 7888   0.403   2.819   0.577
 2330SOL    HW1 7889   0.413   2.785   0.670
 2330SOL    HW2 7890   0.325   2.775   0.533
 2331SOL     OW 7891   3.113   5.419   6.903
 2331SOL    HW1 7892   3.161   5.471   6.974
 2331SOL    HW2 7893   3.175   5.400   6.827
 2332SOL     OW 7894   0.113   0.100   5.706
 2332SOL    HW1 7895   0.047   0.113   5.780
 2332SOL    HW2 7896   0.168   0.019   5.724
 2333SOL     OW 7897   0.075   4.910   2.756
 2333SOL    HW1 7898   0.108   4.946   2.843
 2333SOL    HW2 7899   6.999   4.918   2.751
 2334SOL     OW 7900   1.318   1.294   6.877
 2334SOL    HW1 7901   1.397   1.313   6.818
 2334SOL    HW2 7902   1.280   1.380   6.910
 2335SOL     OW 7903   5.760   0.243   3.615
 2335SOL    HW1 7904   5.760   0.155   3.568
 2335SOL    HW2 7905   5.707   0.309   3.561
 2336SOL     OW 7906   3.114   1.143   4.291
 2336SOL    HW1 7907   3.163   1.072   4.342
 2336SOL    HW2 7908   3.131   1.232   4.332
 2337SOL     OW 7909   4.230   0.681   1.909
 2337SOL    HW1 7910   4.210   0.631   1.825
 2337SOL    HW2 7911   4.238   0.617   1.985
 2338SOL     OW 7912   0.922   3.453   4.228
 2338SOL    HW1 7913   0.905   3.494   4.318
 2338SOL    HW2 7914   0.995   3.503   4.182
 2339SOL     OW 7915   3.219   4.053   3.498
 2339SOL    HW1 7916   3.309   4.026   3.462
 2339SOL    HW2 7917   3.149   4.032   3.430
 2340SOL     OW 7918   0.641   4.524   6.898
 2340SOL    HW1 7919   0.634   4.433   6.859
 2340SOL    HW2 7920   0.732   4.538   6.937
 2341SOL     OW 7921   2.871   4.769   2.118
 2341SOL    HW1 7922   2.823   4.691   2.079
 2341SOL    HW2 7923   2.910   4.825   2.045
 2342SOL     OW 7924   1.884   0.122   4.884
 2342SOL    HW1 7925   1.843   0.202   4.841
 2342SOL    HW2 7926   1.961   0.090   4.829
 2343SOL     OW 7927   1.788   5.224   2.762
 2343SOL    HW1 7928   1.816   5.190   2.852
 2343SOL    HW2 7929   1.700   5.271   2.770
 2344SOL     OW 7930   0.093   5.761   6.786
 2344SOL    HW1 7931   0.074   5.666   6.761
 2344SOL    HW2 7932   0.138   5.764   6.875
 2345SOL     OW 7933   2.242   5.797   4.620
 2345SOL    HW1 7934   2.254   5.806   4.521
 2345SOL    HW2 7935   2.248   5.700   4.646
 2346SOL     OW 7936   3.723   3.383   5.837
 2346SOL    HW1 7937   3.747   3.437   5.757
 2346SOL    HW2 7938   3.721   3.286   5.813
 2347SOL     OW 7939   2.525   2.057   1.468
 2347SOL    HW1 7940   2.452   2.121   1.446
 2347SOL    HW2 7941   2.606   2.078   1.413
 2348SOL     OW 7942   1.430   6.395   3.581
 2348SOL    HW1 7943   1.507   6.387   3.518
 2348SOL    HW2 7944   1.375   6.474   3.556
 2349SOL     OW 7945   0.985   4.747   6.083
 2349SOL    HW1 7946   1.012   4.795   6.000
 2349SOL    HW2 7947   1.018   4.652   6.079
 2350SOL     OW 7948   6.084   5.292   5.995
 2350SOL    HW1 7949   6.039   5.285   5.906
 2350SOL    HW2 7950   6.100   5.200   6.032
 2351SOL     OW 7951   3.240   4.875   4.265
 2351SOL    HW1 7952   3.274   4.929   4.341
 2351SOL    HW2 7953   3.178   4.804   4.299
 2352SOL     OW 7954   0.299   3.225   2.644
 2352SOL    HW1 7955   0.236   3.210   2.568
 2352SOL    HW2 7956   0.306   3.142   2.699
 2353SOL     OW 7957   3.534   5.011   4.382
 2353SOL    HW1 7958   3.552   4.996   4.285
 2353SOL    HW2 7959   3.600   4.960   4.437
 2354SOL     OW 7960   2.482   2.003   4.470
 2354SOL    HW1 7961   2.577   1.973   4.481
 2354SOL    HW2 7962   2.438   1.946   4.401
 2355SOL     OW 7963   1.767   6.881   5.828
 2355SOL    HW1 7964   1.859   6.886   5.868
 2355SOL    HW2 7965   1.763   6.940   5.748
 2356SOL     OW 7966   1.335   3.115   6.292
 2356SOL    HW1 7967   1.246   3.158   6.278
 2356SOL    HW2 7968   1.402   3.184   6.319
 2357SOL     OW 7969   4.479   0.684   2.283
 2357SOL    HW1 7970   4.519   0.655   2.370
 2357SOL    HW2 7971   4.550   0.723   2.225
 2358SOL     OW 7972   3.204   5.243   5.362
 2358SOL    HW1 7973   3.300   5.225   5.339
 2358SOL    HW2 7974   3.172   5.322   5.311
 2359SOL     OW 7975   0.043   0.556   5.329
 2359SOL    HW1 7976   0.117   0.618   5.304
 2359SOL    HW2 7977   0.020   0.568   5.426
 2360SOL     OW 7978   5.508   3.414   6.881
 2360SOL    HW1 7979   5.593   3.433   6.931
 2360SOL    HW2 7980   5.515   3.325   6.837
 2361SOL     OW 7981   2.395   0.347   6.627
 2361SOL    HW1 7982   2.471   0.410   6.640
 2361SOL    HW2 7983   2.316   0.398   6.592
 2362SOL     OW 7984   2.445   5.864   4.030
 2362SOL    HW1 7985   2.361   5.908   4.061
 2362SOL    HW2 7986   2.452   5.773   4.070
 2363SOL     OW 7987   3.889   2.134   4.544
 2363SOL    HW1 7988   3.795   2.155   4.573
 2363SOL    HW2 7989   3.954   2.181   4.604
 2364SOL     OW 7990   0.824   2.682   2.165
 2364SOL    HW1 7991   0.862   2.700   2.074
 2364SOL    HW2 7992   0.854   2.592   2.196
 2365SOL     OW 7993   6.689   2.342   6.681
 2365SOL    HW1 7994   6.717   2.246   6.690
 2365SOL    HW2 7995   6.629   2.367   6.757
 2366SOL     OW 7996   2.063   5.770   6.908
 2366SOL    HW1 7997   2.082   5.831   6.832
 2366SOL    HW2 7998   1.964   5.769   6.926
 2367SOL     OW 7999   2.523   3.732   1.108
 2367SOL    HW1 8000   2.561   3.764   1.194
 2367SOL    HW2 8001   2.456   3.660   1.125
 2368SOL     OW 8002   5.453   6.391   4.445
 2368SOL    HW1 8003   5.434   6.356   4.537
 2368SOL    HW2 8004   5.531   6.453   4.449
 2369SOL     OW 8005   1.652   0.595   4.604
 2369SOL    HW1 8006   1.700   0.628   4.685
 2369SOL    HW2 8007   1.608   0.672   4.557
 2370SOL     OW 8008   5.502   3.051   0.315
 2370SOL    HW1 8009   5.428   3.109   0.280
 2370SOL    HW2 8010   5.487   2.956   0.286
 2371SOL     OW 8011   1.512   6.812   1.563
 2371SOL    HW1 8012   1.460   6.817   1.477
 2371SOL    HW2 8013   1.609   6.825   1.543
 2372SOL     OW 8014   6.788   2.793   2.086
 2372SOL    HW1 8015   6.849   2.730   2.133
 2372SOL    HW2 8016   6.827   2.885   2.086
 2373SOL     OW 8017   0.494   3.061   5.754
 2373SOL    HW1 8018   0.592   3.042   5.757
 2373SOL    HW2 8019   0.472   3.133   5.819
 2374SOL     OW 8020   6.248   1.619   4.139
 2374SOL    HW1 8021   6.156   1.649   4.165
 2374SOL    HW2 8022   6.311   1.697   4.143
 2375SOL     OW 8023   3.476   6.225   4.842
 2375SOL    HW1 8024   3.501   6.185   4.754
 2375SOL    HW2 8025   3.558   6.256   4.889
 2376SOL     OW 8026   6.507   2.999   4.148
 2376SOL    HW1 8027   6.536   3.058   4.223
 2376SOL    HW2 8028   6.510   3.050   4.062
 2377SOL     OW 8029   3.840   4.066   4.192
 2377SOL    HW1 8030   3.746   4.048   4.164
 2377SOL    HW2 8031   3.850   4.047   4.289
 2378SOL     OW 8032   5.006   1.441   0.496
 2378SOL    HW1 8033   5.098   1.475   0.513
 2378SOL    HW2 8034   4.941   1.517   0.506
 2379SOL     OW 8035   0.161   1.195   0.575
 2379SOL    HW1 8036   0.150   1.130   0.500
 2379SOL    HW2 8037   0.256   1.191   0.609
 2380SOL     OW 8038   0.242   2.193   6.531
 2380SOL    HW1 8039   0.234   2.266   6.464
 2380SOL    HW2 8040   0.176   2.207   6.605
 2381SOL     OW 8041   1.757   5.368   4.356
 2381SOL    HW1 8042   1.822   5.327   4.292
 2381SOL    HW2 8043   1.790   5.357   4.449
 2382SOL     OW 8044   2.041   3.418   4.706
 2382SOL    HW1 8045   2.060   3.401   4.802
 2382SOL    HW2 8046   2.082   3.345   4.651
 2383SOL     OW 8047   5.034   6.657   0.718
 2383SOL    HW1 8048   5.091   6.694   0.791
 2383SOL    HW2 8049   5.059   6.699   0.631
 2384SOL     OW 8050   6.096   0.830   2.676
 2384SOL    HW1 8051   6.066   0.916   2.636
 2384SOL    HW2 8052   6.041   0.810   2.758
 2385SOL     OW 8053   1.057   0.520   0.197
 2385SOL    HW1 8054   1.127   0.504   0.127
 2385SOL    HW2 8055   0.983   0.454   0.185
 2386SOL     OW 8056   5.680   6.195   4.657
 2386SOL    HW1 8057   5.655   6.261   4.728
 2386SOL    HW2 8058   5.600   6.175   4.601
 2387SOL     OW 8059   1.314   1.839   4.160
 2387SOL    HW1 8060   1.287   1.924   4.114
 2387SOL    HW2 8061   1.412   1.825   4.149
 2388SOL     OW 8062   0.548   2.019   3.685
 2388SOL    HW1 8063   0.529   2.013   3.587
 2388SOL    HW2 8064   0.603   2.101   3.703
 2389SOL     OW 8065   4.490   4.689   3.191
 2389SOL    HW1 8066   4.468   4.625   3.118
 2389SOL    HW2 8067   4.574   4.738   3.168
 2390SOL     OW 8068   3.859   3.016   3.367
 2390SOL    HW1 8069   3.842   2.955   3.290
 2390SOL    HW2 8070   3.779   3.075   3.381
 2391SOL     OW 8071   5.498   4.014   5.784
 2391SOL    HW1 8072   5.582   4.020   5.730
 2391SOL    HW2 8073   5.426   3.971   5.730
 2392SOL     OW 8074   3.623   6.206   5.232
 2392SOL    HW1 8075   3.676   6.128   5.267
 2392SOL    HW2 8076   3.526   6.189   5.246
 2393SOL     OW 8077   5.499   3.901   6.025
 2393SOL    HW1 8078   5.499   3.954   5.940
 2393SOL    HW2 8079   5.464   3.958   6.099
 2394SOL     OW 8080   0.930   4.344   4.864
 2394SOL    HW1 8081   0.988   4.319   4.787
 2394SOL    HW2 8082   0.834   4.342   4.837
 2395SOL     OW 8083   5.291   1.074   5.821
 2395SOL    HW1 8084   5.380   1.096   5.862
 2395SOL    HW2 8085   5.221   1.133   5.861
 2396SOL     OW 8086   3.803   5.135   0.936
 2396SOL    HW1 8087   3.897   5.138   0.971
 2396SOL    HW2 8088   3.763   5.227   0.939
 2397SOL     OW 8089   0.204   3.646   5.661
 2397SOL    HW1 8090   0.157   3.570   5.705
 2397SOL    HW2 8091   0.223   3.717   5.729
 2398SOL     OW 8092   4.444   4.514   6.680
 2398SOL    HW1 8093   4.412   4.420   6.665
 2398SOL    HW2 8094   4.495   4.544   6.600
 2399SOL     OW 8095   4.381   0.678   1.434
 2399SOL    HW1 8096   4.299   0.714   1.388
 2399SOL    HW2 8097   4.431   0.619   1.370
 2400SOL     OW 8098   2.949   4.317   1.266
 2400SOL    HW1 8099   2.965   4.376   1.345
 2400SOL    HW2 8100   2.972   4.366   1.182
 2401SOL     OW 8101   5.081   6.641   6.712
 2401SOL    HW1 8102   5.139   6.565   6.682
 2401SOL    HW2 8103   4.997   6.641   6.658
 2402SOL     OW 8104   0.484   0.629   3.680
 2402SOL    HW1 8105   0.569   0.677   3.700
 2402SOL    HW2 8106   0.480   0.544   3.732
 2403SOL     OW 8107   1.804   2.154   6.483
 2403SOL    HW1 8108   1.715   2.161   6.528
 2403SOL    HW2 8109   1.841   2.062   6.495
 2404SOL     OW 8110   2.407   0.823   0.766
 2404SOL    HW1 8111   2.341   0.748   0.769
 2404SOL    HW2 8112   2.357   0.910   0.758
 2405SOL     OW 8113   3.260   3.739   2.375
 2405SOL    HW1 8114   3.282   3.738   2.278
 2405SOL    HW2 8115   3.326   3.797   2.424
 2406SOL     OW 8116   3.031   0.292   1.779
 2406SOL    HW1 8117   3.049   0.385   1.812
 2406SOL    HW2 8118   2.992   0.297   1.687
 2407SOL     OW 8119   5.685   1.699   3.011
 2407SOL    HW1 8120   5.628   1.781   2.999
 2407SOL    HW2 8121   5.719   1.696   3.105
 2408SOL     OW 8122   4.179   4.713   3.481
 2408SOL    HW1 8123   4.187   4.632   3.539
 2408SOL    HW2 8124   4.226   4.790   3.526
 2409SOL     OW 8125   2.507   5.043   1.571
 2409SOL    HW1 8126   2.450   4.986   1.630
 2409SOL    HW2 8127   2.479   5.138   1.580
 2410SOL     OW 8128   4.159   2.945   5.343
 2410SOL    HW1 8129   4.197   3.037   5.355
 2410SOL    HW2 8130   4.232   2.878   5.349
 2411SOL     OW 8131   5.096   5.848   4.769
 2411SOL    HW1 8132   5.117   5.750   4.760
 2411SOL    HW2 8133   5.182   5.899   4.771
 2412SOL     OW 8134   6.061   4.243   1.125
 2412SOL    HW1 8135   5.977   4.230   1.177
 2412SOL    HW2 8136   6.060   4.183   1.045
 2413SOL     OW 8137   6.563   1.164   1.026
 2413SOL    HW1 8138   6.476   1.182   0.981
 2413SOL    HW2 8139   6.583   1.237   1.091
 2414SOL     OW 8140   4.810   4.453   3.255
 2414SOL    HW1 8141   4.755   4.370   3.259
 2414SOL    HW2 8142   4.792   4.509   3.336
 2415SOL     OW 8143   6.415   1.285   3.066
 2415SOL    HW1 8144   6.492   1.282   3.002
 2415SOL    HW2 8145   6.346   1.348   3.032
 2416SOL     OW 8146   5.032   2.582   4.623
 2416SOL    HW1 8147   5.057   2.525   4.701
 2416SOL    HW2 8148   5.003   2.523   4.547
 2417SOL     OW 8149   3.744   3.655   4.917
 2417SOL    HW1 8150   3.770   3.569   4.961
 2417SOL    HW2 8151   3.786   3.731   4.966
 2418SOL     OW 8152   3.594   3.071   4.777
 2418SOL    HW1 8153   3.679   3.026   4.751
 2418SOL    HW2 8154   3.582   3.064   4.876
 2419SOL     OW 8155   6.804   6.697   4.336
 2419SOL    HW1 8156   6.832   6.603   4.316
 2419SOL    HW2 8157   6.846   6.727   4.422
 2420SOL     OW 8158   3.334   0.629   3.138
 2420SOL    HW1 8159   3.351   0.664   3.230
 2420SOL    HW2 8160   3.403   0.666   3.075
 2421SOL     OW 8161   2.360   2.284   4.938
 2421SOL    HW1 8162   2.438   2.346   4.927
 2421SOL    HW2 8163   2.340   2.239   4.851
 2422SOL     OW 8164   5.325   1.777   0.722
 2422SOL    HW1 8165   5.414   1.823   0.725
 2422SOL    HW2 8166   5.308   1.733   0.810
 2423SOL     OW 8167   1.614   5.681   2.666
 2423SOL    HW1 8168   1.657   5.771   2.657
 2423SOL    HW2 8169   1.524   5.691   2.707
 2424SOL     OW 8170   6.565   6.704   6.692
 2424SOL    HW1 8171   6.545   6.642   6.616
 2424SOL    HW2 8172   6.497   6.690   6.764
 2425SOL     OW 8173   5.905   0.373   4.040
 2425SOL    HW1 8174   5.851   0.313   3.980
 2425SOL    HW2 8175   5.954   0.440   3.984
 2426SOL     OW 8176   1.240   5.456   5.439
 2426SOL    HW1 8177   1.252   5.410   5.351
 2426SOL    HW2 8178   1.210   5.550   5.424
 2427SOL     OW 8179   5.136   5.894   5.602
 2427SOL    HW1 8180   5.121   5.965   5.671
 2427SOL    HW2 8181   5.112   5.931   5.512
 2428SOL     OW 8182   0.482   0.766   2.574
 2428SOL    HW1 8183   0.418   0.727   2.641
 2428SOL    HW2 8184   0.435   0.837   2.521
 2429SOL     OW 8185   5.967   5.440   1.979
 2429SOL    HW1 8186   5.951   5.352   2.023
 2429SOL    HW2 8187   6.048   5.433   1.920
 2430SOL     OW 8188   6.584   1.195   2.024
 2430SOL    HW1 8189   6.641   1.217   2.103
 2430SOL    HW2 8190   6.539   1.107   2.038
 2431SOL     OW 8191   4.205   0.300   2.183
 2431SOL    HW1 8192   4.152   0.259   2.108
 2431SOL    HW2 8193   4.178   0.258   2.270
 2432SOL     OW 8194   4.223   6.928   2.540
 2432SOL    HW1 8195   4.290   6.887   2.601
 2432SOL    HW2 8196   4.269   6.989   2.476
 2433SOL     OW 8197   4.391   1.948   0.302
 2433SOL    HW1 8198   4.380   1.863   0.354
 2433SOL    HW2 8199   4.438   1.929   0.216
 2434SOL     OW 8200   4.226   1.556   6.084
 2434SOL    HW1 8201   4.279   1.599   6.010
 2434SOL    HW2 8202   4.177   1.477   6.048
 2435SOL     OW 8203   5.042   5.587   5.554
 2435SOL    HW1 8204   5.094   5.600   5.470
 2435SOL    HW2 8205   5.031   5.675   5.601
 2436SOL     OW 8206   1.502   5.608   6.180
 2436SOL    HW1 8207   1.573   5.595   6.111
 2436SOL    HW2 8208   1.544   5.606   6.271
 2437SOL     OW 8209   6.204   0.010   6.771
 2437SOL    HW1 8210   6.275   6.978   6.816
 2437SOL    HW2 8211   6.177   6.990   6.686
 2438SOL     OW 8212   3.008   2.242   0.407
 2438SOL    HW1 8213   2.984   2.289   0.492
 2438SOL    HW2 8214   3.021   2.309   0.334
 2439SOL     OW 8215   0.771   3.921   6.333
 2439SOL    HW1 8216   0.732   3.935   6.242
 2439SOL    HW2 8217   0.756   4.003   6.388
 2440SOL     OW 8218   4.812   5.556   5.790
 2440SOL    HW1 8219   4.827   5.655   5.786
 2440SOL    HW2 8220   4.714   5.537   5.789
 2441SOL     OW 8221   6.883   2.741   0.405
 2441SOL    HW1 8222   6.843   2.772   0.319
 2441SOL    HW2 8223   6.845   2.795   0.480
 2442SOL     OW 8224   1.136   3.795   5.831
 2442SOL    HW1 8225   1.166   3.890   5.831
 2442SOL    HW2 8226   1.109   3.769   5.739
 2443SOL     OW 8227   2.985   4.280   6.366
 2443SOL    HW1 8228   3.075   4.317   6.342
 2443SOL    HW2 8229   2.916   4.323   6.308
 2444SOL     OW 8230   2.792   4.757   6.407
 2444SOL    HW1 8231   2.887   4.757   6.376
 2444SOL    HW2 8232   2.733   4.789   6.332
 2445SOL     OW 8233   0.440   0.769   0.947
 2445SOL    HW1 8234   0.457   0.853   0.999
 2445SOL    HW2 8235   0.444   0.691   1.009
 2446SOL     OW 8236   6.302   4.125   4.373
 2446SOL    HW1 8237   6.219   4.123   4.317
 2446SOL    HW2 8238   6.298   4.204   4.434
 2447SOL     OW 8239   1.835   2.148   6.931
 2447SOL    HW1 8240   1.863   2.066   6.981
 2447SOL    HW2 8241   1.775   2.203   6.989
 2448SOL     OW 8242   0.338   0.544   4.313
 2448SOL    HW1 8243   0.312   0.631   4.270
 2448SOL    HW2 8244   0.431   0.520   4.287
 2449SOL     OW 8245   0.329   3.576   0.057
 2449SOL    HW1 8246   0.240   3.617   0.078
 2449SOL    HW2 8247   0.316   3.483   0.022
 2450SOL     OW 8248   2.574   4.674   2.849
 2450SOL    HW1 8249   2.509   4.742   2.816
 2450SOL    HW2 8250   2.622   4.633   2.772
 2451SOL     OW 8251   2.099   6.936   4.131
 2451SOL    HW1 8252   2.124   6.863   4.067
 2451SOL    HW2 8253   2.177   6.955   4.192
 2452SOL     OW 8254   1.307   3.804   2.725
 2452SOL    HW1 8255   1.322   3.753   2.810
 2452SOL    HW2 8256   1.210   3.803   2.702
 2453SOL     OW 8257   6.553   4.302   1.400
 2453SOL    HW1 8258   6.463   4.301   1.356
 2453SOL    HW2 8259   6.544   4.272   1.495
 2454SOL     OW 8260   3.430   0.680   2.261
 2454SOL    HW1 8261   3.398   0.761   2.310
 2454SOL    HW2 8262   3.471   0.708   2.174
 2455SOL     OW 8263   5.287   5.315   1.188
 2455SOL    HW1 8264   5.268   5.312   1.090
 2455SOL    HW2 8265   5.285   5.410   1.220
 2456SOL     OW 8266   5.108   6.679   1.683
 2456SOL    HW1 8267   5.150   6.721   1.603
 2456SOL    HW2 8268   5.111   6.579   1.674
 2457SOL     OW 8269   5.929   6.935   0.844
 2457SOL    HW1 8270   6.020   6.973   0.862
 2457SOL    HW2 8271   5.937   6.854   0.787
 2458SOL     OW 8272   2.173   6.069   3.188
 2458SOL    HW1 8273   2.151   6.161   3.156
 2458SOL    HW2 8274   2.261   6.040   3.150
 2459SOL     OW 8275   2.330   0.340   0.885
 2459SOL    HW1 8276   2.239   0.300   0.899
 2459SOL    HW2 8277   2.350   0.341   0.787
 2460SOL     OW 8278   2.855   6.001   2.208
 2460SOL    HW1 8279   2.810   6.074   2.156
 2460SOL    HW2 8280   2.906   5.942   2.145
 2461SOL     OW 8281   5.323   0.499   2.118
 2461SOL    HW1 8282   5.342   0.425   2.182
 2461SOL    HW2 8283   5.251   0.558   2.155
 2462SOL     OW 8284   2.306   5.246   6.741
 2462SOL    HW1 8285   2.387   5.235   6.683
 2462SOL    HW2 8286   2.331   5.229   6.836
 2463SOL     OW 8287   6.463   1.966   3.363
 2463SOL    HW1 8288   6.521   1.983   3.443
 2463SOL    HW2 8289   6.510   1.904   3.300
 2464SOL     OW 8290   1.277   3.340   1.246
 2464SOL    HW1 8291   1.249   3.364   1.339
 2464SOL    HW2 8292   1.312   3.246   1.244
 2465SOL     OW 8293   0.220   6.081   2.035
 2465SOL    HW1 8294   0.283   6.029   1.977
 2465SOL    HW2 8295   0.131   6.087   1.991
 2466SOL     OW 8296   4.016   1.727   2.675
 2466SOL    HW1 8297   4.110   1.706   2.647
 2466SOL    HW2 8298   3.987   1.663   2.747
 2467SOL     OW 8299   0.019   0.878   6.044
 2467SOL    HW1 8300   6.953   0.880   6.090
 2467SOL    HW2 8301   0.013   0.821   5.962
 2468SOL     OW 8302   6.669   6.045   1.326
 2468SOL    HW1 8303   6.744   6.056   1.261
 2468SOL    HW2 8304   6.624   5.957   1.310
 2469SOL     OW 8305   2.687   3.161   5.588
 2469SOL    HW1 8306   2.760   3.197   5.647
 2469SOL    HW2 8307   2.727   3.104   5.517
 2470SOL     OW 8308   4.293   3.742   6.748
 2470SOL    HW1 8309   4.294   3.670   6.679
 2470SOL    HW2 8310   4.319   3.829   6.706
 2471SOL     OW 8311   0.384   6.821   2.854
 2471SOL    HW1 8312   0.471   6.857   2.821
 2471SOL    HW2 8313   0.398   6.731   2.896
 2472SOL     OW 8314   5.826   2.746   4.456
 2472SOL    HW1 8315   5.846   2.696   4.540
 2472SOL    HW2 8316   5.828   2.683   4.378
 2473SOL     OW 8317   0.989   5.944   4.878
 2473SOL    HW1 8318   1.012   5.968   4.784
 2473SOL    HW2 8319   0.963   5.847   4.882
 2474SOL     OW 8320   6.582   4.651   5.064
 2474SOL    HW1 8321   6.616   4.745   5.064
 2474SOL    HW2 8322   6.503   4.644   5.125
 2475SOL     OW 8323   3.689   2.806   0.535
 2475SOL    HW1 8324   3.722   2.764   0.451
 2475SOL    HW2 8325   3.755   2.875   0.565
 2476SOL     OW 8326   0.949   1.983   3.481
 2476SOL    HW1 8327   0.879   2.001   3.411
 2476SOL    HW2 8328   0.918   1.907   3.539
 2477SOL     OW 8329   5.175   4.933   1.465
 2477SOL    HW1 8330   5.259   4.883   1.445
 2477SOL    HW2 8331   5.191   5.031   1.452
 2478SOL     OW 8332   5.797   6.820   2.638
 2478SOL    HW1 8333   5.886   6.800   2.597
 2478SOL    HW2 8334   5.732   6.844   2.565
 2479SOL     OW 8335   0.692   2.606   0.416
 2479SOL    HW1 8336   0.628   2.629   0.343
 2479SOL    HW2 8337   0.753   2.533   0.385
 2480SOL     OW 8338   1.028   3.613   1.023
 2480SOL    HW1 8339   0.929   3.628   1.013
 2480SOL    HW2 8340   1.046   3.514   1.021
 2481SOL     OW 8341   4.175   5.106   2.551
 2481SOL    HW1 8342   4.244   5.038   2.526
 2481SOL    HW2 8343   4.119   5.127   2.472
 2482SOL     OW 8344   5.006   2.772   4.827
 2482SOL    HW1 8345   5.000   2.720   4.742
 2482SOL    HW2 8346   4.965   2.862   4.814
 2483SOL     OW 8347   1.039   1.780   0.027
 2483SOL    HW1 8348   1.050   1.696   0.080
 2483SOL    HW2 8349   0.951   1.822   0.048
 2484SOL     OW 8350   3.104   1.472   0.096
 2484SOL    HW1 8351   3.066   1.558   0.129
 2484SOL    HW2 8352   3.087   1.401   0.165
 2485SOL     OW 8353   0.210   5.135   2.258
 2485SOL    HW1 8354   0.280   5.207   2.259
 2485SOL    HW2 8355   0.197   5.100   2.351
 2486SOL     OW 8356   1.610   5.541   3.165
 2486SOL    HW1 8357   1.521   5.581   3.185
 2486SOL    HW2 8358   1.620   5.531   3.066
 2487SOL     OW 8359   3.739   0.028   0.914
 2487SOL    HW1 8360   3.811   0.052   0.848
 2487SOL    HW2 8361   3.730   0.103   0.980
 2488SOL     OW 8362   3.075   5.367   1.066
 2488SOL    HW1 8363   3.143   5.439   1.078
 2488SOL    HW2 8364   3.028   5.380   0.979
 2489SOL     OW 8365   1.456   5.492   4.870
 2489SOL    HW1 8366   1.409   5.480   4.782
 2489SOL    HW2 8367   1.509   5.410   4.891
 2490SOL     OW 8368   5.841   3.630   1.394
 2490SOL    HW1 8369   5.881   3.540   1.375
 2490SOL    HW2 8370   5.909   3.701   1.375
 2491SOL     OW 8371   2.993   5.378   2.607
 2491SOL    HW1 8372   2.964   5.296   2.655
 2491SOL    HW2 8373   2.965   5.459   2.659
 2492SOL     OW 8374   5.017   3.291   6.707
 2492SOL    HW1 8375   5.085   3.244   6.762
 2492SOL    HW2 8376   5.062   3.365   6.655
 2493SOL     OW 8377   6.052   1.719   3.219
 2493SOL    HW1 8378   6.129   1.692   3.162
 2493SOL    HW2 8379   6.078   1.796   3.277
 2494SOL     OW 8380   4.835   2.951   2.549
 2494SOL    HW1 8381   4.799   2.953   2.643
 2494SOL    HW2 8382   4.800   2.871   2.502
 2495SOL     OW 8383   5.491   1.130   4.947
 2495SOL    HW1 8384   5.591   1.122   4.947
 2495SOL    HW2 8385   5.457   1.127   5.041
 2496SOL     OW 8386   1.335   6.444   0.208
 2496SOL    HW1 8387   1.289   6.390   0.278
 2496SOL    HW2 8388   1.273   6.516   0.176
 2497SOL     OW 8389   6.431   1.629   6.705
 2497SOL    HW1 8390   6.407   1.552   6.646
 2497SOL    HW2 8391   6.513   1.606   6.758
 2498SOL     OW 8392   1.856   3.144   4.921
 2498SOL    HW1 8393   1.850   3.134   5.021
 2498SOL    HW2 8394   1.912   3.224   4.899
 2499SOL     OW 8395   5.744   0.539   4.835
 2499SOL    HW1 8396   5.692   0.614   4.875
 2499SOL    HW2 8397   5.842   0.558   4.844
 2500SOL     OW 8398   4.704   3.007   6.970
 2500SOL    HW1 8399   4.615   2.975   7.004
 2500SOL    HW2 8400   4.761   2.929   6.947
 2501SOL     OW 8401   6.751   4.164   0.449
 2501SOL    HW1 8402   6.732   4.119   0.537
 2501SOL    HW2 8403   6.841   4.136   0.417
 2502SOL     OW 8404   2.409   6.547   3.217
 2502SOL    HW1 8405   2.325   6.590   3.185
 2502SOL    HW2 8406   2.482   6.564   3.152
 2503SOL     OW 8407   4.070   5.033   5.538
 2503SOL    HW1 8408   4.114   5.088   5.467
 2503SOL    HW2 8409   4.042   5.092   5.614
 2504SOL     OW 8410   1.665   4.696   3.849
 2504SOL    HW1 8411   1.730   4.712   3.923
 2504SOL    HW2 8412   1.591   4.763   3.855
 2505SOL     OW 8413   4.718   5.567   4.510
 2505SOL    HW1 8414   4.626   5.528   4.505
 2505SOL    HW2 8415   4.751   5.589   4.418
 2506SOL     OW 8416   6.907   2.323   6.506
 2506SOL    HW1 8417   6.871   2.279   6.424
 2506SOL    HW2 8418   6.832   2.338   6.571
 2507SOL     OW 8419   6.467   6.247   0.046
 2507SOL    HW1 8420   6.465   6.216   6.974
 2507SOL    HW2 8421   6.391   6.206   0.096
 2508SOL     OW 8422   2.465   2.545   2.449
 2508SOL    HW1 8423   2.452   2.485   2.370
 2508SOL    HW2 8424   2.550   2.520   2.496
 2509SOL     OW 8425   4.792   3.005   3.618
 2509SOL    HW1 8426   4.816   3.052   3.702
 2509SOL    HW2 8427   4.709   2.951   3.632
 2510SOL     OW 8428   3.948   5.477   0.266
 2510SOL    HW1 8429   4.033   5.447   0.223
 2510SOL    HW2 8430   3.923   5.413   0.339
 2511SOL     OW 8431   1.133   0.778   4.776
 2511SOL    HW1 8432   1.202   0.813   4.713
 2511SOL    HW2 8433   1.107   0.685   4.749
 2512SOL     OW 8434   5.358   3.402   5.366
 2512SOL    HW1 8435   5.307   3.316   5.373
 2512SOL    HW2 8436   5.299   3.478   5.394
 2513SOL     OW 8437   0.652   3.087   0.533
 2513SOL    HW1 8438   0.582   3.096   0.462
 2513SOL    HW2 8439   0.635   3.004   0.587
 2514SOL     OW 8440   1.383   0.680   3.613
 2514SOL    HW1 8441   1.438   0.597   3.599
 2514SOL    HW2 8442   1.298   0.657   3.659
 2515SOL     OW 8443   0.631   5.713   0.512
 2515SOL    HW1 8444   0.584   5.706   0.424
 2515SOL    HW2 8445   0.718   5.762   0.500
 2516SOL     OW 8446   5.457   6.355   3.766
 2516SOL    HW1 8447   5.365   6.318   3.759
 2516SOL    HW2 8448   5.484   6.397   3.680
 2517SOL     OW 8449   2.093   4.684   0.133
 2517SOL    HW1 8450   2.019   4.651   0.192
 2517SOL    HW2 8451   2.103   4.622   0.054
 2518SOL     OW 8452   2.511   2.502   6.736
 2518SOL    HW1 8453   2.510   2.559   6.654
 2518SOL    HW2 8454   2.424   2.512   6.784
 2519SOL     OW 8455   4.770   4.878   4.854
 2519SOL    HW1 8456   4.757   4.933   4.937
 2519SOL    HW2 8457   4.867   4.856   4.843
 2520SOL     OW 8458   2.360   4.172   1.909
 2520SOL    HW1 8459   2.434   4.170   1.842
 2520SOL    HW2 8460   2.397   4.162   2.001
 2521SOL     OW 8461   5.422   6.644   5.466
 2521SOL    HW1 8462   5.322   6.652   5.467
 2521SOL    HW2 8463   5.459   6.709   5.400
 2522SOL     OW 8464   0.986   3.406   4.618
 2522SOL    HW1 8465   0.975   3.310   4.644
 2522SOL    HW2 8466   0.915   3.431   4.552
 2523SOL     OW 8467   0.914   3.466   6.897
 2523SOL    HW1 8468   0.899   3.443   6.994
 2523SOL    HW2 8469   0.825   3.482   6.853
 2524SOL     OW 8470   1.329   6.524   4.235
 2524SOL    HW1 8471   1.422   6.541   4.203
 2524SOL    HW2 8472   1.276   6.483   4.161
 2525SOL     OW 8473   1.334   3.380   3.770
 2525SOL    HW1 8474   1.329   3.289   3.811
 2525SOL    HW2 8475   1.337   3.450   3.842
 2526SOL     OW 8476   6.560   1.361   4.574
 2526SOL    HW1 8477   6.511   1.380   4.490
 2526SOL    HW2 8478   6.594   1.447   4.613
 2527SOL     OW 8479   5.684   6.597   3.636
 2527SOL    HW1 8480   5.719   6.661   3.568
 2527SOL    HW2 8481   5.740   6.515   3.637
 2528SOL     OW 8482   6.658   5.606   0.128
 2528SOL    HW1 8483   6.576   5.662   0.118
 2528SOL    HW2 8484   6.632   5.509   0.129
 2529SOL     OW 8485   4.880   3.803   4.733
 2529SOL    HW1 8486   4.894   3.776   4.829
 2529SOL    HW2 8487   4.827   3.888   4.730
 2530SOL     OW 8488   0.681   0.783   3.761
 2530SOL    HW1 8489   0.773   0.782   3.803
 2530SOL    HW2 8490   0.676   0.858   3.694
 2531SOL     OW 8491   3.418   1.699   6.397
 2531SOL    HW1 8492   3.478   1.711   6.318
 2531SOL    HW2 8493   3.390   1.603   6.402
 2532SOL     OW 8494   1.336   4.783   6.677
 2532SOL    HW1 8495   1.239   4.761   6.686
 2532SOL    HW2 8496   1.381   4.775   6.766
 2533SOL     OW 8497   5.447   6.669   5.969
 2533SOL    HW1 8498   5.508   6.698   6.043
 2533SOL    HW2 8499   5.379   6.740   5.952
 2534SOL     OW 8500   1.026   1.291   3.573
 2534SOL    HW1 8501   0.988   1.208   3.613
 2534SOL    HW2 8502   1.087   1.267   3.497
 2535SOL     OW 8503   2.070   1.386   3.365
 2535SOL    HW1 8504   1.976   1.418   3.351
 2535SOL    HW2 8505   2.079   1.293   3.328
 2536SOL     OW 8506   5.848   0.790   3.999
 2536SOL    HW1 8507   5.881   0.798   3.905
 2536SOL    HW2 8508   5.755   0.825   4.005
 2537SOL     OW 8509   4.946   5.428   1.141
 2537SOL    HW1 8510   4.917   5.354   1.081
 2537SOL    HW2 8511   4.898   5.420   1.229
 2538SOL     OW 8512   2.195   4.900   4.705
 2538SOL    HW1 8513   2.288   4.932   4.719
 2538SOL    HW2 8514   2.175   4.899   4.607
 2539SOL     OW 8515   3.501   0.051   5.229
 2539SOL    HW1 8516   3.557   0.042   5.146
 2539SOL    HW2 8517   3.524   0.137   5.275
 2540SOL     OW 8518   5.698   2.113   2.398
 2540SOL    HW1 8519   5.714   2.032   2.455
 2540SOL    HW2 8520   5.624   2.167   2.437
 2541SOL     OW 8521   0.842   6.332   5.963
 2541SOL    HW1 8522   0.927   6.338   5.911
 2541SOL    HW2 8523   0.786   6.413   5.945
 2542SOL     OW 8524   3.395   1.839   4.411
 2542SOL    HW1 8525   3.331   1.796   4.474
 2542SOL    HW2 8526   3.418   1.931   4.443
 2543SOL     OW 8527   0.486   1.944   3.382
 2543SOL    HW1 8528   0.476   1.859   3.435
 2543SOL    HW2 8529   0.428   1.939   3.301
 2544SOL     OW 8530   6.537   5.090   1.440
 2544SOL    HW1 8531   6.635   5.075   1.458
 2544SOL    HW2 8532   6.492   5.118   1.525
 2545SOL     OW 8533   0.636   1.597   1.443
 2545SOL    HW1 8534   0.670   1.507   1.416
 2545SOL    HW2 8535   0.547   1.587   1.487
 2546SOL     OW 8536   0.164   3.887   2.328
 2546SOL    HW1 8537   0.095   3.960   2.324
 2546SOL    HW2 8538   0.166   3.848   2.420
 2547SOL     OW 8539   5.756   3.538   0.921
 2547SOL    HW1 8540   5.827   3.607   0.936
 2547SOL    HW2 8541   5.791   3.448   0.947
 2548SOL     OW 8542   6.810   6.848   4.994
 2548SOL    HW1 8543   6.856   6.767   4.958
 2548SOL    HW2 8544   6.877   6.909   5.034
 2549SOL     OW 8545   2.497   2.502   0.869
 2549SOL    HW1 8546   2.534   2.441   0.939
 2549SOL    HW2 8547   2.405   2.473   0.844
 2550SOL     OW 8548   4.475   0.018   6.189
 2550SOL    HW1 8549   4.475   0.113   6.158
 2550SOL    HW2 8550   4.382   7.005   6.185
 2551SOL     OW 8551   3.098   5.774   0.295
 2551SOL    HW1 8552   3.156   5.837   0.243
 2551SOL    HW2 8553   3.035   5.727   0.232
 2552SOL     OW 8554   2.297   6.083   0.925
 2552SOL    HW1 8555   2.226   6.152   0.941
 2552SOL    HW2 8556   2.301   6.021   1.004
 2553SOL     OW 8557   4.454   1.221   6.999
 2553SOL    HW1 8558   4.472   1.251   6.906
 2553SOL    HW2 8559   4.370   1.263   0.010
 2554SOL     OW 8560   1.383   5.827   1.549
 2554SOL    HW1 8561   1.310   5.801   1.613
 2554SOL    HW2 8562   1.354   5.907   1.497
 2555SOL     OW 8563   5.470   5.759   5.315
 2555SOL    HW1 8564   5.481   5.850   5.275
 2555SOL    HW2 8565   5.535   5.696   5.272
 2556SOL     OW 8566   3.943   6.942   1.299
 2556SOL    HW1 8567   3.943   6.988   1.210
 2556SOL    HW2 8568   3.849   6.933   1.332
 2557SOL     OW 8569   3.643   0.131   6.867
 2557SOL    HW1 8570   3.560   0.181   6.843
 2557SOL    HW2 8571   3.718   0.196   6.878
 2558SOL     OW 8572   5.846   3.807   6.304
 2558SOL    HW1 8573   5.808   3.774   6.218
 2558SOL    HW2 8574   5.792   3.771   6.380
 2559SOL     OW 8575   1.004   4.777   4.128
 2559SOL    HW1 8576   0.958   4.735   4.206
 2559SOL    HW2 8577   0.988   4.875   4.129
 2560SOL     OW 8578   4.970   1.864   3.265
 2560SOL    HW1 8579   5.022   1.876   3.350
 2560SOL    HW2 8580   5.003   1.783   3.217
 2561SOL     OW 8581   3.608   0.791   4.300
 2561SOL    HW1 8582   3.701   0.789   4.262
 2561SOL    HW2 8583   3.603   0.729   4.379
 2562SOL     OW 8584   3.315   6.974   3.416
 2562SOL    HW1 8585   3.273   0.041   3.407
 2562SOL    HW2 8586   3.277   6.927   3.496
 2563SOL     OW 8587   3.741   1.406   7.000
 2563SOL    HW1 8588   3.687   1.387   0.059
 2563SOL    HW2 8589   3.686   1.388   6.919
 2564SOL     OW 8590   1.427   1.199   0.558
 2564SOL    HW1 8591   1.389   1.110   0.584
 2564SOL    HW2 8592   1.440   1.202   0.459
 2565SOL     OW 8593   1.431   2.236   6.960
 2565SOL    HW1 8594   1.343   2.188   6.956
 2565SOL    HW2 8595   1.443   2.290   6.877
 2566SOL     OW 8596   2.140   0.991   1.087
 2566SOL    HW1 8597   2.220   1.050   1.075
 2566SOL    HW2 8598   2.097   1.011   1.175
 2567SOL     OW 8599   1.528   0.414   0.297
 2567SOL    HW1 8600   1.452   0.423   0.361
 2567SOL    HW2 8601   1.608   0.377   0.346
 2568SOL     OW 8602   2.831   6.257   1.265
 2568SOL    HW1 8603   2.886   6.336   1.238
 2568SOL    HW2 8604   2.825   6.193   1.188
 2569SOL     OW 8605   0.840   0.393   1.421
 2569SOL    HW1 8606   0.812   0.310   1.468
 2569SOL    HW2 8607   0.823   0.472   1.480
 2570SOL     OW 8608   5.644   6.746   6.175
 2570SOL    HW1 8609   5.725   6.805   6.175
 2570SOL    HW2 8610   5.623   6.718   6.269
 2571SOL     OW 8611   3.343   3.216   4.757
 2571SOL    HW1 8612   3.426   3.160   4.765
 2571SOL    HW2 8613   3.265   3.158   4.735
 2572SOL     OW 8614   1.933   6.520   1.848
 2572SOL    HW1 8615   1.980   6.458   1.785
 2572SOL    HW2 8616   1.878   6.467   1.913
 2573SOL     OW 8617   0.082   2.289   4.478
 2573SOL    HW1 8618   0.074   2.366   4.413
 2573SOL    HW2 8619   0.103   2.206   4.427
 2574SOL     OW 8620   0.989   3.785   1.748
 2574SOL    HW1 8621   1.013   3.827   1.661
 2574SOL    HW2 8622   0.909   3.727   1.736
 2575SOL     OW 8623   6.215   3.868   0.409
 2575SOL    HW1 8624   6.251   3.836   0.497
 2575SOL    HW2 8625   6.290   3.873   0.343
 2576SOL     OW 8626   1.889   6.697   3.286
 2576SOL    HW1 8627   1.829   6.746   3.223
 2576SOL    HW2 8628   1.917   6.610   3.246
 2577SOL     OW 8629   2.345   6.035   2.587
 2577SOL    HW1 8630   2.292   6.071   2.510
 2577SOL    HW2 8631   2.372   5.941   2.569
 2578SOL     OW 8632   5.071   2.821   4.408
 2578SOL    HW1 8633   5.052   2.745   4.470
 2578SOL    HW2 8634   5.170   2.827   4.391
 2579SOL     OW 8635   7.020   2.668   6.921
 2579SOL    HW1 8636   6.994   2.707   6.832
 2579SOL    HW2 8637   6.965   2.710   6.993
 2580SOL     OW 8638   1.648   2.656   6.713
 2580SOL    HW1 8639   1.562   2.705   6.727
 2580SOL    HW2 8640   1.701   2.659   6.798
 2581SOL     OW 8641   6.303   6.825   3.009
 2581SOL    HW1 8642   6.254   6.778   3.082
 2581SOL    HW2 8643   6.282   6.922   3.012
 2582SOL     OW 8644   0.689   5.336   2.175
 2582SOL    HW1 8645   0.698   5.338   2.076
 2582SOL    HW2 8646   0.767   5.384   2.217
 2583SOL     OW 8647   1.395   0.158   0.213
 2583SOL    HW1 8648   1.453   0.235   0.240
 2583SOL    HW2 8649   1.373   0.104   0.294
 2584SOL     OW 8650   3.894   6.422   1.336
 2584SOL    HW1 8651   3.807   6.398   1.380
 2584SOL    HW2 8652   3.940   6.492   1.390
 2585SOL     OW 8653   3.665   0.247   1.075
 2585SOL    HW1 8654   3.656   0.293   1.163
 2585SOL    HW2 8655   3.650   0.313   1.001
 2586SOL     OW 8656   6.504   2.064   3.953
 2586SOL    HW1 8657   6.541   2.087   3.863
 2586SOL    HW2 8658   6.558   1.991   3.994
 2587SOL     OW 8659   5.767   6.344   3.596
 2587SOL    HW1 8660   5.767   6.268   3.662
 2587SOL    HW2 8661   5.858   6.353   3.556
 2588SOL     OW 8662   5.597   0.718   1.297
 2588SOL    HW1 8663   5.601   0.619   1.284
 2588SOL    HW2 8664   5.678   0.760   1.255
 2589SOL     OW 8665   6.408   6.162   6.069
 2589SOL    HW1 8666   6.315   6.174   6.034
 2589SOL    HW2 8667   6.409   6.183   6.167
 2590SOL     OW 8668   4.500   0.153   2.791
 2590SOL    HW1 8669   4.556   0.093   2.848
 2590SOL    HW2 8670   4.498   0.245   2.831
 2591SOL     OW 8671   5.446   6.577   1.393
 2591SOL    HW1 8672   5.438   6.490   1.442
 2591SOL    HW2 8673   5.529   6.577   1.338
 2592SOL     OW 8674   3.877   5.442   2.007
 2592SOL    HW1 8675   3.791   5.439   1.957
 2592SOL    HW2 8676   3.859   5.457   2.104
 2593SOL     OW 8677   2.901   6.390   2.626
 2593SOL    HW1 8678   2.817   6.349   2.590
 2593SOL    HW2 8679   2.893   6.490   2.621
 2594SOL     OW 8680   0.485   6.482   6.336
 2594SOL    HW1 8681   0.458   6.386   6.341
 2594SOL    HW2 8682   0.566   6.496   6.394
 2595SOL     OW 8683   5.990   3.665   4.497
 2595SOL    HW1 8684   6.069   3.702   4.448
 2595SOL    HW2 8685   5.968   3.574   4.462
 2596SOL     OW 8686   3.864   2.055   1.962
 2596SOL    HW1 8687   3.809   1.972   1.967
 2596SOL    HW2 8688   3.804   2.135   1.953
 2597SOL     OW 8689   2.185   3.792   0.552
 2597SOL    HW1 8690   2.216   3.834   0.467
 2597SOL    HW2 8691   2.085   3.792   0.555
 2598SOL     OW 8692   6.643   3.406   3.458
 2598SOL    HW1 8693   6.630   3.312   3.424
 2598SOL    HW2 8694   6.646   3.406   3.558
 2599SOL     OW 8695   3.239   5.530   0.112
 2599SOL    HW1 8696   3.301   5.459   0.146
 2599SOL    HW2 8697   3.180   5.561   0.187
 2600SOL     OW 8698   5.782   3.440   3.264
 2600SOL    HW1 8699   5.768   3.386   3.347
 2600SOL    HW2 8700   5.875   3.426   3.230
 2601SOL     OW 8701   3.490   3.478   6.252
 2601SOL    HW1 8702   3.520   3.542   6.323
 2601SOL    HW2 8703   3.532   3.503   6.165
 2602SOL     OW 8704   6.523   5.140   3.927
 2602SOL    HW1 8705   6.436   5.137   3.878
 2602SOL    HW2 8706   6.547   5.049   3.960
 2603SOL     OW 8707   2.602   2.076   1.191
 2603SOL    HW1 8708   2.664   2.105   1.118
 2603SOL    HW2 8709   2.545   2.153   1.219
 2604SOL     OW 8710   5.618   0.307   1.117
 2604SOL    HW1 8711   5.662   0.217   1.121
 2604SOL    HW2 8712   5.594   0.336   1.209
 2605SOL     OW 8713   4.388   5.083   4.945
 2605SOL    HW1 8714   4.413   4.986   4.939
 2605SOL    HW2 8715   4.292   5.093   4.921
 2606SOL     OW 8716   6.941   4.316   0.770
 2606SOL    HW1 8717   6.852   4.271   0.764
 2606SOL    HW2 8718   7.007   4.269   0.711
 2607SOL     OW 8719   0.793   0.443   3.611
 2607SOL    HW1 8720   0.831   0.536   3.614
 2607SOL    HW2 8721   0.753   0.426   3.521
 2608SOL     OW 8722   4.958   0.842   1.111
 2608SOL    HW1 8723   4.987   0.936   1.094
 2608SOL    HW2 8724   4.862   0.832   1.085
 2609SOL     OW 8725   0.870   2.096   2.334
 2609SOL    HW1 8726   0.904   2.021   2.276
 2609SOL    HW2 8727   0.774   2.114   2.312
 2610SOL     OW 8728   6.096   6.036   4.681
 2610SOL    HW1 8729   6.005   5.996   4.670
 2610SOL    HW2 8730   6.166   5.966   4.666
 2611SOL     OW 8731   4.886   6.607   1.456
 2611SOL    HW1 8732   4.883   6.689   1.512
 2611SOL    HW2 8733   4.867   6.527   1.513
 2612SOL     OW 8734   5.481   6.471   3.198
 2612SOL    HW1 8735   5.451   6.528   3.121
 2612SOL    HW2 8736   5.497   6.378   3.167
 2613SOL     OW 8737   3.826   0.439   2.128
 2613SOL    HW1 8738   3.878   0.400   2.204
 2613SOL    HW2 8739   3.845   0.537   2.122
 2614SOL     OW 8740   6.853   6.668   6.165
 2614SOL    HW1 8741   6.860   6.734   6.090
 2614SOL    HW2 8742   6.794   6.706   6.236
 2615SOL     OW 8743   4.802   5.412   2.563
 2615SOL    HW1 8744   4.813   5.360   2.478
 2615SOL    HW2 8745   4.885   5.464   2.581
 2616SOL     OW 8746   3.898   3.190   2.877
 2616SOL    HW1 8747   3.939   3.257   2.939
 2616SOL    HW2 8748   3.801   3.181   2.897
 2617SOL     OW 8749   3.639   6.374   1.434
 2617SOL    HW1 8750   3.601   6.388   1.526
 2617SOL    HW2 8751   3.630   6.278   1.409
 2618SOL     OW 8752   0.667   0.330   0.759
 2618SOL    HW1 8753   0.605   0.347   0.835
 2618SOL    HW2 8754   0.694   0.416   0.717
 2619SOL     OW 8755   4.478   1.968   2.168
 2619SOL    HW1 8756   4.438   2.035   2.231
 2619SOL    HW2 8757   4.470   1.876   2.207
 2620SOL     OW 8758   1.078   4.939   3.654
 2620SOL    HW1 8759   1.087   5.037   3.674
 2620SOL    HW2 8760   1.167   4.903   3.625
 2621SOL     OW 8761   0.672   5.555   3.546
 2621SOL    HW1 8762   0.722   5.583   3.465
 2621SOL    HW2 8763   0.700   5.611   3.624
 2622SOL     OW 8764   2.493   2.777   6.974
 2622SOL    HW1 8765   2.471   2.680   6.975
 2622SOL    HW2 8766   2.486   2.814   0.043
 2623SOL     OW 8767   3.586   1.014   5.802
 2623SOL    HW1 8768   3.651   0.957   5.752
 2623SOL    HW2 8769   3.498   0.966   5.809
 2624SOL     OW 8770   5.892   2.501   3.405
 2624SOL    HW1 8771   5.979   2.547   3.424
 2624SOL    HW2 8772   5.820   2.569   3.394
 2625SOL     OW 8773   2.646   2.492   5.842
 2625SOL    HW1 8774   2.723   2.472   5.902
 2625SOL    HW2 8775   2.678   2.502   5.748
 2626SOL     OW 8776   1.913   6.431   3.167
 2626SOL    HW1 8777   1.847   6.357   3.181
 2626SOL    HW2 8778   1.996   6.393   3.126
 2627SOL     OW 8779   6.773   7.012   4.290
 2627SOL    HW1 8780   6.761   7.012   4.390
 2627SOL    HW2 8781   6.868   6.993   4.268
 2628SOL     OW 8782   4.207   5.960   6.957
 2628SOL    HW1 8783   4.125   6.011   6.931
 2628SOL    HW2 8784   4.180   5.879   7.009
 2629SOL     OW 8785   3.769   4.219   1.407
 2629SOL    HW1 8786   3.799   4.125   1.423
 2629SOL    HW2 8787   3.704   4.246   1.478
 2630SOL     OW 8788   3.410   2.000   2.625
 2630SOL    HW1 8789   3.336   2.035   2.568
 2630SOL    HW2 8790   3.486   1.970   2.567
 2631SOL     OW 8791   4.501   6.405   3.942
 2631SOL    HW1 8792   4.426   6.471   3.949
 2631SOL    HW2 8793   4.483   6.327   4.002
 2632SOL     OW 8794   3.480   2.269   0.286
 2632SOL    HW1 8795   3.498   2.183   0.236
 2632SOL    HW2 8796   3.408   2.254   0.353
 2633SOL     OW 8797   6.003   2.506   6.566
 2633SOL    HW1 8798   6.025   2.587   6.512
 2633SOL    HW2 8799   5.919   2.522   6.618
 2634SOL     OW 8800   2.018   4.273   1.601
 2634SOL    HW1 8801   1.979   4.356   1.641
 2634SOL    HW2 8802   2.079   4.298   1.526
 2635SOL     OW 8803   5.221   4.483   4.992
 2635SOL    HW1 8804   5.195   4.566   4.942
 2635SOL    HW2 8805   5.184   4.403   4.944
 2636SOL     OW 8806   4.576   0.439   5.585
 2636SOL    HW1 8807   4.612   0.502   5.654
 2636SOL    HW2 8808   4.652   0.393   5.540
 2637SOL     OW 8809   5.526   6.236   3.039
 2637SOL    HW1 8810   5.625   6.222   3.043
 2637SOL    HW2 8811   5.480   6.147   3.041
 2638SOL     OW 8812   5.718   5.919   0.796
 2638SOL    HW1 8813   5.678   6.000   0.753
 2638SOL    HW2 8814   5.734   5.848   0.728
 2639SOL     OW 8815   6.312   6.452   1.081
 2639SOL    HW1 8816   6.261   6.378   1.038
 2639SOL    HW2 8817   6.374   6.415   1.150
 2640SOL     OW 8818   6.690   6.400   5.422
 2640SOL    HW1 8819   6.618   6.438   5.480
 2640SOL    HW2 8820   6.665   6.411   5.326
 2641SOL     OW 8821   5.082   3.977   6.694
 2641SOL    HW1 8822   5.178   3.955   6.715
 2641SOL    HW2 8823   5.029   3.976   6.778
 2642SOL     OW 8824   5.127   0.391   3.732
 2642SOL    HW1 8825   5.077   0.321   3.783
 2642SOL    HW2 8826   5.087   0.399   3.640
 2643SOL     OW 8827   0.006   6.997   3.167
 2643SOL    HW1 8828   6.976   6.999   3.252
 2643SOL    HW2 8829   0.036   0.066   3.144
 2644SOL     OW 8830   0.248   4.678   5.959
 2644SOL    HW1 8831   0.336   4.722   5.972
 2644SOL    HW2 8832   0.175   4.737   5.995
 2645SOL     OW 8833   5.313   6.192   6.105
 2645SOL    HW1 8834   5.339   6.285   6.082
 2645SOL    HW2 8835   5.342   6.130   6.032
 2646SOL     OW 8836   0.038   0.218   6.163
 2646SOL    HW1 8837   0.101   0.196   6.238
 2646SOL    HW2 8838   0.020   0.317   6.163
 2647SOL     OW 8839   4.308   1.809   1.178
 2647SOL    HW1 8840   4.247   1.749   1.127
 2647SOL    HW2 8841   4.258   1.852   1.252
 2648SOL     OW 8842   5.740   0.106   2.118
 2648SOL    HW1 8843   5.645   0.087   2.091
 2648SOL    HW2 8844   5.778   0.027   2.165
 2649SOL     OW 8845   3.326   1.590   6.125
 2649SOL    HW1 8846   3.264   1.636   6.188
 2649SOL    HW2 8847   3.363   1.656   6.060
 2650SOL     OW 8848   0.293   5.592   3.165
 2650SOL    HW1 8849   0.234   5.549   3.233
 2650SOL    HW2 8850   0.361   5.650   3.212
 2651SOL     OW 8851   0.025   1.333   1.825
 2651SOL    HW1 8852   0.040   1.414   1.881
 2651SOL    HW2 8853   0.058   1.252   1.873
 2652SOL     OW 8854   3.082   3.103   3.341
 2652SOL    HW1 8855   3.055   3.166   3.414
 2652SOL    HW2 8856   3.031   3.017   3.351
 2653SOL     OW 8857   5.942   6.734   6.387
 2653SOL    HW1 8858   5.980   6.659   6.333
 2653SOL    HW2 8859   6.016   6.786   6.429
 2654SOL     OW 8860   4.936   2.580   5.846
 2654SOL    HW1 8861   4.840   2.602   5.863
 2654SOL    HW2 8862   4.974   2.533   5.926
 2655SOL     OW 8863   4.735   6.242   4.593
 2655SOL    HW1 8864   4.656   6.194   4.554
 2655SOL    HW2 8865   4.815   6.227   4.535
 2656SOL     OW 8866   5.450   3.508   3.694
 2656SOL    HW1 8867   5.411   3.526   3.604
 2656SOL    HW2 8868   5.520   3.576   3.714
 2657SOL     OW 8869   1.957   4.449   6.891
 2657SOL    HW1 8870   1.885   4.423   6.955
 2657SOL    HW2 8871   2.020   4.373   6.879
 2658SOL     OW 8872   6.220   4.480   5.878
 2658SOL    HW1 8873   6.309   4.437   5.892
 2658SOL    HW2 8874   6.224   4.540   5.799
 2659SOL     OW 8875   6.908   2.602   4.653
 2659SOL    HW1 8876   6.826   2.616   4.598
 2659SOL    HW2 8877   6.986   2.647   4.609
 2660SOL     OW 8878   6.421   2.072   2.558
 2660SOL    HW1 8879   6.412   2.124   2.643
 2660SOL    HW2 8880   6.360   2.112   2.489
 2661SOL     OW 8881   4.051   5.981   1.346
 2661SOL    HW1 8882   4.046   5.950   1.251
 2661SOL    HW2 8883   4.087   5.908   1.403
 2662SOL     OW 8884   3.971   6.945   4.498
 2662SOL    HW1 8885   4.065   6.974   4.516
 2662SOL    HW2 8886   3.971   6.867   4.436
 2663SOL     OW 8887   2.042   4.855   2.389
 2663SOL    HW1 8888   2.027   4.760   2.365
 2663SOL    HW2 8889   1.970   4.886   2.451
 2664SOL     OW 8890   3.892   3.939   3.087
 2664SOL    HW1 8891   3.897   3.959   3.184
 2664SOL    HW2 8892   3.972   3.888   3.059
 2665SOL     OW 8893   3.496   1.180   5.413
 2665SOL    HW1 8894   3.454   1.118   5.347
 2665SOL    HW2 8895   3.491   1.274   5.378
 2666SOL     OW 8896   5.129   4.120   1.009
 2666SOL    HW1 8897   5.187   4.201   1.011
 2666SOL    HW2 8898   5.119   4.083   1.102
 2667SOL     OW 8899   1.893   6.062   4.768
 2667SOL    HW1 8900   1.955   6.069   4.690
 2667SOL    HW2 8901   1.798   6.068   4.736
 2668SOL     OW 8902   6.760   3.153   5.254
 2668SOL    HW1 8903   6.828   3.090   5.292
 2668SOL    HW2 8904   6.715   3.110   5.176
 2669SOL     OW 8905   4.064   5.446   5.742
 2669SOL    HW1 8906   4.121   5.482   5.668
 2669SOL    HW2 8907   4.057   5.513   5.815
 2670SOL     OW 8908   0.816   1.157   6.917
 2670SOL    HW1 8909   0.748   1.214   6.869
 2670SOL    HW2 8910   0.901   1.157   6.865
 2671SOL     OW 8911   2.546   3.475   6.540
 2671SOL    HW1 8912   2.463   3.489   6.486
 2671SOL    HW2 8913   2.621   3.450   6.479
 2672SOL     OW 8914   2.111   5.423   0.244
 2672SOL    HW1 8915   2.180   5.351   0.249
 2672SOL    HW2 8916   2.042   5.398   0.175
 2673SOL     OW 8917   3.789   2.062   3.147
 2673SOL    HW1 8918   3.799   2.106   3.058
 2673SOL    HW2 8919   3.783   1.963   3.135
 2674SOL     OW 8920   0.061   5.417   4.391
 2674SOL    HW1 8921   0.156   5.444   4.379
 2674SOL    HW2 8922   0.044   5.332   4.341
 2675SOL     OW 8923   0.324   4.541   5.493
 2675SOL    HW1 8924   0.250   4.551   5.560
 2675SOL    HW2 8925   0.298   4.472   5.425
 2676SOL     OW 8926   4.820   1.519   1.786
 2676SOL    HW1 8927   4.796   1.435   1.736
 2676SOL    HW2 8928   4.894   1.498   1.850
 2677SOL     OW 8929   1.906   4.529   1.442
 2677SOL    HW1 8930   1.968   4.457   1.410
 2677SOL    HW2 8931   1.869   4.503   1.531
 2678SOL     OW 8932   1.159   5.084   6.086
 2678SOL    HW1 8933   1.075   5.138   6.092
 2678SOL    HW2 8934   1.174   5.036   6.173
 2679SOL     OW 8935   3.263   5.230   0.737
 2679SOL    HW1 8936   3.264   5.251   0.640
 2679SOL    HW2 8937   3.341   5.172   0.760
 2680SOL     OW 8938   2.232   1.617   1.150
 2680SOL    HW1 8939   2.302   1.682   1.120
 2680SOL    HW2 8940   2.178   1.588   1.071
 2681SOL     OW 8941   1.396   2.896   3.875
 2681SOL    HW1 8942   1.407   2.878   3.777
 2681SOL    HW2 8943   1.356   2.987   3.888
 2682SOL     OW 8944   5.151   3.048   2.420
 2682SOL    HW1 8945   5.208   3.125   2.392
 2682SOL    HW2 8946   5.116   3.001   2.338
 2683SOL     OW 8947   0.685   5.731   1.234
 2683SOL    HW1 8948   0.677   5.819   1.280
 2683SOL    HW2 8949   0.752   5.738   1.160
 2684SOL     OW 8950   2.873   6.672   2.736
 2684SOL    HW1 8951   2.973   6.678   2.736
 2684SOL    HW2 8952   2.843   6.634   2.824
 2685SOL     OW 8953   5.130   5.812   5.078
 2685SOL    HW1 8954   5.071   5.893   5.067
 2685SOL    HW2 8955   5.176   5.793   4.991
 2686SOL     OW 8956   2.270   2.918   3.988
 2686SOL    HW1 8957   2.302   2.883   4.076
 2686SOL    HW2 8958   2.236   2.842   3.932
 2687SOL     OW 8959   3.926   5.447   2.408
 2687SOL    HW1 8960   3.833   5.452   2.370
 2687SOL    HW2 8961   3.990   5.487   2.343
 2688SOL     OW 8962   4.749   4.817   6.363
 2688SOL    HW1 8963   4.736   4.870   6.279
 2688SOL    HW2 8964   4.743   4.877   6.442
 2689SOL     OW 8965   0.966   2.396   3.572
 2689SOL    HW1 8966   0.992   2.426   3.664
 2689SOL    HW2 8967   0.866   2.400   3.563
 2690SOL     OW 8968   4.109   3.342   3.920
 2690SOL    HW1 8969   4.084   3.439   3.917
 2690SOL    HW2 8970   4.151   3.321   4.009
 2691SOL     OW 8971   1.670   5.668   2.383
 2691SOL    HW1 8972   1.595   5.677   2.447
 2691SOL    HW2 8973   1.659   5.734   2.308
 2692SOL     OW 8974   0.123   5.895   3.372
 2692SOL    HW1 8975   0.074   5.850   3.446
 2692SOL    HW2 8976   0.208   5.847   3.353
 2693SOL     OW 8977   2.101   3.651   3.843
 2693SOL    HW1 8978   2.128   3.601   3.925
 2693SOL    HW2 8979   2.064   3.740   3.870
 2694SOL     OW 8980   2.597   6.659   3.045
 2694SOL    HW1 8981   2.651   6.711   3.112
 2694SOL    HW2 8982   2.658   6.597   2.994
 2695SOL     OW 8983   4.794   2.127   2.304
 2695SOL    HW1 8984   4.848   2.172   2.234
 2695SOL    HW2 8985   4.846   2.123   2.389
 2696SOL     OW 8986   4.018   3.957   5.575
 2696SOL    HW1 8987   4.071   3.999   5.502
 2696SOL    HW2 8988   4.075   3.947   5.656
 2697SOL     OW 8989   3.364   1.619   3.924
 2697SOL    HW1 8990   3.437   1.681   3.953
 2697SOL    HW2 8991   3.276   1.664   3.933
 2698SOL     OW 8992   0.804   4.021   0.438
 2698SOL    HW1 8993   0.711   4.038   0.405
 2698SOL    HW2 8994   0.811   3.927   0.472
 2699SOL     OW 8995   3.721   5.872   1.666
 2699SOL    HW1 8996   3.788   5.946   1.670
 2699SOL    HW2 8997   3.712   5.830   1.757
 2700SOL     OW 8998   1.819   3.391   2.672
 2700SOL    HW1 8999   1.805   3.324   2.745
 2700SOL    HW2 9000   1.892   3.454   2.699
 2701SOL     OW 9001   3.862   0.248   6.318
 2701SOL    HW1 9002   3.936   0.181   6.327
 2701SOL    HW2 9003   3.835   0.254   6.222
 2702SOL     OW 9004   0.081   1.432   3.273
 2702SOL    HW1 9005   0.050   1.375   3.348
 2702SOL    HW2 9006   0.157   1.387   3.226
 2703SOL     OW 9007   1.946   1.767   2.492
 2703SOL    HW1 9008   2.042   1.792   2.478
 2703SOL    HW2 9009   1.890   1.812   2.423
 2704SOL     OW 9010   2.847   5.288   1.707
 2704SOL    HW1 9011   2.781   5.247   1.645
 2704SOL    HW2 9012   2.937   5.290   1.664
 2705SOL     OW 9013   6.152   5.807   3.680
 2705SOL    HW1 9014   6.179   5.781   3.773
 2705SOL    HW2 9015   6.167   5.730   3.618
 2706SOL     OW 9016   6.722   1.544   2.369
 2706SOL    HW1 9017   6.805   1.591   2.338
 2706SOL    HW2 9018   6.642   1.596   2.339
 2707SOL     OW 9019   1.712   1.843   6.684
 2707SOL    HW1 9020   1.669   1.773   6.741
 2707SOL    HW2 9021   1.665   1.931   6.697
 2708SOL     OW 9022   1.931   2.718   1.958
 2708SOL    HW1 9023   1.884   2.632   1.979
 2708SOL    HW2 9024   1.977   2.751   2.041
 2709SOL     OW 9025   5.221   5.838   0.987
 2709SOL    HW1 9026   5.186   5.927   1.017
 2709SOL    HW2 9027   5.310   5.850   0.943
 2710SOL     OW 9028   0.110   3.734   2.586
 2710SOL    HW1 9029   0.130   3.640   2.559
 2710SOL    HW2 9030   0.011   3.750   2.580
 2711SOL     OW 9031   1.190   0.426   1.790
 2711SOL    HW1 9032   1.168   0.369   1.710
 2711SOL    HW2 9033   1.281   0.465   1.779
 2712SOL     OW 9034   2.424   4.722   0.727
 2712SOL    HW1 9035   2.450   4.749   0.820
 2712SOL    HW2 9036   2.407   4.803   0.672
 2713SOL     OW 9037   2.364   3.264   5.279
 2713SOL    HW1 9038   2.400   3.177   5.247
 2713SOL    HW2 9039   2.382   3.274   5.377
 2714SOL     OW 9040   5.061   0.872   5.980
 2714SOL    HW1 9041   5.092   0.960   6.016
 2714SOL    HW2 9042   5.029   0.814   6.056
 2715SOL     OW 9043   5.901   1.293   6.511
 2715SOL    HW1 9044   5.930   1.208   6.468
 2715SOL    HW2 9045   5.976   1.330   6.566
 2716SOL     OW 9046   6.891   5.571   2.339
 2716SOL    HW1 9047   6.884   5.580   2.438
 2716SOL    HW2 9048   6.939   5.651   2.302
 2717SOL     OW 9049   0.733   6.899   2.849
 2717SOL    HW1 9050   0.786   6.846   2.915
 2717SOL    HW2 9051   0.761   6.995   2.853
 2718SOL     OW 9052   2.107   4.408   4.115
 2718SOL    HW1 9053   2.149   4.377   4.030
 2718SOL    HW2 9054   2.007   4.399   4.108
 2719SOL     OW 9055   4.242   5.297   2.280
 2719SOL    HW1 9056   4.309   5.290   2.205
 2719SOL    HW2 9057   4.290   5.291   2.368
 2720SOL     OW 9058   1.911   6.614   3.969
 2720SOL    HW1 9059   2.007   6.642   3.975
 2720SOL    HW2 9060   1.862   6.644   4.051
 2721SOL     OW 9061   3.260   6.974   4.392
 2721SOL    HW1 9062   3.321   6.898   4.370
 2721SOL    HW2 9063   3.169   6.954   4.357
 2722SOL     OW 9064   0.610   6.170   3.203
 2722SOL    HW1 9065   0.535   6.106   3.192
 2722SOL    HW2 9066   0.605   6.239   3.130
 2723SOL     OW 9067   2.058   1.166   5.741
 2723SOL    HW1 9068   2.102   1.081   5.714
 2723SOL    HW2 9069   2.082   1.238   5.676
 2724SOL     OW 9070   4.144   5.815   6.675
 2724SOL    HW1 9071   4.167   5.893   6.618
 2724SOL    HW2 9072   4.211   5.742   6.662
 2725SOL     OW 9073   4.251   4.711   3.882
 2725SOL    HW1 9074   4.293   4.692   3.794
 2725SOL    HW2 9075   4.163   4.756   3.868
 2726SOL     OW 9076   4.817   5.038   1.728
 2726SOL    HW1 9077   4.821   5.138   1.735
 2726SOL    HW2 9078   4.727   5.006   1.756
 2727SOL     OW 9079   1.062   4.797   2.544
 2727SOL    HW1 9080   0.986   4.791   2.480
 2727SOL    HW2 9081   1.141   4.839   2.498
 2728SOL     OW 9082   2.564   6.662   5.483
 2728SOL    HW1 9083   2.615   6.748   5.479
 2728SOL    HW2 9084   2.573   6.613   5.396
 2729SOL     OW 9085   5.888   4.785   3.126
 2729SOL    HW1 9086   5.948   4.732   3.067
 2729SOL    HW2 9087   5.796   4.790   3.086
 2730SOL     OW 9088   1.676   0.261   0.667
 2730SOL    HW1 9089   1.659   0.339   0.727
 2730SOL    HW2 9090   1.588   0.221   0.638
 2731SOL     OW 9091   2.893   3.813   1.770
 2731SOL    HW1 9092   2.960   3.859   1.828
 2731SOL    HW2 9093   2.934   3.730   1.731
 2732SOL     OW 9094   5.281   2.556   2.772
 2732SOL    HW1 9095   5.349   2.604   2.827
 2732SOL    HW2 9096   5.231   2.491   2.829
 2733SOL     OW 9097   0.954   6.322   5.638
 2733SOL    HW1 9098   1.022   6.283   5.700
 2733SOL    HW2 9099   0.994   6.333   5.547
 2734SOL     OW 9100   1.785   6.608   3.732
 2734SOL    HW1 9101   1.852   6.626   3.659
 2734SOL    HW2 9102   1.833   6.600   3.820
 2735SOL     OW 9103   1.375   4.960   2.213
 2735SOL    HW1 9104   1.473   4.982   2.211
 2735SOL    HW2 9105   1.364   4.865   2.244
 2736SOL     OW 9106   4.235   0.332   4.993
 2736SOL    HW1 9107   4.247   0.397   4.918
 2736SOL    HW2 9108   4.171   0.369   5.060
 2737SOL     OW 9109   4.610   3.937   6.140
 2737SOL    HW1 9110   4.692   3.995   6.147
 2737SOL    HW2 9111   4.546   3.960   6.213
 2738SOL     OW 9112   5.866   4.997   4.824
 2738SOL    HW1 9113   5.770   5.023   4.837
 2738SOL    HW2 9114   5.908   4.978   4.913
 2739SOL     OW 9115   5.203   3.468   1.569
 2739SOL    HW1 9116   5.242   3.376   1.567
 2739SOL    HW2 9117   5.122   3.472   1.511
 2740SOL     OW 9118   5.919   2.514   3.037
 2740SOL    HW1 9119   5.895   2.601   3.081
 2740SOL    HW2 9120   5.906   2.439   3.102
 2741SOL     OW 9121   0.652   2.703   5.422
 2741SOL    HW1 9122   0.724   2.732   5.485
 2741SOL    HW2 9123   0.672   2.611   5.389
 2742SOL     OW 9124   1.829   6.272   6.497
 2742SOL    HW1 9125   1.816   6.255   6.399
 2742SOL    HW2 9126   1.764   6.216   6.549
 2743SOL     OW 9127   5.335   4.540   1.226
 2743SOL    HW1 9128   5.390   4.524   1.309
 2743SOL    HW2 9129   5.377   4.612   1.172
 2744SOL     OW 9130   3.845   2.062   5.968
 2744SOL    HW1 9131   3.885   2.123   5.900
 2744SOL    HW2 9132   3.801   2.116   6.040
 2745SOL     OW 9133   2.557   6.296   1.118
 2745SOL    HW1 9134   2.523   6.202   1.106
 2745SOL    HW2 9135   2.620   6.299   1.196
 2746SOL     OW 9136   1.848   1.782   6.217
 2746SOL    HW1 9137   1.841   1.686   6.244
 2746SOL    HW2 9138   1.774   1.803   6.153
 2747SOL     OW 9139   5.287   6.685   4.017
 2747SOL    HW1 9140   5.306   6.631   4.099
 2747SOL    HW2 9141   5.363   6.677   3.953
 2748SOL     OW 9142   3.612   1.478   2.822
 2748SOL    HW1 9143   3.623   1.484   2.723
 2748SOL    HW2 9144   3.663   1.553   2.866
 2749SOL     OW 9145   4.470   5.018   4.347
 2749SOL    HW1 9146   4.533   5.087   4.381
 2749SOL    HW2 9147   4.376   5.044   4.369
 2750SOL     OW 9148   0.648   5.862   2.460
 2750SOL    HW1 9149   0.590   5.832   2.384
 2750SOL    HW2 9150   0.598   5.929   2.515
 2751SOL     OW 9151   1.959   6.864   6.523
 2751SOL    HW1 9152   1.875   6.908   6.556
 2751SOL    HW2 9153   1.960   6.865   6.423
 2752SOL     OW 9154   5.661   5.998   5.434
 2752SOL    HW1 9155   5.663   5.986   5.335
 2752SOL    HW2 9156   5.651   5.910   5.479
 2753SOL     OW 9157   4.242   6.024   6.507
 2753SOL    HW1 9158   4.148   6.051   6.527
 2753SOL    HW2 9159   4.276   6.077   6.429
 2754SOL     OW 9160   0.389   0.816   4.583
 2754SOL    HW1 9161   0.360   0.872   4.505
 2754SOL    HW2 9162   0.465   0.757   4.556
 2755SOL     OW 9163   2.920   6.369   2.228
 2755SOL    HW1 9164   2.882   6.340   2.140
 2755SOL    HW2 9165   2.921   6.291   2.290
 2756SOL     OW 9166   6.714   3.095   5.747
 2756SOL    HW1 9167   6.619   3.069   5.762
 2756SOL    HW2 9168   6.748   3.146   5.826
 2757SOL     OW 9169   4.385   2.778   6.752
 2757SOL    HW1 9170   4.375   2.700   6.815
 2757SOL    HW2 9171   4.411   2.745   6.662
 2758SOL     OW 9172   6.110   5.531   2.782
 2758SOL    HW1 9173   6.015   5.558   2.769
 2758SOL    HW2 9174   6.160   5.541   2.696
 2759SOL     OW 9175   3.373   4.340   6.562
 2759SOL    HW1 9176   3.310   4.330   6.639
 2759SOL    HW2 9177   3.321   4.340   6.476
 2760SOL     OW 9178   5.272   6.012   3.668
 2760SOL    HW1 9179   5.226   5.993   3.581
 2760SOL    HW2 9180   5.236   6.097   3.706
 2761SOL     OW 9181   1.852   3.263   2.435
 2761SOL    HW1 9182   1.839   3.299   2.527
 2761SOL    HW2 9183   1.948   3.238   2.422
 2762SOL     OW 9184   1.857   1.828   0.548
 2762SOL    HW1 9185   1.766   1.832   0.507
 2762SOL    HW2 9186   1.859   1.883   0.631
 2763SOL     OW 9187   4.760   1.534   5.226
 2763SOL    HW1 9188   4.856   1.506   5.219
 2763SOL    HW2 9189   4.720   1.537   5.134
 2764SOL     OW 9190   1.247   4.153   2.025
 2764SOL    HW1 9191   1.233   4.083   2.096
 2764SOL    HW2 9192   1.193   4.130   1.945
 2765SOL     OW 9193   6.678   6.365   6.718
 2765SOL    HW1 9194   6.772   6.348   6.686
 2765SOL    HW2 9195   6.624   6.403   6.644
 2766SOL     OW 9196   5.809   0.935   6.629
 2766SOL    HW1 9197   5.809   1.012   6.693
 2766SOL    HW2 9198   5.812   0.849   6.680
 2767SOL     OW 9199   6.892   5.013   6.511
 2767SOL    HW1 9200   6.826   4.985   6.441
 2767SOL    HW2 9201   6.985   5.007   6.475
 2768SOL     OW 9202   4.590   0.035   1.231
 2768SOL    HW1 9203   4.593   7.006   1.316
 2768SOL    HW2 9204   4.675   0.022   1.180
 2769SOL     OW 9205   1.922   4.596   5.389
 2769SOL    HW1 9206   1.908   4.677   5.333
 2769SOL    HW2 9207   2.002   4.609   5.448
 2770SOL     OW 9208   2.688   6.621   0.700
 2770SOL    HW1 9209   2.606   6.574   0.733
 2770SOL    HW2 9210   2.681   6.718   0.720
 2771SOL     OW 9211   4.464   7.022   4.845
 2771SOL    HW1 9212   4.370   0.030   4.863
 2771SOL    HW2 9213   4.510   0.065   4.787
 2772SOL     OW 9214   3.769   0.637   3.141
 2772SOL    HW1 9215   3.769   0.561   3.075
 2772SOL    HW2 9216   3.862   0.655   3.171
 2773SOL     OW 9217   5.779   2.817   4.084
 2773SOL    HW1 9218   5.752   2.873   4.163
 2773SOL    HW2 9219   5.846   2.866   4.029
 2774SOL     OW 9220   5.130   1.570   3.504
 2774SOL    HW1 9221   5.047   1.587   3.451
 2774SOL    HW2 9222   5.131   1.631   3.584
 2775SOL     OW 9223   0.761   4.375   4.325
 2775SOL    HW1 9224   0.821   4.429   4.265
 2775SOL    HW2 9225   0.728   4.433   4.399
 2776SOL     OW 9226   4.977   4.244   5.929
 2776SOL    HW1 9227   4.891   4.203   5.900
 2776SOL    HW2 9228   5.034   4.174   5.972
 2777SOL     OW 9229   3.091   2.107   6.197
 2777SOL    HW1 9230   3.111   2.040   6.268
 2777SOL    HW2 9231   3.166   2.172   6.189
 2778SOL     OW 9232   3.005   6.034   6.638
 2778SOL    HW1 9233   2.953   6.047   6.554
 2778SOL    HW2 9234   2.941   6.025   6.715
 2779SOL     OW 9235   5.950   6.672   1.847
 2779SOL    HW1 9236   6.024   6.669   1.914
 2779SOL    HW2 9237   5.985   6.652   1.756
 2780SOL     OW 9238   0.526   1.792   5.630
 2780SOL    HW1 9239   0.466   1.745   5.695
 2780SOL    HW2 9240   0.494   1.886   5.616
 2781SOL     OW 9241   6.289   0.648   2.885
 2781SOL    HW1 9242   6.332   0.695   2.962
 2781SOL    HW2 9243   6.206   0.602   2.916
 2782SOL     OW 9244   4.145   1.060   0.223
 2782SOL    HW1 9245   4.192   0.992   0.166
 2782SOL    HW2 9246   4.107   1.132   0.165
 2783SOL     OW 9247   5.684   3.885   1.526
 2783SOL    HW1 9248   5.676   3.824   1.604
 2783SOL    HW2 9249   5.598   3.935   1.513
 2784SOL     OW 9250   1.056   1.434   0.892
 2784SOL    HW1 9251   1.107   1.485   0.961
 2784SOL    HW2 9252   1.006   1.359   0.936
 2785SOL     OW 9253   5.397   2.825   1.632
 2785SOL    HW1 9254   5.338   2.777   1.567
 2785SOL    HW2 9255   5.372   2.799   1.725
 2786SOL     OW 9256   0.097   6.509   0.122
 2786SOL    HW1 9257   0.053   6.597   0.107
 2786SOL    HW2 9258   0.027   6.437   0.125
 2787SOL     OW 9259   6.198   4.972   6.498
 2787SOL    HW1 9260   6.190   5.020   6.411
 2787SOL    HW2 9261   6.256   4.892   6.486
 2788SOL     OW 9262   2.981   6.235   5.667
 2788SOL    HW1 9263   3.031   6.148   5.670
 2788SOL    HW2 9264   2.884   6.218   5.685
 2789SOL     OW 9265   0.886   2.667   5.094
 2789SOL    HW1 9266   0.920   2.688   5.002
 2789SOL    HW2 9267   0.826   2.587   5.089
 2790SOL     OW 9268   1.633   5.909   1.313
 2790SOL    HW1 9269   1.655   5.973   1.239
 2790SOL    HW2 9270   1.666   5.947   1.400
 2791SOL     OW 9271   0.003   3.998   3.266
 2791SOL    HW1 9272   0.038   3.951   3.185
 2791SOL    HW2 9273   0.066   4.071   3.292
 2792SOL     OW 9274   3.097   1.577   5.460
 2792SOL    HW1 9275   3.001   1.555   5.472
 2792SOL    HW2 9276   3.153   1.505   5.501
 2793SOL     OW 9277   3.340   4.381   1.118
 2793SOL    HW1 9278   3.283   4.442   1.063
 2793SOL    HW2 9279   3.318   4.393   1.215
 2794SOL     OW 9280   0.616   2.289   6.111
 2794SOL    HW1 9281   0.602   2.381   6.149
 2794SOL    HW2 9282   0.644   2.227   6.184
 2795SOL     OW 9283   1.014   4.861   1.531
 2795SOL    HW1 9284   0.961   4.813   1.601
 2795SOL    HW2 9285   1.039   4.798   1.458
 2796SOL     OW 9286   1.595   6.201   5.779
 2796SOL    HW1 9287   1.589   6.276   5.713
 2796SOL    HW2 9288   1.650   6.127   5.740
 2797SOL     OW 9289   5.651   7.013   3.840
 2797SOL    HW1 9290   5.589   6.989   3.915
 2797SOL    HW2 9291   5.716   0.059   3.871
 2798SOL     OW 9292   5.830   7.020   1.607
 2798SOL    HW1 9293   5.754   0.003   1.542
 2798SOL    HW2 9294   5.875   0.085   1.615
 2799SOL     OW 9295   3.417   5.953   5.135
 2799SOL    HW1 9296   3.367   5.977   5.218
 2799SOL    HW2 9297   3.511   5.988   5.140
 2800SOL     OW 9298   6.414   0.695   6.739
 2800SOL    HW1 9299   6.429   0.619   6.802
 2800SOL    HW2 9300   6.384   0.660   6.650
 2801SOL     OW 9301   0.699   5.076   5.527
 2801SOL    HW1 9302   0.724   5.062   5.623
 2801SOL    HW2 9303   0.616   5.025   5.506
 2802SOL     OW 9304   6.864   5.293   5.557
 2802SOL    HW1 9305   6.833   5.277   5.651
 2802SOL    HW2 9306   6.891   5.389   5.547
 2803SOL     OW 9307   3.608   2.530   6.643
 2803SOL    HW1 9308   3.613   2.536   6.743
 2803SOL    HW2 9309   3.701   2.525   6.605
 2804SOL     OW 9310   0.170   2.681   3.721
 2804SOL    HW1 9311   0.142   2.628   3.801
 2804SOL    HW2 9312   0.238   2.749   3.748
 2805SOL     OW 9313   4.580   3.243   1.218
 2805SOL    HW1 9314   4.560   3.158   1.266
 2805SOL    HW2 9315   4.569   3.230   1.120
 2806SOL     OW 9316   0.149   4.434   6.254
 2806SOL    HW1 9317   0.158   4.399   6.161
 2806SOL    HW2 9318   0.214   4.508   6.269
 2807SOL     OW 9319   3.197   0.366   3.371
 2807SOL    HW1 9320   3.239   0.355   3.281
 2807SOL    HW2 9321   3.264   0.403   3.435
 2808SOL     OW 9322   6.362   4.684   6.842
 2808SOL    HW1 9323   6.304   4.744   6.787
 2808SOL    HW2 9324   6.351   4.707   6.939
 2809SOL     OW 9325   6.507   5.005   1.908
 2809SOL    HW1 9326   6.423   5.046   1.944
 2809SOL    HW2 9327   6.561   4.968   1.983
 2810SOL     OW 9328   2.414   5.448   3.056
 2810SOL    HW1 9329   2.449   5.487   3.141
 2810SOL    HW2 9330   2.333   5.393   3.075
 2811SOL     OW 9331   1.006   0.613   1.934
 2811SOL    HW1 9332   1.078   0.562   1.887
 2811SOL    HW2 9333   0.991   0.700   1.887
 2812SOL     OW 9334   0.568   2.928   1.338
 2812SOL    HW1 9335   0.619   2.993   1.281
 2812SOL    HW2 9336   0.577   2.953   1.434
 2813SOL     OW 9337   0.791   2.237   1.556
 2813SOL    HW1 9338   0.838   2.317   1.594
 2813SOL    HW2 9339   0.808   2.232   1.458
 2814SOL     OW 9340   2.082   4.218   0.050
 2814SOL    HW1 9341   2.161   4.225   7.013
 2814SOL    HW2 9342   2.015   4.156   0.009
 2815SOL     OW 9343   0.195   5.761   5.547
 2815SOL    HW1 9344   0.196   5.687   5.480
 2815SOL    HW2 9345   0.239   5.842   5.506
 2816SOL     OW 9346   0.648   5.815   6.005
 2816SOL    HW1 9347   0.685   5.905   5.981
 2816SOL    HW2 9348   0.633   5.762   5.921
 2817SOL     OW 9349   4.708   0.738   2.105
 2817SOL    HW1 9350   4.738   0.796   2.029
 2817SOL    HW2 9351   4.700   0.643   2.074
 2818SOL     OW 9352   1.028   0.145   0.915
 2818SOL    HW1 9353   0.948   0.115   0.968
 2818SOL    HW2 9354   1.025   0.105   0.824
 2819SOL     OW 9355   0.661   0.655   0.081
 2819SOL    HW1 9356   0.666   0.732   0.145
 2819SOL    HW2 9357   0.753   0.632   0.049
 2820SOL     OW 9358   1.123   2.826   1.537
 2820SOL    HW1 9359   1.065   2.875   1.602
 2820SOL    HW2 9360   1.212   2.807   1.579
 2821SOL     OW 9361   2.929   3.688   6.366
 2821SOL    HW1 9362   3.020   3.727   6.353
 2821SOL    HW2 9363   2.912   3.674   6.464
 2822SOL     OW 9364   4.666   2.767   1.038
 2822SOL    HW1 9365   4.570   2.774   1.066
 2822SOL    HW2 9366   4.672   2.770   0.938
 2823SOL     OW 9367   5.707   2.012   1.305
 2823SOL    HW1 9368   5.709   2.109   1.330
 2823SOL    HW2 9369   5.620   1.973   1.333
 2824SOL     OW 9370   0.731   3.976   5.035
 2824SOL    HW1 9371   0.637   4.000   5.012
 2824SOL    HW2 9372   0.785   3.969   4.952
 2825SOL     OW 9373   5.275   1.583   6.442
 2825SOL    HW1 9374   5.223   1.539   6.515
 2825SOL    HW2 9375   5.339   1.649   6.481
 2826SOL     OW 9376   2.355   3.399   6.999
 2826SOL    HW1 9377   2.334   3.301   7.003
 2826SOL    HW2 9378   2.276   3.451   0.009
 2827SOL     OW 9379   6.796   0.928   6.168
 2827SOL    HW1 9380   6.801   0.895   6.262
 2827SOL    HW2 9381   6.701   0.947   6.144
 2828SOL     OW 9382   1.282   3.906   0.830
 2828SOL    HW1 9383   1.262   3.851   0.911
 2828SOL    HW2 9384   1.203   3.907   0.770
 2829SOL     OW 9385   3.787   4.107   3.563
 2829SOL    HW1 9386   3.736   4.175   3.614
 2829SOL    HW2 9387   3.849   4.058   3.625
 2830SOL     OW 9388   2.999   4.919   5.491
 2830SOL    HW1 9389   3.012   4.968   5.577
 2830SOL    HW2 9390   3.018   4.981   5.414
 2831SOL     OW 9391   6.236   1.641   2.064
 2831SOL    HW1 9392   6.161   1.576   2.052
 2831SOL    HW2 9393   6.203   1.723   2.110
 2832SOL     OW 9394   0.787   3.374   1.311
 2832SOL    HW1 9395   0.806   3.383   1.409
 2832SOL    HW2 9396   0.777   3.278   1.288
 2833SOL     OW 9397   1.645   2.243   1.943
 2833SOL    HW1 9398   1.621   2.250   2.040
 2833SOL    HW2 9399   1.583   2.180   1.898
 2834SOL     OW 9400   3.351   6.416   5.664
 2834SOL    HW1 9401   3.280   6.395   5.731
 2834SOL    HW2 9402   3.388   6.508   5.682
 2835SOL     OW 9403   0.265   6.918   0.085
 2835SOL    HW1 9404   0.247   6.833   0.135
 2835SOL    HW2 9405   0.334   6.901   0.014
 2836SOL     OW 9406   3.523   6.518   2.970
 2836SOL    HW1 9407   3.492   6.563   2.887
 2836SOL    HW2 9408   3.598   6.456   2.949
 2837SOL     OW 9409   5.210   4.130   2.454
 2837SOL    HW1 9410   5.290   4.156   2.509
 2837SOL    HW2 9411   5.131   4.183   2.484
 2838SOL     OW 9412   5.422   4.356   5.981
 2838SOL    HW1 9413   5.463   4.445   6.000
 2838SOL    HW2 9414   5.336   4.369   5.931
 2839SOL     OW 9415   5.952   2.882   5.011
 2839SOL    HW1 9416   5.909   2.880   5.101
 2839SOL    HW2 9417   6.043   2.925   5.019
 2840SOL     OW 9418   0.021   6.429   4.053
 2840SOL    HW1 9419   0.039   6.468   3.963
 2840SOL    HW2 9420   6.988   6.347   4.044
 2841SOL     OW 9421   6.213   3.012   2.196
 2841SOL    HW1 9422   6.154   3.041   2.271
 2841SOL    HW2 9423   6.218   2.912   2.195
 2842SOL     OW 9424   1.191   6.643   3.132
 2842SOL    HW1 9425   1.192   6.578   3.208
 2842SOL    HW2 9426   1.167   6.734   3.166
 2843SOL     OW 9427   2.295   2.835   3.269
 2843SOL    HW1 9428   2.324   2.753   3.318
 2843SOL    HW2 9429   2.359   2.853   3.194
 2844SOL     OW 9430   4.950   4.352   1.106
 2844SOL    HW1 9431   4.968   4.304   1.020
 2844SOL    HW2 9432   4.957   4.289   1.182
 2845SOL     OW 9433   3.161   2.114   2.986
 2845SOL    HW1 9434   3.091   2.077   3.047
 2845SOL    HW2 9435   3.240   2.053   2.985
 2846SOL     OW 9436   5.488   0.685   0.085
 2846SOL    HW1 9437   5.441   0.623   0.147
 2846SOL    HW2 9438   5.518   0.766   0.136
 2847SOL     OW 9439   4.561   4.758   2.596
 2847SOL    HW1 9440   4.522   4.680   2.549
 2847SOL    HW2 9441   4.514   4.772   2.683
 2848SOL     OW 9442   0.855   4.013   5.523
 2848SOL    HW1 9443   0.817   3.958   5.449
 2848SOL    HW2 9444   0.944   4.049   5.496
 2849SOL     OW 9445   4.899   0.726   2.835
 2849SOL    HW1 9446   4.815   0.709   2.886
 2849SOL    HW2 9447   4.956   0.792   2.884
 2850SOL     OW 9448   2.042   6.754   2.725
 2850SOL    HW1 9449   2.079   6.821   2.790
 2850SOL    HW2 9450   1.942   6.758   2.726
 2851SOL     OW 9451   3.780   3.606   0.593
 2851SOL    HW1 9452   3.767   3.705   0.583
 2851SOL    HW2 9453   3.816   3.587   0.685
 2852SOL     OW 9454   6.299   4.059   5.823
 2852SOL    HW1 9455   6.390   4.044   5.786
 2852SOL    HW2 9456   6.287   4.005   5.906
 2853SOL     OW 9457   0.384   3.824   6.661
 2853SOL    HW1 9458   0.297   3.851   6.620
 2853SOL    HW2 9459   0.427   3.753   6.605
 2854SOL     OW 9460   3.283   1.392   5.918
 2854SOL    HW1 9461   3.192   1.354   5.901
 2854SOL    HW2 9462   3.276   1.470   5.981
 2855SOL     OW 9463   2.200   1.509   4.977
 2855SOL    HW1 9464   2.139   1.552   5.043
 2855SOL    HW2 9465   2.182   1.410   4.974
 2856SOL     OW 9466   0.476   5.272   3.335
 2856SOL    HW1 9467   0.416   5.196   3.361
 2856SOL    HW2 9468   0.450   5.353   3.387
 2857SOL     OW 9469   0.178   3.605   0.362
 2857SOL    HW1 9470   0.250   3.611   0.293
 2857SOL    HW2 9471   0.129   3.518   0.351
 2858SOL     OW 9472   4.571   5.114   2.923
 2858SOL    HW1 9473   4.669   5.132   2.927
 2858SOL    HW2 9474   4.532   5.162   2.844
 2859SOL     OW 9475   4.949   4.518   1.482
 2859SOL    HW1 9476   4.935   4.421   1.462
 2859SOL    HW2 9477   4.974   4.566   1.398
 2860SOL     OW 9478   0.693   6.276   2.242
 2860SOL    HW1 9479   0.620   6.302   2.179
 2860SOL    HW2 9480   0.753   6.209   2.198
 2861SOL     OW 9481   4.943   5.108   7.019
 2861SOL    HW1 9482   4.854   5.127   6.977
 2861SOL    HW2 9483   4.998   5.192   7.020
 2862SOL     OW 9484   3.734   3.100   0.607
 2862SOL    HW1 9485   3.833   3.090   0.593
 2862SOL    HW2 9486   3.700   3.173   0.548
 2863SOL     OW 9487   5.610   0.042   5.537
 2863SOL    HW1 9488   5.708   0.024   5.533
 2863SOL    HW2 9489   5.593   0.135   5.504
 2864SOL     OW 9490   3.949   3.873   0.192
 2864SOL    HW1 9491   3.880   3.907   0.128
 2864SOL    HW2 9492   3.987   3.950   0.243
 2865SOL     OW 9493   5.095   5.585   4.523
 2865SOL    HW1 9494   5.137   5.513   4.467
 2865SOL    HW2 9495   5.161   5.617   4.591
 2866SOL     OW 9496   4.423   4.795   0.100
 2866SOL    HW1 9497   4.398   4.751   0.013
 2866SOL    HW2 9498   4.501   4.748   0.140
 2867SOL     OW 9499   5.425   6.094   1.740
 2867SOL    HW1 9500   5.390   6.147   1.818
 2867SOL    HW2 9501   5.433   6.154   1.660
 2868SOL     OW 9502   1.317   1.904   6.014
 2868SOL    HW1 9503   1.379   1.830   5.987
 2868SOL    HW2 9504   1.318   1.915   6.113
 2869SOL     OW 9505   5.527   5.686   4.702
 2869SOL    HW1 9506   5.518   5.632   4.618
 2869SOL    HW2 9507   5.621   5.720   4.709
 2870SOL     OW 9508   6.434   1.944   1.370
 2870SOL    HW1 9509   6.473   2.035   1.378
 2870SOL    HW2 9510   6.490   1.879   1.422
 2871SOL     OW 9511   4.988   1.677   1.292
 2871SOL    HW1 9512   4.996   1.632   1.381
 2871SOL    HW2 9513   5.026   1.770   1.298
 2872SOL     OW 9514   2.423   2.434   2.202
 2872SOL    HW1 9515   2.452   2.492   2.126
 2872SOL    HW2 9516   2.484   2.354   2.208
 2873SOL     OW 9517   0.738   6.278   1.433
 2873SOL    HW1 9518   0.817   6.259   1.375
 2873SOL    HW2 9519   0.655   6.278   1.377
 2874SOL     OW 9520   2.585   0.650   2.910
 2874SOL    HW1 9521   2.535   0.674   2.993
 2874SOL    HW2 9522   2.633   0.731   2.875
 2875SOL     OW 9523   3.381   6.572   3.241
 2875SOL    HW1 9524   3.435   6.535   3.166
 2875SOL    HW2 9525   3.285   6.546   3.228
 2876SOL     OW 9526   1.095   6.153   2.036
 2876SOL    HW1 9527   1.129   6.086   2.102
 2876SOL    HW2 9528   1.153   6.234   2.038
 2877SOL     OW 9529   0.882   1.771   5.934
 2877SOL    HW1 9530   0.847   1.747   6.024
 2877SOL    HW2 9531   0.932   1.858   5.939
 2878SOL     OW 9532   4.108   3.263   4.583
 2878SOL    HW1 9533   4.110   3.295   4.489
 2878SOL    HW2 9534   4.119   3.163   4.585
 2879SOL     OW 9535   4.452   4.102   0.482
 2879SOL    HW1 9536   4.524   4.117   0.550
 2879SOL    HW2 9537   4.370   4.065   0.526
 2880SOL     OW 9538   1.722   1.499   4.522
 2880SOL    HW1 9539   1.624   1.522   4.519
 2880SOL    HW2 9540   1.733   1.402   4.501
 2881SOL     OW 9541   4.665   6.223   6.496
 2881SOL    HW1 9542   4.581   6.175   6.522
 2881SOL    HW2 9543   4.650   6.322   6.504
 2882SOL     OW 9544   4.833   6.613   0.446
 2882SOL    HW1 9545   4.759   6.678   0.460
 2882SOL    HW2 9546   4.919   6.651   0.480
 2883SOL     OW 9547   5.989   6.020   3.647
 2883SOL    HW1 9548   6.042   5.935   3.648
 2883SOL    HW2 9549   5.988   6.060   3.739
 2884SOL     OW 9550   6.990   5.239   2.990
 2884SOL    HW1 9551   6.956   5.279   3.075
 2884SOL    HW2 9552   6.961   5.296   2.912
 2885SOL     OW 9553   0.975   2.831   3.106
 2885SOL    HW1 9554   1.065   2.790   3.091
 2885SOL    HW2 9555   0.984   2.930   3.117
 2886SOL     OW 9556   2.379   4.419   5.974
 2886SOL    HW1 9557   2.287   4.452   5.950
 2886SOL    HW2 9558   2.420   4.375   5.894
 2887SOL     OW 9559   1.206   5.822   3.438
 2887SOL    HW1 9560   1.145   5.774   3.501
 2887SOL    HW2 9561   1.300   5.792   3.453
 2888SOL     OW 9562   6.464   7.020   0.238
 2888SOL    HW1 9563   6.448   6.921   0.236
 2888SOL    HW2 9564   6.489   0.024   0.331
 2889SOL     OW 9565   3.856   6.667   3.323
 2889SOL    HW1 9566   3.781   6.623   3.272
 2889SOL    HW2 9567   3.943   6.641   3.281
 2890SOL     OW 9568   2.926   0.426   1.295
 2890SOL    HW1 9569   2.846   0.450   1.240
 2890SOL    HW2 9570   2.939   0.327   1.293
 2891SOL     OW 9571   0.488   2.348   4.232
 2891SOL    HW1 9572   0.552   2.314   4.300
 2891SOL    HW2 9573   0.442   2.430   4.267
 2892SOL     OW 9574   6.767   4.014   2.404
 2892SOL    HW1 9575   6.725   4.094   2.446
 2892SOL    HW2 9576   6.856   4.040   2.365
 2893SOL     OW 9577   6.886   5.212   4.328
 2893SOL    HW1 9578   6.859   5.303   4.295
 2893SOL    HW2 9579   6.806   5.153   4.333
 2894SOL     OW 9580   1.143   5.184   2.785
 2894SOL    HW1 9581   1.213   5.168   2.717
 2894SOL    HW2 9582   1.184   5.184   2.876
 2895SOL     OW 9583   4.008   6.697   5.942
 2895SOL    HW1 9584   3.952   6.780   5.941
 2895SOL    HW2 9585   4.104   6.722   5.925
 2896SOL     OW 9586   5.721   5.940   4.945
 2896SOL    HW1 9587   5.718   5.941   4.845
 2896SOL    HW2 9588   5.781   5.865   4.975
 2897SOL     OW 9589   3.844   4.893   3.142
 2897SOL    HW1 9590   3.897   4.861   3.063
 2897SOL    HW2 9591   3.903   4.898   3.222
 2898SOL     OW 9592   5.685   3.757   2.797
 2898SOL    HW1 9593   5.753   3.696   2.756
 2898SOL    HW2 9594   5.671   3.836   2.737
 2899SOL     OW 9595   0.058   3.291   0.979
 2899SOL    HW1 9596   7.001   3.230   0.982
 2899SOL    HW2 9597   0.071   3.332   1.069
 2900SOL     OW 9598   2.652   3.791   6.343
 2900SOL    HW1 9599   2.726   3.823   6.402
 2900SOL    HW2 9600   2.688   3.730   6.273
 2901SOL     OW 9601   1.274   4.177   3.914
 2901SOL    HW1 9602   1.257   4.255   3.973
 2901SOL    HW2 9603   1.356   4.193   3.859
 2902SOL     OW 9604   0.599   6.188   3.645
 2902SOL    HW1 9605   0.689   6.223   3.618
 2902SOL    HW2 9606   0.576   6.222   3.736
 2903SOL     OW 9607   4.872   5.442   0.823
 2903SOL    HW1 9608   4.934   5.519   0.838
 2903SOL    HW2 9609   4.854   5.431   0.726
 2904SOL     OW 9610   2.283   4.251   5.199
 2904SOL    HW1 9611   2.279   4.161   5.242
 2904SOL    HW2 9612   2.217   4.256   5.124
 2905SOL     OW 9613   0.417   4.825   1.885
 2905SOL    HW1 9614   0.370   4.794   1.802
 2905SOL    HW2 9615   0.350   4.856   1.952
 2906SOL     OW 9616   6.090   5.930   2.677
 2906SOL    HW1 9617   6.075   5.856   2.611
 2906SOL    HW2 9618   6.178   5.973   2.659
 2907SOL     OW 9619   0.479   0.915   3.526
 2907SOL    HW1 9620   0.501   1.006   3.560
 2907SOL    HW2 9621   0.391   0.917   3.480
 2908SOL     OW 9622   4.378   6.873   2.218
 2908SOL    HW1 9623   4.393   6.922   2.304
 2908SOL    HW2 9624   4.371   6.775   2.238
 2909SOL     OW 9625   1.036   5.760   2.545
 2909SOL    HW1 9626   0.973   5.814   2.487
 2909SOL    HW2 9627   1.002   5.759   2.639
 2910SOL     OW 9628   0.142   1.025   3.647
 2910SOL    HW1 9629   0.165   1.048   3.553
 2910SOL    HW2 9630   0.186   1.090   3.709
 2911SOL     OW 9631   6.754   4.244   4.522
 2911SOL    HW1 9632   6.753   4.211   4.427
 2911SOL    HW2 9633   6.844   4.281   4.543
 2912SOL     OW 9634   0.003   6.640   1.559
 2912SOL    HW1 9635   0.078   6.658   1.623
 2912SOL    HW2 9636   7.000   6.725   1.514
 2913SOL     OW 9637   2.375   6.074   1.233
 2913SOL    HW1 9638   2.277   6.059   1.244
 2913SOL    HW2 9639   2.407   6.137   1.304
 2914SOL     OW 9640   5.388   5.199   0.186
 2914SOL    HW1 9641   5.442   5.235   0.110
 2914SOL    HW2 9642   5.313   5.261   0.206
 2915SOL     OW 9643   2.725   0.850   2.812
 2915SOL    HW1 9644   2.803   0.905   2.840
 2915SOL    HW2 9645   2.678   0.894   2.735
 2916SOL     OW 9646   1.231   5.659   0.246
 2916SOL    HW1 9647   1.320   5.687   0.281
 2916SOL    HW2 9648   1.159   5.702   0.301
 2917SOL     OW 9649   2.789   6.236   4.105
 2917SOL    HW1 9650   2.740   6.155   4.135
 2917SOL    HW2 9651   2.729   6.293   4.049
 2918SOL     OW 9652   5.755   3.283   1.812
 2918SOL    HW1 9653   5.832   3.292   1.877
 2918SOL    HW2 9654   5.760   3.356   1.744
 2919SOL     OW 9655   1.284   5.520   4.228
 2919SOL    HW1 9656   1.372   5.535   4.272
 2919SOL    HW2 9657   1.267   5.594   4.163
 2920SOL     OW 9658   1.264   1.830   2.453
 2920SOL    HW1 9659   1.309   1.915   2.480
 2920SOL    HW2 9660   1.169   1.849   2.426
 2921SOL     OW 9661   0.733   0.456   5.045
 2921SOL    HW1 9662   0.730   0.372   5.099
 2921SOL    HW2 9663   0.824   0.496   5.050
 2922SOL     OW 9664   3.635   0.625   3.389
 2922SOL    HW1 9665   3.676   0.535   3.401
 2922SOL    HW2 9666   3.650   0.656   3.295
 2923SOL     OW 9667   6.074   5.589   4.565
 2923SOL    HW1 9668   5.991   5.575   4.619
 2923SOL    HW2 9669   6.055   5.651   4.489
 2924SOL     OW 9670   6.061   2.715   5.309
 2924SOL    HW1 9671   6.063   2.674   5.400
 2924SOL    HW2 9672   6.017   2.805   5.315
 2925SOL     OW 9673   4.812   0.357   6.009
 2925SOL    HW1 9674   4.837   0.285   6.073
 2925SOL    HW2 9675   4.719   0.388   6.027
 2926SOL     OW 9676   0.089   2.020   4.312
 2926SOL    HW1 9677   0.117   1.949   4.377
 2926SOL    HW2 9678   0.084   1.981   4.220
 2927SOL     OW 9679   1.054   2.347   2.042
 2927SOL    HW1 9680   1.051   2.396   1.954
 2927SOL    HW2 9681   1.141   2.365   2.087
 2928SOL     OW 9682   0.147   2.853   0.273
 2928SOL    HW1 9683   0.094   2.906   0.207
 2928SOL    HW2 9684   0.103   2.764   0.286
 2929SOL     OW 9685   2.505   2.608   5.172
 2929SOL    HW1 9686   2.515   2.694   5.121
 2929SOL    HW2 9687   2.431   2.554   5.132
 2930SOL     OW 9688   6.582   4.892   5.320
 2930SOL    HW1 9689   6.665   4.899   5.264
 2930SOL    HW2 9690   6.584   4.807   5.372
 2931SOL     OW 9691   4.955   4.125   5.579
 2931SOL    HW1 9692   4.857   4.148   5.579
 2931SOL    HW2 9693   4.969   4.040   5.628
 2932SOL     OW 9694   6.556   5.457   0.390
 2932SOL    HW1 9695   6.567   5.419   0.298
 2932SOL    HW2 9696   6.460   5.480   0.405
 2933SOL     OW 9697   1.645   0.242   1.165
 2933SOL    HW1 9698   1.651   0.265   1.262
 2933SOL    HW2 9699   1.701   0.305   1.112
 2934SOL     OW 9700   4.316   4.834   0.536
 2934SOL    HW1 9701   4.232   4.866   0.580
 2934SOL    HW2 9702   4.295   4.799   0.445
 2935SOL     OW 9703   6.957   2.419   6.101
 2935SOL    HW1 9704   6.994   2.357   6.170
 2935SOL    HW2 9705   7.007   2.506   6.104
 2936SOL     OW 9706   4.559   6.575   0.874
 2936SOL    HW1 9707   4.551   6.486   0.919
 2936SOL    HW2 9708   4.468   6.613   0.858
 2937SOL     OW 9709   4.756   5.037   2.196
 2937SOL    HW1 9710   4.804   5.089   2.266
 2937SOL    HW2 9711   4.731   4.947   2.232
 2938SOL     OW 9712   6.262   5.836   0.045
 2938SOL    HW1 9713   6.249   5.751   0.096
 2938SOL    HW2 9714   6.263   5.816   6.971
 2939SOL     OW 9715   0.104   5.841   0.873
 2939SOL    HW1 9716   0.104   5.764   0.809
 2939SOL    HW2 9717   0.011   5.864   0.898
 2940SOL     OW 9718   4.613   6.297   3.698
 2940SOL    HW1 9719   4.562   6.241   3.632
 2940SOL    HW2 9720   4.549   6.353   3.750
 2941SOL     OW 9721   1.598   3.568   3.670
 2941SOL    HW1 9722   1.537   3.489   3.667
 2941SOL    HW2 9723   1.557   3.641   3.725
 2942SOL     OW 9724   3.629   1.918   1.225
 2942SOL    HW1 9725   3.531   1.916   1.202
 2942SOL    HW2 9726   3.679   1.965   1.152
 2943SOL     OW 9727   5.799   4.023   3.445
 2943SOL    HW1 9728   5.820   4.042   3.349
 2943SOL    HW2 9729   5.878   4.046   3.501
 2944SOL     OW 9730   1.721   5.914   3.021
 2944SOL    HW1 9731   1.702   5.943   3.115
 2944SOL    HW2 9732   1.787   5.840   3.022
 2945SOL     OW 9733   5.204   4.320   1.753
 2945SOL    HW1 9734   5.123   4.263   1.734
 2945SOL    HW2 9735   5.184   4.415   1.731
 2946SOL     OW 9736   3.141   3.689   5.691
 2946SOL    HW1 9737   3.173   3.644   5.608
 2946SOL    HW2 9738   3.042   3.674   5.702
 2947SOL     OW 9739   5.869   6.959   0.411
 2947SOL    HW1 9740   5.965   6.985   0.426
 2947SOL    HW2 9741   5.809   0.003   0.455
 2948SOL     OW 9742   6.354   4.001   2.263
 2948SOL    HW1 9743   6.384   4.087   2.221
 2948SOL    HW2 9744   6.276   3.965   2.211
 2949SOL     OW 9745   1.283   6.881   0.912
 2949SOL    HW1 9746   1.374   6.844   0.893
 2949SOL    HW2 9747   1.237   6.823   0.979
 2950SOL     OW 9748   5.368   4.815   2.732
 2950SOL    HW1 9749   5.407   4.876   2.801
 2950SOL    HW2 9750   5.297   4.758   2.774
 2951SOL     OW 9751   6.218   1.727   1.784
 2951SOL    HW1 9752   6.204   1.647   1.843
 2951SOL    HW2 9753   6.276   1.793   1.831
 2952SOL     OW 9754   5.572   1.641   4.001
 2952SOL    HW1 9755   5.481   1.661   4.037
 2952SOL    HW2 9756   5.571   1.552   3.955
 2953SOL     OW 9757   1.098   5.888   4.461
 2953SOL    HW1 9758   1.182   5.884   4.407
 2953SOL    HW2 9759   1.095   5.812   4.525
 2954SOL     OW 9760   6.862   4.620   6.112
 2954SOL    HW1 9761   6.869   4.615   6.212
 2954SOL    HW2 9762   6.903   4.539   6.071
 2955SOL     OW 9763   2.113   4.952   6.759
 2955SOL    HW1 9764   2.117   4.859   6.796
 2955SOL    HW2 9765   2.090   4.948   6.661
 2956SOL     OW 9766   6.206   4.373   3.600
 2956SOL    HW1 9767   6.237   4.334   3.513
 2956SOL    HW2 9768   6.271   4.443   3.630
 2957SOL     OW 9769   2.872   5.198   1.151
 2957SOL    HW1 9770   2.941   5.256   1.107
 2957SOL    HW2 9771   2.783   5.214   1.109
 2958SOL     OW 9772   2.801   5.195   2.778
 2958SOL    HW1 9773   2.742   5.264   2.820
 2958SOL    HW2 9774   2.744   5.128   2.729
 2959SOL     OW 9775   0.074   3.005   3.314
 2959SOL    HW1 9776   0.153   2.977   3.367
 2959SOL    HW2 9777   0.016   3.065   3.370
 2960SOL     OW 9778   4.537   0.779   0.303
 2960SOL    HW1 9779   4.456   0.747   0.353
 2960SOL    HW2 9780   4.614   0.789   0.367
 2961SOL     OW 9781   5.596   3.976   2.654
 2961SOL    HW1 9782   5.510   3.948   2.698
 2961SOL    HW2 9783   5.579   4.053   2.593
 2962SOL     OW 9784   0.157   6.892   2.425
 2962SOL    HW1 9785   0.068   6.888   2.470
 2962SOL    HW2 9786   0.149   6.860   2.331
 2963SOL     OW 9787   1.974   1.301   4.816
 2963SOL    HW1 9788   2.001   1.216   4.862
 2963SOL    HW2 9789   1.977   1.287   4.717
 2964SOL     OW 9790   1.178   2.019   0.264
 2964SOL    HW1 9791   1.117   2.073   0.206
 2964SOL    HW2 9792   1.256   1.987   0.210
 2965SOL     OW 9793   1.263   0.135   4.456
 2965SOL    HW1 9794   1.265   0.048   4.505
 2965SOL    HW2 9795   1.168   0.167   4.451
 2966SOL     OW 9796   3.780   5.727   3.095
 2966SOL    HW1 9797   3.826   5.680   3.020
 2966SOL    HW2 9798   3.681   5.721   3.083
 2967SOL     OW 9799   6.250   0.117   5.595
 2967SOL    HW1 9800   6.205   0.033   5.564
 2967SOL    HW2 9801   6.337   0.094   5.638
 2968SOL     OW 9802   1.771   2.362   1.039
 2968SOL    HW1 9803   1.848   2.349   0.977
 2968SOL    HW2 9804   1.778   2.452   1.082
 2969SOL     OW 9805   5.214   3.168   4.572
 2969SOL    HW1 9806   5.217   3.105   4.650
 2969SOL    HW2 9807   5.201   3.261   4.605
 2970SOL     OW 9808   2.466   2.474   4.144
 2970SOL    HW1 9809   2.437   2.521   4.061
 2970SOL    HW2 9810   2.517   2.537   4.202
 2971SOL     OW 9811   5.396   2.813   6.494
 2971SOL    HW1 9812   5.394   2.881   6.421
 2971SOL    HW2 9813   5.335   2.841   6.568
 2972SOL     OW 9814   5.731   4.961   0.019
 2972SOL    HW1 9815   5.739   4.863   0.004
 2972SOL    HW2 9816   5.711   4.978   0.116
 2973SOL     OW 9817   4.667   0.920   2.302
 2973SOL    HW1 9818   4.716   0.853   2.247
 2973SOL    HW2 9819   4.703   1.011   2.284
 2974SOL     OW 9820   4.773   5.846   3.141
 2974SOL    HW1 9821   4.812   5.798   3.219
 2974SOL    HW2 9822   4.674   5.854   3.152
 2975SOL     OW 9823   4.794   4.137   4.368
 2975SOL    HW1 9824   4.892   4.123   4.357
 2975SOL    HW2 9825   4.763   4.096   4.455
 2976SOL     OW 9826   4.085   2.133   2.171
 2976SOL    HW1 9827   4.071   2.034   2.166
 2976SOL    HW2 9828   4.003   2.180   2.138
 2977SOL     OW 9829   1.280   0.881   1.415
 2977SOL    HW1 9830   1.217   0.891   1.338
 2977SOL    HW2 9831   1.372   0.905   1.386
 2978SOL     OW 9832   4.863   5.247   6.550
 2978SOL    HW1 9833   4.884   5.341   6.522
 2978SOL    HW2 9834   4.787   5.247   6.614
 2979SOL     OW 9835   3.489   0.966   4.047
 2979SOL    HW1 9836   3.516   0.870   4.039
 2979SOL    HW2 9837   3.482   0.991   4.143
 2980SOL     OW 9838   3.688   3.818   5.946
 2980SOL    HW1 9839   3.596   3.814   5.984
 2980SOL    HW2 9840   3.694   3.894   5.881
 2981SOL     OW 9841   1.533   0.700   0.726
 2981SOL    HW1 9842   1.492   0.696   0.635
 2981SOL    HW2 9843   1.632   0.717   0.718
 2982SOL     OW 9844   0.782   0.614   1.582
 2982SOL    HW1 9845   0.778   0.610   1.682
 2982SOL    HW2 9846   0.698   0.653   1.547
 2983SOL     OW 9847   5.655   3.011   6.136
 2983SOL    HW1 9848   5.629   2.981   6.044
 2983SOL    HW2 9849   5.573   3.016   6.193
 2984SOL     OW 9850   0.375   4.808   0.640
 2984SOL    HW1 9851   0.425   4.737   0.591
 2984SOL    HW2 9852   0.417   4.897   0.621
 2985SOL     OW 9853   0.154   6.494   4.612
 2985SOL    HW1 9854   0.250   6.520   4.598
 2985SOL    HW2 9855   0.127   6.515   4.706
 2986SOL     OW 9856   3.669   3.973   2.697
 2986SOL    HW1 9857   3.662   4.055   2.754
 2986SOL    HW2 9858   3.688   3.894   2.755
 2987SOL     OW 9859   1.837   0.615   4.375
 2987SOL    HW1 9860   1.781   0.610   4.458
 2987SOL    HW2 9861   1.781   0.644   4.298
 2988SOL     OW 9862   0.594   2.107   0.038
 2988SOL    HW1 9863   0.623   2.031   7.004
 2988SOL    HW2 9864   0.605   2.082   0.134
 2989SOL     OW 9865   5.312   3.551   4.275
 2989SOL    HW1 9866   5.277   3.458   4.266
 2989SOL    HW2 9867   5.236   3.612   4.300
 2990SOL     OW 9868   5.300   1.683   4.104
 2990SOL    HW1 9869   5.251   1.698   4.190
 2990SOL    HW2 9870   5.260   1.740   4.032
 2991SOL     OW 9871   6.679   4.088   1.058
 2991SOL    HW1 9872   6.659   4.186   1.062
 2991SOL    HW2 9873   6.602   4.040   1.017
 2992SOL     OW 9874   0.089   3.580   5.281
 2992SOL    HW1 9875   0.108   3.503   5.221
 2992SOL    HW2 9876   0.125   3.561   5.373
 2993SOL     OW 9877   0.983   4.437   0.437
 2993SOL    HW1 9878   0.972   4.371   0.512
 2993SOL    HW2 9879   0.925   4.410   0.360
 2994SOL     OW 9880   4.167   6.940   0.067
 2994SOL    HW1 9881   4.257   6.959   0.027
 2994SOL    HW2 9882   4.159   6.843   0.086
 2995SOL     OW 9883   5.338   0.670   1.401
 2995SOL    HW1 9884   5.430   0.710   1.399
 2995SOL    HW2 9885   5.316   0.632   1.312
 2996SOL     OW 9886   0.327   1.487   4.887
 2996SOL    HW1 9887   0.250   1.520   4.832
 2996SOL    HW2 9888   0.401   1.457   4.826
 2997SOL     OW 9889   5.386   0.296   3.652
 2997SOL    HW1 9890   5.295   0.327   3.679
 2997SOL    HW2 9891   5.378   0.220   3.588
 2998SOL     OW 9892   2.216   1.807   2.513
 2998SOL    HW1 9893   2.194   1.892   2.560
 2998SOL    HW2 9894   2.278   1.753   2.569
 2999SOL     OW 9895   2.516   4.575   0.503
 2999SOL    HW1 9896   2.512   4.485   0.545
 2999SOL    HW2 9897   2.542   4.643   0.572
 3000SOL     OW 9898   2.925   3.910   5.021
 3000SOL    HW1 9899   2.843   3.923   5.078
 3000SOL    HW2 9900   2.967   3.822   5.042
 3001SOL     OW 9901   5.741   0.339   6.052
 3001SOL    HW1 9902   5.654   0.350   6.100
 3001SOL    HW2 9903   5.727   0.282   5.971
 3002SOL     OW 9904   2.438   1.725   1.860
 3002SOL    HW1 9905   2.453   1.811   1.812
 3002SOL    HW2 9906   2.506   1.716   1.933
 3003SOL     OW 9907   1.018   6.391   0.015
 3003SOL    HW1 9908   1.046   6.485   0.035
 3003SOL    HW2 9909   0.923   6.390   7.009
 3004SOL     OW 9910   2.603   6.144   3.621
 3004SOL    HW1 9911   2.593   6.057   3.667
 3004SOL    HW2 9912   2.699   6.158   3.594
 3005SOL     OW 9913   0.874   2.650   5.556
 3005SOL    HW1 9914   0.896   2.594   5.476
 3005SOL    HW2 9915   0.953   2.707   5.579
 3006SOL     OW 9916   5.411   1.675   5.789
 3006SOL    HW1 9917   5.351   1.742   5.833
 3006SOL    HW2 9918   5.461   1.623   5.858
 3007SOL     OW 9919   5.420   4.796   6.943
 3007SOL    HW1 9920   5.393   4.709   6.984
 3007SOL    HW2 9921   5.517   4.813   6.960
 3008SOL     OW 9922   4.759   2.664   6.155
 3008SOL    HW1 9923   4.705   2.621   6.082
 3008SOL    HW2 9924   4.723   2.755   6.174
 3009SOL     OW 9925   0.263   3.640   2.150
 3009SOL    HW1 9926   0.281   3.550   2.189
 3009SOL    HW2 9927   0.327   3.707   2.188
 3010SOL     OW 9928   4.367   6.190   6.336
 3010SOL    HW1 9929   4.447   6.173   6.279
 3010SOL    HW2 9930   4.300   6.243   6.285
 3011SOL     OW 9931   6.710   6.765   0.945
 3011SOL    HW1 9932   6.651   6.715   0.882
 3011SOL    HW2 9933   6.665   6.851   0.971
 3012SOL     OW 9934   2.565   2.657   6.060
 3012SOL    HW1 9935   2.649   2.708   6.039
 3012SOL    HW2 9936   2.565   2.570   6.010
 3013SOL     OW 9937   0.783   5.163   5.155
 3013SOL    HW1 9938   0.867   5.203   5.190
 3013SOL    HW2 9939   0.756   5.208   5.070
 3014SOL     OW 9940   4.835   0.436   5.429
 3014SOL    HW1 9941   4.874   0.483   5.508
 3014SOL    HW2 9942   4.882   0.466   5.346
 3015SOL     OW 9943   1.323   1.152   0.095
 3015SOL    HW1 9944   1.407   1.179   0.142
 3015SOL    HW2 9945   1.306   1.213   0.018
 3016SOL     OW 9946   1.955   6.743   4.267
 3016SOL    HW1 9947   1.895   6.783   4.336
 3016SOL    HW2 9948   1.990   6.815   4.208
 3017SOL     OW 9949   0.108   5.593   0.722
 3017SOL    HW1 9950   0.101   5.528   0.798
 3017SOL    HW2 9951   0.199   5.587   0.682
 3018SOL     OW 9952   3.328   0.246   0.541
 3018SOL    HW1 9953   3.317   0.193   0.456
 3018SOL    HW2 9954   3.412   0.217   0.587
 3019SOL     OW 9955   2.054   0.482   5.071
 3019SOL    HW1 9956   2.151   0.466   5.086
 3019SOL    HW2 9957   2.035   0.485   4.973
 3020SOL     OW 9958   5.266   3.386   7.002
 3020SOL    HW1 9959   5.361   3.404   6.977
 3020SOL    HW2 9960   5.210   3.466   6.979
 3021SOL     OW 9961   3.962   6.311   4.599
 3021SOL    HW1 9962   4.018   6.388   4.628
 3021SOL    HW2 9963   3.992   6.280   4.509
 3022SOL     OW 9964   4.383   5.573   4.087
 3022SOL    HW1 9965   4.428   5.655   4.123
 3022SOL    HW2 9966   4.313   5.600   4.020
 3023SOL     OW 9967   5.066   6.484   2.816
 3023SOL    HW1 9968   5.061   6.534   2.729
 3023SOL    HW2 9969   4.977   6.483   2.860
 3024SOL     OW 9970   6.948   6.031   6.436
 3024SOL    HW1 9971   0.016   6.068   6.421
 3024SOL    HW2 9972   6.880   6.104   6.426
 3025SOL     OW 9973   3.844   6.076   0.866
 3025SOL    HW1 9974   3.860   6.014   0.789
 3025SOL    HW2 9975   3.795   6.027   0.938
 3026SOL     OW 9976   6.313   1.106   0.558
 3026SOL    HW1 9977   6.300   1.197   0.519
 3026SOL    HW2 9978   6.249   1.042   0.516
 3027SOL     OW 9979   4.580   1.391   1.086
 3027SOL    HW1 9980   4.641   1.469   1.072
 3027SOL    HW2 9981   4.634   1.308   1.097
 3028SOL     OW 9982   3.178   4.180   5.642
 3028SOL    HW1 9983   3.203   4.108   5.707
 3028SOL    HW2 9984   3.220   4.162   5.554
 3029SOL     OW 9985   0.728   2.484   4.335
 3029SOL    HW1 9986   0.708   2.397   4.380
 3029SOL    HW2 9987   0.785   2.540   4.394
 3030SOL     OW 9988   2.644   3.418   0.718
 3030SOL    HW1 9989   2.598   3.503   0.742
 3030SOL    HW2 9990   2.587   3.366   0.654
 3031SOL     OW 9991   0.722   6.491   1.596
 3031SOL    HW1 9992   0.809   6.515   1.551
 3031SOL    HW2 9993   0.695   6.399   1.569
 3032SOL     OW 9994   1.877   0.730   2.190
 3032SOL    HW1 9995   1.943   0.657   2.171
 3032SOL    HW2 9996   1.784   0.697   2.172
 3033SOL     OW 9997   6.840   2.058   4.482
 3033SOL    HW1 9998   6.771   2.130   4.473
 3033SOL    HW2 9999   6.931   2.099   4.477
 3034SOL     OW10000   6.536   5.099   3.202
 3034SOL    HW110001   6.590   5.183   3.190
 3034SOL    HW210002   6.570   5.029   3.139
 3035SOL     OW10003   0.947   2.737   6.685
 3035SOL    HW110004   0.888   2.810   6.649
 3035SOL    HW210005   0.918   2.714   6.778
 3036SOL     OW10006   3.302   2.287   6.211
 3036SOL    HW110007   3.338   2.283   6.304
 3036SOL    HW210008   3.375   2.312   6.148
 3037SOL     OW10009   0.113   5.304   0.187
 3037SOL    HW110010   0.038   5.311   0.253
 3037SOL    HW210011   0.099   5.224   0.129
 3038SOL     OW10012   5.597   4.452   6.705
 3038SOL    HW110013   5.538   4.493   6.774
 3038SOL    HW210014   5.579   4.494   6.616
 3039SOL     OW10015   6.616   3.996   6.798
 3039SOL    HW110016   6.625   4.092   6.771
 3039SOL    HW210017   6.689   3.943   6.755
 3040SOL     OW10018   5.355   3.648   5.852
 3040SOL    HW110019   5.355   3.626   5.950
 3040SOL    HW210020   5.410   3.731   5.837
 3041SOL     OW10021   2.125   4.182   4.961
 3041SOL    HW110022   2.177   4.110   5.007
 3041SOL    HW210023   2.176   4.214   4.881
 3042SOL     OW10024   6.960   5.398   3.230
 3042SOL    HW110025   0.025   5.425   3.266
 3042SOL    HW210026   6.916   5.476   3.186
 3043SOL     OW10027   3.129   4.963   0.641
 3043SOL    HW110028   3.083   4.984   0.554
 3043SOL    HW210029   3.196   5.034   0.662
 3044SOL     OW10030   3.514   3.446   5.347
 3044SOL    HW110031   3.570   3.496   5.281
 3044SOL    HW210032   3.456   3.510   5.397
 3045SOL     OW10033   5.064   1.516   1.954
 3045SOL    HW110034   5.120   1.535   1.873
 3045SOL    HW210035   5.055   1.599   2.009
 3046SOL     OW10036   5.498   5.909   0.986
 3046SOL    HW110037   5.570   5.889   0.919
 3046SOL    HW210038   5.540   5.937   1.072
 3047SOL     OW10039   6.103   0.930   5.776
 3047SOL    HW110040   6.186   0.910   5.725
 3047SOL    HW210041   6.087   1.029   5.778
 3048SOL     OW10042   3.788   4.068   0.780
 3048SOL    HW110043   3.850   4.050   0.703
 3048SOL    HW210044   3.774   3.983   0.832
 3049SOL     OW10045   1.149   0.745   4.020
 3049SOL    HW110046   1.226   0.806   4.037
 3049SOL    HW210047   1.144   0.723   3.922
 3050SOL     OW10048   2.723   2.223   1.641
 3050SOL    HW110049   2.655   2.174   1.587
 3050SOL    HW210050   2.782   2.275   1.580
 3051SOL     OW10051   2.038   5.655   5.586
 3051SOL    HW110052   2.018   5.682   5.492
 3051SOL    HW210053   1.978   5.579   5.613
 3052SOL     OW10054   6.727   6.326   2.638
 3052SOL    HW110055   6.734   6.407   2.697
 3052SOL    HW210056   6.817   6.306   2.599
 3053SOL     OW10057   1.442   4.487   0.244
 3053SOL    HW110058   1.371   4.535   0.296
 3053SOL    HW210059   1.401   4.440   0.167
 3054SOL     OW10060   5.775   1.142   2.834
 3054SOL    HW110061   5.842   1.086   2.785
 3054SOL    HW210062   5.823   1.214   2.885
 3055SOL     OW10063   6.081   5.540   6.201
 3055SOL    HW110064   6.082   5.514   6.105
 3055SOL    HW210065   6.107   5.636   6.210
 3056SOL     OW10066   4.654   1.481   5.777
 3056SOL    HW110067   4.560   1.456   5.751
 3056SOL    HW210068   4.707   1.397   5.789
 3057SOL     OW10069   5.642   4.857   2.904
 3057SOL    HW110070   5.664   4.948   2.940
 3057SOL    HW210071   5.702   4.836   2.827
 3058SOL     OW10072   0.608   4.787   6.784
 3058SOL    HW110073   0.621   4.710   6.846
 3058SOL    HW210074   0.608   4.872   6.837
 3059SOL     OW10075   2.291   2.255   4.304
 3059SOL    HW110076   2.322   2.167   4.340
 3059SOL    HW210077   2.369   2.311   4.277
 3060SOL     OW10078   5.265   5.091   5.098
 3060SOL    HW110079   5.207   5.140   5.033
 3060SOL    HW210080   5.349   5.061   5.052
 3061SOL     OW10081   5.008   5.270   5.166
 3061SOL    HW110082   5.051   5.247   5.079
 3061SOL    HW210083   4.982   5.367   5.166
 3062SOL     OW10084   4.888   4.610   1.963
 3062SOL    HW110085   4.986   4.621   1.948
 3062SOL    HW210086   4.853   4.537   1.905
 3063SOL     OW10087   0.302   4.201   1.662
 3063SOL    HW110088   0.372   4.161   1.601
 3063SOL    HW210089   0.234   4.250   1.607
 3064SOL     OW10090   5.011   1.793   6.700
 3064SOL    HW110091   5.053   1.867   6.753
 3064SOL    HW210092   4.933   1.756   6.749
 3065SOL     OW10093   0.000   1.423   6.427
 3065SOL    HW110094   6.965   1.342   6.423
 3065SOL    HW210095   7.011   1.478   6.344
 3066SOL     OW10096   5.084   6.097   5.760
 3066SOL    HW110097   5.019   6.128   5.829
 3066SOL    HW210098   5.107   6.173   5.699
 3067SOL     OW10099   1.571   2.229   5.886
 3067SOL    HW110100   1.478   2.192   5.890
 3067SOL    HW210101   1.581   2.283   5.803
 3068SOL     OW10102   0.969   0.911   0.849
 3068SOL    HW110103   0.978   1.007   0.876
 3068SOL    HW210104   0.873   0.885   0.849
 3069SOL     OW10105   4.915   0.143   2.865
 3069SOL    HW110106   4.902   0.046   2.844
 3069SOL    HW210107   4.890   0.198   2.786
 3070SOL     OW10108   2.351   0.823   1.078
 3070SOL    HW110109   2.384   0.819   0.984
 3070SOL    HW210110   2.262   0.868   1.081
 3071SOL     OW10111   0.019   3.981   4.457
 3071SOL    HW110112   0.008   3.883   4.441
 3071SOL    HW210113   6.989   4.008   4.537
 3072SOL     OW10114   2.043   6.902   5.921
 3072SOL    HW110115   2.035   6.933   6.015
 3072SOL    HW210116   2.124   6.843   5.912
 3073SOL     OW10117   6.108   5.329   1.024
 3073SOL    HW110118   6.010   5.307   1.023
 3073SOL    HW210119   6.160   5.248   1.049
 3074SOL     OW10120   1.971   3.166   0.990
 3074SOL    HW110121   1.904   3.119   1.047
 3074SOL    HW210122   2.055   3.181   1.042
 3075SOL     OW10123   2.956   5.497   2.358
 3075SOL    HW110124   2.954   5.462   2.451
 3075SOL    HW210125   2.981   5.593   2.359
 3076SOL     OW10126   0.254   0.570   4.944
 3076SOL    HW110127   0.331   0.563   4.879
 3076SOL    HW210128   0.284   0.538   5.034
 3077SOL     OW10129   6.296   3.880   2.493
 3077SOL    HW110130   6.199   3.897   2.514
 3077SOL    HW210131   6.327   3.946   2.424
 3078SOL     OW10132   6.755   2.689   1.834
 3078SOL    HW110133   6.749   2.717   1.930
 3078SOL    HW210134   6.690   2.615   1.816
 3079SOL     OW10135   1.885   3.408   5.625
 3079SOL    HW110136   1.797   3.360   5.626
 3079SOL    HW210137   1.957   3.348   5.660
 3080SOL     OW10138   4.361   5.174   0.843
 3080SOL    HW110139   4.385   5.128   0.928
 3080SOL    HW210140   4.270   5.145   0.813
 3081SOL     OW10141   1.625   4.293   0.332
 3081SOL    HW110142   1.601   4.243   0.416
 3081SOL    HW210143   1.549   4.354   0.307
 3082SOL     OW10144   4.390   5.400   4.858
 3082SOL    HW110145   4.441   5.407   4.944
 3082SOL    HW210146   4.429   5.328   4.802
 3083SOL     OW10147   2.973   5.782   2.340
 3083SOL    HW110148   2.902   5.817   2.280
 3083SOL    HW210149   3.047   5.849   2.347
 3084SOL     OW10150   0.515   3.451   3.955
 3084SOL    HW110151   0.601   3.443   3.904
 3084SOL    HW210152   0.531   3.428   4.051
 3085SOL     OW10153   5.331   4.184   0.350
 3085SOL    HW110154   5.427   4.162   0.367
 3085SOL    HW210155   5.314   4.179   0.251
 3086SOL     OW10156   6.091   0.348   6.529
 3086SOL    HW110157   6.044   0.322   6.445
 3086SOL    HW210158   6.038   0.318   6.608
 3087SOL     OW10159   3.151   0.311   2.188
 3087SOL    HW110160   3.098   0.243   2.238
 3087SOL    HW210161   3.168   0.279   2.095
 3088SOL     OW10162   1.607   2.576   5.543
 3088SOL    HW110163   1.510   2.592   5.525
 3088SOL    HW210164   1.658   2.660   5.523
 3089SOL     OW10165   4.482   6.726   4.915
 3089SOL    HW110166   4.500   6.770   4.827
 3089SOL    HW210167   4.526   6.778   4.988
 3090SOL     OW10168   1.626   1.726   2.591
 3090SOL    HW110169   1.675   1.753   2.508
 3090SOL    HW210170   1.609   1.807   2.648
 3091SOL     OW10171   0.786   2.478   0.998
 3091SOL    HW110172   0.701   2.483   1.051
 3091SOL    HW210173   0.766   2.440   0.908
 3092SOL     OW10174   6.514   0.664   2.414
 3092SOL    HW110175   6.443   0.730   2.392
 3092SOL    HW210176   6.472   0.579   2.446
 3093SOL     OW10177   5.169   4.801   6.815
 3093SOL    HW110178   5.256   4.800   6.863
 3093SOL    HW210179   5.095   4.817   6.881
 3094SOL     OW10180   2.837   1.457   6.063
 3094SOL    HW110181   2.770   1.513   6.016
 3094SOL    HW210182   2.806   1.440   6.157
 3095SOL     OW10183   1.799   3.512   4.985
 3095SOL    HW110184   1.869   3.466   4.930
 3095SOL    HW210185   1.835   3.601   5.014
 3096SOL     OW10186   0.165   3.703   4.216
 3096SOL    HW110187   0.235   3.633   4.210
 3096SOL    HW210188   0.104   3.683   4.293
 3097SOL     OW10189   5.482   2.183   6.205
 3097SOL    HW110190   5.574   2.203   6.239
 3097SOL    HW210191   5.417   2.243   6.250
 3098SOL     OW10192   2.081   2.826   2.152
 3098SOL    HW110193   2.175   2.792   2.152
 3098SOL    HW210194   2.049   2.836   2.247
 3099SOL     OW10195   0.267   6.123   4.142
 3099SOL    HW110196   0.285   6.210   4.189
 3099SOL    HW210197   0.294   6.047   4.201
 3100SOL     OW10198   6.858   5.636   2.005
 3100SOL    HW110199   6.806   5.699   1.948
 3100SOL    HW210200   6.889   5.683   2.088
 3101SOL     OW10201   4.054   6.132   5.601
 3101SOL    HW110202   4.017   6.108   5.691
 3101SOL    HW210203   4.068   6.048   5.548
 3102SOL     OW10204   0.219   4.676   0.902
 3102SOL    HW110205   0.282   4.734   0.850
 3102SOL    HW210206   0.144   4.732   0.938
 3103SOL     OW10207   3.287   0.303   1.502
 3103SOL    HW110208   3.349   0.321   1.579
 3103SOL    HW210209   3.198   0.345   1.520
 3104SOL     OW10210   4.571   0.335   6.326
 3104SOL    HW110211   4.514   0.308   6.248
 3104SOL    HW210212   4.667   0.322   6.303
 3105SOL     OW10213   6.026   3.463   0.005
 3105SOL    HW110214   6.062   3.554   0.027
 3105SOL    HW210215   5.987   3.422   0.087
 3106SOL     OW10216   6.100   0.058   5.335
 3106SOL    HW110217   6.107   0.140   5.279
 3106SOL    HW210218   6.170   7.015   5.308
 3107SOL     OW10219   3.865   1.188   5.979
 3107SOL    HW110220   3.840   1.092   5.993
 3107SOL    HW210221   3.782   1.242   5.962
 3108SOL     OW10222   1.907   4.097   3.524
 3108SOL    HW110223   1.885   4.152   3.444
 3108SOL    HW210224   1.875   4.003   3.509
 3109SOL     OW10225   6.574   5.943   3.770
 3109SOL    HW110226   6.644   5.872   3.766
 3109SOL    HW210227   6.555   5.976   3.677
 3110SOL     OW10228   0.872   4.492   3.578
 3110SOL    HW110229   0.857   4.405   3.626
 3110SOL    HW210230   0.920   4.474   3.492
 3111SOL     OW10231   5.574   4.489   4.386
 3111SOL    HW110232   5.537   4.553   4.454
 3111SOL    HW210233   5.598   4.540   4.303
 3112SOL     OW10234   3.593   1.880   6.716
 3112SOL    HW110235   3.569   1.799   6.769
 3112SOL    HW210236   3.512   1.916   6.671
 3113SOL     OW10237   2.346   5.624   3.672
 3113SOL    HW110238   2.425   5.658   3.621
 3113SOL    HW210239   2.377   5.568   3.748
 3114SOL     OW10240   4.052   0.922   6.849
 3114SOL    HW110241   4.003   0.869   6.919
 3114SOL    HW210242   4.141   0.878   6.832
 3115SOL     OW10243   4.658   4.995   5.455
 3115SOL    HW110244   4.657   5.079   5.510
 3115SOL    HW210245   4.750   4.979   5.421
 3116SOL     OW10246   0.723   1.700   1.200
 3116SOL    HW110247   0.661   1.707   1.122
 3116SOL    HW210248   0.670   1.677   1.282
 3117SOL     OW10249   5.074   1.674   5.713
 3117SOL    HW110250   5.128   1.712   5.637
 3117SOL    HW210251   5.065   1.575   5.701
 3118SOL     OW10252   1.716   0.863   3.242
 3118SOL    HW110253   1.620   0.892   3.235
 3118SOL    HW210254   1.739   0.804   3.165
 3119SOL     OW10255   4.536   4.815   5.621
 3119SOL    HW110256   4.585   4.872   5.555
 3119SOL    HW210257   4.475   4.872   5.676
 3120SOL     OW10258   1.852   6.551   4.654
 3120SOL    HW110259   1.919   6.529   4.724
 3120SOL    HW210260   1.770   6.590   4.697
 3121SOL     OW10261   4.503   1.620   4.609
 3121SOL    HW110262   4.584   1.588   4.560
 3121SOL    HW210263   4.462   1.697   4.561
 3122SOL     OW10264   3.623   5.244   4.549
 3122SOL    HW110265   3.578   5.237   4.638
 3122SOL    HW210266   3.609   5.159   4.498
 3123SOL     OW10267   2.395   1.656   3.710
 3123SOL    HW110268   2.326   1.664   3.638
 3123SOL    HW210269   2.475   1.710   3.685
 3124SOL     OW10270   5.233   7.021   3.719
 3124SOL    HW110271   5.302   0.011   3.790
 3124SOL    HW210272   5.265   0.039   3.633
 3125SOL     OW10273   1.725   2.055   5.556
 3125SOL    HW110274   1.689   2.144   5.586
 3125SOL    HW210275   1.667   1.982   5.591
 3126SOL     OW10276   5.868   5.145   4.555
 3126SOL    HW110277   5.931   5.179   4.486
 3126SOL    HW210278   5.913   5.145   4.645
 3127SOL     OW10279   0.111   1.314   4.878
 3127SOL    HW110280   0.205   1.313   4.912
 3127SOL    HW210281   0.111   1.307   4.778
 3128SOL     OW10282   4.353   0.424   0.375
 3128SOL    HW110283   4.264   0.380   0.378
 3128SOL    HW210284   4.346   0.516   0.415
 3129SOL     OW10285   4.530   3.193   0.622
 3129SOL    HW110286   4.551   3.239   0.536
 3129SOL    HW210287   4.605   3.133   0.647
 3130SOL     OW10288   1.106   4.630   1.892
 3130SOL    HW110289   1.098   4.559   1.963
 3130SOL    HW210290   1.022   4.633   1.838
 3131SOL     OW10291   6.936   4.223   2.767
 3131SOL    HW110292   7.019   4.184   2.808
 3131SOL    HW210293   6.913   4.308   2.814
 3132SOL     OW10294   3.944   4.858   6.744
 3132SOL    HW110295   3.976   4.766   6.720
 3132SOL    HW210296   3.902   4.900   6.663
 3133SOL     OW10297   3.819   0.641   4.020
 3133SOL    HW110298   3.884   0.575   3.982
 3133SOL    HW210299   3.860   0.687   4.098
 3134SOL     OW10300   4.166   5.274   3.069
 3134SOL    HW110301   4.141   5.263   2.973
 3134SOL    HW210302   4.254   5.321   3.076
 3135SOL     OW10303   4.826   6.713   6.288
 3135SOL    HW110304   4.812   6.812   6.296
 3135SOL    HW210305   4.754   6.674   6.231
 3136SOL     OW10306   6.285   1.752   3.079
 3136SOL    HW110307   6.377   1.746   3.118
 3136SOL    HW210308   6.290   1.743   2.979
 3137SOL     OW10309   6.376   6.844   6.931
 3137SOL    HW110310   6.355   6.758   6.885
 3137SOL    HW210311   6.330   6.847   7.020
 3138SOL     OW10312   5.677   5.484   4.133
 3138SOL    HW110313   5.732   5.440   4.204
 3138SOL    HW210314   5.681   5.583   4.143
 3139SOL     OW10315   2.223   5.127   0.985
 3139SOL    HW110316   2.180   5.051   1.034
 3139SOL    HW210317   2.240   5.202   1.049
 3140SOL     OW10318   7.012   6.933   6.161
 3140SOL    HW110319   0.047   6.861   6.199
 3140SOL    HW210320   0.022   7.022   6.192
 3141SOL     OW10321   6.531   2.494   6.224
 3141SOL    HW110322   6.592   2.452   6.156
 3141SOL    HW210323   6.441   2.452   6.219
 3142SOL     OW10324   5.021   1.128   2.839
 3142SOL    HW110325   4.960   1.204   2.815
 3142SOL    HW210326   5.099   1.128   2.777
 3143SOL     OW10327   6.274   1.383   0.459
 3143SOL    HW110328   6.209   1.457   0.472
 3143SOL    HW210329   6.343   1.409   0.391
 3144SOL     OW10330   4.305   3.625   6.207
 3144SOL    HW110331   4.293   3.596   6.113
 3144SOL    HW210332   4.237   3.695   6.230
 3145SOL     OW10333   0.415   6.156   1.269
 3145SOL    HW110334   0.416   6.073   1.213
 3145SOL    HW210335   0.337   6.153   1.332
 3146SOL     OW10336   0.531   0.306   4.908
 3146SOL    HW110337   0.485   0.362   4.839
 3146SOL    HW210338   0.592   0.364   4.962
 3147SOL     OW10339   4.175   4.915   6.911
 3147SOL    HW110340   4.104   4.923   6.841
 3147SOL    HW210341   4.216   4.824   6.907
 3148SOL     OW10342   6.865   5.356   2.715
 3148SOL    HW110343   6.921   5.280   2.680
 3148SOL    HW210344   6.786   5.369   2.654
 3149SOL     OW10345   3.197   0.990   0.425
 3149SOL    HW110346   3.242   0.901   0.435
 3149SOL    HW210347   3.213   1.045   0.507
 3150SOL     OW10348   6.642   5.908   4.657
 3150SOL    HW110349   6.575   5.981   4.664
 3150SOL    HW210350   6.712   5.919   4.727
 3151SOL     OW10351   6.258   1.471   5.920
 3151SOL    HW110352   6.284   1.456   6.016
 3151SOL    HW210353   6.288   1.394   5.865
 3152SOL     OW10354   1.090   2.775   6.221
 3152SOL    HW110355   1.066   2.835   6.297
 3152SOL    HW210356   1.060   2.816   6.135
 3153SOL     OW10357   6.230   5.073   1.026
 3153SOL    HW110358   6.153   5.010   1.013
 3153SOL    HW210359   6.251   5.118   0.939
 3154SOL     OW10360   4.725   1.505   0.711
 3154SOL    HW110361   4.636   1.511   0.755
 3154SOL    HW210362   4.719   1.541   0.618
 3155SOL     OW10363   0.342   5.009   1.010
 3155SOL    HW110364   0.362   5.096   0.965
 3155SOL    HW210365   0.245   4.989   1.003
 3156SOL     OW10366   3.664   4.192   1.953
 3156SOL    HW110367   3.649   4.290   1.967
 3156SOL    HW210368   3.738   4.160   2.012
 3157SOL     OW10369   0.519   1.902   5.026
 3157SOL    HW110370   0.554   1.906   5.120
 3157SOL    HW210371   0.432   1.852   5.026
 3158SOL     OW10372   2.442   1.300   5.648
 3158SOL    HW110373   2.452   1.211   5.692
 3158SOL    HW210374   2.348   1.310   5.614
 3159SOL     OW10375   6.431   6.771   0.304
 3159SOL    HW110376   6.523   6.732   0.294
 3159SOL    HW210377   6.396   6.750   0.395
 3160SOL     OW10378   2.252   0.090   6.033
 3160SOL    HW110379   2.153   0.087   6.048
 3160SOL    HW210380   2.299   0.055   6.114
 3161SOL     OW10381   2.053   2.878   3.116
 3161SOL    HW110382   2.137   2.846   3.159
 3161SOL    HW210383   1.980   2.884   3.184
 3162SOL     OW10384   1.971   5.670   0.985
 3162SOL    HW110385   1.996   5.598   0.920
 3162SOL    HW210386   2.049   5.732   0.998
 3163SOL     OW10387   4.648   3.607   0.632
 3163SOL    HW110388   4.644   3.683   0.568
 3163SOL    HW210389   4.741   3.569   0.633
 3164SOL     OW10390   2.646   5.780   3.277
 3164SOL    HW110391   2.581   5.823   3.340
 3164SOL    HW210392   2.734   5.828   3.282
 3165SOL     OW10393   0.900   6.216   0.881
 3165SOL    HW110394   0.813   6.203   0.929
 3165SOL    HW210395   0.901   6.307   0.838
 3166SOL     OW10396   4.043   1.162   5.483
 3166SOL    HW110397   4.012   1.177   5.577
 3166SOL    HW210398   4.141   1.179   5.478
 3167SOL     OW10399   5.302   3.408   0.652
 3167SOL    HW110400   5.295   3.491   0.596
 3167SOL    HW210401   5.382   3.414   0.711
 3168SOL     OW10402   4.339   1.514   0.632
 3168SOL    HW110403   4.265   1.467   0.679
 3168SOL    HW210404   4.383   1.451   0.568
 3169SOL     OW10405   2.030   4.409   2.103
 3169SOL    HW110406   2.111   4.438   2.155
 3169SOL    HW210407   2.053   4.404   2.006
 3170SOL     OW10408   3.566   5.433   3.306
 3170SOL    HW110409   3.508   5.402   3.380
 3170SOL    HW210410   3.632   5.361   3.283
 3171SOL     OW10411   5.434   2.894   3.285
 3171SOL    HW110412   5.336   2.905   3.300
 3171SOL    HW210413   5.458   2.920   3.192
 3172SOL     OW10414   0.326   4.486   0.692
 3172SOL    HW110415   0.405   4.425   0.695
 3172SOL    HW210416   0.315   4.530   0.780
 3173SOL     OW10417   3.787   1.943   0.596
 3173SOL    HW110418   3.868   1.945   0.537
 3173SOL    HW210419   3.755   1.849   0.605
 3174SOL     OW10420   2.672   3.410   5.960
 3174SOL    HW110421   2.689   3.324   5.911
 3174SOL    HW210422   2.753   3.434   6.014
 3175SOL     OW10423   6.977   0.298   4.094
 3175SOL    HW110424   6.879   0.286   4.104
 3175SOL    HW210425   7.001   0.393   4.115
 3176SOL     OW10426   1.347   4.715   5.014
 3176SOL    HW110427   1.433   4.718   5.065
 3176SOL    HW210428   1.290   4.793   5.039
 3177SOL     OW10429   5.604   3.738   3.406
 3177SOL    HW110430   5.674   3.746   3.477
 3177SOL    HW210431   5.648   3.724   3.317
 3178SOL     OW10432   6.897   1.095   1.156
 3178SOL    HW110433   6.871   1.012   1.107
 3178SOL    HW210434   6.862   1.090   1.250
 3179SOL     OW10435   1.043   2.031   1.624
 3179SOL    HW110436   1.095   1.957   1.667
 3179SOL    HW210437   0.948   2.029   1.656
 3180SOL     OW10438   6.813   5.864   0.124
 3180SOL    HW110439   6.830   5.845   0.028
 3180SOL    HW210440   6.788   5.779   0.171
 3181SOL     OW10441   0.510   1.117   4.786
 3181SOL    HW110442   0.500   1.137   4.689
 3181SOL    HW210443   0.432   1.062   4.817
 3182SOL     OW10444   2.727   6.984   0.436
 3182SOL    HW110445   2.698   6.971   0.530
 3182SOL    HW210446   2.647   6.980   0.375
 3183SOL     OW10447   4.405   4.536   1.957
 3183SOL    HW110448   4.426   4.439   1.947
 3183SOL    HW210449   4.478   4.581   2.008
 3184SOL     OW10450   0.434   2.291   4.646
 3184SOL    HW110451   0.398   2.236   4.721
 3184SOL    HW210452   0.363   2.352   4.611
 3185SOL     OW10453   0.067   5.645   6.072
 3185SOL    HW110454   0.155   5.646   6.121
 3185SOL    HW210455   0.018   5.729   6.092
 3186SOL     OW10456   0.388   1.697   6.369
 3186SOL    HW110457   0.295   1.711   6.335
 3186SOL    HW210458   0.421   1.607   6.339
 3187SOL     OW10459   4.056   5.906   2.717
 3187SOL    HW110460   3.959   5.911   2.693
 3187SOL    HW210461   4.106   5.854   2.647
 3188SOL     OW10462   2.183   4.619   5.513
 3188SOL    HW110463   2.161   4.526   5.483
 3188SOL    HW210464   2.281   4.627   5.527
 3189SOL     OW10465   2.888   1.370   6.652
 3189SOL    HW110466   2.926   1.320   6.574
 3189SOL    HW210467   2.963   1.411   6.704
 3190SOL     OW10468   7.009   5.902   4.366
 3190SOL    HW110469   6.920   5.947   4.361
 3190SOL    HW210470   6.997   5.809   4.401
 3191SOL     OW10471   4.524   5.532   1.935
 3191SOL    HW110472   4.578   5.535   1.851
 3191SOL    HW210473   4.574   5.575   2.010
 3192SOL     OW10474   6.258   2.137   2.335
 3192SOL    HW110475   6.183   2.089   2.381
 3192SOL    HW210476   6.269   2.100   2.243
 3193SOL     OW10477   3.803   0.206   5.400
 3193SOL    HW110478   3.760   0.271   5.337
 3193SOL    HW210479   3.901   0.227   5.408
 3194SOL     OW10480   1.163   1.223   5.658
 3194SOL    HW110481   1.251   1.255   5.692
 3194SOL    HW210482   1.176   1.181   5.568
 3195SOL     OW10483   0.247   1.714   1.763
 3195SOL    HW110484   0.322   1.649   1.777
 3195SOL    HW210485   0.284   1.799   1.727
 3196SOL     OW10486   6.075   6.988   4.600
 3196SOL    HW110487   6.064   0.026   4.678
 3196SOL    HW210488   5.988   6.979   4.552
 3197SOL     OW10489   2.191   0.444   6.492
 3197SOL    HW110490   2.245   0.518   6.452
 3197SOL    HW210491   2.102   0.480   6.522
 3198SOL     OW10492   6.440   2.637   3.848
 3198SOL    HW110493   6.445   2.656   3.750
 3198SOL    HW210494   6.377   2.701   3.891
 3199SOL     OW10495   5.556   4.428   3.368
 3199SOL    HW110496   5.567   4.362   3.293
 3199SOL    HW210497   5.618   4.404   3.442
 3200SOL     OW10498   5.465   3.209   4.136
 3200SOL    HW110499   5.556   3.243   4.115
 3200SOL    HW210500   5.439   3.139   4.069
 3201SOL     OW10501   6.027   4.266   2.656
 3201SOL    HW110502   6.037   4.274   2.557
 3201SOL    HW210503   5.953   4.202   2.677
 3202SOL     OW10504   1.304   5.365   0.664
 3202SOL    HW110505   1.311   5.273   0.704
 3202SOL    HW210506   1.296   5.358   0.565
 3203SOL     OW10507   4.423   5.950   1.216
 3203SOL    HW110508   4.522   5.936   1.219
 3203SOL    HW210509   4.384   5.925   1.305
 3204SOL     OW10510   2.395   1.254   3.293
 3204SOL    HW110511   2.387   1.289   3.387
 3204SOL    HW210512   2.487   1.221   3.278
 3205SOL     OW10513   5.370   2.803   5.498
 3205SOL    HW110514   5.444   2.870   5.505
 3205SOL    HW210515   5.373   2.742   5.577
 3206SOL     OW10516   2.992   2.895   1.569
 3206SOL    HW110517   3.025   2.899   1.663
 3206SOL    HW210518   2.892   2.902   1.568
 3207SOL     OW10519   1.149   7.004   4.991
 3207SOL    HW110520   1.088   6.936   5.031
 3207SOL    HW210521   1.099   0.037   4.926
 3208SOL     OW10522   6.054   6.140   5.663
 3208SOL    HW110523   6.085   6.064   5.606
 3208SOL    HW210524   5.985   6.193   5.614
 3209SOL     OW10525   4.882   5.622   6.068
 3209SOL    HW110526   4.938   5.552   6.113
 3209SOL    HW210527   4.831   5.580   5.993
 3210SOL     OW10528   6.858   4.735   1.358
 3210SOL    HW110529   6.837   4.807   1.424
 3210SOL    HW210530   6.811   4.651   1.384
 3211SOL     OW10531   1.338   6.061   0.061
 3211SOL    HW110532   1.267   6.096   7.023
 3211SOL    HW210533   1.389   6.138   0.100
 3212SOL     OW10534   2.654   6.807   2.667
 3212SOL    HW110535   2.640   6.882   2.732
 3212SOL    HW210536   2.741   6.763   2.685
 3213SOL     OW10537   1.262   0.929   5.905
 3213SOL    HW110538   1.327   0.962   5.836
 3213SOL    HW210539   1.235   1.005   5.964
 3214SOL     OW10540   3.410   1.297   2.887
 3214SOL    HW110541   3.455   1.212   2.914
 3214SOL    HW210542   3.479   1.365   2.862
 3215SOL     OW10543   1.384   2.754   0.755
 3215SOL    HW110544   1.450   2.705   0.811
 3215SOL    HW210545   1.428   2.831   0.710
 3216SOL     OW10546   5.609   4.008   0.746
 3216SOL    HW110547   5.654   3.918   0.737
 3216SOL    HW210548   5.527   3.999   0.803
 3217SOL     OW10549   0.685   4.874   2.946
 3217SOL    HW110550   0.649   4.962   2.977
 3217SOL    HW210551   0.763   4.848   3.002
 3218SOL     OW10552   6.792   1.695   3.328
 3218SOL    HW110553   6.875   1.655   3.366
 3218SOL    HW210554   6.781   1.788   3.364
 3219SOL     OW10555   5.927   0.318   5.694
 3219SOL    HW110556   5.829   0.300   5.694
 3219SOL    HW210557   5.964   0.305   5.602
 3220SOL     OW10558   6.800   4.598   6.929
 3220SOL    HW110559   6.862   4.543   6.986
 3220SOL    HW210560   6.844   4.686   6.908
 3221SOL     OW10561   4.503   0.101   1.775
 3221SOL    HW110562   4.566   0.041   1.825
 3221SOL    HW210563   4.556   0.169   1.724
 3222SOL     OW10564   2.768   1.333   2.487
 3222SOL    HW110565   2.758   1.432   2.491
 3222SOL    HW210566   2.741   1.300   2.396
 3223SOL     OW10567   1.366   6.678   1.280
 3223SOL    HW110568   1.426   6.636   1.212
 3223SOL    HW210569   1.384   6.776   1.284
 3224SOL     OW10570   4.352   2.204   4.757
 3224SOL    HW110571   4.359   2.304   4.757
 3224SOL    HW210572   4.262   2.177   4.789
 3225SOL     OW10573   4.323   7.015   4.213
 3225SOL    HW110574   4.245   0.009   4.152
 3225SOL    HW210575   4.376   0.076   4.222
 3226SOL     OW10576   0.335   0.548   1.762
 3226SOL    HW110577   0.275   0.561   1.684
 3226SOL    HW210578   0.286   0.500   1.835
 3227SOL     OW10579   4.596   2.807   5.529
 3227SOL    HW110580   4.623   2.823   5.624
 3227SOL    HW210581   4.573   2.710   5.517
 3228SOL     OW10582   0.887   4.244   0.632
 3228SOL    HW110583   0.816   4.191   0.586
 3228SOL    HW210584   0.959   4.182   0.664
 3229SOL     OW10585   1.992   1.834   6.789
 3229SOL    HW110586   1.987   1.900   6.864
 3229SOL    HW210587   1.927   1.859   6.717
 3230SOL     OW10588   2.494   5.849   5.757
 3230SOL    HW110589   2.456   5.934   5.794
 3230SOL    HW210590   2.427   5.807   5.696
 3231SOL     OW10591   2.558   1.378   2.047
 3231SOL    HW110592   2.475   1.321   2.048
 3231SOL    HW210593   2.599   1.374   1.956
 3232SOL     OW10594   4.150   6.085   4.198
 3232SOL    HW110595   4.069   6.130   4.237
 3232SOL    HW210596   4.123   6.000   4.153
 3233SOL     OW10597   0.912   2.113   6.884
 3233SOL    HW110598   0.834   2.077   6.935
 3233SOL    HW210599   0.888   2.202   6.845
 3234SOL     OW10600   2.824   2.971   0.819
 3234SOL    HW110601   2.799   3.065   0.844
 3234SOL    HW210602   2.921   2.969   0.792
 3235SOL     OW10603   6.705   6.500   2.325
 3235SOL    HW110604   6.640   6.565   2.365
 3235SOL    HW210605   6.672   6.407   2.339
 3236SOL     OW10606   2.938   4.396   0.397
 3236SOL    HW110607   2.922   4.304   0.362
 3236SOL    HW210608   2.920   4.398   0.496
 3237SOL     OW10609   5.910   1.399   5.446
 3237SOL    HW110610   6.009   1.392   5.456
 3237SOL    HW210611   5.869   1.412   5.537
 3238SOL     OW10612   6.226   5.527   1.162
 3238SOL    HW110613   6.322   5.542   1.138
 3238SOL    HW210614   6.179   5.486   1.084
 3239SOL     OW10615   0.036   0.279   3.759
 3239SOL    HW110616   0.127   0.321   3.753
 3239SOL    HW210617   7.002   0.334   3.820
 3240SOL     OW10618   0.686   0.963   6.130
 3240SOL    HW110619   0.730   0.939   6.216
 3240SOL    HW210620   0.665   0.880   6.079
 3241SOL     OW10621   5.497   1.638   6.676
 3241SOL    HW110622   5.580   1.637   6.620
 3241SOL    HW210623   5.452   1.549   6.671
 3242SOL     OW10624   4.868   4.317   5.312
 3242SOL    HW110625   4.924   4.285   5.388
 3242SOL    HW210626   4.871   4.417   5.308
 3243SOL     OW10627   4.708   5.029   5.762
 3243SOL    HW110628   4.755   5.045   5.848
 3243SOL    HW210629   4.764   4.971   5.703
 3244SOL     OW10630   5.855   6.066   6.656
 3244SOL    HW110631   5.874   6.164   6.653
 3244SOL    HW210632   5.778   6.045   6.596
 3245SOL     OW10633   4.283   1.639   3.966
 3245SOL    HW110634   4.250   1.561   3.914
 3245SOL    HW210635   4.285   1.616   4.063
 3246SOL     OW10636   0.765   0.453   1.965
 3246SOL    HW110637   0.745   0.436   2.061
 3246SOL    HW210638   0.836   0.522   1.956
 3247SOL     OW10639   0.708   4.003   2.808
 3247SOL    HW110640   0.735   4.005   2.904
 3247SOL    HW210641   0.618   4.045   2.799
 3248SOL     OW10642   5.558   2.204   3.594
 3248SOL    HW110643   5.648   2.234   3.626
 3248SOL    HW210644   5.533   2.256   3.513
 3249SOL     OW10645   3.323   3.792   3.669
 3249SOL    HW110646   3.362   3.825   3.583
 3249SOL    HW210647   3.238   3.842   3.688
 3250SOL     OW10648   5.367   6.257   2.192
 3250SOL    HW110649   5.280   6.305   2.197
 3250SOL    HW210650   5.442   6.323   2.189
 3251SOL     OW10651   2.551   1.037   4.237
 3251SOL    HW110652   2.552   0.996   4.329
 3251SOL    HW210653   2.528   1.134   4.245
 3252SOL     OW10654   2.461   1.510   4.115
 3252SOL    HW110655   2.472   1.609   4.117
 3252SOL    HW210656   2.420   1.478   4.201
 3253SOL     OW10657   6.344   3.186   1.063
 3253SOL    HW110658   6.313   3.239   0.984
 3253SOL    HW210659   6.296   3.098   1.065
 3254SOL     OW10660   5.820   0.841   0.432
 3254SOL    HW110661   5.869   0.876   0.353
 3254SOL    HW210662   5.791   0.917   0.490
 3255SOL     OW10663   5.863   4.786   1.239
 3255SOL    HW110664   5.909   4.811   1.155
 3255SOL    HW210665   5.871   4.860   1.306
 3256SOL     OW10666   4.580   2.477   1.157
 3256SOL    HW110667   4.629   2.555   1.197
 3256SOL    HW210668   4.596   2.474   1.058
 3257SOL     OW10669   2.177   2.048   2.658
 3257SOL    HW110670   2.163   2.021   2.753
 3257SOL    HW210671   2.089   2.074   2.618
 3258SOL     OW10672   2.692   5.697   3.786
 3258SOL    HW110673   2.713   5.659   3.876
 3258SOL    HW210674   2.697   5.796   3.789
 3259SOL     OW10675   5.064   4.092   4.348
 3259SOL    HW110676   5.101   4.023   4.410
 3259SOL    HW210677   5.100   4.076   4.255
 3260SOL     OW10678   2.144   4.353   1.817
 3260SOL    HW110679   2.217   4.298   1.858
 3260SOL    HW210680   2.102   4.302   1.743
 3261SOL     OW10681   4.339   0.770   3.029
 3261SOL    HW110682   4.277   0.725   3.093
 3261SOL    HW210683   4.425   0.791   3.076
 3262SOL     OW10684   3.827   1.938   2.649
 3262SOL    HW110685   3.755   1.894   2.595
 3262SOL    HW210686   3.900   1.872   2.667
 3263SOL     OW10687   1.744   1.523   2.707
 3263SOL    HW110688   1.841   1.542   2.693
 3263SOL    HW210689   1.689   1.600   2.675
 3264SOL     OW10690   2.382   5.243   0.167
 3264SOL    HW110691   2.411   5.329   0.125
 3264SOL    HW210692   2.387   5.252   0.266
 3265SOL     OW10693   5.914   5.201   5.747
 3265SOL    HW110694   5.893   5.290   5.708
 3265SOL    HW210695   5.914   5.132   5.674
 3266SOL     OW10696   2.977   5.111   0.384
 3266SOL    HW110697   3.010   5.075   0.297
 3266SOL    HW210698   2.878   5.096   0.390
 3267SOL     OW10699   4.178   0.171   0.651
 3267SOL    HW110700   4.238   0.244   0.683
 3267SOL    HW210701   4.230   0.086   0.642
 3268SOL     OW10702   6.820   4.496   1.720
 3268SOL    HW110703   6.772   4.447   1.793
 3268SOL    HW210704   6.911   4.522   1.751
 3269SOL     OW10705   1.245   5.007   2.439
 3269SOL    HW110706   1.297   4.994   2.355
 3269SOL    HW210707   1.308   5.036   2.512
 3270SOL     OW10708   0.956   2.528   5.307
 3270SOL    HW110709   0.943   2.585   5.226
 3270SOL    HW210710   0.962   2.432   5.280
 3271SOL     OW10711   0.102   3.455   2.554
 3271SOL    HW110712   0.115   3.364   2.515
 3271SOL    HW210713   0.052   3.448   2.640
 3272SOL     OW10714   4.450   6.184   0.270
 3272SOL    HW110715   4.499   6.268   0.291
 3272SOL    HW210716   4.505   6.128   0.207
 3273SOL     OW10717   4.773   3.529   6.241
 3273SOL    HW110718   4.825   3.446   6.261
 3273SOL    HW210719   4.827   3.588   6.182
 3274SOL     OW10720   5.742   0.967   0.014
 3274SOL    HW110721   5.800   0.944   0.092
 3274SOL    HW210722   5.677   1.039   0.040
 3275SOL     OW10723   4.828   0.531   1.255
 3275SOL    HW110724   4.904   0.494   1.308
 3275SOL    HW210725   4.838   0.501   1.159
 3276SOL     OW10726   4.806   0.016   0.102
 3276SOL    HW110727   4.835   0.111   0.091
 3276SOL    HW210728   4.887   6.981   0.117
 3277SOL     OW10729   3.305   1.625   1.808
 3277SOL    HW110730   3.350   1.698   1.756
 3277SOL    HW210731   3.233   1.664   1.865
 3278SOL     OW10732   0.025   0.615   6.676
 3278SOL    HW110733   7.022   0.634   6.582
 3278SOL    HW210734   0.089   0.685   6.708
 3279SOL     OW10735   4.367   6.310   0.951
 3279SOL    HW110736   4.291   6.374   0.955
 3279SOL    HW210737   4.335   6.223   0.911
 3280SOL     OW10738   5.527   3.544   4.470
 3280SOL    HW110739   5.464   3.612   4.434
 3280SOL    HW210740   5.505   3.454   4.432
 3281SOL     OW10741   6.724   4.364   1.957
 3281SOL    HW110742   6.743   4.276   1.913
 3281SOL    HW210743   6.724   4.353   2.056
 3282SOL     OW10744   0.352   3.842   5.228
 3282SOL    HW110745   0.406   3.913   5.273
 3282SOL    HW210746   0.349   3.860   5.130
 3283SOL     OW10747   3.780   0.867   1.394
 3283SOL    HW110748   3.734   0.844   1.307
 3283SOL    HW210749   3.836   0.789   1.423
 3284SOL     OW10750   1.632   6.008   4.724
 3284SOL    HW110751   1.602   5.914   4.705
 3284SOL    HW210752   1.566   6.073   4.685
 3285SOL     OW10753   5.846   0.885   4.487
 3285SOL    HW110754   5.873   0.962   4.429
 3285SOL    HW210755   5.927   0.835   4.517
 3286SOL     OW10756   3.175   1.945   1.657
 3286SOL    HW110757   3.269   1.924   1.684
 3286SOL    HW210758   3.167   2.043   1.640
 3287SOL     OW10759   1.712   0.291   6.094
 3287SOL    HW110760   1.669   0.366   6.143
 3287SOL    HW210761   1.650   0.213   6.090
 3288SOL     OW10762   1.900   6.435   0.898
 3288SOL    HW110763   1.930   6.519   0.853
 3288SOL    HW210764   1.834   6.457   0.970
 3289SOL     OW10765   3.673   1.502   6.526
 3289SOL    HW110766   3.725   1.489   6.442
 3289SOL    HW210767   3.676   1.598   6.553
 3290SOL     OW10768   6.767   5.182   0.647
 3290SOL    HW110769   6.722   5.271   0.651
 3290SOL    HW210770   6.749   5.139   0.559
 3291SOL     OW10771   4.378   0.247   5.547
 3291SOL    HW110772   4.347   0.185   5.618
 3291SOL    HW210773   4.442   0.314   5.586
 3292SOL     OW10774   0.368   1.595   0.974
 3292SOL    HW110775   0.344   1.501   0.949
 3292SOL    HW210776   0.340   1.612   1.069
 3293SOL     OW10777   6.436   5.240   2.783
 3293SOL    HW110778   6.383   5.280   2.858
 3293SOL    HW210779   6.401   5.149   2.763
 3294SOL     OW10780   5.369   2.469   5.587
 3294SOL    HW110781   5.295   2.450   5.523
 3294SOL    HW210782   5.358   2.412   5.668
 3295SOL     OW10783   2.076   2.896   1.108
 3295SOL    HW110784   1.979   2.921   1.101
 3295SOL    HW210785   2.128   2.975   1.139
 3296SOL     OW10786   0.661   0.230   5.648
 3296SOL    HW110787   0.574   0.239   5.599
 3296SOL    HW210788   0.662   0.144   5.698
 3297SOL     OW10789   3.127   1.802   5.283
 3297SOL    HW110790   3.094   1.737   5.351
 3297SOL    HW210791   3.073   1.793   5.199
 3298SOL     OW10792   6.269   4.329   4.553
 3298SOL    HW110793   6.251   4.409   4.497
 3298SOL    HW210794   6.356   4.341   4.601
 3299SOL     OW10795   3.344   4.976   3.771
 3299SOL    HW110796   3.303   4.962   3.862
 3299SOL    HW210797   3.381   5.069   3.766
 3300SOL     OW10798   2.043   6.985   5.402
 3300SOL    HW110799   2.055   0.059   5.385
 3300SOL    HW210800   2.054   6.966   5.499
 3301SOL     OW10801   1.702   3.037   2.495
 3301SOL    HW110802   1.738   3.012   2.586
 3301SOL    HW210803   1.750   3.118   2.462
 3302SOL     OW10804   2.457   4.708   5.537
 3302SOL    HW110805   2.431   4.805   5.546
 3302SOL    HW210806   2.493   4.692   5.445
 3303SOL     OW10807   3.432   2.981   0.826
 3303SOL    HW110808   3.415   2.884   0.804
 3303SOL    HW210809   3.530   2.999   0.820
 3304SOL     OW10810   2.630   4.693   5.746
 3304SOL    HW110811   2.652   4.597   5.728
 3304SOL    HW210812   2.560   4.724   5.682
 3305SOL     OW10813   3.639   0.394   1.323
 3305SOL    HW110814   3.543   0.422   1.311
 3305SOL    HW210815   3.680   0.446   1.397
 3306SOL     OW10816   1.792   0.263   0.122
 3306SOL    HW110817   1.741   0.311   0.193
 3306SOL    HW210818   1.887   0.294   0.124
 3307SOL     OW10819   0.857   6.979   4.519
 3307SOL    HW110820   0.820   6.891   4.549
 3307SOL    HW210821   0.946   6.965   4.476
 3308SOL     OW10822   3.623   4.482   1.005
 3308SOL    HW110823   3.561   4.405   1.017
 3308SOL    HW210824   3.714   4.447   0.982
 3309SOL     OW10825   5.116   4.056   4.046
 3309SOL    HW110826   5.020   4.045   4.070
 3309SOL    HW210827   5.125   4.124   3.974
 3310SOL     OW10828   0.353   5.219   4.742
 3310SOL    HW110829   0.349   5.129   4.698
 3310SOL    HW210830   0.346   5.208   4.841
 3311SOL     OW10831   2.898   3.976   0.637
 3311SOL    HW110832   2.831   4.049   0.649
 3311SOL    HW210833   2.851   3.888   0.640
 3312SOL     OW10834   5.019   2.709   6.555
 3312SOL    HW110835   4.996   2.747   6.466
 3312SOL    HW210836   4.957   2.744   6.624
 3313SOL     OW10837   1.002   0.482   3.192
 3313SOL    HW110838   1.069   0.543   3.148
 3313SOL    HW210839   0.913   0.527   3.195
 3314SOL     OW10840   2.195   6.672   3.108
 3314SOL    HW110841   2.128   6.723   3.162
 3314SOL    HW210842   2.255   6.737   3.061
 3315SOL     OW10843   0.311   5.386   5.282
 3315SOL    HW110844   0.365   5.304   5.263
 3315SOL    HW210845   0.351   5.464   5.234
 3316SOL     OW10846   2.641   1.091   6.412
 3316SOL    HW110847   2.669   1.121   6.503
 3316SOL    HW210848   2.569   1.151   6.377
 3317SOL     OW10849   5.018   2.371   2.072
 3317SOL    HW110850   4.947   2.437   2.099
 3317SOL    HW210851   4.978   2.302   2.012
 3318SOL     OW10852   2.936   2.650   0.287
 3318SOL    HW110853   2.962   2.729   0.232
 3318SOL    HW210854   2.967   2.663   0.381
 3319SOL     OW10855   6.672   6.871   2.676
 3319SOL    HW110856   6.738   6.873   2.751
 3319SOL    HW210857   6.607   6.947   2.687
 3320SOL     OW10858   6.548   0.208   0.728
 3320SOL    HW110859   6.508   0.300   0.724
 3320SOL    HW210860   6.585   0.192   0.820
 3321SOL     OW10861   5.652   1.767   0.297
 3321SOL    HW110862   5.610   1.824   0.368
 3321SOL    HW210863   5.744   1.741   0.325
 3322SOL     OW10864   6.584   3.215   0.802
 3322SOL    HW110865   6.493   3.249   0.825
 3322SOL    HW210866   6.605   3.239   0.708
 3323SOL     OW10867   2.610   1.653   2.162
 3323SOL    HW110868   2.621   1.564   2.119
 3323SOL    HW210869   2.521   1.657   2.208
 3324SOL     OW10870   5.147   5.118   5.587
 3324SOL    HW110871   5.231   5.136   5.536
 3324SOL    HW210872   5.083   5.194   5.575
 3325SOL     OW10873   1.593   3.303   6.733
 3325SOL    HW110874   1.568   3.386   6.782
 3325SOL    HW210875   1.687   3.312   6.698
 3326SOL     OW10876   5.377   1.224   3.006
 3326SOL    HW110877   5.284   1.258   3.021
 3326SOL    HW210878   5.400   1.158   3.077
 3327SOL     OW10879   0.958   6.145   1.320
 3327SOL    HW110880   0.995   6.161   1.228
 3327SOL    HW210881   1.032   6.154   1.387
 3328SOL     OW10882   3.615   1.910   0.873
 3328SOL    HW110883   3.697   1.943   0.921
 3328SOL    HW210884   3.561   1.854   0.935
 3329SOL     OW10885   6.298   5.444   5.518
 3329SOL    HW110886   6.291   5.359   5.571
 3329SOL    HW210887   6.300   5.422   5.420
 3330SOL     OW10888   6.497   2.689   2.162
 3330SOL    HW110889   6.569   2.756   2.181
 3330SOL    HW210890   6.408   2.730   2.179
 3331SOL     OW10891   1.389   1.987   1.291
 3331SOL    HW110892   1.429   2.077   1.307
 3331SOL    HW210893   1.373   1.975   1.193
 3332SOL     OW10894   5.832   4.437   0.243
 3332SOL    HW110895   5.833   4.446   0.342
 3332SOL    HW210896   5.867   4.522   0.202
 3333SOL     OW10897   4.425   4.984   6.136
 3333SOL    HW110898   4.430   4.885   6.119
 3333SOL    HW210899   4.341   5.020   6.096
 3334SOL     OW10900   3.598   3.377   1.615
 3334SOL    HW110901   3.637   3.289   1.641
 3334SOL    HW210902   3.668   3.448   1.622
 3335SOL     OW10903   5.079   4.672   5.889
 3335SOL    HW110904   4.983   4.688   5.913
 3335SOL    HW210905   5.123   4.759   5.867
 3336SOL     OW10906   3.467   5.471   6.015
 3336SOL    HW110907   3.543   5.512   6.066
 3336SOL    HW210908   3.384   5.474   6.070
 3337SOL     OW10909   3.524   2.563   1.451
 3337SOL    HW110910   3.527   2.471   1.413
 3337SOL    HW210911   3.560   2.563   1.544
 3338SOL     OW10912   0.164   4.013   1.252
 3338SOL    HW110913   0.091   4.073   1.218
 3338SOL    HW210914   0.249   4.064   1.257
 3339SOL     OW10915   6.423   5.978   6.857
 3339SOL    HW110916   6.428   5.935   6.947
 3339SOL    HW210917   6.381   5.915   6.792
 3340SOL     OW10918   3.165   6.664   2.251
 3340SOL    HW110919   3.100   6.691   2.322
 3340SOL    HW210920   3.125   6.680   2.161
 3341SOL     OW10921   0.759   0.267   2.727
 3341SOL    HW110922   0.730   0.342   2.786
 3341SOL    HW210923   0.805   0.197   2.781
 3342SOL     OW10924   1.806   6.929   4.432
 3342SOL    HW110925   1.835   7.010   4.483
 3342SOL    HW210926   1.711   6.940   4.402
 3343SOL     OW10927   5.106   3.041   0.919
 3343SOL    HW110928   5.030   3.001   0.970
 3343SOL    HW210929   5.161   2.968   0.879
 3344SOL     OW10930   5.660   3.642   5.290
 3344SOL    HW110931   5.612   3.668   5.374
 3344SOL    HW210932   5.619   3.560   5.251
 3345SOL     OW10933   2.730   3.741   5.966
 3345SOL    HW110934   2.781   3.726   5.882
 3345SOL    HW210935   2.747   3.666   6.030
 3346SOL     OW10936   0.357   0.717   2.219
 3346SOL    HW110937   0.265   0.745   2.245
 3346SOL    HW210938   0.422   0.744   2.289
 3347SOL     OW10939   6.116   4.183   4.712
 3347SOL    HW110940   6.083   4.119   4.642
 3347SOL    HW210941   6.174   4.252   4.669
 3348SOL     OW10942   3.512   3.270   3.832
 3348SOL    HW110943   3.561   3.344   3.785
 3348SOL    HW210944   3.459   3.217   3.766
 3349SOL     OW10945   6.728   3.841   4.271
 3349SOL    HW110946   6.635   3.858   4.304
 3349SOL    HW210947   6.789   3.826   4.349
 3350SOL     OW10948   1.733   1.164   0.137
 3350SOL    HW110949   1.755   1.069   0.159
 3350SOL    HW210950   1.770   1.187   0.047
 3351SOL     OW10951   5.610   1.327   0.975
 3351SOL    HW110952   5.530   1.356   1.027
 3351SOL    HW210953   5.591   1.334   0.877
 3352SOL     OW10954   0.899   4.015   1.300
 3352SOL    HW110955   0.954   4.095   1.324
 3352SOL    HW210956   0.905   3.999   1.201
 3353SOL     OW10957   1.372   6.638   6.278
 3353SOL    HW110958   1.280   6.602   6.260
 3353SOL    HW210959   1.433   6.563   6.302
 3354SOL     OW10960   6.876   2.321   3.856
 3354SOL    HW110961   6.820   2.402   3.875
 3354SOL    HW210962   6.957   2.348   3.803
 3355SOL     OW10963   0.383   1.510   1.528
 3355SOL    HW110964   0.367   1.428   1.474
 3355SOL    HW210965   0.382   1.487   1.626
 3356SOL     OW10966   3.038   3.398   6.922
 3356SOL    HW110967   3.072   3.321   6.867
 3356SOL    HW210968   2.979   3.456   6.866
 3357SOL     OW10969   3.119   5.279   1.597
 3357SOL    HW110970   3.137   5.294   1.499
 3357SOL    HW210971   3.145   5.185   1.621
 3358SOL     OW10972   4.937   6.333   2.561
 3358SOL    HW110973   5.010   6.400   2.575
 3358SOL    HW210974   4.960   6.248   2.608
 3359SOL     OW10975   1.144   0.492   2.792
 3359SOL    HW110976   1.067   0.547   2.824
 3359SOL    HW210977   1.117   0.440   2.711
 3360SOL     OW10978   0.497   0.889   0.425
 3360SOL    HW110979   0.466   0.904   0.519
 3360SOL    HW210980   0.438   0.941   0.362
 3361SOL     OW10981   6.081   5.916   3.226
 3361SOL    HW110982   6.100   5.878   3.136
 3361SOL    HW210983   6.013   5.859   3.273
 3362SOL     OW10984   2.789   1.590   4.745
 3362SOL    HW110985   2.712   1.578   4.683
 3362SOL    HW210986   2.847   1.664   4.711
 3363SOL     OW10987   0.059   1.789   0.071
 3363SOL    HW110988   0.050   1.879   0.028
 3363SOL    HW210989   7.004   1.733   0.046
 3364SOL     OW10990   1.196   5.596   5.997
 3364SOL    HW110991   1.280   5.608   5.944
 3364SOL    HW210992   1.204   5.645   6.084
 3365SOL     OW10993   0.423   2.699   4.560
 3365SOL    HW110994   0.358   2.624   4.576
 3365SOL    HW210995   0.373   2.786   4.561
 3366SOL     OW10996   5.180   0.408   5.461
 3366SOL    HW110997   5.134   0.473   5.521
 3366SOL    HW210998   5.266   0.448   5.428
 3367SOL     OW10999   1.465   2.421   2.643
 3367SOL    HW111000   1.469   2.333   2.597
 3367SOL    HW211001   1.369   2.449   2.654
 3368SOL     OW11002   6.464   5.632   6.417
 3368SOL    HW111003   6.440   5.654   6.322
 3368SOL    HW211004   6.538   5.692   6.447
 3369SOL     OW11005   3.716   0.222   0.134
 3369SOL    HW111006   3.634   0.188   0.089
 3369SOL    HW211007   3.797   0.180   0.093
 3370SOL     OW11008   6.689   6.494   5.011
 3370SOL    HW111009   6.622   6.419   5.019
 3370SOL    HW211010   6.781   6.457   5.016
 3371SOL     OW11011   1.342   4.660   1.713
 3371SOL    HW111012   1.313   4.681   1.619
 3371SOL    HW211013   1.264   4.624   1.764
 3372SOL     OW11014   0.962   1.004   2.625
 3372SOL    HW111015   0.949   1.086   2.568
 3372SOL    HW211016   0.974   0.925   2.566
 3373SOL     OW11017   5.957   1.712   4.960
 3373SOL    HW111018   5.981   1.771   4.883
 3373SOL    HW211019   5.861   1.685   4.954
 3374SOL     OW11020   3.258   6.268   5.421
 3374SOL    HW111021   3.312   6.300   5.499
 3374SOL    HW211022   3.160   6.281   5.440
 3375SOL     OW11023   4.636   4.501   5.010
 3375SOL    HW111024   4.541   4.524   4.990
 3375SOL    HW211025   4.660   4.534   5.101
 3376SOL     OW11026   3.374   2.938   2.365
 3376SOL    HW111027   3.373   2.966   2.461
 3376SOL    HW211028   3.325   3.006   2.310
 3377SOL     OW11029   0.801   6.323   4.760
 3377SOL    HW111030   0.726   6.260   4.742
 3377SOL    HW211031   0.855   6.335   4.677
 3378SOL     OW11032   6.548   1.161   1.460
 3378SOL    HW111033   6.511   1.230   1.522
 3378SOL    HW211034   6.575   1.204   1.374
 3379SOL     OW11035   0.491   4.833   5.812
 3379SOL    HW111036   0.514   4.768   5.739
 3379SOL    HW211037   0.411   4.886   5.784
 3380SOL     OW11038   0.242   4.515   6.761
 3380SOL    HW111039   0.302   4.489   6.686
 3380SOL    HW211040   0.191   4.598   6.737
 3381SOL     OW11041   3.278   2.630   0.584
 3381SOL    HW111042   3.346   2.698   0.610
 3381SOL    HW211043   3.256   2.640   0.487
 3382SOL     OW11044   6.724   1.842   0.519
 3382SOL    HW111045   6.658   1.767   0.519
 3382SOL    HW211046   6.794   1.825   0.450
 3383SOL     OW11047   6.009   4.534   3.038
 3383SOL    HW111048   6.083   4.535   3.105
 3383SOL    HW211049   6.047   4.539   2.946
 3384SOL     OW11050   3.139   3.023   4.718
 3384SOL    HW111051   3.076   3.054   4.647
 3384SOL    HW211052   3.157   2.926   4.707
 3385SOL     OW11053   6.621   3.689   3.437
 3385SOL    HW111054   6.632   3.593   3.410
 3385SOL    HW211055   6.577   3.693   3.527
 3386SOL     OW11056   5.928   4.768   4.574
 3386SOL    HW111057   5.970   4.698   4.516
 3386SOL    HW211058   5.840   4.733   4.608
 3387SOL     OW11059   2.341   2.543   2.714
 3387SOL    HW111060   2.379   2.542   2.622
 3387SOL    HW211061   2.415   2.553   2.781
 3388SOL     OW11062   5.624   2.283   1.330
 3388SOL    HW111063   5.543   2.342   1.329
 3388SOL    HW211064   5.687   2.314   1.401
 3389SOL     OW11065   4.591   4.324   3.925
 3389SOL    HW111066   4.647   4.263   3.869
 3389SOL    HW211067   4.583   4.413   3.880
 3390SOL     OW11068   5.036   2.824   5.989
 3390SOL    HW111069   4.998   2.749   5.934
 3390SOL    HW211070   4.967   2.895   6.000
 3391SOL     OW11071   3.721   1.679   4.863
 3391SOL    HW111072   3.799   1.618   4.880
 3391SOL    HW211073   3.690   1.668   4.768
 3392SOL     OW11074   2.313   0.746   3.883
 3392SOL    HW111075   2.241   0.814   3.897
 3392SOL    HW211076   2.284   0.658   3.920
 3393SOL     OW11077   6.613   6.622   0.165
 3393SOL    HW111078   6.522   6.594   0.134
 3393SOL    HW211079   6.675   6.624   0.086
 3394SOL     OW11080   5.907   2.208   0.906
 3394SOL    HW111081   5.841   2.228   0.978
 3394SOL    HW211082   5.881   2.123   0.860
 3395SOL     OW11083   0.629   3.440   4.193
 3395SOL    HW111084   0.609   3.361   4.252
 3395SOL    HW211085   0.728   3.450   4.183
 3396SOL     OW11086   0.295   3.316   3.212
 3396SOL    HW111087   0.362   3.333   3.284
 3396SOL    HW211088   0.206   3.294   3.253
 3397SOL     OW11089   3.659   0.022   6.146
 3397SOL    HW111090   3.560   0.007   6.135
 3397SOL    HW211091   3.690   7.000   6.230
 3398SOL     OW11092   0.930   0.384   4.306
 3398SOL    HW111093   0.892   0.324   4.236
 3398SOL    HW211094   0.995   0.447   4.263
 3399SOL     OW11095   4.621   5.296   4.346
 3399SOL    HW111096   4.710   5.328   4.378
 3399SOL    HW211097   4.617   5.303   4.247
 3400SOL     OW11098   4.680   2.015   6.559
 3400SOL    HW111099   4.639   1.951   6.623
 3400SOL    HW211100   4.613   2.041   6.489
 3401SOL     OW11101   6.847   3.506   0.444
 3401SOL    HW111102   6.750   3.483   0.444
 3401SOL    HW211103   6.858   3.605   0.436
 3402SOL     OW11104   5.531   5.575   1.513
 3402SOL    HW111105   5.623   5.540   1.495
 3402SOL    HW211106   5.494   5.616   1.429
 3403SOL     OW11107   3.594   0.161   4.782
 3403SOL    HW111108   3.671   0.127   4.727
 3403SOL    HW211109   3.515   0.176   4.723
 3404SOL     OW11110   4.136   1.376   0.778
 3404SOL    HW111111   4.104   1.325   0.858
 3404SOL    HW211112   4.108   1.327   0.695
 3405SOL     OW11113   6.020   3.938   6.443
 3405SOL    HW111114   5.976   3.888   6.369
 3405SOL    HW211115   6.085   4.004   6.404
 3406SOL     OW11116   2.529   4.588   2.088
 3406SOL    HW111117   2.494   4.498   2.062
 3406SOL    HW211118   2.611   4.608   2.035
 3407SOL     OW11119   1.189   5.785   1.976
 3407SOL    HW111120   1.210   5.688   1.988
 3407SOL    HW211121   1.182   5.829   2.065
 3408SOL     OW11122   4.878   3.936   3.005
 3408SOL    HW111123   4.877   3.836   3.004
 3408SOL    HW211124   4.872   3.968   3.100
 3409SOL     OW11125   3.840   6.919   5.972
 3409SOL    HW111126   3.836   6.982   5.894
 3409SOL    HW211127   3.771   6.945   6.040
 3410SOL     OW11128   6.192   5.543   6.951
 3410SOL    HW111129   6.126   5.537   6.877
 3410SOL    HW211130   6.268   5.481   6.933
 3411SOL     OW11131   4.893   2.163   1.940
 3411SOL    HW111132   4.960   2.092   1.963
 3411SOL    HW211133   4.806   2.144   1.985
 3412SOL     OW11134   4.079   3.726   6.930
 3412SOL    HW111135   4.166   3.697   6.889
 3412SOL    HW211136   4.069   3.681   7.019
 3413SOL     OW11137   3.976   1.344   2.813
 3413SOL    HW111138   3.935   1.431   2.839
 3413SOL    HW211139   4.018   1.352   2.723
 3414SOL     OW11140   3.129   1.832   4.758
 3414SOL    HW111141   3.188   1.911   4.773
 3414SOL    HW211142   3.060   1.828   4.831
 3415SOL     OW11143   0.778   5.001   4.101
 3415SOL    HW111144   0.827   4.980   4.016
 3415SOL    HW211145   0.727   5.086   4.091
 3416SOL     OW11146   0.472   4.224   5.709
 3416SOL    HW111147   0.510   4.314   5.687
 3416SOL    HW211148   0.399   4.202   5.644
 3417SOL     OW11149   0.073   6.476   2.632
 3417SOL    HW111150   0.035   6.384   2.633
 3417SOL    HW211151   0.020   6.533   2.569
 3418SOL     OW11152   2.785   1.335   4.864
 3418SOL    HW111153   2.783   1.424   4.818
 3418SOL    HW211154   2.780   1.349   4.963
 3419SOL     OW11155   4.553   4.595   6.903
 3419SOL    HW111156   4.510   4.565   6.818
 3419SOL    HW211157   4.640   4.640   6.881
 3420SOL     OW11158   4.820   1.671   3.949
 3420SOL    HW111159   4.816   1.711   3.857
 3420SOL    HW211160   4.735   1.691   3.998
 3421SOL     OW11161   6.778   6.992   5.537
 3421SOL    HW111162   6.853   0.012   5.487
 3421SOL    HW211163   6.711   6.957   5.473
 3422SOL     OW11164   3.146   6.890   1.021
 3422SOL    HW111165   3.180   6.846   1.104
 3422SOL    HW211166   3.174   6.985   1.019
 3423SOL     OW11167   2.287   0.878   0.333
 3423SOL    HW111168   2.369   0.907   0.382
 3423SOL    HW211169   2.230   0.958   0.313
 3424SOL     OW11170   3.716   1.290   2.173
 3424SOL    HW111171   3.634   1.299   2.229
 3424SOL    HW211172   3.716   1.362   2.102
 3425SOL     OW11173   4.909   4.355   2.302
 3425SOL    HW111174   4.811   4.364   2.322
 3425SOL    HW211175   4.957   4.324   2.383
 3426SOL     OW11176   3.392   3.417   0.340
 3426SOL    HW111177   3.375   3.479   0.264
 3426SOL    HW211178   3.329   3.438   0.415
 3427SOL     OW11179   6.747   0.257   0.174
 3427SOL    HW111180   6.719   0.286   0.266
 3427SOL    HW211181   6.745   0.157   0.169
 3428SOL     OW11182   3.738   5.154   2.027
 3428SOL    HW111183   3.732   5.055   2.037
 3428SOL    HW211184   3.658   5.197   2.069
 3429SOL     OW11185   1.224   2.633   6.902
 3429SOL    HW111186   1.294   2.682   6.954
 3429SOL    HW211187   1.255   2.618   6.808
 3430SOL     OW11188   1.139   6.657   0.143
 3430SOL    HW111189   1.188   6.704   0.217
 3430SOL    HW211190   1.066   6.716   0.109
 3431SOL     OW11191   1.378   6.015   1.337
 3431SOL    HW111192   1.457   5.958   1.319
 3431SOL    HW211193   1.408   6.106   1.365
 3432SOL     OW11194   2.741   2.401   5.180
 3432SOL    HW111195   2.675   2.439   5.244
 3432SOL    HW211196   2.826   2.380   5.228
 3433SOL     OW11197   3.383   0.900   6.051
 3433SOL    HW111198   3.302   0.872   6.102
 3433SOL    HW211199   3.420   0.984   6.090
 3434SOL     OW11200   4.097   2.809   1.070
 3434SOL    HW111201   4.148   2.859   1.000
 3434SOL    HW211202   4.132   2.716   1.076
 3435SOL     OW11203   0.094   2.670   1.497
 3435SOL    HW111204   0.019   2.722   1.538
 3435SOL    HW211205   0.173   2.672   1.558
 3436SOL     OW11206   4.097   6.535   4.711
 3436SOL    HW111207   4.035   6.613   4.724
 3436SOL    HW211208   4.190   6.568   4.698
 3437SOL     OW11209   4.361   0.601   5.508
 3437SOL    HW111210   4.317   0.584   5.420
 3437SOL    HW211211   4.448   0.553   5.512
 3438SOL     OW11212   2.088   2.766   6.937
 3438SOL    HW111213   1.996   2.759   6.897
 3438SOL    HW211214   2.083   2.814   0.001
 3439SOL     OW11215   2.663   6.962   5.208
 3439SOL    HW111216   2.716   0.009   5.160
 3439SOL    HW211217   2.712   6.936   5.292
 3440SOL     OW11218   4.353   3.755   1.007
 3440SOL    HW111219   4.309   3.813   0.938
 3440SOL    HW211220   4.390   3.811   1.080
 3441SOL     OW11221   4.031   6.833   3.831
 3441SOL    HW111222   3.957   6.790   3.779
 3441SOL    HW211223   4.045   6.782   3.916
 3442SOL     OW11224   1.928   5.456   3.539
 3442SOL    HW111225   1.947   5.358   3.540
 3442SOL    HW211226   1.923   5.488   3.444
 3443SOL     OW11227   5.778   1.745   3.277
 3443SOL    HW111228   5.872   1.758   3.248
 3443SOL    HW211229   5.751   1.822   3.336
 3444SOL     OW11230   5.014   5.804   6.926
 3444SOL    HW111231   5.016   5.806   0.002
 3444SOL    HW211232   5.100   5.839   6.890
 3445SOL     OW11233   6.797   4.161   4.255
 3445SOL    HW111234   6.778   4.068   4.223
 3445SOL    HW211235   6.892   4.185   4.233
 3446SOL     OW11236   3.771   0.964   2.785
 3446SOL    HW111237   3.695   0.971   2.720
 3446SOL    HW211238   3.844   0.907   2.746
 3447SOL     OW11239   5.909   5.662   0.150
 3447SOL    HW111240   5.891   5.744   0.096
 3447SOL    HW211241   6.007   5.658   0.173
 3448SOL     OW11242   3.328   0.475   0.898
 3448SOL    HW111243   3.340   0.416   0.977
 3448SOL    HW211244   3.238   0.518   0.902
 3449SOL     OW11245   6.283   0.095   1.884
 3449SOL    HW111246   6.265   0.025   1.815
 3449SOL    HW211247   6.362   0.069   1.939
 3450SOL     OW11248   0.859   1.948   1.251
 3450SOL    HW111249   0.820   1.857   1.258
 3450SOL    HW211250   0.952   1.948   1.287
 3451SOL     OW11251   0.756   5.666   3.264
 3451SOL    HW111252   0.739   5.754   3.219
 3451SOL    HW211253   0.853   5.659   3.288
 3452SOL     OW11254   6.992   1.056   6.580
 3452SOL    HW111255   0.029   1.128   6.615
 3452SOL    HW211256   6.927   1.029   6.651
 3453SOL     OW11257   5.467   5.729   5.030
 3453SOL    HW111258   5.429   5.784   5.104
 3453SOL    HW211259   5.481   5.787   4.949
 3454SOL     OW11260   1.579   1.608   0.044
 3454SOL    HW111261   1.609   1.671   0.116
 3454SOL    HW211262   1.532   1.659   6.996
 3455SOL     OW11263   1.299   3.270   4.548
 3455SOL    HW111264   1.386   3.302   4.510
 3455SOL    HW211265   1.310   3.250   4.645
 3456SOL     OW11266   5.729   6.322   1.916
 3456SOL    HW111267   5.816   6.339   1.963
 3456SOL    HW211268   5.746   6.305   1.819
 3457SOL     OW11269   2.802   5.290   4.239
 3457SOL    HW111270   2.804   5.214   4.305
 3457SOL    HW211271   2.709   5.302   4.205
 3458SOL     OW11272   6.129   0.023   0.429
 3458SOL    HW111273   6.143   0.053   0.334
 3458SOL    HW211274   6.149   0.099   0.491
 3459SOL     OW11275   0.394   3.517   3.050
 3459SOL    HW111276   0.411   3.497   2.953
 3459SOL    HW211277   0.366   3.434   3.097
 3460SOL     OW11278   3.124   3.117   0.391
 3460SOL    HW111279   3.153   3.210   0.366
 3460SOL    HW211280   3.195   3.074   0.446
 3461SOL     OW11281   3.883   5.428   3.994
 3461SOL    HW111282   3.879   5.329   3.987
 3461SOL    HW211283   3.825   5.459   4.069
 3462SOL     OW11284   6.138   2.830   2.467
 3462SOL    HW111285   6.212   2.847   2.532
 3462SOL    HW211286   6.057   2.880   2.495
 3463SOL     OW11287   0.869   3.148   2.147
 3463SOL    HW111288   0.841   3.095   2.068
 3463SOL    HW211289   0.800   3.216   2.168
 3464SOL     OW11290   5.768   2.536   6.720
 3464SOL    HW111291   5.829   2.550   6.798
 3464SOL    HW211292   5.692   2.601   6.726
 3465SOL     OW11293   2.043   3.634   1.403
 3465SOL    HW111294   2.084   3.646   1.493
 3465SOL    HW211295   2.114   3.642   1.333
 3466SOL     OW11296   5.457   4.274   5.637
 3466SOL    HW111297   5.442   4.368   5.667
 3466SOL    HW211298   5.463   4.213   5.717
 3467SOL     OW11299   3.474   1.644   0.995
 3467SOL    HW111300   3.481   1.565   0.934
 3467SOL    HW211301   3.501   1.618   1.087
 3468SOL     OW11302   4.652   1.651   1.922
 3468SOL    HW111303   4.716   1.611   1.857
 3468SOL    HW211304   4.630   1.745   1.895
 3469SOL     OW11305   4.608   0.196   5.881
 3469SOL    HW111306   4.629   0.110   5.835
 3469SOL    HW211307   4.689   0.254   5.880
 3470SOL     OW11308   0.279   2.888   1.041
 3470SOL    HW111309   0.289   2.936   1.128
 3470SOL    HW211310   0.267   2.955   0.968
 3471SOL     OW11311   4.642   4.227   3.478
 3471SOL    HW111312   4.543   4.238   3.479
 3471SOL    HW211313   4.686   4.314   3.500
 3472SOL     OW11314   4.530   2.022   2.725
 3472SOL    HW111315   4.508   2.022   2.628
 3472SOL    HW211316   4.568   1.934   2.751
 3473SOL     OW11317   7.003   3.561   3.901
 3473SOL    HW111318   0.069   3.606   3.896
 3473SOL    HW211319   6.932   3.624   3.871
 3474SOL     OW11320   0.461   3.982   4.049
 3474SOL    HW111321   0.373   4.010   4.012
 3474SOL    HW211322   0.530   4.051   4.027
 3475SOL     OW11323   0.296   5.164   4.052
 3475SOL    HW111324   0.211   5.122   4.021
 3475SOL    HW211325   0.284   5.264   4.054
 3476SOL     OW11326   1.937   1.397   3.771
 3476SOL    HW111327   1.888   1.366   3.690
 3476SOL    HW211328   1.875   1.399   3.849
 3477SOL     OW11329   0.364   3.430   0.705
 3477SOL    HW111330   0.357   3.370   0.625
 3477SOL    HW211331   0.460   3.438   0.732
 3478SOL     OW11332   2.132   6.765   0.482
 3478SOL    HW111333   2.138   6.795   0.577
 3478SOL    HW211334   2.206   6.700   0.463
 3479SOL     OW11335   0.475   2.542   3.844
 3479SOL    HW111336   0.475   2.443   3.856
 3479SOL    HW211337   0.535   2.567   3.768
 3480SOL     OW11338   0.897   6.153   6.752
 3480SOL    HW111339   0.845   6.172   6.669
 3480SOL    HW211340   0.834   6.141   6.829
 3481SOL     OW11341   5.207   0.764   0.192
 3481SOL    HW111342   5.249   0.823   0.124
 3481SOL    HW211343   5.108   0.762   0.178
 3482SOL     OW11344   6.152   2.291   3.590
 3482SOL    HW111345   6.096   2.225   3.641
 3482SOL    HW211346   6.118   2.384   3.606
 3483SOL     OW11347   5.237   2.505   3.109
 3483SOL    HW111348   5.323   2.555   3.101
 3483SOL    HW211349   5.255   2.414   3.146
 3484SOL     OW11350   2.080   4.001   6.818
 3484SOL    HW111351   2.081   4.082   6.759
 3484SOL    HW211352   2.158   3.943   6.795
 3485SOL     OW11353   6.935   2.173   5.646
 3485SOL    HW111354   6.857   2.118   5.673
 3485SOL    HW211355   6.967   2.226   5.725
 3486SOL     OW11356   2.046   0.176   4.121
 3486SOL    HW111357   1.982   0.207   4.051
 3486SOL    HW211358   2.033   0.078   4.137
 3487SOL     OW11359   6.553   1.866   0.000
 3487SOL    HW111360   6.635   1.859   6.966
 3487SOL    HW211361   6.561   1.803   0.077
 3488SOL     OW11362   5.566   0.251   5.065
 3488SOL    HW111363   5.478   0.254   5.113
 3488SOL    HW211364   5.633   0.204   5.122
 3489SOL     OW11365   3.205   6.774   1.264
 3489SOL    HW111366   3.280   6.734   1.318
 3489SOL    HW211367   3.118   6.742   1.301
 3490SOL     OW11368   3.550   5.117   1.373
 3490SOL    HW111369   3.522   5.023   1.354
 3490SOL    HW211370   3.646   5.119   1.402
 3491SOL     OW11371   4.729   4.229   6.632
 3491SOL    HW111372   4.753   4.142   6.674
 3491SOL    HW211373   4.767   4.234   6.540
 3492SOL     OW11374   6.917   3.788   1.657
 3492SOL    HW111375   7.002   3.829   1.690
 3492SOL    HW211376   6.882   3.843   1.581
 3493SOL     OW11377   6.368   4.064   3.972
 3493SOL    HW111378   6.334   4.076   3.879
 3493SOL    HW211379   6.329   4.134   4.032
 3494SOL     OW11380   3.328   1.702   2.259
 3494SOL    HW111381   3.417   1.659   2.270
 3494SOL    HW211382   3.256   1.633   2.269
 3495SOL     OW11383   0.686   3.742   2.168
 3495SOL    HW111384   0.642   3.808   2.228
 3495SOL    HW211385   0.640   3.741   2.079
 3496SOL     OW11386   5.776   4.608   0.932
 3496SOL    HW111387   5.687   4.646   0.907
 3496SOL    HW211388   5.823   4.672   0.993
 3497SOL     OW11389   3.451   1.279   4.033
 3497SOL    HW111390   3.358   1.266   3.999
 3497SOL    HW211391   3.514   1.294   3.957
 3498SOL     OW11392   2.865   1.944   2.350
 3498SOL    HW111393   2.811   1.961   2.267
 3498SOL    HW211394   2.957   1.982   2.339
 3499SOL     OW11395   5.973   5.836   5.333
 3499SOL    HW111396   6.027   5.817   5.415
 3499SOL    HW211397   5.907   5.909   5.353
 3500SOL     OW11398   2.051   2.372   4.284
 3500SOL    HW111399   2.146   2.354   4.312
 3500SOL    HW211400   1.989   2.322   4.345
 3501SOL     OW11401   2.355   6.639   6.510
 3501SOL    HW111402   2.437   6.693   6.529
 3501SOL    HW211403   2.282   6.665   6.573
 3502SOL     OW11404   5.930   3.394   2.010
 3502SOL    HW111405   5.986   3.459   1.959
 3502SOL    HW211406   5.878   3.442   2.081
 3503SOL     OW11407   0.023   5.923   6.100
 3503SOL    HW111408   0.089   5.959   6.034
 3503SOL    HW211409   6.970   5.986   6.109
 3504SOL     OW11410   2.247   0.805   2.300
 3504SOL    HW111411   2.312   0.794   2.376
 3504SOL    HW211412   2.154   0.797   2.335
 3505SOL     OW11413   5.728   5.717   5.515
 3505SOL    HW111414   5.696   5.647   5.450
 3505SOL    HW211415   5.828   5.711   5.524
 3506SOL     OW11416   5.957   4.589   4.868
 3506SOL    HW111417   5.955   4.564   4.965
 3506SOL    HW211418   5.942   4.508   4.812
 3507SOL     OW11419   2.185   6.499   0.768
 3507SOL    HW111420   2.116   6.569   0.747
 3507SOL    HW211421   2.195   6.438   0.689
 3508SOL     OW11422   3.200   2.597   6.222
 3508SOL    HW111423   3.272   2.553   6.274
 3508SOL    HW211424   3.111   2.577   6.264
 3509SOL     OW11425   5.729   6.881   0.209
 3509SOL    HW111426   5.777   6.855   0.126
 3509SOL    HW211427   5.795   6.905   0.280
 3510SOL     OW11428   1.823   0.708   1.241
 3510SOL    HW111429   1.740   0.671   1.199
 3510SOL    HW211430   1.890   0.729   1.169
 3511SOL     OW11431   1.867   4.973   1.659
 3511SOL    HW111432   1.935   4.927   1.715
 3511SOL    HW211433   1.795   5.010   1.719
 3512SOL     OW11434   0.879   3.614   0.706
 3512SOL    HW111435   0.824   3.635   0.787
 3512SOL    HW211436   0.893   3.515   0.699
 3513SOL     OW11437   5.831   2.326   1.585
 3513SOL    HW111438   5.836   2.228   1.570
 3513SOL    HW211439   5.922   2.367   1.577
 3514SOL     OW11440   5.558   1.004   2.346
 3514SOL    HW111441   5.577   1.076   2.279
 3514SOL    HW211442   5.607   0.921   2.320
 3515SOL     OW11443   5.043   6.120   4.054
 3515SOL    HW111444   4.945   6.106   4.064
 3515SOL    HW211445   5.064   6.144   3.959
 3516SOL     OW11446   5.167   6.581   1.010
 3516SOL    HW111447   5.216   6.518   0.949
 3516SOL    HW211448   5.071   6.556   1.013
 3517SOL     OW11449   0.403   1.195   1.495
 3517SOL    HW111450   0.389   1.177   1.397
 3517SOL    HW211451   0.421   1.109   1.542
 3518SOL     OW11452   5.271   2.271   4.791
 3518SOL    HW111453   5.303   2.194   4.846
 3518SOL    HW211454   5.180   2.297   4.822
 3519SOL     OW11455   2.291   1.073   6.504
 3519SOL    HW111456   2.201   1.061   6.461
 3519SOL    HW211457   2.317   1.170   6.499
 3520SOL     OW11458   3.531   6.657   0.207
 3520SOL    HW111459   3.546   6.592   0.282
 3520SOL    HW211460   3.597   6.639   0.134
 3521SOL     OW11461   3.831   2.791   6.610
 3521SOL    HW111462   3.779   2.716   6.571
 3521SOL    HW211463   3.917   2.803   6.560
 3522SOL     OW11464   6.106   4.823   7.021
 3522SOL    HW111465   6.186   4.858   0.045
 3522SOL    HW211466   6.091   4.874   6.936
 3523SOL     OW11467   1.138   4.278   5.660
 3523SOL    HW111468   1.078   4.347   5.618
 3523SOL    HW211469   1.212   4.256   5.597
 3524SOL     OW11470   5.212   1.898   2.412
 3524SOL    HW111471   5.270   1.919   2.491
 3524SOL    HW211472   5.126   1.948   2.419
 3525SOL     OW11473   6.145   3.538   4.139
 3525SOL    HW111474   6.133   3.616   4.200
 3525SOL    HW211475   6.197   3.467   4.186
 3526SOL     OW11476   2.198   6.363   3.128
 3526SOL    HW111477   2.217   6.433   3.059
 3526SOL    HW211478   2.263   6.372   3.203
 3527SOL     OW11479   6.184   3.094   6.237
 3527SOL    HW111480   6.181   3.019   6.171
 3527SOL    HW211481   6.252   3.073   6.308
 3528SOL     OW11482   2.214   6.331   4.687
 3528SOL    HW111483   2.245   6.338   4.592
 3528SOL    HW211484   2.263   6.258   4.733
 3529SOL     OW11485   4.161   6.649   0.179
 3529SOL    HW111486   4.248   6.601   0.187
 3529SOL    HW211487   4.146   6.706   0.260
 3530SOL     OW11488   0.004   5.216   1.272
 3530SOL    HW111489   7.021   5.210   1.371
 3530SOL    HW211490   0.098   5.238   1.246
 3531SOL     OW11491   5.827   2.607   1.716
 3531SOL    HW111492   5.926   2.596   1.707
 3531SOL    HW211493   5.793   2.543   1.784
 3532SOL     OW11494   2.366   1.020   1.584
 3532SOL    HW111495   2.360   0.982   1.492
 3532SOL    HW211496   2.462   1.037   1.607
 3533SOL     OW11497   0.728   1.839   2.505
 3533SOL    HW111498   0.751   1.747   2.536
 3533SOL    HW211499   0.783   1.906   2.556
 3534SOL     OW11500   0.785   2.010   1.728
 3534SOL    HW111501   0.764   1.946   1.654
 3534SOL    HW211502   0.788   2.103   1.692
 3535SOL     OW11503   2.721   5.401   5.699
 3535SOL    HW111504   2.690   5.326   5.640
 3535SOL    HW211505   2.654   5.417   5.771
 3536SOL     OW11506   3.199   2.106   3.361
 3536SOL    HW111507   3.154   2.018   3.342
 3536SOL    HW211508   3.207   2.158   3.276
 3537SOL     OW11509   1.610   5.606   2.113
 3537SOL    HW111510   1.515   5.574   2.112
 3537SOL    HW211511   1.669   5.535   2.153
 3538SOL     OW11512   3.111   5.504   5.832
 3538SOL    HW111513   3.207   5.532   5.827
 3538SOL    HW211514   3.089   5.448   5.752
 3539SOL     OW11515   3.629   3.525   4.485
 3539SOL    HW111516   3.665   3.468   4.411
 3539SOL    HW211517   3.704   3.569   4.533
 3540SOL     OW11518   2.422   2.200   4.680
 3540SOL    HW111519   2.511   2.245   4.685
 3540SOL    HW211520   2.424   2.130   4.608
 3541SOL     OW11521   3.081   2.648   5.350
 3541SOL    HW111522   3.146   2.577   5.375
 3541SOL    HW211523   3.014   2.660   5.424
 3542SOL     OW11524   1.412   5.136   3.071
 3542SOL    HW111525   1.313   5.145   3.072
 3542SOL    HW211526   1.449   5.162   3.160
 3543SOL     OW11527   6.196   3.043   3.596
 3543SOL    HW111528   6.226   3.107   3.526
 3543SOL    HW211529   6.111   2.998   3.567
 3544SOL     OW11530   2.326   4.193   6.935
 3544SOL    HW111531   2.338   4.241   6.848
 3544SOL    HW211532   2.402   4.128   6.948
 3545SOL     OW11533   4.137   6.384   6.291
 3545SOL    HW111534   4.060   6.376   6.228
 3545SOL    HW211535   4.102   6.393   6.385
 3546SOL     OW11536   0.670   5.419   3.167
 3546SOL    HW111537   0.625   5.350   3.224
 3546SOL    HW211538   0.697   5.497   3.223
 3547SOL     OW11539   4.685   5.125   3.789
 3547SOL    HW111540   4.745   5.069   3.846
 3547SOL    HW211541   4.662   5.075   3.705
 3548SOL     OW11542   5.169   2.131   5.568
 3548SOL    HW111543   5.157   2.076   5.484
 3548SOL    HW211544   5.104   2.100   5.637
 3549SOL     OW11545   6.568   4.952   4.114
 3549SOL    HW111546   6.620   4.868   4.130
 3549SOL    HW211547   6.594   5.021   4.182
 3550SOL     OW11548   5.152   2.195   2.920
 3550SOL    HW111549   5.085   2.124   2.940
 3550SOL    HW211550   5.111   2.265   2.861
 3551SOL     OW11551   3.732   6.351   2.911
 3551SOL    HW111552   3.742   6.310   2.820
 3551SOL    HW211553   3.802   6.314   2.972
 3552SOL     OW11554   4.936   6.101   2.252
 3552SOL    HW111555   4.997   6.051   2.312
 3552SOL    HW211556   4.842   6.094   2.286
 3553SOL     OW11557   5.872   3.036   2.302
 3553SOL    HW111558   5.879   3.043   2.203
 3553SOL    HW211559   5.849   2.942   2.327
 3554SOL     OW11560   3.920   3.292   0.249
 3554SOL    HW111561   3.896   3.280   0.152
 3554SOL    HW211562   3.895   3.385   0.278
 3555SOL     OW11563   0.648   3.229   2.991
 3555SOL    HW111564   0.700   3.254   3.072
 3555SOL    HW211565   0.676   3.287   2.914
 3556SOL     OW11566   3.605   0.390   5.262
 3556SOL    HW111567   3.602   0.371   5.164
 3556SOL    HW211568   3.514   0.382   5.301
 3557SOL     OW11569   0.716   0.349   4.499
 3557SOL    HW111570   0.617   0.351   4.490
 3557SOL    HW211571   0.758   0.378   4.413
 3558SOL     OW11572   0.352   5.659   1.554
 3558SOL    HW111573   0.373   5.588   1.486
 3558SOL    HW211574   0.324   5.743   1.507
 3559SOL     OW11575   0.262   0.301   4.731
 3559SOL    HW111576   0.175   0.343   4.704
 3559SOL    HW211577   0.245   0.220   4.785
 3560SOL     OW11578   1.221   5.928   1.125
 3560SOL    HW111579   1.257   5.942   1.217
 3560SOL    HW211580   1.204   5.830   1.111
 3561SOL     OW11581   5.192   4.937   5.808
 3561SOL    HW111582   5.197   5.006   5.736
 3561SOL    HW211583   5.265   4.952   5.875
 3562SOL     OW11584   4.863   0.719   4.226
 3562SOL    HW111585   4.904   0.636   4.187
 3562SOL    HW211586   4.878   0.721   4.325
 3563SOL     OW11587   5.741   1.046   1.579
 3563SOL    HW111588   5.684   1.120   1.617
 3563SOL    HW211589   5.743   1.054   1.480
 3564SOL     OW11590   1.281   4.633   4.202
 3564SOL    HW111591   1.210   4.642   4.271
 3564SOL    HW211592   1.278   4.710   4.139
 3565SOL     OW11593   3.280   6.169   4.993
 3565SOL    HW111594   3.304   6.088   5.047
 3565SOL    HW211595   3.353   6.186   4.926
 3566SOL     OW11596   0.030   3.487   5.844
 3566SOL    HW111597   0.042   3.581   5.876
 3566SOL    HW211598   6.968   3.450   5.882
 3567SOL     OW11599   1.349   2.576   0.523
 3567SOL    HW111600   1.366   2.624   0.609
 3567SOL    HW211601   1.416   2.502   0.513
 3568SOL     OW11602   5.340   5.055   2.313
 3568SOL    HW111603   5.378   5.024   2.226
 3568SOL    HW211604   5.327   4.977   2.374
 3569SOL     OW11605   3.010   3.172   5.144
 3569SOL    HW111606   3.096   3.197   5.099
 3569SOL    HW211607   2.935   3.227   5.106
 3570SOL     OW11608   5.846   0.861   5.401
 3570SOL    HW111609   5.895   0.777   5.425
 3570SOL    HW211610   5.792   0.892   5.479
 3571SOL     OW11611   1.727   0.937   5.012
 3571SOL    HW111612   1.670   0.979   4.942
 3571SOL    HW211613   1.684   0.951   5.102
 3572SOL     OW11614   5.153   3.991   2.983
 3572SOL    HW111615   5.072   4.031   2.941
 3572SOL    HW211616   5.132   3.966   3.078
 3573SOL     OW11617   6.717   4.615   2.224
 3573SOL    HW111618   6.763   4.704   2.232
 3573SOL    HW211619   6.665   4.612   2.139
 3574SOL     OW11620   2.107   3.151   6.622
 3574SOL    HW111621   2.080   3.134   6.527
 3574SOL    HW211622   2.178   3.222   6.624
 3575SOL     OW11623   5.146   5.341   0.941
 3575SOL    HW111624   5.117   5.437   0.940
 3575SOL    HW211625   5.081   5.287   0.995
 3576SOL     OW11626   0.360   2.374   0.116
 3576SOL    HW111627   0.320   2.298   0.167
 3576SOL    HW211628   0.288   2.432   0.079
 3577SOL     OW11629   2.275   3.037   5.590
 3577SOL    HW111630   2.318   3.123   5.563
 3577SOL    HW211631   2.334   2.960   5.563
 3578SOL     OW11632   3.228   3.087   0.983
 3578SOL    HW111633   3.238   3.018   1.054
 3578SOL    HW211634   3.294   3.069   0.909
 3579SOL     OW11635   0.557   3.345   2.421
 3579SOL    HW111636   0.584   3.286   2.497
 3579SOL    HW211637   0.561   3.440   2.450
 3580SOL     OW11638   0.383   3.241   1.267
 3580SOL    HW111639   0.438   3.239   1.183
 3580SOL    HW211640   0.339   3.152   1.281
 3581SOL     OW11641   0.759   0.041   3.229
 3581SOL    HW111642   0.792   6.979   3.189
 3581SOL    HW211643   0.741   0.027   3.327
 3582SOL     OW11644   3.181   4.592   6.186
 3582SOL    HW111645   3.119   4.540   6.127
 3582SOL    HW211646   3.133   4.672   6.222
 3583SOL     OW11647   0.383   4.332   0.938
 3583SOL    HW111648   0.285   4.312   0.944
 3583SOL    HW211649   0.417   4.361   1.028
 3584SOL     OW11650   6.156   4.400   5.320
 3584SOL    HW111651   6.192   4.485   5.281
 3584SOL    HW211652   6.214   4.372   5.396
 3585SOL     OW11653   2.710   1.949   4.613
 3585SOL    HW111654   2.782   1.881   4.606
 3585SOL    HW211655   2.711   1.991   4.704
 3586SOL     OW11656   6.520   3.166   3.947
 3586SOL    HW111657   6.518   3.257   3.989
 3586SOL    HW211658   6.455   3.163   3.871
 3587SOL     OW11659   3.884   5.871   6.684
 3587SOL    HW111660   3.847   5.852   6.774
 3587SOL    HW211661   3.984   5.862   6.685
 3588SOL     OW11662   6.581   4.264   3.965
 3588SOL    HW111663   6.539   4.251   4.055
 3588SOL    HW211664   6.628   4.181   3.938
 3589SOL     OW11665   0.290   6.916   5.761
 3589SOL    HW111666   0.309   6.845   5.829
 3589SOL    HW211667   0.372   6.932   5.707
 3590SOL     OW11668   0.131   4.192   0.645
 3590SOL    HW111669   0.161   4.175   0.738
 3590SOL    HW211670   0.207   4.228   0.591
 3591SOL     OW11671   5.291   2.917   6.735
 3591SOL    HW111672   5.285   2.988   6.805
 3591SOL    HW211673   5.300   2.828   6.779
 3592SOL     OW11674   1.473   0.467   1.771
 3592SOL    HW111675   1.470   0.367   1.766
 3592SOL    HW211676   1.515   0.503   1.688
 3593SOL     OW11677   7.008   4.473   5.264
 3593SOL    HW111678   0.079   4.449   5.287
 3593SOL    HW211679   6.946   4.427   5.327
 3594SOL     OW11680   4.107   5.727   5.191
 3594SOL    HW111681   4.174   5.788   5.233
 3594SOL    HW211682   4.063   5.773   5.114
 3595SOL     OW11683   5.989   5.953   7.009
 3595SOL    HW111684   6.080   5.935   0.022
 3595SOL    HW211685   5.962   5.879   6.947
 3596SOL     OW11686   4.457   2.076   3.252
 3596SOL    HW111687   4.525   2.012   3.287
 3596SOL    HW211688   4.383   2.026   3.207
 3597SOL     OW11689   1.888   3.087   5.183
 3597SOL    HW111690   1.970   3.121   5.228
 3597SOL    HW211691   1.891   2.987   5.180
 3598SOL     OW11692   1.701   5.982   5.631
 3598SOL    HW111693   1.729   5.894   5.669
 3598SOL    HW211694   1.774   6.018   5.575
 3599SOL     OW11695   4.607   1.776   6.319
 3599SOL    HW111696   4.689   1.718   6.321
 3599SOL    HW211697   4.611   1.835   6.239
 3600SOL     OW11698   2.150   3.518   0.600
 3600SOL    HW111699   2.168   3.615   0.584
 3600SOL    HW211700   2.213   3.483   0.670
 3601SOL     OW11701   5.304   1.361   5.366
 3601SOL    HW111702   5.352   1.339   5.451
 3601SOL    HW211703   5.345   1.310   5.290
 3602SOL     OW11704   2.136   2.721   1.784
 3602SOL    HW111705   2.132   2.704   1.686
 3602SOL    HW211706   2.047   2.702   1.825
 3603SOL     OW11707   3.205   0.731   6.265
 3603SOL    HW111708   3.215   0.655   6.329
 3603SOL    HW211709   3.123   0.717   6.209
 3604SOL     OW11710   0.007   0.504   3.518
 3604SOL    HW111711   0.009   0.408   3.488
 3604SOL    HW211712   6.946   0.521   3.570
 3605SOL     OW11713   1.071   5.402   3.257
 3605SOL    HW111714   1.091   5.396   3.355
 3605SOL    HW211715   0.996   5.340   3.234
 3606SOL     OW11716   1.494   6.390   1.879
 3606SOL    HW111717   1.476   6.304   1.831
 3606SOL    HW211718   1.582   6.384   1.925
 3607SOL     OW11719   5.168   2.644   2.563
 3607SOL    HW111720   5.149   2.741   2.578
 3607SOL    HW211721   5.217   2.607   2.643
 3608SOL     OW11722   4.511   2.030   3.582
 3608SOL    HW111723   4.450   2.095   3.537
 3608SOL    HW211724   4.482   2.018   3.677
 3609SOL     OW11725   2.511   6.222   4.332
 3609SOL    HW111726   2.572   6.301   4.323
 3609SOL    HW211727   2.564   6.138   4.318
 3610SOL     OW11728   2.059   0.232   5.408
 3610SOL    HW111729   1.991   0.271   5.346
 3610SOL    HW211730   2.069   0.290   5.488
 3611SOL     OW11731   4.691   4.734   4.459
 3611SOL    HW111732   4.612   4.714   4.402
 3611SOL    HW211733   4.716   4.652   4.511
 3612SOL     OW11734   6.236   1.238   6.416
 3612SOL    HW111735   6.217   1.150   6.460
 3612SOL    HW211736   6.196   1.239   6.325
 3613SOL     OW11737   3.774   5.535   1.434
 3613SOL    HW111738   3.773   5.586   1.347
 3613SOL    HW211739   3.869   5.516   1.460
 3614SOL     OW11740   3.589   3.934   6.877
 3614SOL    HW111741   3.620   3.963   6.967
 3614SOL    HW211742   3.666   3.929   6.814
 3615SOL     OW11743   5.608   2.939   5.843
 3615SOL    HW111744   5.560   2.886   5.772
 3615SOL    HW211745   5.597   3.036   5.824
 3616SOL     OW11746   2.149   1.968   6.571
 3616SOL    HW111747   2.140   2.056   6.617
 3616SOL    HW211748   2.058   1.930   6.552
 3617SOL     OW11749   4.407   6.923   5.823
 3617SOL    HW111750   4.503   6.899   5.811
 3617SOL    HW211751   4.366   6.866   5.894
 3618SOL     OW11752   1.846   3.845   4.652
 3618SOL    HW111753   1.836   3.746   4.645
 3618SOL    HW211754   1.877   3.869   4.744
 3619SOL     OW11755   6.098   2.885   0.823
 3619SOL    HW111756   6.127   2.792   0.800
 3619SOL    HW211757   6.016   2.909   0.770
 3620SOL     OW11758   6.172   6.299   4.373
 3620SOL    HW111759   6.076   6.321   4.389
 3620SOL    HW211760   6.223   6.304   4.459
 3621SOL     OW11761   3.654   3.234   4.074
 3621SOL    HW111762   3.631   3.263   3.981
 3621SOL    HW211763   3.576   3.251   4.135
 3622SOL     OW11764   0.553   0.306   1.085
 3622SOL    HW111765   0.511   0.227   1.041
 3622SOL    HW211766   0.573   0.284   1.181
 3623SOL     OW11767   0.978   5.544   6.175
 3623SOL    HW111768   1.068   5.558   6.134
 3623SOL    HW211769   0.911   5.523   6.104
 3624SOL     OW11770   3.067   0.459   1.524
 3624SOL    HW111771   3.017   0.524   1.581
 3624SOL    HW211772   3.016   0.442   1.439
 3625SOL     OW11773   6.484   2.806   6.618
 3625SOL    HW111774   6.418   2.869   6.578
 3625SOL    HW211775   6.544   2.771   6.546
 3626SOL     OW11776   0.344   3.542   4.649
 3626SOL    HW111777   0.271   3.479   4.676
 3626SOL    HW211778   0.310   3.605   4.579
 3627SOL     OW11779   4.903   2.928   1.072
 3627SOL    HW111780   4.886   2.973   1.160
 3627SOL    HW211781   4.823   2.872   1.047
 3628SOL     OW11782   1.162   1.775   1.757
 3628SOL    HW111783   1.247   1.730   1.782
 3628SOL    HW211784   1.097   1.708   1.721
 3629SOL     OW11785   0.643   1.237   3.922
 3629SOL    HW111786   0.589   1.322   3.917
 3629SOL    HW211787   0.712   1.247   3.993
 3630SOL     OW11788   6.911   2.724   3.303
 3630SOL    HW111789   6.936   2.735   3.400
 3630SOL    HW211790   6.816   2.749   3.290
 3631SOL     OW11791   1.831   6.605   2.925
 3631SOL    HW111792   1.781   6.622   2.839
 3631SOL    HW211793   1.783   6.536   2.978
 3632SOL     OW11794   4.125   4.068   0.338
 3632SOL    HW111795   4.170   4.047   0.425
 3632SOL    HW211796   4.193   4.068   0.265
 3633SOL     OW11797   3.751   2.507   6.010
 3633SOL    HW111798   3.760   2.510   5.910
 3633SOL    HW211799   3.732   2.413   6.039
 3634SOL     OW11800   2.541   6.009   6.121
 3634SOL    HW111801   2.452   5.966   6.136
 3634SOL    HW211802   2.605   5.943   6.082
 3635SOL     OW11803   2.424   0.950   1.301
 3635SOL    HW111804   2.418   0.892   1.220
 3635SOL    HW211805   2.518   0.980   1.315
 3636SOL     OW11806   0.387   5.448   0.234
 3636SOL    HW111807   0.296   5.429   0.198
 3636SOL    HW211808   0.450   5.375   0.205
 3637SOL     OW11809   0.450   2.902   6.649
 3637SOL    HW111810   0.491   2.811   6.659
 3637SOL    HW211811   0.399   2.925   6.732
 3638SOL     OW11812   6.054   4.529   2.755
 3638SOL    HW111813   6.119   4.573   2.693
 3638SOL    HW211814   6.032   4.437   2.722
 3639SOL     OW11815   4.149   3.702   4.854
 3639SOL    HW111816   4.244   3.721   4.876
 3639SOL    HW211817   4.118   3.764   4.782
 3640SOL     OW11818   5.649   2.688   0.624
 3640SOL    HW111819   5.600   2.601   0.628
 3640SOL    HW211820   5.746   2.671   0.613
 3641SOL     OW11821   6.412   3.951   1.338
 3641SOL    HW111822   6.375   3.925   1.427
 3641SOL    HW211823   6.509   3.971   1.347
 3642SOL     OW11824   5.710   2.268   6.605
 3642SOL    HW111825   5.718   2.361   6.641
 3642SOL    HW211826   5.631   2.223   6.646
 3643SOL     OW11827   4.584   6.166   6.160
 3643SOL    HW111828   4.648   6.228   6.204
 3643SOL    HW211829   4.571   6.194   6.065
 3644SOL     OW11830   3.027   1.029   1.924
 3644SOL    HW111831   2.928   1.016   1.920
 3644SOL    HW211832   3.048   1.113   1.973
 3645SOL     OW11833   1.604   3.887   4.472
 3645SOL    HW111834   1.567   3.971   4.512
 3645SOL    HW211835   1.674   3.850   4.532
 3646SOL     OW11836   2.620   4.731   4.779
 3646SOL    HW111837   2.658   4.694   4.864
 3646SOL    HW211838   2.623   4.661   4.707
 3647SOL     OW11839   1.763   6.507   0.226
 3647SOL    HW111840   1.761   6.581   0.294
 3647SOL    HW211841   1.825   6.532   0.152
 3648SOL     OW11842   5.230   5.519   3.462
 3648SOL    HW111843   5.186   5.567   3.538
 3648SOL    HW211844   5.273   5.585   3.401
 3649SOL     OW11845   5.181   3.736   0.336
 3649SOL    HW111846   5.225   3.818   0.300
 3649SOL    HW211847   5.098   3.717   0.285
 3650SOL     OW11848   5.042   4.469   0.783
 3650SOL    HW111849   5.135   4.457   0.817
 3650SOL    HW211850   5.031   4.560   0.744
 3651SOL     OW11851   1.385   2.519   6.114
 3651SOL    HW111852   1.475   2.481   6.135
 3651SOL    HW211853   1.358   2.582   6.186
 3652SOL     OW11854   5.160   1.267   2.180
 3652SOL    HW111855   5.105   1.234   2.103
 3652SOL    HW211856   5.215   1.345   2.150
 3653SOL     OW11857   0.924   1.026   2.292
 3653SOL    HW111858   0.944   1.115   2.332
 3653SOL    HW211859   0.993   1.003   2.223
 3654SOL     OW11860   5.244   0.239   0.854
 3654SOL    HW111861   5.189   0.251   0.936
 3654SOL    HW211862   5.328   0.189   0.877
 3655SOL     OW11863   1.718   1.458   3.946
 3655SOL    HW111864   1.623   1.478   3.921
 3655SOL    HW211865   1.760   1.540   3.984
 3656SOL     OW11866   0.503   5.539   1.817
 3656SOL    HW111867   0.485   5.441   1.823
 3656SOL    HW211868   0.436   5.581   1.756
 3657SOL     OW11869   4.900   6.275   4.937
 3657SOL    HW111870   4.828   6.275   5.007
 3657SOL    HW211871   4.882   6.348   4.871
 3658SOL     OW11872   0.935   5.701   6.410
 3658SOL    HW111873   0.950   5.633   6.338
 3658SOL    HW211874   1.008   5.693   6.479
 3659SOL     OW11875   6.652   1.789   6.170
 3659SOL    HW111876   6.716   1.789   6.094
 3659SOL    HW211877   6.558   1.787   6.136
 3660SOL     OW11878   5.437   5.651   5.972
 3660SOL    HW111879   5.486   5.709   5.908
 3660SOL    HW211880   5.340   5.648   5.946
 3661SOL     OW11881   6.834   1.710   5.213
 3661SOL    HW111882   6.870   1.749   5.297
 3661SOL    HW211883   6.811   1.614   5.227
 3662SOL     OW11884   3.895   0.901   5.998
 3662SOL    HW111885   3.846   0.856   6.073
 3662SOL    HW211886   3.843   0.893   5.914
 3663SOL     OW11887   2.494   3.030   6.773
 3663SOL    HW111888   2.403   3.006   6.740
 3663SOL    HW211889   2.520   2.969   6.848
 3664SOL     OW11890   4.192   1.813   2.317
 3664SOL    HW111891   4.190   1.793   2.415
 3664SOL    HW211892   4.127   1.886   2.296
 3665SOL     OW11893   0.064   6.168   5.662
 3665SOL    HW111894   0.043   6.096   5.729
 3665SOL    HW211895   7.003   6.206   5.625
 3666SOL     OW11896   1.896   2.146   4.383
 3666SOL    HW111897   1.824   2.117   4.320
 3666SOL    HW211898   1.855   2.176   4.469
 3667SOL     OW11899   2.081   1.123   2.381
 3667SOL    HW111900   2.074   1.215   2.342
 3667SOL    HW211901   2.167   1.114   2.431
 3668SOL     OW11902   0.908   0.194   1.907
 3668SOL    HW111903   1.004   0.206   1.932
 3668SOL    HW211904   0.854   0.268   1.947
 3669SOL     OW11905   6.678   1.882   4.065
 3669SOL    HW111906   6.643   1.797   4.027
 3669SOL    HW211907   6.724   1.863   4.152
 3670SOL     OW11908   3.180   5.321   1.340
 3670SOL    HW111909   3.277   5.340   1.353
 3670SOL    HW211910   3.158   5.326   1.243
 3671SOL     OW11911   0.051   0.251   3.435
 3671SOL    HW111912   0.085   0.243   3.341
 3671SOL    HW211913   6.977   0.226   3.438
 3672SOL     OW11914   4.437   1.379   2.826
 3672SOL    HW111915   4.455   1.282   2.844
 3672SOL    HW211916   4.430   1.428   2.913
 3673SOL     OW11917   5.015   6.014   0.613
 3673SOL    HW111918   4.971   6.080   0.553
 3673SOL    HW211919   4.984   6.028   0.707
 3674SOL     OW11920   1.513   5.827   5.516
 3674SOL    HW111921   1.573   5.900   5.550
 3674SOL    HW211922   1.556   5.738   5.533
 3675SOL     OW11923   6.771   1.803   4.320
 3675SOL    HW111924   6.834   1.857   4.376
 3675SOL    HW211925   6.687   1.786   4.370
 3676SOL     OW11926   4.877   2.008   3.056
 3676SOL    HW111927   4.888   1.939   2.985
 3676SOL    HW211928   4.912   1.972   3.143
 3677SOL     OW11929   2.198   0.501   4.055
 3677SOL    HW111930   2.130   0.570   4.082
 3677SOL    HW211931   2.175   0.414   4.098
 3678SOL     OW11932   1.605   0.391   3.773
 3678SOL    HW111933   1.518   0.420   3.814
 3678SOL    HW211934   1.673   0.378   3.844
 3679SOL     OW11935   4.805   1.068   2.541
 3679SOL    HW111936   4.805   1.007   2.462
 3679SOL    HW211937   4.880   1.133   2.533
 3680SOL     OW11938   4.404   1.316   3.622
 3680SOL    HW111939   4.378   1.395   3.566
 3680SOL    HW211940   4.424   1.238   3.563
 3681SOL     OW11941   1.295   0.225   4.864
 3681SOL    HW111942   1.298   0.137   4.817
 3681SOL    HW211943   1.201   0.247   4.888
 3682SOL     OW11944   5.654   2.183   1.070
 3682SOL    HW111945   5.584   2.227   1.014
 3682SOL    HW211946   5.665   2.234   1.155
 3683SOL     OW11947   0.180   0.796   5.577
 3683SOL    HW111948   0.236   0.863   5.625
 3683SOL    HW211949   0.192   0.808   5.478
 3684SOL     OW11950   1.731   6.920   5.444
 3684SOL    HW111951   1.671   6.848   5.480
 3684SOL    HW211952   1.751   6.986   5.517
 3685SOL     OW11953   2.120   5.874   5.771
 3685SOL    HW111954   2.121   5.802   5.701
 3685SOL    HW211955   2.207   5.925   5.767
 3686SOL     OW11956   6.820   3.937   3.578
 3686SOL    HW111957   6.764   3.899   3.506
 3686SOL    HW211958   6.908   3.889   3.582
 3687SOL     OW11959   4.727   6.152   3.406
 3687SOL    HW111960   4.791   6.123   3.334
 3687SOL    HW211961   4.727   6.252   3.412
 3688SOL     OW11962   5.711   3.233   0.300
 3688SOL    HW111963   5.649   3.299   0.257
 3688SOL    HW211964   5.669   3.142   0.299
 3689SOL     OW11965   1.710   0.416   5.467
 3689SOL    HW111966   1.632   0.471   5.437
 3689SOL    HW211967   1.699   0.322   5.436
 3690SOL     OW11968   5.250   4.936   1.125
 3690SOL    HW111969   5.331   4.878   1.114
 3690SOL    HW211970   5.225   4.941   1.222
 3691SOL     OW11971   2.394   2.086   0.071
 3691SOL    HW111972   2.354   1.996   0.083
 3691SOL    HW211973   2.436   2.093   7.004
 3692SOL     OW11974   0.629   3.422   6.168
 3692SOL    HW111975   0.690   3.343   6.177
 3692SOL    HW211976   0.664   3.498   6.224
 3693SOL     OW11977   1.103   1.864   2.742
 3693SOL    HW111978   1.100   1.784   2.681
 3693SOL    HW211979   1.029   1.926   2.718
 3694SOL     OW11980   0.244   0.355   1.957
 3694SOL    HW111981   0.199   0.275   1.918
 3694SOL    HW211982   0.290   0.329   2.042
 3695SOL     OW11983   6.727   2.960   2.943
 3695SOL    HW111984   6.756   2.867   2.964
 3695SOL    HW211985   6.660   2.990   3.011
 3696SOL     OW11986   5.054   0.808   4.963
 3696SOL    HW111987   5.011   0.772   5.046
 3696SOL    HW211988   4.984   0.826   4.895
 3697SOL     OW11989   6.459   6.531   3.562
 3697SOL    HW111990   6.494   6.497   3.649
 3697SOL    HW211991   6.520   6.502   3.488
 3698SOL     OW11992   2.159   0.553   2.857
 3698SOL    HW111993   2.182   0.511   2.770
 3698SOL    HW211994   2.238   0.549   2.918
 3699SOL     OW11995   2.480   2.234   4.040
 3699SOL    HW111996   2.564   2.185   4.065
 3699SOL    HW211997   2.491   2.331   4.061
 3700SOL     OW11998   1.314   5.010   5.117
 3700SOL    HW111999   1.400   4.976   5.079
 3700SOL    HW212000   1.278   5.083   5.059
 3701SOL     OW12001   1.118   6.923   3.214
 3701SOL    HW112002   1.123   7.014   3.256
 3701SOL    HW212003   1.129   6.931   3.115
 3702SOL     OW12004   5.042   4.275   3.660
 3702SOL    HW112005   5.043   4.247   3.755
 3702SOL    HW212006   5.063   4.373   3.653
 3703SOL     OW12007   1.341   2.008   5.629
 3703SOL    HW112008   1.283   1.927   5.629
 3703SOL    HW212009   1.358   2.037   5.535
 3704SOL     OW12010   6.684   2.263   1.134
 3704SOL    HW112011   6.703   2.178   1.084
 3704SOL    HW212012   6.646   2.331   1.072
 3705SOL     OW12013   4.898   4.997   3.914
 3705SOL    HW112014   4.885   4.943   3.997
 3705SOL    HW212015   4.922   5.091   3.939
 3706SOL     OW12016   1.134   3.621   0.373
 3706SOL    HW112017   1.082   3.569   0.305
 3706SOL    HW212018   1.112   3.718   0.365
 3707SOL     OW12019   2.168   4.811   3.701
 3707SOL    HW112020   2.256   4.766   3.716
 3707SOL    HW212021   2.183   4.900   3.658
 3708SOL     OW12022   3.869   6.817   1.017
 3708SOL    HW112023   3.789   6.783   0.967
 3708SOL    HW212024   3.870   6.917   1.015
 3709SOL     OW12025   2.166   0.837   2.831
 3709SOL    HW112026   2.083   0.891   2.818
 3709SOL    HW212027   2.144   0.739   2.827
 3710SOL     OW12028   0.219   5.446   5.521
 3710SOL    HW112029   0.237   5.411   5.429
 3710SOL    HW212030   0.131   5.492   5.523
 3711SOL     OW12031   1.783   6.350   4.466
 3711SOL    HW112032   1.760   6.399   4.382
 3711SOL    HW212033   1.832   6.411   4.528
 3712SOL     OW12034   1.937   5.541   5.314
 3712SOL    HW112035   1.988   5.586   5.240
 3712SOL    HW212036   1.842   5.572   5.312
 3713SOL     OW12037   6.638   6.647   5.293
 3713SOL    HW112038   6.646   6.648   5.194
 3713SOL    HW212039   6.711   6.703   5.333
 3714SOL     OW12040   1.111   4.896   0.483
 3714SOL    HW112041   1.148   4.848   0.404
 3714SOL    HW212042   1.169   4.879   0.563
 3715SOL     OW12043   6.640   5.834   3.153
 3715SOL    HW112044   6.727   5.809   3.195
 3715SOL    HW212045   6.588   5.751   3.132
 3716SOL     OW12046   5.590   5.770   3.969
 3716SOL    HW112047   5.679   5.736   3.937
 3716SOL    HW212048   5.604   5.848   4.030
 3717SOL     OW12049   4.077   1.366   1.244
 3717SOL    HW112050   3.984   1.367   1.280
 3717SOL    HW212051   4.113   1.273   1.248
 3718SOL     OW12052   0.236   6.769   6.262
 3718SOL    HW112053   0.229   6.777   6.361
 3718SOL    HW212054   0.223   6.674   6.235
 3719SOL     OW12055   4.441   3.853   6.536
 3719SOL    HW112056   4.485   3.776   6.489
 3719SOL    HW212057   4.463   3.938   6.489
 3720SOL     OW12058   6.901   3.209   1.509
 3720SOL    HW112059   6.957   3.132   1.539
 3720SOL    HW212060   6.928   3.291   1.559
 3721SOL     OW12061   6.668   4.516   6.683
 3721SOL    HW112062   6.604   4.572   6.632
 3721SOL    HW212063   6.670   4.547   6.779
 3722SOL     OW12064   3.966   6.942   2.598
 3722SOL    HW112065   3.949   6.979   2.689
 3722SOL    HW212066   4.060   6.907   2.594
 3723SOL     OW12067   4.656   5.263   6.732
 3723SOL    HW112068   4.653   5.182   6.791
 3723SOL    HW212069   4.646   5.345   6.787
 3724SOL     OW12070   1.278   4.819   4.738
 3724SOL    HW112071   1.369   4.859   4.739
 3724SOL    HW212072   1.242   4.816   4.831
 3725SOL     OW12073   0.364   6.997   6.628
 3725SOL    HW112074   0.451   6.984   6.582
 3725SOL    HW212075   0.366   0.058   6.682
 3726SOL     OW12076   5.647   3.639   3.849
 3726SOL    HW112077   5.579   3.622   3.920
 3726SOL    HW212078   5.712   3.563   3.846
 3727SOL     OW12079   0.185   3.025   4.331
 3727SOL    HW112080   0.103   2.968   4.317
 3727SOL    HW212081   0.255   2.998   4.265
 3728SOL     OW12082   3.408   3.598   0.094
 3728SOL    HW112083   3.316   3.558   0.101
 3728SOL    HW212084   3.405   3.694   0.121
 3729SOL     OW12085   0.987   0.091   5.317
 3729SOL    HW112086   0.986   0.121   5.412
 3729SOL    HW212087   1.070   0.039   5.298
 3730SOL     OW12088   4.240   6.194   5.986
 3730SOL    HW112089   4.191   6.107   5.982
 3730SOL    HW212090   4.176   6.267   6.010
 3731SOL     OW12091   0.341   2.177   6.142
 3731SOL    HW112092   0.431   2.212   6.114
 3731SOL    HW212093   0.351   2.124   6.226
 3732SOL     OW12094   2.891   1.849   6.667
 3732SOL    HW112095   2.861   1.887   6.755
 3732SOL    HW212096   2.813   1.846   6.604
 3733SOL     OW12097   1.686   2.369   3.499
 3733SOL    HW112098   1.674   2.322   3.586
 3733SOL    HW212099   1.784   2.387   3.485
 3734SOL     OW12100   4.210   0.330   1.393
 3734SOL    HW112101   4.145   0.312   1.468
 3734SOL    HW212102   4.232   0.427   1.391
 3735SOL     OW12103   4.473   0.018   2.433
 3735SOL    HW112104   4.520   0.064   2.358
 3735SOL    HW212105   4.448   0.085   2.503
 3736SOL     OW12106   6.706   1.136   1.714
 3736SOL    HW112107   6.638   1.090   1.772
 3736SOL    HW212108   6.683   1.121   1.618
 3737SOL     OW12109   0.645   2.360   3.508
 3737SOL    HW112110   0.613   2.451   3.531
 3737SOL    HW212111   0.580   2.316   3.447
 3738SOL     OW12112   6.636   6.322   0.539
 3738SOL    HW112113   6.562   6.281   0.485
 3738SOL    HW212114   6.657   6.413   0.502
 3739SOL     OW12115   2.732   5.006   0.973
 3739SOL    HW112116   2.776   4.981   1.060
 3739SOL    HW212117   2.685   5.093   0.983
 3740SOL     OW12118   5.527   5.359   7.004
 3740SOL    HW112119   5.596   5.332   6.937
 3740SOL    HW212120   5.572   5.381   0.067
 3741SOL     OW12121   5.588   2.399   0.618
 3741SOL    HW112122   5.647   2.390   0.538
 3741SOL    HW212123   5.493   2.388   0.591
 3742SOL     OW12124   3.866   5.712   0.163
 3742SOL    HW112125   3.888   5.626   0.209
 3742SOL    HW212126   3.796   5.761   0.214
 3743SOL     OW12127   3.999   3.517   1.097
 3743SOL    HW112128   3.980   3.494   1.193
 3743SOL    HW212129   4.092   3.488   1.074
 3744SOL     OW12130   0.493   6.553   2.183
 3744SOL    HW112131   0.499   6.510   2.093
 3744SOL    HW212132   0.534   6.644   2.179
 3745SOL     OW12133   4.956   3.700   2.506
 3745SOL    HW112134   5.032   3.651   2.464
 3745SOL    HW212135   4.897   3.737   2.435
 3746SOL     OW12136   6.775   0.516   3.667
 3746SOL    HW112137   6.705   0.450   3.693
 3746SOL    HW212138   6.824   0.546   3.750
 3747SOL     OW12139   4.386   6.542   6.319
 3747SOL    HW112140   4.344   6.633   6.307
 3747SOL    HW212141   4.314   6.473   6.321
 3748SOL     OW12142   5.532   1.249   2.780
 3748SOL    HW112143   5.617   1.200   2.795
 3748SOL    HW212144   5.491   1.274   2.868
 3749SOL     OW12145   0.453   5.272   2.865
 3749SOL    HW112146   0.367   5.283   2.815
 3749SOL    HW212147   0.475   5.357   2.913
 3750SOL     OW12148   5.955   3.937   0.238
 3750SOL    HW112149   6.023   3.967   0.305
 3750SOL    HW212150   5.900   4.016   0.209
 3751SOL     OW12151   1.838   3.133   1.365
 3751SOL    HW112152   1.818   3.225   1.401
 3751SOL    HW212153   1.929   3.104   1.397
 3752SOL     OW12154   0.689   0.463   6.321
 3752SOL    HW112155   0.682   0.415   6.408
 3752SOL    HW212156   0.772   0.434   6.273
 3753SOL     OW12157   6.975   6.163   4.560
 3753SOL    HW112158   6.992   6.065   4.551
 3753SOL    HW212159   0.035   6.213   4.537
 3754SOL     OW12160   5.605   6.254   1.261
 3754SOL    HW112161   5.558   6.240   1.348
 3754SOL    HW212162   5.688   6.198   1.259
 3755SOL     OW12163   5.277   4.129   3.830
 3755SOL    HW112164   5.355   4.165   3.881
 3755SOL    HW212165   5.279   4.029   3.830
 3756SOL     OW12166   1.803   2.103   5.959
 3756SOL    HW112167   1.734   2.170   5.931
 3756SOL    HW212168   1.827   2.119   6.055
 3757SOL     OW12169   3.105   5.773   6.433
 3757SOL    HW112170   3.078   5.793   6.339
 3757SOL    HW212171   3.122   5.859   6.481
 3758SOL     OW12172   1.973   1.227   4.196
 3758SOL    HW112173   2.025   1.248   4.279
 3758SOL    HW212174   2.014   1.274   4.118
 3759SOL     OW12175   5.174   4.427   5.894
 3759SOL    HW112176   5.105   4.355   5.896
 3759SOL    HW212177   5.129   4.516   5.888
 3760SOL     OW12178   1.719   2.477   4.489
 3760SOL    HW112179   1.667   2.502   4.571
 3760SOL    HW212180   1.751   2.560   4.443
 3761SOL     OW12181   0.490   6.484   4.593
 3761SOL    HW112182   0.535   6.544   4.659
 3761SOL    HW212183   0.541   6.398   4.587
 3762SOL     OW12184   0.720   4.197   0.115
 3762SOL    HW112185   0.633   4.246   0.125
 3762SOL    HW212186   0.702   4.104   0.083
 3763SOL     OW12187   6.312   3.009   6.490
 3763SOL    HW112188   6.389   3.073   6.491
 3763SOL    HW212189   6.256   3.022   6.571
 3764SOL     OW12190   2.707   0.324   3.902
 3764SOL    HW112191   2.730   0.399   3.840
 3764SOL    HW212192   2.607   0.315   3.907
 3765SOL     OW12193   4.737   0.904   3.499
 3765SOL    HW112194   4.667   0.896   3.570
 3765SOL    HW212195   4.708   0.972   3.432
 3766SOL     OW12196   0.073   1.198   4.015
 3766SOL    HW112197   7.016   1.256   4.006
 3766SOL    HW212198   0.108   1.174   3.924
 3767SOL     OW12199   1.299   5.052   6.643
 3767SOL    HW112200   1.377   5.100   6.682
 3767SOL    HW212201   1.313   4.953   6.649
 3768SOL     OW12202   4.507   6.605   6.709
 3768SOL    HW112203   4.464   6.677   6.653
 3768SOL    HW212204   4.542   6.533   6.649
 3769SOL     OW12205   5.371   6.159   5.060
 3769SOL    HW112206   5.275   6.184   5.072
 3769SOL    HW212207   5.428   6.218   5.117
 3770SOL     OW12208   2.019   1.330   6.393
 3770SOL    HW112209   2.007   1.231   6.383
 3770SOL    HW212210   2.105   1.349   6.439
 3771SOL     OW12211   5.110   2.283   0.134
 3771SOL    HW112212   5.100   2.303   0.036
 3771SOL    HW212213   5.207   2.286   0.158
 3772SOL     OW12214   6.024   0.746   1.437
 3772SOL    HW112215   6.039   0.827   1.379
 3772SOL    HW212216   5.935   0.752   1.481
 3773SOL     OW12217   5.844   2.878   5.538
 3773SOL    HW112218   5.829   2.940   5.615
 3773SOL    HW212219   5.917   2.813   5.562
 3774SOL     OW12220   0.839   0.867   6.780
 3774SOL    HW112221   0.870   0.811   6.857
 3774SOL    HW212222   0.857   0.818   6.694
 3775SOL     OW12223   5.161   3.659   3.618
 3775SOL    HW112224   5.073   3.633   3.578
 3775SOL    HW212225   5.230   3.663   3.545
 3776SOL     OW12226   2.146   2.667   1.520
 3776SOL    HW112227   2.203   2.587   1.500
 3776SOL    HW212228   2.181   2.746   1.470
 3777SOL     OW12229   2.791   5.253   4.668
 3777SOL    HW112230   2.822   5.337   4.624
 3777SOL    HW212231   2.752   5.191   4.600
 3778SOL     OW12232   2.656   5.703   1.895
 3778SOL    HW112233   2.738   5.754   1.921
 3778SOL    HW212234   2.576   5.747   1.936
 3779SOL     OW12235   2.396   4.684   6.865
 3779SOL    HW112236   2.414   4.778   6.836
 3779SOL    HW212237   2.455   4.621   6.814
 3780SOL     OW12238   3.087   5.989   5.552
 3780SOL    HW112239   3.113   5.919   5.618
 3780SOL    HW212240   3.127   5.967   5.463
 3781SOL     OW12241   3.379   6.725   4.282
 3781SOL    HW112242   3.303   6.675   4.325
 3781SOL    HW212243   3.433   6.661   4.228
 3782SOL     OW12244   2.089   1.650   4.241
 3782SOL    HW112245   2.188   1.644   4.252
 3782SOL    HW212246   2.043   1.608   4.319
 3783SOL     OW12247   5.532   6.621   4.933
 3783SOL    HW112248   5.561   6.670   4.852
 3783SOL    HW212249   5.436   6.643   4.953
 3784SOL     OW12250   5.439   1.068   3.276
 3784SOL    HW112251   5.416   0.994   3.339
 3784SOL    HW212252   5.381   1.147   3.295
 3785SOL     OW12253   2.456   2.160   0.891
 3785SOL    HW112254   2.471   2.216   0.973
 3785SOL    HW212255   2.544   2.148   0.843
 3786SOL     OW12256   2.973   5.264   3.321
 3786SOL    HW112257   3.073   5.275   3.318
 3786SOL    HW212258   2.950   5.168   3.306
 3787SOL     OW12259   4.737   1.194   4.254
 3787SOL    HW112260   4.805   1.261   4.226
 3787SOL    HW212261   4.758   1.162   4.347
 3788SOL     OW12262   6.452   3.294   3.034
 3788SOL    HW112263   6.409   3.363   2.977
 3788SOL    HW212264   6.550   3.291   3.014
 3789SOL     OW12265   1.444   4.874   3.913
 3789SOL    HW112266   1.475   4.944   3.978
 3789SOL    HW212267   1.344   4.865   3.920
 3790SOL     OW12268   1.930   3.251   4.450
 3790SOL    HW112269   1.879   3.298   4.522
 3790SOL    HW212270   1.976   3.171   4.489
 3791SOL     OW12271   5.575   6.993   1.439
 3791SOL    HW112272   5.503   7.008   1.507
 3791SOL    HW212273   5.535   6.996   1.347
 3792SOL     OW12274   6.260   6.504   4.961
 3792SOL    HW112275   6.266   6.559   5.045
 3792SOL    HW212276   6.325   6.429   4.966
 3793SOL     OW12277   1.933   1.625   2.232
 3793SOL    HW112278   1.864   1.635   2.160
 3793SOL    HW212279   1.906   1.679   2.311
 3794SOL     OW12280   4.214   6.323   1.713
 3794SOL    HW112281   4.305   6.359   1.735
 3794SOL    HW212282   4.146   6.367   1.770
 3795SOL     OW12283   4.737   0.802   6.617
 3795SOL    HW112284   4.746   0.707   6.648
 3795SOL    HW212285   4.750   0.806   6.518
 3796SOL     OW12286   1.442   2.113   1.790
 3796SOL    HW112287   1.458   2.017   1.766
 3796SOL    HW212288   1.363   2.119   1.851
 3797SOL     OW12289   1.032   5.142   2.329
 3797SOL    HW112290   0.944   5.096   2.325
 3797SOL    HW212291   1.104   5.074   2.347
 3798SOL     OW12292   2.421   4.914   2.799
 3798SOL    HW112293   2.381   4.940   2.711
 3798SOL    HW212294   2.399   4.982   2.868
 3799SOL     OW12295   1.861   1.614   5.207
 3799SOL    HW112296   1.792   1.685   5.217
 3799SOL    HW212297   1.848   1.567   5.120
 3800SOL     OW12298   5.429   2.467   4.700
 3800SOL    HW112299   5.355   2.406   4.726
 3800SOL    HW212300   5.500   2.467   4.771
 3801SOL     OW12301   6.902   6.190   6.035
 3801SOL    HW112302   6.903   6.139   5.949
 3801SOL    HW212303   6.951   6.276   6.023
 3802SOL     OW12304   0.959   1.983   4.908
 3802SOL    HW112305   1.034   1.936   4.954
 3802SOL    HW212306   0.941   2.070   4.954
 3803SOL     OW12307   4.188   0.043   1.404
 3803SOL    HW112308   4.210   0.137   1.379
 3803SOL    HW212309   4.090   0.028   1.394
 3804SOL     OW12310   4.794   2.381   4.484
 3804SOL    HW112311   4.697   2.403   4.485
 3804SOL    HW212312   4.816   2.326   4.565
 3805SOL     OW12313   3.045   4.257   1.759
 3805SOL    HW112314   2.981   4.326   1.790
 3805SOL    HW212315   3.017   4.221   1.670
 3806SOL     OW12316   2.701   2.783   0.576
 3806SOL    HW112317   2.669   2.878   0.575
 3806SOL    HW212318   2.801   2.782   0.565
 3807SOL     OW12319   0.762   6.693   4.020
 3807SOL    HW112320   0.852   6.736   4.011
 3807SOL    HW212321   0.774   6.595   4.036
 3808SOL     OW12322   3.453   6.905   1.784
 3808SOL    HW112323   3.527   6.972   1.791
 3808SOL    HW212324   3.462   6.837   1.857
 3809SOL     OW12325   5.873   1.737   6.928
 3809SOL    HW112326   5.956   1.764   6.976
 3809SOL    HW212327   5.867   1.637   6.925
 3810SOL     OW12328   3.347   3.036   5.411
 3810SOL    HW112329   3.290   2.977   5.353
 3810SOL    HW212330   3.404   3.093   5.352
 3811SOL     OW12331   0.583   4.792   4.449
 3811SOL    HW112332   0.639   4.828   4.524
 3811SOL    HW212333   0.490   4.827   4.457
 3812SOL     OW12334   6.355   1.671   5.780
 3812SOL    HW112335   6.316   1.591   5.824
 3812SOL    HW212336   6.397   1.731   5.848
 3813SOL     OW12337   3.215   5.579   0.550
 3813SOL    HW112338   3.172   5.628   0.474
 3813SOL    HW212339   3.237   5.486   0.521
 3814SOL     OW12340   6.640   6.224   1.952
 3814SOL    HW112341   6.573   6.283   1.997
 3814SOL    HW212342   6.594   6.143   1.916
 3815SOL     OW12343   5.345   2.167   1.558
 3815SOL    HW112344   5.406   2.244   1.536
 3815SOL    HW212345   5.399   2.083   1.562
 3816SOL     OW12346   0.102   6.560   2.074
 3816SOL    HW112347   0.129   6.487   2.136
 3816SOL    HW212348   0.172   6.573   2.004
 3817SOL     OW12349   4.857   2.258   4.142
 3817SOL    HW112350   4.776   2.272   4.199
 3817SOL    HW212351   4.838   2.188   4.074
 3818SOL     OW12352   4.717   5.997   2.526
 3818SOL    HW112353   4.690   6.073   2.466
 3818SOL    HW212354   4.720   5.913   2.473
 3819SOL     OW12355   5.370   5.152   0.939
 3819SOL    HW112356   5.306   5.115   1.006
 3819SOL    HW212357   5.325   5.160   0.850
 3820SOL     OW12358   4.702   5.963   4.119
 3820SOL    HW112359   4.737   6.057   4.120
 3820SOL    HW212360   4.738   5.913   4.197
 3821SOL     OW12361   1.588   3.439   2.046
 3821SOL    HW112362   1.678   3.396   2.057
 3821SOL    HW212363   1.582   3.480   1.955
 3822SOL     OW12364   2.719   5.182   1.424
 3822SOL    HW112365   2.657   5.129   1.482
 3822SOL    HW212366   2.779   5.119   1.374
 3823SOL     OW12367   3.932   2.706   5.802
 3823SOL    HW112368   3.934   2.757   5.716
 3823SOL    HW212369   3.895   2.614   5.786
 3824SOL     OW12370   6.243   1.902   6.225
 3824SOL    HW112371   6.277   1.853   6.306
 3824SOL    HW212372   6.167   1.962   6.252
 3825SOL     OW12373   0.753   6.949   5.657
 3825SOL    HW112374   0.718   6.970   5.748
 3825SOL    HW212375   0.815   7.021   5.627
 3826SOL     OW12376   6.688   3.622   1.233
 3826SOL    HW112377   6.593   3.606   1.258
 3826SOL    HW212378   6.711   3.566   1.153
 3827SOL     OW12379   3.413   3.638   0.840
 3827SOL    HW112380   3.340   3.611   0.902
 3827SOL    HW212381   3.490   3.673   0.893
 3828SOL     OW12382   4.425   2.529   1.769
 3828SOL    HW112383   4.346   2.572   1.725
 3828SOL    HW212384   4.500   2.595   1.774
 3829SOL     OW12385   2.511   5.155   3.672
 3829SOL    HW112386   2.564   5.227   3.718
 3829SOL    HW212387   2.491   5.082   3.737
 3830SOL     OW12388   2.628   0.374   5.153
 3830SOL    HW112389   2.695   0.305   5.128
 3830SOL    HW212390   2.588   0.351   5.242
 3831SOL     OW12391   4.258   1.659   2.555
 3831SOL    HW112392   4.292   1.741   2.602
 3831SOL    HW212393   4.336   1.601   2.530
 3832SOL     OW12394   6.554   0.717   1.632
 3832SOL    HW112395   6.596   0.712   1.541
 3832SOL    HW212396   6.470   0.663   1.633
 3833SOL     OW12397   0.899   5.015   1.142
 3833SOL    HW112398   0.806   5.011   1.105
 3833SOL    HW212399   0.895   5.051   1.236
 3834SOL     OW12400   2.876   1.794   0.736
 3834SOL    HW112401   2.933   1.855   0.680
 3834SOL    HW212402   2.856   1.839   0.823
 3835SOL     OW12403   4.033   5.675   6.218
 3835SOL    HW112404   4.127   5.681   6.252
 3835SOL    HW212405   3.980   5.616   6.279
 3836SOL     OW12406   1.474   4.118   6.165
 3836SOL    HW112407   1.463   4.052   6.090
 3836SOL    HW212408   1.563   4.106   6.208
 3837SOL     OW12409   4.393   3.743   0.610
 3837SOL    HW112410   4.364   3.715   0.519
 3837SOL    HW212411   4.390   3.664   0.672
 3838SOL     OW12412   5.971   2.402   4.157
 3838SOL    HW112413   6.049   2.411   4.220
 3838SOL    HW212414   5.901   2.345   4.200
 3839SOL     OW12415   5.260   6.482   5.651
 3839SOL    HW112416   5.334   6.523   5.598
 3839SOL    HW212417   5.253   6.385   5.628
 3840SOL     OW12418   1.871   0.998   3.860
 3840SOL    HW112419   1.928   1.049   3.796
 3840SOL    HW212420   1.788   1.050   3.880
 3841SOL     OW12421   0.951   4.383   5.191
 3841SOL    HW112422   0.974   4.292   5.226
 3841SOL    HW212423   0.921   4.377   5.096
 3842SOL     OW12424   1.053   5.115   0.306
 3842SOL    HW112425   1.059   5.086   0.402
 3842SOL    HW212426   0.978   5.181   0.296
 3843SOL     OW12427   6.262   3.253   0.534
 3843SOL    HW112428   6.196   3.228   0.605
 3843SOL    HW212429   6.288   3.171   0.483
 3844SOL     OW12430   2.248   4.757   5.858
 3844SOL    HW112431   2.216   4.673   5.814
 3844SOL    HW212432   2.211   4.836   5.809
 3845SOL     OW12433   3.408   3.842   3.430
 3845SOL    HW112434   3.372   3.875   3.343
 3845SOL    HW212435   3.503   3.814   3.418
 3846SOL     OW12436   0.300   4.463   4.411
 3846SOL    HW112437   0.366   4.464   4.336
 3846SOL    HW212438   0.209   4.489   4.377
 3847SOL     OW12439   0.022   0.489   6.139
 3847SOL    HW112440   0.053   0.567   6.192
 3847SOL    HW212441   6.945   0.485   6.141
 3848SOL     OW12442   2.667   4.867   1.392
 3848SOL    HW112443   2.573   4.892   1.416
 3848SOL    HW212444   2.723   4.865   1.474
 3849SOL     OW12445   1.009   2.202   5.617
 3849SOL    HW112446   0.921   2.246   5.633
 3849SOL    HW212447   1.004   2.106   5.648
 3850SOL     OW12448   3.352   4.072   1.826
 3850SOL    HW112449   3.450   4.056   1.834
 3850SOL    HW212450   3.333   4.120   1.740
 3851SOL     OW12451   2.053   3.217   3.058
 3851SOL    HW112452   2.102   3.265   2.984
 3851SOL    HW212453   2.071   3.119   3.052
 3852SOL     OW12454   4.024   0.636   4.513
 3852SOL    HW112455   4.073   0.667   4.432
 3852SOL    HW212456   4.038   0.537   4.525
 3853SOL     OW12457   1.041   3.610   2.357
 3853SOL    HW112458   1.129   3.639   2.395
 3853SOL    HW212459   1.050   3.599   2.258
 3854SOL     OW12460   0.756   3.555   4.476
 3854SOL    HW112461   0.709   3.636   4.440
 3854SOL    HW212462   0.689   3.493   4.516
 3855SOL     OW12463   6.236   3.675   5.609
 3855SOL    HW112464   6.252   3.732   5.528
 3855SOL    HW212465   6.167   3.717   5.667
 3856SOL     OW12466   0.048   6.482   5.777
 3856SOL    HW112467   0.024   6.396   5.734
 3856SOL    HW212468   0.097   6.540   5.712
 3857SOL     OW12469   1.195   6.487   4.658
 3857SOL    HW112470   1.150   6.443   4.736
 3857SOL    HW212471   1.126   6.531   4.601
 3858SOL     OW12472   2.198   5.944   6.702
 3858SOL    HW112473   2.295   5.950   6.679
 3858SOL    HW212474   2.160   6.036   6.709
 3859SOL     OW12475   0.159   3.197   2.369
 3859SOL    HW112476   0.112   3.158   2.290
 3859SOL    HW212477   0.225   3.266   2.338
 3860SOL     OW12478   2.508   6.778   5.757
 3860SOL    HW112479   2.524   6.874   5.736
 3860SOL    HW212480   2.535   6.721   5.679
 3861SOL     OW12481   4.681   4.424   1.139
 3861SOL    HW112482   4.781   4.414   1.139
 3861SOL    HW212483   4.643   4.388   1.224
 3862SOL     OW12484   1.039   5.839   5.690
 3862SOL    HW112485   1.119   5.895   5.712
 3862SOL    HW212486   1.004   5.796   5.774
 3863SOL     OW12487   3.177   3.816   1.619
 3863SOL    HW112488   3.227   3.870   1.685
 3863SOL    HW212489   3.082   3.847   1.615
 3864SOL     OW12490   3.162   2.050   0.177
 3864SOL    HW112491   3.082   2.068   0.121
 3864SOL    HW212492   3.164   2.113   0.254
 3865SOL     OW12493   4.869   0.595   2.484
 3865SOL    HW112494   4.965   0.571   2.474
 3865SOL    HW212495   4.861   0.679   2.539
 3866SOL     OW12496   3.733   6.936   0.138
 3866SOL    HW112497   3.667   6.988   0.084
 3866SOL    HW212498   3.789   6.879   0.077
 3867SOL     OW12499   2.077   3.453   3.426
 3867SOL    HW112500   2.104   3.380   3.490
 3867SOL    HW212501   2.089   3.542   3.470
 3868SOL     OW12502   2.080   6.502   2.887
 3868SOL    HW112503   2.056   6.541   2.976
 3868SOL    HW212504   2.036   6.556   2.815
 3869SOL     OW12505   0.811   3.377   3.170
 3869SOL    HW112506   0.861   3.366   3.255
 3869SOL    HW212507   0.875   3.399   3.096
 3870SOL     OW12508   2.594   4.849   0.393
 3870SOL    HW112509   2.566   4.761   0.356
 3870SOL    HW212510   2.628   4.837   0.486
 3871SOL     OW12511   2.387   0.290   3.312
 3871SOL    HW112512   2.293   0.276   3.343
 3871SOL    HW212513   2.430   0.201   3.293
 3872SOL     OW12514   4.078   4.323   0.554
 3872SOL    HW112515   4.162   4.335   0.501
 3872SOL    HW212516   4.009   4.277   0.499
 3873SOL     OW12517   5.721   4.505   1.906
 3873SOL    HW112518   5.808   4.535   1.865
 3873SOL    HW212519   5.733   4.499   2.006
 3874SOL     OW12520   4.484   0.612   6.874
 3874SOL    HW112521   4.536   0.694   6.898
 3874SOL    HW212522   4.429   0.583   6.953
 3875SOL     OW12523   1.378   5.181   1.065
 3875SOL    HW112524   1.413   5.258   1.117
 3875SOL    HW212525   1.278   5.180   1.069
 3876SOL     OW12526   5.022   3.658   3.875
 3876SOL    HW112527   5.085   3.670   3.798
 3876SOL    HW212528   4.974   3.744   3.893
 3877SOL     OW12529   6.098   0.610   2.425
 3877SOL    HW112530   6.115   0.687   2.486
 3877SOL    HW212531   6.016   0.561   2.456
 3878SOL     OW12532   3.671   6.716   6.104
 3878SOL    HW112533   3.714   6.666   6.029
 3878SOL    HW212534   3.576   6.737   6.080
 3879SOL     OW12535   3.966   5.985   2.148
 3879SOL    HW112536   3.996   6.078   2.126
 3879SOL    HW212537   3.931   5.983   2.242
 3880SOL     OW12538   5.217   3.261   3.760
 3880SOL    HW112539   5.244   3.340   3.815
 3880SOL    HW212540   5.152   3.206   3.811
 3881SOL     OW12541   1.421   3.533   0.646
 3881SOL    HW112542   1.353   3.535   0.720
 3881SOL    HW212543   1.381   3.491   0.565
 3882SOL     OW12544   0.264   0.549   5.696
 3882SOL    HW112545   0.178   0.523   5.739
 3882SOL    HW212546   0.248   0.625   5.633
 3883SOL     OW12547   3.627   0.616   5.681
 3883SOL    HW112548   3.670   0.553   5.616
 3883SOL    HW212549   3.544   0.654   5.640
 3884SOL     OW12550   1.757   5.136   6.029
 3884SOL    HW112551   1.852   5.149   6.003
 3884SOL    HW212552   1.703   5.214   5.995
 3885SOL     OW12553   6.511   1.100   4.450
 3885SOL    HW112554   6.548   1.158   4.522
 3885SOL    HW212555   6.425   1.140   4.416
 3886SOL     OW12556   6.504   6.551   5.550
 3886SOL    HW112557   6.406   6.542   5.533
 3886SOL    HW212558   6.520   6.635   5.602
 3887SOL     OW12559   4.270   2.335   5.809
 3887SOL    HW112560   4.225   2.301   5.727
 3887SOL    HW212561   4.252   2.272   5.885
 3888SOL     OW12562   6.854   1.801   0.764
 3888SOL    HW112563   6.777   1.835   0.710
 3888SOL    HW212564   6.925   1.871   0.769
 3889SOL     OW12565   0.867   6.366   6.219
 3889SOL    HW112566   0.928   6.306   6.271
 3889SOL    HW212567   0.855   6.330   6.127
 3890SOL     OW12568   5.174   4.024   3.285
 3890SOL    HW112569   5.129   4.111   3.262
 3890SOL    HW212570   5.169   4.009   3.384
 3891SOL     OW12571   5.211   4.502   5.486
 3891SOL    HW112572   5.268   4.476   5.564
 3891SOL    HW212573   5.242   4.452   5.405
 3892SOL     OW12574   4.995   6.832   3.025
 3892SOL    HW112575   4.951   6.852   2.937
 3892SOL    HW212576   5.083   6.788   3.009
 3893SOL     OW12577   3.032   5.799   3.834
 3893SOL    HW112578   3.127   5.803   3.863
 3893SOL    HW212579   2.974   5.840   3.904
 3894SOL     OW12580   5.350   3.954   6.780
 3894SOL    HW112581   5.364   4.053   6.777
 3894SOL    HW212582   5.392   3.917   6.863
 3895SOL     OW12583   2.728   2.192   5.510
 3895SOL    HW112584   2.679   2.114   5.550
 3895SOL    HW212585   2.768   2.247   5.583
 3896SOL     OW12586   6.241   2.852   5.719
 3896SOL    HW112587   6.310   2.882   5.785
 3896SOL    HW212588   6.177   2.927   5.702
 3897SOL     OW12589   3.708   6.591   1.947
 3897SOL    HW112590   3.735   6.546   1.862
 3897SOL    HW212591   3.688   6.522   2.017
 3898SOL     OW12592   3.913   3.943   4.737
 3898SOL    HW112593   3.976   3.896   4.676
 3898SOL    HW212594   3.819   3.919   4.713
 3899SOL     OW12595   4.778   1.736   5.029
 3899SOL    HW112596   4.861   1.690   5.060
 3899SOL    HW212597   4.716   1.749   5.106
 3900SOL     OW12598   6.432   2.904   3.518
 3900SOL    HW112599   6.347   2.939   3.557
 3900SOL    HW212600   6.509   2.955   3.555
 3901SOL     OW12601   2.036   6.038   5.207
 3901SOL    HW112602   2.069   5.962   5.150
 3901SOL    HW212603   2.099   6.115   5.198
 3902SOL     OW12604   4.213   4.999   1.614
 3902SOL    HW112605   4.290   4.940   1.590
 3902SOL    HW212606   4.133   4.943   1.634
 3903SOL     OW12607   4.373   2.587   6.031
 3903SOL    HW112608   4.341   2.508   6.084
 3903SOL    HW212609   4.444   2.558   5.968
 3904SOL     OW12610   1.661   6.241   1.323
 3904SOL    HW112611   1.641   6.177   1.249
 3904SOL    HW212612   1.707   6.322   1.286
 3905SOL     OW12613   6.728   0.354   5.401
 3905SOL    HW112614   6.791   0.373   5.325
 3905SOL    HW212615   6.704   0.440   5.446
 3906SOL     OW12616   0.520   5.774   4.205
 3906SOL    HW112617   0.569   5.688   4.220
 3906SOL    HW212618   0.586   5.849   4.197
 3907SOL     OW12619   0.517   1.146   4.475
 3907SOL    HW112620   0.527   1.236   4.433
 3907SOL    HW212621   0.432   1.104   4.444
 3908SOL     OW12622   1.247   0.371   4.570
 3908SOL    HW112623   1.222   0.293   4.514
 3908SOL    HW212624   1.343   0.395   4.553
 3909SOL     OW12625   5.938   2.046   6.590
 3909SOL    HW112626   5.896   1.958   6.611
 3909SOL    HW212627   5.872   2.120   6.604
 3910SOL     OW12628   3.616   2.656   0.236
 3910SOL    HW112629   3.658   2.578   0.283
 3910SOL    HW212630   3.529   2.628   0.196
 3911SOL     OW12631   0.088   1.348   1.141
 3911SOL    HW112632   0.031   1.267   1.151
 3911SOL    HW212633   0.049   1.424   1.193
 3912SOL     OW12634   3.851   2.224   0.210
 3912SOL    HW112635   3.809   2.302   0.255
 3912SOL    HW212636   3.791   2.191   0.137
 3913SOL     OW12637   4.976   5.262   1.462
 3913SOL    HW112638   4.934   5.174   1.441
 3913SOL    HW212639   4.912   5.336   1.439
 3914SOL     OW12640   6.934   1.315   0.211
 3914SOL    HW112641   6.988   1.268   0.141
 3914SOL    HW212642   6.898   1.248   0.276
 3915SOL     OW12643   4.813   5.527   6.542
 3915SOL    HW112644   4.728   5.525   6.489
 3915SOL    HW212645   4.800   5.583   6.624
 3916SOL     OW12646   2.589   2.011   2.526
 3916SOL    HW112647   2.513   2.007   2.461
 3916SOL    HW212648   2.676   2.010   2.477
 3917SOL     OW12649   3.268   4.455   1.389
 3917SOL    HW112650   3.248   4.548   1.419
 3917SOL    HW212651   3.270   4.394   1.469
 3918SOL     OW12652   5.311   0.872   0.408
 3918SOL    HW112653   5.265   0.959   0.428
 3918SOL    HW212654   5.262   0.825   0.334
 3919SOL     OW12655   3.817   7.003   2.367
 3919SOL    HW112656   3.784   0.069   2.396
 3919SOL    HW212657   3.862   6.957   2.445
 3920SOL     OW12658   2.898   1.759   5.464
 3920SOL    HW112659   2.920   1.817   5.543
 3920SOL    HW212660   2.812   1.790   5.424
 3921SOL     OW12661   6.801   2.963   6.268
 3921SOL    HW112662   6.897   2.941   6.253
 3921SOL    HW212663   6.745   2.882   6.252
 3922SOL     OW12664   4.810   4.610   2.901
 3922SOL    HW112665   4.822   4.657   2.814
 3922SOL    HW212666   4.894   4.563   2.926
 3923SOL     OW12667   5.400   1.010   1.405
 3923SOL    HW112668   5.322   0.951   1.385
 3923SOL    HW212669   5.467   0.959   1.458
 3924SOL     OW12670   5.393   5.344   4.570
 3924SOL    HW112671   5.429   5.433   4.543
 3924SOL    HW212672   5.468   5.287   4.604
 3925SOL     OW12673   5.399   3.715   0.752
 3925SOL    HW112674   5.407   3.804   0.797
 3925SOL    HW212675   5.306   3.705   0.716
 3926SOL     OW12676   0.233   6.174   6.210
 3926SOL    HW112677   0.273   6.106   6.271
 3926SOL    HW212678   0.231   6.137   6.117
 3927SOL     OW12679   5.521   1.967   6.025
 3927SOL    HW112680   5.514   1.878   6.070
 3927SOL    HW212681   5.507   2.040   6.091
 3928SOL     OW12682   3.044   5.887   2.036
 3928SOL    HW112683   3.100   5.962   2.071
 3928SOL    HW212684   3.047   5.886   1.936
 3929SOL     OW12685   0.151   2.566   4.832
 3929SOL    HW112686   0.211   2.551   4.911
 3929SOL    HW212687   0.062   2.522   4.849
 3930SOL     OW12688   1.823   4.793   3.604
 3930SOL    HW112689   1.892   4.724   3.583
 3930SOL    HW212690   1.757   4.755   3.670
 3931SOL     OW12691   2.257   2.024   1.659
 3931SOL    HW112692   2.251   2.123   1.650
 3931SOL    HW212693   2.344   1.999   1.702
 3932SOL     OW12694   2.472   4.922   3.834
 3932SOL    HW112695   2.557   4.927   3.887
 3932SOL    HW212696   2.437   4.829   3.836
 3933SOL     OW12697   2.323   5.819   1.610
 3933SOL    HW112698   2.302   5.753   1.538
 3933SOL    HW212699   2.242   5.873   1.631
 3934SOL     OW12700   0.092   0.787   1.475
 3934SOL    HW112701   0.140   0.844   1.542
 3934SOL    HW212702   0.111   0.820   1.383
 3935SOL     OW12703   6.794   3.576   6.214
 3935SOL    HW112704   6.893   3.589   6.215
 3935SOL    HW212705   6.753   3.624   6.292
 3936SOL     OW12706   6.936   4.850   5.449
 3936SOL    HW112707   6.928   4.940   5.407
 3936SOL    HW212708   6.863   4.838   5.516
 3937SOL     OW12709   0.273   6.628   1.893
 3937SOL    HW112710   0.237   6.699   1.832
 3937SOL    HW212711   0.335   6.568   1.842
 3938SOL     OW12712   1.110   3.399   2.522
 3938SOL    HW112713   1.070   3.465   2.459
 3938SOL    HW212714   1.190   3.357   2.479
 3939SOL     OW12715   1.310   1.087   2.377
 3939SOL    HW112716   1.281   0.995   2.350
 3939SOL    HW212717   1.263   1.114   2.460
 3940SOL     OW12718   3.462   5.724   1.219
 3940SOL    HW112719   3.418   5.808   1.188
 3940SOL    HW212720   3.520   5.744   1.298
 3941SOL     OW12721   5.465   5.991   3.172
 3941SOL    HW112722   5.419   5.906   3.201
 3941SOL    HW212723   5.496   6.041   3.253
 3942SOL     OW12724   6.584   6.058   5.515
 3942SOL    HW112725   6.594   6.154   5.542
 3942SOL    HW212726   6.673   6.015   5.512
 3943SOL     OW12727   1.542   2.463   0.326
 3943SOL    HW112728   1.540   2.365   0.312
 3943SOL    HW212729   1.589   2.507   0.249
 3944SOL     OW12730   5.331   2.670   6.836
 3944SOL    HW112731   5.279   2.603   6.783
 3944SOL    HW212732   5.413   2.627   6.874
 3945SOL     OW12733   5.971   0.352   3.282
 3945SOL    HW112734   5.871   0.342   3.285
 3945SOL    HW212735   6.013   0.266   3.252
 3946SOL     OW12736   1.073   3.100   6.985
 3946SOL    HW112737   1.146   3.166   6.971
 3946SOL    HW212738   0.986   3.139   6.954
 3947SOL     OW12739   6.002   5.169   2.021
 3947SOL    HW112740   5.950   5.127   1.946
 3947SOL    HW212741   5.960   5.143   2.108
 3948SOL     OW12742   1.266   2.708   5.853
 3948SOL    HW112743   1.174   2.673   5.871
 3948SOL    HW212744   1.265   2.808   5.857
 3949SOL     OW12745   6.134   6.983   1.191
 3949SOL    HW112746   6.225   7.023   1.183
 3949SOL    HW212747   6.065   0.028   1.168
 3950SOL     OW12748   3.112   4.680   1.750
 3950SOL    HW112749   3.096   4.585   1.775
 3950SOL    HW212750   3.039   4.737   1.788
 3951SOL     OW12751   1.243   2.287   4.557
 3951SOL    HW112752   1.151   2.250   4.547
 3951SOL    HW212753   1.291   2.280   4.469
 3952SOL     OW12754   5.877   3.594   6.629
 3952SOL    HW112755   5.914   3.646   6.706
 3952SOL    HW212756   5.786   3.629   6.606
 3953SOL     OW12757   3.114   3.854   6.111
 3953SOL    HW112758   3.139   3.788   6.040
 3953SOL    HW212759   3.183   3.853   6.183
 3954SOL     OW12760   0.052   2.885   5.189
 3954SOL    HW112761   0.104   2.955   5.141
 3954SOL    HW212762   0.019   2.817   5.124
 3955SOL     OW12763   0.291   4.108   0.281
 3955SOL    HW112764   0.272   4.084   0.186
 3955SOL    HW212765   0.220   4.169   0.315
 3956SOL     OW12766   0.325   3.107   5.522
 3956SOL    HW112767   0.290   3.200   5.531
 3956SOL    HW212768   0.390   3.089   5.597
 3957SOL     OW12769   0.728   1.575   3.394
 3957SOL    HW112770   0.808   1.527   3.357
 3957SOL    HW212771   0.672   1.510   3.446
 3958SOL     OW12772   5.803   5.763   6.299
 3958SOL    HW112773   5.725   5.764   6.237
 3958SOL    HW212774   5.887   5.778   6.247
 3959SOL     OW12775   2.328   5.011   0.723
 3959SOL    HW112776   2.320   5.044   0.817
 3959SOL    HW212777   2.421   4.978   0.707
 3960SOL     OW12778   4.882   3.471   0.649
 3960SOL    HW112779   4.946   3.515   0.712
 3960SOL    HW212780   4.835   3.396   0.695
 3961SOL     OW12781   5.402   0.786   2.406
 3961SOL    HW112782   5.460   0.866   2.421
 3961SOL    HW212783   5.457   0.703   2.413
 3962SOL     OW12784   0.749   6.721   5.516
 3962SOL    HW112785   0.720   6.801   5.570
 3962SOL    HW212786   0.844   6.733   5.488
 3963SOL     OW12787   4.690   5.472   2.876
 3963SOL    HW112788   4.730   5.414   2.806
 3963SOL    HW212789   4.730   5.449   2.965
 3964SOL     OW12790   5.715   6.736   5.685
 3964SOL    HW112791   5.661   6.668   5.735
 3964SOL    HW212792   5.678   6.827   5.704
 3965SOL     OW12793   4.141   3.163   0.347
 3965SOL    HW112794   4.080   3.220   0.292
 3965SOL    HW212795   4.206   3.221   0.396
 3966SOL     OW12796   6.285   4.277   5.101
 3966SOL    HW112797   6.288   4.198   5.162
 3966SOL    HW212798   6.270   4.360   5.154
 3967SOL     OW12799   1.216   5.615   6.829
 3967SOL    HW112800   1.220   5.684   6.901
 3967SOL    HW212801   1.298   5.558   6.833
 3968SOL     OW12802   5.645   0.443   1.674
 3968SOL    HW112803   5.675   0.532   1.709
 3968SOL    HW212804   5.576   0.404   1.735
 3969SOL     OW12805   0.405   5.918   1.915
 3969SOL    HW112806   0.485   5.864   1.940
 3969SOL    HW212807   0.407   5.936   1.817
 3970SOL     OW12808   4.654   4.583   3.857
 3970SOL    HW112809   4.606   4.651   3.913
 3970SOL    HW212810   4.752   4.589   3.874
 3971SOL     OW12811   1.744   6.052   3.661
 3971SOL    HW112812   1.810   6.080   3.731
 3971SOL    HW212813   1.785   6.063   3.570
 3972SOL     OW12814   1.300   0.017   0.449
 3972SOL    HW112815   1.212   0.064   0.463
 3972SOL    HW212816   1.364   0.046   0.520
 3973SOL     OW12817   3.631   3.224   2.924
 3973SOL    HW112818   3.603   3.251   2.832
 3973SOL    HW212819   3.578   3.274   2.991
 3974SOL     OW12820   6.210   1.009   6.569
 3974SOL    HW112821   6.147   0.969   6.501
 3974SOL    HW212822   6.185   0.976   6.660
 3975SOL     OW12823   6.377   6.796   5.758
 3975SOL    HW112824   6.300   6.785   5.820
 3975SOL    HW212825   6.449   6.848   5.805
 3976SOL     OW12826   0.962   3.280   6.591
 3976SOL    HW112827   0.885   3.231   6.633
 3976SOL    HW212828   1.009   3.335   6.660
 3977SOL     OW12829   4.147   6.735   6.296
 3977SOL    HW112830   4.065   6.709   6.244
 3977SOL    HW212831   4.120   6.793   6.373
 3978SOL     OW12832   5.928   3.351   6.770
 3978SOL    HW112833   5.968   3.362   6.861
 3978SOL    HW212834   5.883   3.437   6.743
 3979SOL     OW12835   1.476   6.979   3.005
 3979SOL    HW112836   1.448   6.906   2.942
 3979SOL    HW212837   1.440   6.961   3.096
 3980SOL     OW12838   4.968   3.441   4.982
 3980SOL    HW112839   5.047   3.502   4.979
 3980SOL    HW212840   4.888   3.492   5.015
 3981SOL     OW12841   6.210   1.649   5.566
 3981SOL    HW112842   6.228   1.660   5.468
 3981SOL    HW212843   6.294   1.667   5.617
 3982SOL     OW12844   3.878   1.527   3.770
 3982SOL    HW112845   3.944   1.596   3.800
 3982SOL    HW212846   3.870   1.456   3.839
 3983SOL     OW12847   3.760   6.720   3.791
 3983SOL    HW112848   3.690   6.730   3.861
 3983SOL    HW212849   3.717   6.695   3.704
 3984SOL     OW12850   1.119   6.692   1.771
 3984SOL    HW112851   1.198   6.748   1.796
 3984SOL    HW212852   1.151   6.611   1.721
 3985SOL     OW12853   1.625   3.794   2.010
 3985SOL    HW112854   1.594   3.767   2.101
 3985SOL    HW212855   1.724   3.786   2.004
 3986SOL     OW12856   1.110   3.035   2.258
 3986SOL    HW112857   1.120   2.974   2.179
 3986SOL    HW212858   1.044   3.108   2.236
 3987SOL     OW12859   2.839   4.914   6.632
 3987SOL    HW112860   2.811   4.859   6.554
 3987SOL    HW212861   2.814   5.010   6.615
 3988SOL     OW12862   4.313   2.328   0.039
 3988SOL    HW112863   4.234   2.306   0.096
 3988SOL    HW212864   4.370   2.396   0.085
 3989SOL     OW12865   4.289   1.169   6.455
 3989SOL    HW112866   4.379   1.134   6.479
 3989SOL    HW212867   4.221   1.132   6.518
 3990SOL     OW12868   1.142   3.023   3.793
 3990SOL    HW112869   1.147   3.035   3.892
 3990SOL    HW212870   1.114   2.929   3.772
 3991SOL     OW12871   6.947   1.619   4.594
 3991SOL    HW112872   6.865   1.675   4.589
 3991SOL    HW212873   6.922   1.522   4.597
 3992SOL     OW12874   5.104   4.085   6.121
 3992SOL    HW112875   5.094   4.076   6.220
 3992SOL    HW212876   5.202   4.086   6.097
 3993SOL     OW12877   1.794   1.436   3.345
 3993SOL    HW112878   1.724   1.501   3.374
 3993SOL    HW212879   1.780   1.413   3.248
 3994SOL     OW12880   2.564   1.983   3.880
 3994SOL    HW112881   2.642   1.986   3.818
 3994SOL    HW212882   2.535   2.077   3.901
 3995SOL     OW12883   1.559   3.742   2.288
 3995SOL    HW112884   1.618   3.665   2.312
 3995SOL    HW212885   1.589   3.824   2.337
 3996SOL     OW12886   5.449   6.980   3.102
 3996SOL    HW112887   5.402   0.045   3.105
 3996SOL    HW212888   5.444   6.936   3.192
 3997SOL     OW12889   5.577   3.520   2.905
 3997SOL    HW112890   5.621   3.602   2.869
 3997SOL    HW212891   5.628   3.439   2.875
 3998SOL     OW12892   6.539   2.538   3.189
 3998SOL    HW112893   6.534   2.456   3.246
 3998SOL    HW212894   6.595   2.520   3.108
 3999SOL     OW12895   5.408   2.493   1.293
 3999SOL    HW112896   5.354   2.512   1.375
 3999SOL    HW212897   5.409   2.574   1.234
 4000SOL     OW12898   3.295   5.665   2.471
 4000SOL    HW112899   3.305   5.718   2.387
 4000SOL    HW212900   3.242   5.717   2.538
 4001SOL     OW12901   1.868   4.482   4.699
 4001SOL    HW112902   1.839   4.386   4.699
 4001SOL    HW212903   1.963   4.488   4.730
 4002SOL     OW12904   3.633   3.804   3.802
 4002SOL    HW112905   3.561   3.818   3.871
 4002SOL    HW212906   3.603   3.736   3.736
 4003SOL     OW12907   3.154   1.097   5.241
 4003SOL    HW112908   3.079   1.133   5.185
 4003SOL    HW212909   3.145   0.997   5.247
 4004SOL     OW12910   0.963   4.027   3.405
 4004SOL    HW112911   0.912   4.017   3.320
 4004SOL    HW212912   0.931   3.958   3.471
 4005SOL     OW12913   5.362   3.214   1.087
 4005SOL    HW112914   5.357   3.261   0.999
 4005SOL    HW212915   5.270   3.206   1.126
 4006SOL     OW12916   5.126   5.164   3.694
 4006SOL    HW112917   5.117   5.071   3.730
 4006SOL    HW212918   5.048   5.219   3.725
 4007SOL     OW12919   6.739   1.392   3.231
 4007SOL    HW112920   6.704   1.420   3.141
 4007SOL    HW212921   6.831   1.429   3.243
 4008SOL     OW12922   3.171   0.147   1.053
 4008SOL    HW112923   3.084   0.181   1.019
 4008SOL    HW212924   3.239   0.221   1.049
 4009SOL     OW12925   4.285   1.889   0.747
 4009SOL    HW112926   4.212   1.846   0.800
 4009SOL    HW212927   4.351   1.932   0.808
 4010SOL     OW12928   2.460   5.296   1.685
 4010SOL    HW112929   2.450   5.278   1.783
 4010SOL    HW212930   2.482   5.392   1.671
 4011SOL     OW12931   5.610   5.963   6.824
 4011SOL    HW112932   5.706   5.935   6.826
 4011SOL    HW212933   5.552   5.881   6.825
 4012SOL     OW12934   4.104   0.135   2.378
 4012SOL    HW112935   4.029   0.070   2.369
 4012SOL    HW212936   4.129   0.144   2.474
 4013SOL     OW12937   0.417   1.293   6.362
 4013SOL    HW112938   0.427   1.261   6.267
 4013SOL    HW212939   0.351   1.235   6.409
 4014SOL     OW12940   2.962   4.934   2.617
 4014SOL    HW112941   3.059   4.930   2.639
 4014SOL    HW212942   2.946   5.006   2.549
 4015SOL     OW12943   3.832   4.612   6.089
 4015SOL    HW112944   3.747   4.608   6.038
 4015SOL    HW212945   3.895   4.676   6.046
 4016SOL     OW12946   4.280   5.879   5.930
 4016SOL    HW112947   4.354   5.872   5.996
 4016SOL    HW212948   4.317   5.886   5.837
 4017SOL     OW12949   0.511   4.836   6.066
 4017SOL    HW112950   0.526   4.796   5.976
 4017SOL    HW212951   0.599   4.853   6.111
 4018SOL     OW12952   4.462   6.368   1.808
 4018SOL    HW112953   4.527   6.423   1.756
 4018SOL    HW212954   4.494   6.273   1.811
 4019SOL     OW12955   5.263   3.276   3.483
 4019SOL    HW112956   5.349   3.238   3.449
 4019SOL    HW212957   5.259   3.264   3.582
 4020SOL     OW12958   6.356   4.578   4.016
 4020SOL    HW112959   6.280   4.514   4.002
 4020SOL    HW212960   6.403   4.555   4.101
 4021SOL     OW12961   3.707   3.569   6.074
 4021SOL    HW112962   3.691   3.516   5.990
 4021SOL    HW212963   3.699   3.666   6.053
 4022SOL     OW12964   2.612   0.544   0.615
 4022SOL    HW112965   2.554   0.596   0.553
 4022SOL    HW212966   2.681   0.494   0.563
 4023SOL     OW12967   0.644   2.440   5.356
 4023SOL    HW112968   0.663   2.342   5.371
 4023SOL    HW212969   0.620   2.454   5.260
 4024SOL     OW12970   0.679   4.761   4.206
 4024SOL    HW112971   0.724   4.849   4.189
 4024SOL    HW212972   0.634   4.763   4.295
 4025SOL     OW12973   0.672   6.224   4.305
 4025SOL    HW112974   0.607   6.294   4.273
 4025SOL    HW212975   0.763   6.265   4.312
 4026SOL     OW12976   6.532   6.184   3.503
 4026SOL    HW112977   6.449   6.127   3.501
 4026SOL    HW212978   6.542   6.223   3.594
 4027SOL     OW12979   2.450   3.723   5.561
 4027SOL    HW112980   2.426   3.717   5.658
 4027SOL    HW212981   2.509   3.647   5.537
 4028SOL     OW12982   4.712   1.629   2.541
 4028SOL    HW112983   4.737   1.721   2.509
 4028SOL    HW212984   4.793   1.582   2.576
 4029SOL     OW12985   2.232   5.494   6.106
 4029SOL    HW112986   2.158   5.500   6.173
 4029SOL    HW212987   2.282   5.409   6.120
 4030SOL     OW12988   0.557   0.945   2.928
 4030SOL    HW112989   0.608   0.919   2.846
 4030SOL    HW212990   0.565   1.044   2.942
 4031SOL     OW12991   5.432   6.944   1.196
 4031SOL    HW112992   5.394   6.853   1.213
 4031SOL    HW212993   5.366   7.013   1.226
 4032SOL     OW12994   6.337   0.348   1.300
 4032SOL    HW112995   6.431   0.360   1.267
 4032SOL    HW212996   6.301   0.435   1.333
 4033SOL     OW12997   2.754   2.295   2.831
 4033SOL    HW112998   2.739   2.289   2.733
 4033SOL    HW212999   2.847   2.265   2.853
 4034SOL     OW13000   0.092   3.389   5.040
 4034SOL    HW113001   0.181   3.421   5.009
 4034SOL    HW213002   0.104   3.318   5.110
 4035SOL     OW13003   5.929   1.763   1.518
 4035SOL    HW113004   6.027   1.786   1.522
 4035SOL    HW213005   5.878   1.826   1.576
 4036SOL     OW13006   2.688   5.319   3.802
 4036SOL    HW113007   2.748   5.297   3.879
 4036SOL    HW213008   2.704   5.414   3.774
 4037SOL     OW13009   2.210   0.929   5.672
 4037SOL    HW113010   2.189   0.955   5.578
 4037SOL    HW213011   2.191   0.832   5.685
 4038SOL     OW13012   3.590   4.605   5.930
 4038SOL    HW113013   3.578   4.510   5.900
 4038SOL    HW213014   3.535   4.622   6.012
 4039SOL     OW13015   6.183   4.581   1.575
 4039SOL    HW113016   6.153   4.498   1.529
 4039SOL    HW213017   6.138   4.660   1.535
 4040SOL     OW13018   3.504   5.406   5.562
 4040SOL    HW113019   3.551   5.325   5.528
 4040SOL    HW213020   3.562   5.487   5.549
 4041SOL     OW13021   1.952   6.132   1.089
 4041SOL    HW113022   2.003   6.217   1.077
 4041SOL    HW213023   2.000   6.073   1.154
 4042SOL     OW13024   6.332   0.281   3.868
 4042SOL    HW113025   6.240   0.319   3.862
 4042SOL    HW213026   6.386   0.333   3.935
 4043SOL     OW13027   5.463   3.483   6.616
 4043SOL    HW113028   5.464   3.482   6.716
 4043SOL    HW213029   5.521   3.558   6.582
 4044SOL     OW13030   4.088   5.305   3.569
 4044SOL    HW113031   4.122   5.243   3.498
 4044SOL    HW213032   4.058   5.252   3.648
 4045SOL     OW13033   5.071   0.156   5.894
 4045SOL    HW113034   5.060   0.212   5.975
 4045SOL    HW213035   5.014   0.191   5.820
 4046SOL     OW13036   0.027   1.611   3.074
 4046SOL    HW113037   0.036   1.528   3.129
 4046SOL    HW213038   0.112   1.628   3.024
 4047SOL     OW13039   2.704   2.949   6.602
 4047SOL    HW113040   2.707   3.022   6.534
 4047SOL    HW213041   2.633   2.969   6.670
 4048SOL     OW13042   4.955   1.253   1.985
 4048SOL    HW113043   4.986   1.207   1.902
 4048SOL    HW213044   4.971   1.351   1.976
 4049SOL     OW13045   4.249   5.374   6.304
 4049SOL    HW113046   4.156   5.367   6.267
 4049SOL    HW213047   4.264   5.466   6.339
 4050SOL     OW13048   0.215   5.331   2.744
 4050SOL    HW113049   0.222   5.410   2.683
 4050SOL    HW213050   0.169   5.256   2.697
 4051SOL     OW13051   5.203   1.349   6.130
 4051SOL    HW113052   5.184   1.419   6.061
 4051SOL    HW213053   5.132   1.353   6.201
 4052SOL     OW13054   6.191   1.850   3.424
 4052SOL    HW113055   6.288   1.869   3.437
 4052SOL    HW213056   6.139   1.934   3.443
 4053SOL     OW13057   1.441   5.594   5.148
 4053SOL    HW113058   1.441   5.589   5.048
 4053SOL    HW213059   1.454   5.689   5.176
 4054SOL     OW13060   4.702   4.222   0.938
 4054SOL    HW113061   4.693   4.313   0.979
 4054SOL    HW213062   4.793   4.211   0.899
 4055SOL     OW13063   1.427   3.862   1.844
 4055SOL    HW113064   1.503   3.841   1.906
 4055SOL    HW213065   1.420   3.961   1.832
 4056SOL     OW13066   4.822   3.280   0.855
 4056SOL    HW113067   4.853   3.209   0.917
 4056SOL    HW213068   4.848   3.370   0.891
 4057SOL     OW13069   6.382   3.736   6.199
 4057SOL    HW113070   6.440   3.802   6.152
 4057SOL    HW213071   6.397   3.645   6.161
 4058SOL     OW13072   2.682   5.882   5.354
 4058SOL    HW113073   2.720   5.974   5.368
 4058SOL    HW213074   2.706   5.824   5.431
 4059SOL     OW13075   0.877   1.597   3.897
 4059SOL    HW113076   0.975   1.611   3.890
 4059SOL    HW213077   0.848   1.530   3.828
 4060SOL     OW13078   6.438   5.607   5.195
 4060SOL    HW113079   6.443   5.570   5.102
 4060SOL    HW213080   6.528   5.602   5.238
 4061SOL     OW13081   2.538   5.358   2.217
 4061SOL    HW113082   2.499   5.405   2.138
 4061SOL    HW213083   2.494   5.269   2.228
 4062SOL     OW13084   2.161   1.784   1.924
 4062SOL    HW113085   2.250   1.770   1.881
 4062SOL    HW213086   2.162   1.747   2.017
 4063SOL     OW13087   5.630   1.062   1.083
 4063SOL    HW113088   5.542   1.014   1.077
 4063SOL    HW213089   5.618   1.156   1.051
 4064SOL     OW13090   2.299   1.946   4.757
 4064SOL    HW113091   2.221   1.967   4.817
 4064SOL    HW213092   2.274   1.964   4.662
 4065SOL     OW13093   1.829   6.720   0.439
 4065SOL    HW113094   1.928   6.706   0.431
 4065SOL    HW213095   1.806   6.815   0.421
 4066SOL     OW13096   0.342   4.551   3.457
 4066SOL    HW113097   0.441   4.552   3.466
 4066SOL    HW213098   0.301   4.604   3.531
 4067SOL     OW13099   5.798   4.470   2.189
 4067SOL    HW113100   5.893   4.462   2.219
 4067SOL    HW213101   5.762   4.559   2.216
 4068SOL     OW13102   1.914   2.399   5.396
 4068SOL    HW113103   1.969   2.358   5.324
 4068SOL    HW213104   1.957   2.381   5.485
 4069SOL     OW13105   4.125   0.323   6.620
 4069SOL    HW113106   4.071   0.239   6.628
 4069SOL    HW213107   4.095   0.388   6.690
 4070SOL     OW13108   1.498   3.107   3.343
 4070SOL    HW113109   1.408   3.108   3.386
 4070SOL    HW213110   1.540   3.197   3.351
 4071SOL     OW13111   0.684   0.441   3.999
 4071SOL    HW113112   0.634   0.454   3.914
 4071SOL    HW213113   0.645   0.362   4.048
 4072SOL     OW13114   1.254   5.782   4.132
 4072SOL    HW113115   1.180   5.837   4.092
 4072SOL    HW213116   1.302   5.836   4.201
 4073SOL     OW13117   2.620   5.508   0.559
 4073SOL    HW113118   2.605   5.454   0.641
 4073SOL    HW213119   2.664   5.451   0.489
 4074SOL     OW13120   1.291   5.339   2.312
 4074SOL    HW113121   1.230   5.260   2.319
 4074SOL    HW213122   1.302   5.381   2.402
 4075SOL     OW13123   4.711   0.240   0.507
 4075SOL    HW113124   4.688   0.321   0.562
 4075SOL    HW213125   4.764   0.177   0.563
 4076SOL     OW13126   3.161   3.265   5.458
 4076SOL    HW113127   3.104   3.250   5.377
 4076SOL    HW213128   3.243   3.207   5.452
 4077SOL     OW13129   4.141   2.130   1.521
 4077SOL    HW113130   4.214   2.191   1.552
 4077SOL    HW213131   4.082   2.107   1.599
 4078SOL     OW13132   2.966   4.830   3.097
 4078SOL    HW113133   2.934   4.817   3.003
 4078SOL    HW213134   3.062   4.855   3.096
 4079SOL     OW13135   1.247   2.688   3.995
 4079SOL    HW113136   1.281   2.778   3.967
 4079SOL    HW213137   1.277   2.619   3.929
 4080SOL     OW13138   5.194   1.768   4.924
 4080SOL    HW113139   5.117   1.745   4.983
 4080SOL    HW213140   5.165   1.837   4.858
 4081SOL     OW13141   1.494   3.189   3.950
 4081SOL    HW113142   1.560   3.136   3.897
 4081SOL    HW213143   1.536   3.274   3.982
 4082SOL     OW13144   1.833   2.974   1.130
 4082SOL    HW113145   1.793   3.018   1.210
 4082SOL    HW213146   1.761   2.927   1.078
 4083SOL     OW13147   5.592   2.768   3.636
 4083SOL    HW113148   5.565   2.704   3.707
 4083SOL    HW213149   5.607   2.858   3.676
 4084SOL     OW13150   6.262   2.131   4.419
 4084SOL    HW113151   6.225   2.057   4.475
 4084SOL    HW213152   6.217   2.130   4.330
 4085SOL     OW13153   3.875   5.901   0.658
 4085SOL    HW113154   3.925   5.924   0.575
 4085SOL    HW213155   3.917   5.822   0.701
 4086SOL     OW13156   1.888   5.785   1.635
 4086SOL    HW113157   1.905   5.805   1.538
 4086SOL    HW213158   1.804   5.830   1.664
 4087SOL     OW13159   2.343   1.916   2.982
 4087SOL    HW113160   2.393   1.867   2.911
 4087SOL    HW213161   2.406   1.947   3.052
 4088SOL     OW13162   6.108   2.028   1.709
 4088SOL    HW113163   6.158   2.061   1.629
 4088SOL    HW213164   6.173   1.996   1.778
 4089SOL     OW13165   0.939   0.681   3.537
 4089SOL    HW113166   0.894   0.770   3.537
 4089SOL    HW213167   0.939   0.644   3.444
 4090SOL     OW13168   2.745   4.154   6.509
 4090SOL    HW113169   2.809   4.216   6.553
 4090SOL    HW213170   2.778   4.130   6.417
 4091SOL     OW13171   5.305   6.936   0.243
 4091SOL    HW113172   5.325   6.854   0.189
 4091SOL    HW213173   5.387   6.964   0.293
 4092SOL     OW13174   0.124   3.027   4.951
 4092SOL    HW113175   0.099   2.941   4.908
 4092SOL    HW213176   0.067   3.101   4.916
 4093SOL     OW13177   5.654   0.925   3.601
 4093SOL    HW113178   5.621   0.997   3.662
 4093SOL    HW213179   5.648   0.837   3.647
 4094SOL     OW13180   1.924   4.368   5.074
 4094SOL    HW113181   1.997   4.344   5.011
 4094SOL    HW213182   1.931   4.312   5.157
 4095SOL     OW13183   1.089   3.178   5.884
 4095SOL    HW113184   1.137   3.234   5.951
 4095SOL    HW213185   1.153   3.114   5.842
 4096SOL     OW13186   4.711   5.078   0.290
 4096SOL    HW113187   4.805   5.078   0.324
 4096SOL    HW213188   4.653   5.020   0.348
 4097SOL     OW13189   3.247   3.665   5.972
 4097SOL    HW113190   3.231   3.668   5.873
 4097SOL    HW213191   3.205   3.583   6.011
 4098SOL     OW13192   0.383   2.861   2.771
 4098SOL    HW113193   0.328   2.898   2.846
 4098SOL    HW213194   0.478   2.889   2.782
 4099SOL     OW13195   2.905   6.295   1.678
 4099SOL    HW113196   2.956   6.381   1.670
 4099SOL    HW213197   2.968   6.218   1.671
 4100SOL     OW13198   4.820   6.152   3.831
 4100SOL    HW113199   4.780   6.061   3.817
 4100SOL    HW213200   4.749   6.221   3.825
 4101SOL     OW13201   5.833   1.450   7.008
 4101SOL    HW113202   5.867   1.388   0.056
 4101SOL    HW213203   5.737   1.429   6.989
 4102SOL     OW13204   6.126   0.446   0.881
 4102SOL    HW113205   6.132   0.347   0.898
 4102SOL    HW213206   6.030   0.472   0.869
 4103SOL     OW13207   0.479   0.711   1.942
 4103SOL    HW113208   0.436   0.696   2.031
 4103SOL    HW213209   0.437   0.651   1.874
 4104SOL     OW13210   1.504   4.013   2.387
 4104SOL    HW113211   1.484   4.064   2.303
 4104SOL    HW213212   1.448   4.049   2.461
 4105SOL     OW13213   4.260   5.539   0.448
 4105SOL    HW113214   4.309   5.542   0.360
 4105SOL    HW213215   4.197   5.615   0.454
 4106SOL     OW13216   0.076   3.682   4.960
 4106SOL    HW113217   7.017   3.642   5.001
 4106SOL    HW213218   0.156   3.630   4.990
 4107SOL     OW13219   0.089   6.100   1.033
 4107SOL    HW113220   0.132   6.045   0.961
 4107SOL    HW213221   0.073   6.193   1.000
 4108SOL     OW13222   0.408   4.456   6.537
 4108SOL    HW113223   0.402   4.356   6.531
 4108SOL    HW213224   0.417   4.495   6.446
 4109SOL     OW13225   3.873   6.622   4.037
 4109SOL    HW113226   3.912   6.711   4.064
 4109SOL    HW213227   3.827   6.631   3.949
 4110SOL     OW13228   4.127   3.536   6.001
 4110SOL    HW113229   4.068   3.504   6.076
 4110SOL    HW213230   4.071   3.572   5.927
 4111SOL     OW13231   3.947   2.879   6.834
 4111SOL    HW113232   3.900   2.879   6.922
 4111SOL    HW213233   3.887   2.843   6.763
 4112SOL     OW13234   4.417   1.242   4.952
 4112SOL    HW113235   4.408   1.189   4.868
 4112SOL    HW213236   4.413   1.339   4.931
 4113SOL     OW13237   3.227   5.814   5.724
 4113SOL    HW113238   3.167   5.847   5.798
 4113SOL    HW213239   3.253   5.719   5.743
 4114SOL     OW13240   3.611   1.027   4.529
 4114SOL    HW113241   3.659   0.960   4.586
 4114SOL    HW213242   3.599   0.990   4.437
 4115SOL     OW13243   4.998   6.003   1.826
 4115SOL    HW113244   4.991   5.960   1.736
 4115SOL    HW213245   5.030   5.935   1.892
 4116SOL     OW13246   3.982   2.013   1.713
 4116SOL    HW113247   3.971   2.006   1.812
 4116SOL    HW213248   3.893   2.004   1.668
 4117SOL     OW13249   1.012   5.345   0.907
 4117SOL    HW113250   1.081   5.400   0.860
 4117SOL    HW213251   0.949   5.305   0.840
 4118SOL     OW13252   0.934   6.810   1.027
 4118SOL    HW113253   1.028   6.800   1.061
 4118SOL    HW213254   0.894   6.720   1.013
 4119SOL     OW13255   3.356   1.407   4.287
 4119SOL    HW113256   3.298   1.388   4.208
 4119SOL    HW213257   3.420   1.481   4.265
 4120SOL     OW13258   4.021   6.535   2.069
 4120SOL    HW113259   3.943   6.571   2.120
 4120SOL    HW213260   4.077   6.611   2.035
 4121SOL     OW13261   6.519   2.340   4.741
 4121SOL    HW113262   6.496   2.410   4.809
 4121SOL    HW213263   6.594   2.373   4.684
 4122SOL     OW13264   0.551   6.639   5.025
 4122SOL    HW113265   0.483   6.604   5.088
 4122SOL    HW213266   0.635   6.661   5.076
 4123SOL     OW13267   5.792   4.096   6.283
 4123SOL    HW113268   5.804   4.051   6.194
 4123SOL    HW213269   5.820   4.033   6.356
 4124SOL     OW13270   5.506   6.647   3.846
 4124SOL    HW113271   5.573   6.714   3.879
 4124SOL    HW213272   5.553   6.566   3.813
 4125SOL     OW13273   4.796   1.013   1.632
 4125SOL    HW113274   4.726   0.953   1.593
 4125SOL    HW213275   4.866   1.032   1.562
 4126SOL     OW13276   1.541   4.152   4.583
 4126SOL    HW113277   1.531   4.208   4.500
 4126SOL    HW213278   1.620   4.185   4.635
 4127SOL     OW13279   5.299   3.478   4.890
 4127SOL    HW113280   5.383   3.522   4.858
 4127SOL    HW213281   5.322   3.395   4.941
 4128SOL     OW13282   1.836   3.786   2.528
 4128SOL    HW113283   1.754   3.733   2.547
 4128SOL    HW213284   1.904   3.729   2.482
 4129SOL     OW13285   5.611   1.855   6.460
 4129SOL    HW113286   5.518   1.858   6.498
 4129SOL    HW213287   5.678   1.851   6.533
 4130SOL     OW13288   6.777   3.768   6.022
 4130SOL    HW113289   6.768   3.681   6.069
 4130SOL    HW213290   6.702   3.780   5.957
 4131SOL     OW13291   7.022   5.809   3.882
 4131SOL    HW113292   0.059   5.741   3.924
 4131SOL    HW213293   0.041   5.899   3.888
 4132SOL     OW13294   5.570   3.189   3.190
 4132SOL    HW113295   5.616   3.277   3.201
 4132SOL    HW213296   5.543   3.153   3.279
 4133SOL     OW13297   3.011   0.522   0.495
 4133SOL    HW113298   3.079   0.449   0.505
 4133SOL    HW213299   3.001   0.569   0.583
 4134SOL     OW13300   2.148   2.049   0.541
 4134SOL    HW113301   2.186   2.104   0.616
 4134SOL    HW213302   2.049   2.043   0.552
 4135SOL     OW13303   1.945   0.476   2.382
 4135SOL    HW113304   1.976   0.382   2.394
 4135SOL    HW213305   1.986   0.514   2.299
 4136SOL     OW13306   0.497   2.273   3.863
 4136SOL    HW113307   0.590   2.251   3.891
 4136SOL    HW213308   0.437   2.274   3.943
 4137SOL     OW13309   3.486   4.177   0.178
 4137SOL    HW113310   3.408   4.224   0.220
 4137SOL    HW213311   3.469   4.079   0.175
 4138SOL     OW13312   4.695   4.955   4.611
 4138SOL    HW113313   4.691   4.877   4.549
 4138SOL    HW213314   4.737   4.927   4.697
 4139SOL     OW13315   1.911   2.194   6.212
 4139SOL    HW113316   1.844   2.198   6.286
 4139SOL    HW213317   1.906   2.279   6.159
 4140SOL     OW13318   3.811   1.283   5.244
 4140SOL    HW113319   3.805   1.382   5.232
 4140SOL    HW213320   3.831   1.263   5.340
 4141SOL     OW13321   5.152   5.270   1.796
 4141SOL    HW113322   5.207   5.305   1.720
 4141SOL    HW213323   5.056   5.295   1.783
 4142SOL     OW13324   6.543   5.069   0.847
 4142SOL    HW113325   6.578   5.091   0.938
 4142SOL    HW213326   6.614   5.022   0.794
 4143SOL     OW13327   6.712   2.914   0.283
 4143SOL    HW113328   6.711   3.008   0.319
 4143SOL    HW213329   6.706   2.917   0.183
 4144SOL     OW13330   5.734   1.347   1.529
 4144SOL    HW113331   5.775   1.403   1.600
 4144SOL    HW213332   5.805   1.315   1.466
 4145SOL     OW13333   6.969   6.383   1.466
 4145SOL    HW113334   6.947   6.391   1.368
 4145SOL    HW213335   6.983   6.474   1.505
 4146SOL     OW13336   5.580   0.292   6.391
 4146SOL    HW113337   5.633   0.266   6.472
 4146SOL    HW213338   5.483   0.285   6.411
 4147SOL     OW13339   3.177   1.935   6.373
 4147SOL    HW113340   3.248   1.873   6.406
 4147SOL    HW213341   3.125   1.971   6.450
 4148SOL     OW13342   0.596   0.877   4.026
 4148SOL    HW113343   0.519   0.941   4.028
 4148SOL    HW213344   0.599   0.831   3.937
 4149SOL     OW13345   6.178   2.628   0.552
 4149SOL    HW113346   6.167   2.724   0.525
 4149SOL    HW213347   6.206   2.574   0.472
 4150SOL     OW13348   5.505   0.510   6.256
 4150SOL    HW113349   5.429   0.502   6.191
 4150SOL    HW213350   5.536   0.419   6.282
 4151SOL     OW13351   6.005   6.204   0.154
 4151SOL    HW113352   5.995   6.146   0.234
 4151SOL    HW213353   5.953   6.166   0.078
 4152SOL     OW13354   3.609   4.978   2.206
 4152SOL    HW113355   3.649   4.926   2.282
 4152SOL    HW213356   3.581   4.915   2.134
 4153SOL     OW13357   5.552   5.389   6.431
 4153SOL    HW113358   5.650   5.378   6.452
 4153SOL    HW213359   5.543   5.425   6.338
 4154SOL     OW13360   6.614   3.731   4.959
 4154SOL    HW113361   6.692   3.679   4.996
 4154SOL    HW213362   6.551   3.668   4.914
 4155SOL     OW13363   0.882   3.257   2.632
 4155SOL    HW113364   0.965   3.270   2.579
 4155SOL    HW213365   0.828   3.182   2.592
 4156SOL     OW13366   5.867   6.972   5.405
 4156SOL    HW113367   5.854   6.873   5.413
 4156SOL    HW213368   5.951   6.991   5.354
 4157SOL     OW13369   3.966   0.291   4.189
 4157SOL    HW113370   3.877   0.321   4.225
 4157SOL    HW213371   4.028   0.369   4.184
 4158SOL     OW13372   0.483   5.496   2.991
 4158SOL    HW113373   0.420   5.557   3.039
 4158SOL    HW213374   0.569   5.491   3.041
 4159SOL     OW13375   1.665   2.909   3.526
 4159SOL    HW113376   1.571   2.928   3.555
 4159SOL    HW213377   1.716   2.994   3.522
 4160SOL     OW13378   6.499   0.519   0.936
 4160SOL    HW113379   6.483   0.603   0.885
 4160SOL    HW213380   6.433   0.512   1.011
 4161SOL     OW13381   1.361   0.489   6.341
 4161SOL    HW113382   1.344   0.442   6.428
 4161SOL    HW213383   1.295   0.457   6.273
 4162SOL     OW13384   6.057   0.135   4.812
 4162SOL    HW113385   5.966   0.107   4.844
 4162SOL    HW213386   6.064   0.234   4.816
 4163SOL     OW13387   5.767   1.316   3.304
 4163SOL    HW113388   5.696   1.285   3.240
 4163SOL    HW213389   5.742   1.406   3.340
 4164SOL     OW13390   1.597   0.515   6.210
 4164SOL    HW113391   1.526   0.507   6.279
 4164SOL    HW213392   1.581   0.598   6.156
 4165SOL     OW13393   4.151   6.449   0.965
 4165SOL    HW113394   4.123   6.543   0.945
 4165SOL    HW213395   4.104   6.418   1.048
 4166SOL     OW13396   4.005   2.822   0.611
 4166SOL    HW113397   4.023   2.810   0.708
 4166SOL    HW213398   3.966   2.738   0.573
 4167SOL     OW13399   2.360   2.461   1.493
 4167SOL    HW113400   2.420   2.529   1.450
 4167SOL    HW213401   2.378   2.460   1.592
 4168SOL     OW13402   0.293   5.290   1.576
 4168SOL    HW113403   0.300   5.367   1.512
 4168SOL    HW213404   0.350   5.215   1.543
 4169SOL     OW13405   4.903   3.739   4.220
 4169SOL    HW113406   4.978   3.729   4.286
 4169SOL    HW213407   4.875   3.649   4.188
 4170SOL     OW13408   4.057   2.475   5.620
 4170SOL    HW113409   4.106   2.451   5.537
 4170SOL    HW213410   4.105   2.550   5.666
 4171SOL     OW13411   5.552   3.604   1.329
 4171SOL    HW113412   5.544   3.510   1.295
 4171SOL    HW213413   5.648   3.633   1.325
 4172SOL     OW13414   6.967   1.800   0.332
 4172SOL    HW113415   7.003   1.808   0.239
 4172SOL    HW213416   0.019   1.804   0.397
 4173SOL     OW13417   5.936   2.974   5.292
 4173SOL    HW113418   5.947   3.073   5.298
 4173SOL    HW213419   5.884   2.941   5.371
 4174SOL     OW13420   5.028   0.140   3.871
 4174SOL    HW113421   4.967   0.105   3.942
 4174SOL    HW213422   5.091   0.068   3.842
 4175SOL     OW13423   3.315   0.161   3.782
 4175SOL    HW113424   3.240   0.130   3.723
 4175SOL    HW213425   3.400   0.165   3.729
 4176SOL     OW13426   4.707   0.332   2.504
 4176SOL    HW113427   4.657   0.248   2.484
 4176SOL    HW213428   4.645   0.410   2.500
 4177SOL     OW13429   0.212   5.719   4.102
 4177SOL    HW113430   0.300   5.715   4.054
 4177SOL    HW213431   0.218   5.784   4.178
 4178SOL     OW13432   3.019   1.681   6.124
 4178SOL    HW113433   3.000   1.608   6.058
 4178SOL    HW213434   2.987   1.653   6.214
 4179SOL     OW13435   5.749   3.442   4.986
 4179SOL    HW113436   5.795   3.443   4.897
 4179SOL    HW213437   5.776   3.522   5.039
 4180SOL     OW13438   5.451   4.206   1.699
 4180SOL    HW113439   5.375   4.255   1.741
 4180SOL    HW213440   5.458   4.114   1.738
 4181SOL     OW13441   1.022   1.710   6.378
 4181SOL    HW113442   1.002   1.791   6.322
 4181SOL    HW213443   1.007   1.628   6.323
 4182SOL     OW13444   0.393   0.426   2.211
 4182SOL    HW113445   0.379   0.408   2.308
 4182SOL    HW213446   0.372   0.522   2.191
 4183SOL     OW13447   2.963   1.535   2.125
 4183SOL    HW113448   2.943   1.606   2.193
 4183SOL    HW213449   3.014   1.575   2.049
 4184SOL     OW13450   3.863   5.316   0.455
 4184SOL    HW113451   3.910   5.349   0.537
 4184SOL    HW213452   3.783   5.262   0.481
 4185SOL     OW13453   0.318   6.779   3.197
 4185SOL    HW113454   0.359   6.749   3.283
 4185SOL    HW213455   0.220   6.760   3.198
 4186SOL     OW13456   2.258   3.935   0.332
 4186SOL    HW113457   2.253   3.992   0.250
 4186SOL    HW213458   2.315   3.980   0.401
 4187SOL     OW13459   3.546   3.288   6.470
 4187SOL    HW113460   3.513   3.369   6.421
 4187SOL    HW213461   3.475   3.257   6.534
 4188SOL     OW13462   4.877   0.066   4.392
 4188SOL    HW113463   4.931   0.096   4.313
 4188SOL    HW213464   4.922   7.012   4.436
 4189SOL     OW13465   2.403   1.429   3.850
 4189SOL    HW113466   2.406   1.508   3.790
 4189SOL    HW213467   2.420   1.458   3.945
 4190SOL     OW13468   3.024   0.407   6.790
 4190SOL    HW113469   3.023   0.382   6.887
 4190SOL    HW213470   3.051   0.327   6.736
 4191SOL     OW13471   6.486   2.967   3.134
 4191SOL    HW113472   6.401   3.005   3.170
 4191SOL    HW213473   6.465   2.896   3.067
 4192SOL     OW13474   5.994   1.263   3.157
 4192SOL    HW113475   5.910   1.258   3.212
 4192SOL    HW213476   6.073   1.257   3.217
 4193SOL     OW13477   2.393   6.717   2.368
 4193SOL    HW113478   2.448   6.796   2.394
 4193SOL    HW213479   2.317   6.706   2.432
 4194SOL     OW13480   6.716   1.828   4.581
 4194SOL    HW113481   6.639   1.843   4.642
 4194SOL    HW213482   6.770   1.911   4.573
 4195SOL     OW13483   5.086   0.458   1.306
 4195SOL    HW113484   5.107   0.555   1.292
 4195SOL    HW213485   5.079   0.439   1.404
 4196SOL     OW13486   5.344   2.756   4.051
 4196SOL    HW113487   5.249   2.732   4.030
 4196SOL    HW213488   5.386   2.684   4.105
 4197SOL     OW13489   5.415   4.453   4.651
 4197SOL    HW113490   5.355   4.398   4.709
 4197SOL    HW213491   5.510   4.429   4.669
 4198SOL     OW13492   5.937   3.749   6.841
 4198SOL    HW113493   5.953   3.726   6.937
 4198SOL    HW213494   5.997   3.824   6.814
 4199SOL     OW13495   2.959   3.707   5.375
 4199SOL    HW113496   2.882   3.768   5.393
 4199SOL    HW213497   3.027   3.754   5.319
 4200SOL     OW13498   2.114   6.851   6.275
 4200SOL    HW113499   2.151   6.910   6.347
 4200SOL    HW213500   2.170   6.768   6.268
 4201SOL     OW13501   6.269   6.901   3.599
 4201SOL    HW113502   6.345   6.848   3.561
 4201SOL    HW213503   6.298   6.945   3.684
 4202SOL     OW13504   5.478   4.796   5.675
 4202SOL    HW113505   5.487   4.896   5.672
 4202SOL    HW213506   5.468   4.760   5.583
 4203SOL     OW13507   5.202   5.356   3.060
 4203SOL    HW113508   5.214   5.353   3.160
 4203SOL    HW213509   5.129   5.421   3.037
 4204SOL     OW13510   3.472   3.324   1.215
 4204SOL    HW113511   3.482   3.380   1.297
 4204SOL    HW213512   3.454   3.229   1.242
 4205SOL     OW13513   2.969   5.211   4.853
 4205SOL    HW113514   2.904   5.204   4.777
 4205SOL    HW213515   2.999   5.119   4.878
 4206SOL     OW13516   5.091   0.236   5.167
 4206SOL    HW113517   5.009   0.178   5.172
 4206SOL    HW213518   5.141   0.215   5.083
 4207SOL     OW13519   1.198   0.777   1.662
 4207SOL    HW113520   1.227   0.847   1.597
 4207SOL    HW213521   1.159   0.700   1.613
 4208SOL     OW13522   1.419   2.684   1.183
 4208SOL    HW113523   1.410   2.617   1.110
 4208SOL    HW213524   1.359   2.762   1.165
 4209SOL     OW13525   2.074   7.011   4.712
 4209SOL    HW113526   2.164   6.981   4.746
 4209SOL    HW213527   2.083   0.017   4.617
 4210SOL     OW13528   3.658   3.347   1.009
 4210SOL    HW113529   3.735   3.286   1.027
 4210SOL    HW213530   3.589   3.335   1.081
 4211SOL     OW13531   4.950   4.432   4.469
 4211SOL    HW113532   4.936   4.340   4.433
 4211SOL    HW213533   4.870   4.459   4.523
 4212SOL     OW13534   5.944   0.748   2.875
 4212SOL    HW113535   6.010   0.677   2.900
 4212SOL    HW213536   5.872   0.753   2.945
 4213SOL     OW13537   1.600   0.668   2.186
 4213SOL    HW113538   1.570   0.678   2.281
 4213SOL    HW213539   1.567   0.747   2.133
 4214SOL     OW13540   0.879   3.333   5.480
 4214SOL    HW113541   0.854   3.236   5.485
 4214SOL    HW213542   0.886   3.361   5.384
 4215SOL     OW13543   0.976   5.626   4.846
 4215SOL    HW113544   1.054   5.611   4.906
 4215SOL    HW213545   0.897   5.575   4.880
 4216SOL     OW13546   1.376   2.543   4.348
 4216SOL    HW113547   1.421   2.628   4.323
 4216SOL    HW213548   1.437   2.466   4.328
 4217SOL     OW13549   0.382   0.423   2.755
 4217SOL    HW113550   0.429   0.483   2.819
 4217SOL    HW213551   0.314   0.369   2.804
 4218SOL     OW13552   4.843   0.546   1.860
 4218SOL    HW113553   4.839   0.573   1.764
 4218SOL    HW213554   4.898   0.613   1.911
 4219SOL     OW13555   4.027   5.224   4.952
 4219SOL    HW113556   4.042   5.186   4.860
 4219SOL    HW213557   4.035   5.323   4.949
 4220SOL     OW13558   6.692   3.463   3.803
 4220SOL    HW113559   6.646   3.465   3.892
 4220SOL    HW213560   6.767   3.529   3.803
 4221SOL     OW13561   5.163   5.359   6.697
 4221SOL    HW113562   5.184   5.356   6.795
 4221SOL    HW213563   5.228   5.300   6.648
 4222SOL     OW13564   5.514   2.272   1.919
 4222SOL    HW113565   5.542   2.220   2.000
 4222SOL    HW213566   5.419   2.302   1.931
 4223SOL     OW13567   3.230   4.078   2.680
 4223SOL    HW113568   3.267   3.985   2.687
 4223SOL    HW213569   3.159   4.081   2.610
 4224SOL     OW13570   4.419   2.446   4.822
 4224SOL    HW113571   4.500   2.493   4.857
 4224SOL    HW213572   4.346   2.448   4.892
 4225SOL     OW13573   6.278   0.445   4.803
 4225SOL    HW113574   6.293   0.436   4.705
 4225SOL    HW213575   6.342   0.387   4.853
 4226SOL     OW13576   0.811   1.767   3.591
 4226SOL    HW113577   0.809   1.713   3.507
 4226SOL    HW213578   0.810   1.705   3.670
 4227SOL     OW13579   3.810   4.564   6.920
 4227SOL    HW113580   3.728   4.534   6.967
 4227SOL    HW213581   3.890   4.547   6.977
 4228SOL     OW13582   6.257   5.605   3.143
 4228SOL    HW113583   6.193   5.646   3.079
 4228SOL    HW213584   6.207   5.555   3.214
 4229SOL     OW13585   4.813   4.725   5.895
 4229SOL    HW113586   4.754   4.721   5.815
 4229SOL    HW213587   4.805   4.815   5.938
 4230SOL     OW13588   3.588   0.871   5.366
 4230SOL    HW113589   3.536   0.918   5.295
 4230SOL    HW213590   3.669   0.926   5.390
 4231SOL     OW13591   4.772   6.823   5.171
 4231SOL    HW113592   4.841   6.860   5.108
 4231SOL    HW213593   4.685   6.870   5.155
 4232SOL     OW13594   1.805   4.918   3.031
 4232SOL    HW113595   1.744   4.883   2.960
 4232SOL    HW213596   1.751   4.955   3.106
 4233SOL     OW13597   6.598   0.003   6.510
 4233SOL    HW113598   6.583   0.023   6.607
 4233SOL    HW213599   6.687   0.040   6.483
 4234SOL     OW13600   3.180   5.151   6.136
 4234SOL    HW113601   3.166   5.084   6.063
 4234SOL    HW213602   3.153   5.241   6.103
 4235SOL     OW13603   6.263   3.863   5.412
 4235SOL    HW113604   6.240   3.941   5.470
 4235SOL    HW213605   6.320   3.893   5.336
 4236SOL     OW13606   0.794   2.919   4.278
 4236SOL    HW113607   0.879   2.870   4.260
 4236SOL    HW213608   0.766   2.903   4.373
 4237SOL     OW13609   5.216   3.680   5.120
 4237SOL    HW113610   5.232   3.678   5.219
 4237SOL    HW213611   5.260   3.601   5.077
 4238SOL     OW13612   4.155   5.205   4.172
 4238SOL    HW113613   4.230   5.270   4.181
 4238SOL    HW213614   4.186   5.125   4.121
 4239SOL     OW13615   4.290   6.775   6.014
 4239SOL    HW113616   4.326   6.681   6.018
 4239SOL    HW213617   4.225   6.788   6.089
 4240SOL     OW13618   2.830   4.686   6.768
 4240SOL    HW113619   2.888   4.624   6.716
 4240SOL    HW213620   2.838   4.779   6.730
 4241SOL     OW13621   4.624   0.478   0.643
 4241SOL    HW113622   4.564   0.502   0.719
 4241SOL    HW213623   4.706   0.534   0.645
 4242SOL     OW13624   2.074   6.979   2.437
 4242SOL    HW113625   2.040   0.049   2.424
 4242SOL    HW213626   2.161   6.983   2.487
 4243SOL     OW13627   0.827   3.692   2.516
 4243SOL    HW113628   0.730   3.670   2.516
 4243SOL    HW213629   0.871   3.650   2.437
 4244SOL     OW13630   4.554   6.717   1.145
 4244SOL    HW113631   4.485   6.789   1.130
 4244SOL    HW213632   4.567   6.665   1.060
 4245SOL     OW13633   6.702   2.985   0.850
 4245SOL    HW113634   6.661   2.939   0.929
 4245SOL    HW213635   6.670   3.080   0.846
 4246SOL     OW13636   5.134   2.153   3.243
 4246SOL    HW113637   5.111   2.242   3.281
 4246SOL    HW213638   5.144   2.087   3.318
 4247SOL     OW13639   2.095   4.909   4.994
 4247SOL    HW113640   2.080   4.810   5.000
 4247SOL    HW213641   2.145   4.929   4.910
 4248SOL     OW13642   1.705   0.866   2.647
 4248SOL    HW113643   1.738   0.823   2.731
 4248SOL    HW213644   1.691   0.963   2.662
 4249SOL     OW13645   0.215   0.786   5.269
 4249SOL    HW113646   0.142   0.849   5.241
 4249SOL    HW213647   0.297   0.804   5.215
 4250SOL     OW13648   6.982   6.145   4.107
 4250SOL    HW113649   6.921   6.178   4.179
 4250SOL    HW213650   0.031   6.090   4.148
 4251SOL     OW13651   6.070   2.063   6.333
 4251SOL    HW113652   6.091   2.156   6.365
 4251SOL    HW213653   6.015   2.016   6.402
 4252SOL     OW13654   6.397   6.244   6.335
 4252SOL    HW113655   6.358   6.176   6.398
 4252SOL    HW213656   6.359   6.334   6.357
 4253SOL     OW13657   4.540   5.428   2.481
 4253SOL    HW113658   4.632   5.404   2.512
 4253SOL    HW213659   4.544   5.516   2.433
 4254SOL     OW13660   1.988   3.063   6.855
 4254SOL    HW113661   2.011   3.102   6.766
 4254SOL    HW213662   2.042   3.108   6.927
 4255SOL     OW13663   0.537   3.750   2.776
 4255SOL    HW113664   0.614   3.811   2.755
 4255SOL    HW213665   0.554   3.702   2.862
 4256SOL     OW13666   0.725   5.092   2.308
 4256SOL    HW113667   0.720   5.177   2.256
 4256SOL    HW213668   0.639   5.042   2.298
 4257SOL     OW13669   6.313   0.605   5.216
 4257SOL    HW113670   6.360   0.541   5.277
 4257SOL    HW213671   6.378   0.638   5.147
 4258SOL     OW13672   4.127   5.765   0.131
 4258SOL    HW113673   4.037   5.722   0.138
 4258SOL    HW213674   4.163   5.783   0.222
 4259SOL     OW13675   0.909   6.771   2.176
 4259SOL    HW113676   0.894   6.685   2.129
 4259SOL    HW213677   0.925   6.754   2.273
 4260SOL     OW13678   5.251   0.128   4.927
 4260SOL    HW113679   5.224   0.118   4.831
 4260SOL    HW213680   5.350   0.128   4.933
 4261SOL     OW13681   1.820   0.036   3.314
 4261SOL    HW113682   1.759   0.103   3.356
 4261SOL    HW213683   1.840   0.063   3.220
 4262SOL     OW13684   1.755   4.332   6.674
 4262SOL    HW113685   1.779   4.235   6.672
 4262SOL    HW213686   1.833   4.384   6.710
 4263SOL     OW13687   3.040   2.207   3.833
 4263SOL    HW113688   2.964   2.249   3.885
 4263SOL    HW213689   3.016   2.205   3.736
 4264SOL     OW13690   5.237   1.385   4.116
 4264SOL    HW113691   5.249   1.477   4.080
 4264SOL    HW213692   5.184   1.330   4.052
 4265SOL     OW13693   3.074   0.923   1.013
 4265SOL    HW113694   3.115   0.860   0.947
 4265SOL    HW213695   3.003   0.876   1.065
 4266SOL     OW13696   1.661   6.716   0.654
 4266SOL    HW113697   1.687   6.640   0.596
 4266SOL    HW213698   1.622   6.789   0.598
 4267SOL     OW13699   1.829   4.209   4.682
 4267SOL    HW113700   1.835   4.166   4.772
 4267SOL    HW213701   1.847   4.140   4.611
 4268SOL     OW13702   1.740   4.764   5.711
 4268SOL    HW113703   1.737   4.752   5.810
 4268SOL    HW213704   1.767   4.678   5.668
 4269SOL     OW13705   2.939   1.907   4.343
 4269SOL    HW113706   2.988   1.879   4.261
 4269SOL    HW213707   2.923   2.006   4.340
 4270SOL     OW13708   3.610   2.209   0.670
 4270SOL    HW113709   3.646   2.119   0.692
 4270SOL    HW213710   3.685   2.270   0.644
 4271SOL     OW13711   6.810   0.439   0.901
 4271SOL    HW113712   6.773   0.515   0.954
 4271SOL    HW213713   6.746   0.362   0.905
 4272SOL     OW13714   6.293   2.093   6.027
 4272SOL    HW113715   6.385   2.129   6.042
 4272SOL    HW213716   6.280   2.011   6.083
 4273SOL     OW13717   3.790   5.255   5.098
 4273SOL    HW113718   3.860   5.226   5.032
 4273SOL    HW213719   3.770   5.352   5.084
 4274SOL     OW13720   6.776   0.737   1.775
 4274SOL    HW113721   6.835   0.817   1.784
 4274SOL    HW213722   6.685   0.766   1.745
 4275SOL     OW13723   0.760   2.859   3.313
 4275SOL    HW113724   0.798   2.946   3.281
 4275SOL    HW213725   0.738   2.802   3.234
 4276SOL     OW13726   2.614   5.967   3.840
 4276SOL    HW113727   2.705   5.974   3.881
 4276SOL    HW213728   2.549   5.935   3.908
 4277SOL     OW13729   6.225   5.419   3.347
 4277SOL    HW113730   6.285   5.482   3.395
 4277SOL    HW213731   6.233   5.328   3.386
 4278SOL     OW13732   1.354   6.944   2.138
 4278SOL    HW113733   1.355   6.846   2.115
 4278SOL    HW213734   1.261   6.980   2.127
 4279SOL     OW13735   2.253   2.318   3.402
 4279SOL    HW113736   2.203   2.375   3.467
 4279SOL    HW213737   2.289   2.376   3.329
 4280SOL     OW13738   0.371   0.362   6.116
 4280SOL    HW113739   0.361   0.377   6.215
 4280SOL    HW213740   0.319   0.433   6.067
 4281SOL     OW13741   4.324   5.524   3.804
 4281SOL    HW113742   4.420   5.546   3.822
 4281SOL    HW213743   4.317   5.474   3.718
 4282SOL     OW13744   3.542   4.116   1.283
 4282SOL    HW113745   3.536   4.048   1.355
 4282SOL    HW213746   3.629   4.165   1.290
 4283SOL     OW13747   4.921   1.349   4.089
 4283SOL    HW113748   4.903   1.364   3.991
 4283SOL    HW213749   4.902   1.433   4.140
 4284SOL     OW13750   4.936   6.225   6.568
 4284SOL    HW113751   4.839   6.205   6.557
 4284SOL    HW213752   4.972   6.175   6.647
 4285SOL     OW13753   2.854   0.361   5.778
 4285SOL    HW113754   2.945   0.391   5.749
 4285SOL    HW213755   2.857   0.266   5.806
 4286SOL     OW13756   5.843   0.917   6.196
 4286SOL    HW113757   5.752   0.940   6.163
 4286SOL    HW213758   5.885   0.850   6.134
 4287SOL     OW13759   4.897   0.268   0.030
 4287SOL    HW113760   4.936   0.222   6.973
 4287SOL    HW213761   4.952   0.348   0.053
 4288SOL     OW13762   6.958   6.588   2.406
 4288SOL    HW113763   6.951   6.687   2.414
 4288SOL    HW213764   6.874   6.552   2.365
 4289SOL     OW13765   0.551   3.388   4.581
 4289SOL    HW113766   0.468   3.438   4.603
 4289SOL    HW213767   0.530   3.313   4.518
 4290SOL     OW13768   0.303   1.201   3.166
 4290SOL    HW113769   0.378   1.265   3.146
 4290SOL    HW213770   0.281   1.149   3.084
 4291SOL     OW13771   5.142   3.223   6.159
 4291SOL    HW113772   5.131   3.184   6.251
 4291SOL    HW213773   5.204   3.165   6.106
 4292SOL     OW13774   5.801   1.700   1.010
 4292SOL    HW113775   5.723   1.677   0.951
 4292SOL    HW213776   5.884   1.706   0.954
 4293SOL     OW13777   4.245   4.066   0.098
 4293SOL    HW113778   4.316   4.001   0.075
 4293SOL    HW213779   4.178   4.071   0.024
 4294SOL     OW13780   2.370   2.338   6.557
 4294SOL    HW113781   2.339   2.340   6.462
 4294SOL    HW213782   2.352   2.248   6.596
 4295SOL     OW13783   4.481   6.296   3.030
 4295SOL    HW113784   4.497   6.199   3.008
 4295SOL    HW213785   4.523   6.317   3.118
 4296SOL     OW13786   2.525   6.528   1.792
 4296SOL    HW113787   2.541   6.567   1.701
 4296SOL    HW213788   2.430   6.499   1.800
 4297SOL     OW13789   5.668   4.901   1.037
 4297SOL    HW113790   5.739   4.941   0.979
 4297SOL    HW213791   5.695   4.909   1.133
 4298SOL     OW13792   3.491   6.448   0.726
 4298SOL    HW113793   3.520   6.539   0.698
 4298SOL    HW213794   3.532   6.425   0.815
 4299SOL     OW13795   1.254   2.780   0.345
 4299SOL    HW113796   1.202   2.737   0.271
 4299SOL    HW213797   1.276   2.712   0.415
 4300SOL     OW13798   3.213   0.750   0.847
 4300SOL    HW113799   3.162   0.684   0.793
 4300SOL    HW213800   3.247   0.824   0.788
 4301SOL     OW13801   3.025   6.965   1.594
 4301SOL    HW113802   3.101   6.975   1.530
 4301SOL    HW213803   3.058   6.926   1.680
 4302SOL     OW13804   1.727   5.579   6.019
 4302SOL    HW113805   1.771   5.556   5.932
 4302SOL    HW213806   1.768   5.663   6.056
 4303SOL     OW13807   6.001   4.159   3.600
 4303SOL    HW113808   6.068   4.226   3.569
 4303SOL    HW213809   5.969   4.183   3.692
 4304SOL     OW13810   3.203   3.585   1.472
 4304SOL    HW113811   3.278   3.606   1.410
 4304SOL    HW213812   3.181   3.665   1.527
 4305SOL     OW13813   1.511   0.547   5.333
 4305SOL    HW113814   1.510   0.495   5.248
 4305SOL    HW213815   1.428   0.529   5.385
 4306SOL     OW13816   5.493   3.481   5.119
 4306SOL    HW113817   5.544   3.405   5.079
 4306SOL    HW213818   5.437   3.448   5.195
 4307SOL     OW13819   6.508   1.897   5.414
 4307SOL    HW113820   6.594   1.940   5.386
 4307SOL    HW213821   6.525   1.803   5.444
 4308SOL     OW13822   5.103   4.746   0.654
 4308SOL    HW113823   5.133   4.772   0.746
 4308SOL    HW213824   5.168   4.779   0.587
 4309SOL     OW13825   1.335   3.434   0.374
 4309SOL    HW113826   1.308   3.365   0.307
 4309SOL    HW213827   1.266   3.507   0.376
 4310SOL     OW13828   0.360   1.737   2.662
 4310SOL    HW113829   0.343   1.806   2.592
 4310SOL    HW213830   0.347   1.778   2.753
 4311SOL     OW13831   0.589   6.269   2.514
 4311SOL    HW113832   0.510   6.315   2.473
 4311SOL    HW213833   0.647   6.233   2.441
 4312SOL     OW13834   0.269   4.633   2.352
 4312SOL    HW113835   0.288   4.591   2.263
 4312SOL    HW213836   0.203   4.708   2.340
 4313SOL     OW13837   6.117   1.860   0.436
 4313SOL    HW113838   6.065   1.924   0.379
 4313SOL    HW213839   6.146   1.905   0.520
 4314SOL     OW13840   6.492   2.441   5.285
 4314SOL    HW113841   6.405   2.489   5.279
 4314SOL    HW213842   6.476   2.342   5.279
 4315SOL     OW13843   2.384   1.291   3.548
 4315SOL    HW113844   2.376   1.221   3.618
 4315SOL    HW213845   2.374   1.381   3.590
 4316SOL     OW13846   5.157   6.969   1.991
 4316SOL    HW113847   5.168   0.039   2.025
 4316SOL    HW213848   5.135   6.908   2.067
 4317SOL     OW13849   4.571   1.053   6.304
 4317SOL    HW113850   4.666   1.022   6.306
 4317SOL    HW213851   4.535   1.045   6.211
 4318SOL     OW13852   0.728   1.646   4.138
 4318SOL    HW113853   0.695   1.555   4.164
 4318SOL    HW213854   0.777   1.640   4.051
 4319SOL     OW13855   1.027   4.612   2.248
 4319SOL    HW113856   0.950   4.632   2.310
 4319SOL    HW213857   0.996   4.616   2.154
 4320SOL     OW13858   3.551   5.369   0.084
 4320SOL    HW113859   3.641   5.365   0.041
 4320SOL    HW213860   3.481   5.336   0.020
 4321SOL     OW13861   6.324   0.260   2.225
 4321SOL    HW113862   6.415   0.243   2.186
 4321SOL    HW213863   6.257   0.201   2.180
 4322SOL     OW13864   1.158   3.203   5.237
 4322SOL    HW113865   1.073   3.254   5.220
 4322SOL    HW213866   1.229   3.267   5.266
 4323SOL     OW13867   4.032   5.152   6.722
 4323SOL    HW113868   3.946   5.101   6.719
 4323SOL    HW213869   4.097   5.113   6.657
 4324SOL     OW13870   7.004   4.027   5.857
 4324SOL    HW113871   6.972   3.970   5.782
 4324SOL    HW213872   7.007   3.974   5.941
 4325SOL     OW13873   3.207   0.531   2.329
 4325SOL    HW113874   3.300   0.559   2.304
 4325SOL    HW213875   3.181   0.451   2.275
 4326SOL     OW13876   4.890   2.075   2.758
 4326SOL    HW113877   4.887   2.066   2.857
 4326SOL    HW213878   4.835   2.154   2.730
 4327SOL     OW13879   3.700   5.774   3.927
 4327SOL    HW113880   3.748   5.760   4.014
 4327SOL    HW213881   3.737   5.712   3.858
 4328SOL     OW13882   5.536   5.999   5.170
 4328SOL    HW113883   5.461   6.047   5.125
 4328SOL    HW213884   5.607   5.977   5.102
 4329SOL     OW13885   6.099   2.246   5.907
 4329SOL    HW113886   6.162   2.169   5.923
 4329SOL    HW213887   6.013   2.229   5.956
 4330SOL     OW13888   2.788   4.882   5.062
 4330SOL    HW113889   2.784   4.782   5.070
 4330SOL    HW213890   2.708   4.922   5.107
 4331SOL     OW13891   6.360   0.982   1.412
 4331SOL    HW113892   6.424   1.051   1.445
 4331SOL    HW213893   6.407   0.918   1.353
 4332SOL     OW13894   0.066   4.813   2.273
 4332SOL    HW113895   0.019   4.814   2.185
 4332SOL    HW213896   0.004   4.847   2.344
 4333SOL     OW13897   3.866   1.974   5.495
 4333SOL    HW113898   3.949   1.932   5.531
 4333SOL    HW213899   3.790   1.909   5.502
 4334SOL     OW13900   0.895   2.540   3.836
 4334SOL    HW113901   0.978   2.492   3.862
 4334SOL    HW213902   0.834   2.548   3.915
 4335SOL     OW13903   2.926   3.319   1.008
 4335SOL    HW113904   2.965   3.231   1.032
 4335SOL    HW213905   2.831   3.307   0.980
 4336SOL     OW13906   2.652   5.759   5.978
 4336SOL    HW113907   2.730   5.708   5.942
 4336SOL    HW213908   2.590   5.781   5.903
 4337SOL     OW13909   1.636   5.277   3.282
 4337SOL    HW113910   1.607   5.301   3.375
 4337SOL    HW213911   1.659   5.361   3.232
 4338SOL     OW13912   4.484   0.926   6.030
 4338SOL    HW113913   4.402   0.909   5.976
 4338SOL    HW213914   4.500   1.024   6.038
 4339SOL     OW13915   4.275   2.983   6.037
 4339SOL    HW113916   4.279   3.081   6.019
 4339SOL    HW213917   4.179   2.953   6.040
 4340SOL     OW13918   0.067   3.265   0.712
 4340SOL    HW113919   0.087   3.294   0.805
 4340SOL    HW213920   0.058   3.166   0.708
 4341SOL     OW13921   0.261   6.115   2.607
 4341SOL    HW113922   0.352   6.125   2.646
 4341SOL    HW213923   0.262   6.143   2.511
 4342SOL     OW13924   5.321   3.912   2.776
 4342SOL    HW113925   5.250   3.959   2.828
 4342SOL    HW213926   5.284   3.883   2.688
 4343SOL     OW13927   4.032   0.508   5.721
 4343SOL    HW113928   4.106   0.574   5.733
 4343SOL    HW213929   4.062   0.417   5.747
 4344SOL     OW13930   0.092   2.541   3.974
 4344SOL    HW113931   0.075   2.451   3.933
 4344SOL    HW213932   0.009   2.574   4.018
 4345SOL     OW13933   2.881   3.506   2.513
 4345SOL    HW113934   2.921   3.597   2.514
 4345SOL    HW213935   2.787   3.511   2.480
 4346SOL     OW13936   1.893   3.864   2.044
 4346SOL    HW113937   1.900   3.934   2.115
 4346SOL    HW213938   1.984   3.829   2.023
 4347SOL     OW13939   6.176   5.114   1.303
 4347SOL    HW113940   6.118   5.062   1.365
 4347SOL    HW213941   6.162   5.081   1.209
 4348SOL     OW13942   5.474   6.066   4.493
 4348SOL    HW113943   5.446   5.976   4.526
 4348SOL    HW213944   5.507   6.058   4.399
 4349SOL     OW13945   0.334   3.501   4.254
 4349SOL    HW113946   0.297   3.415   4.290
 4349SOL    HW213947   0.429   3.488   4.229
 4350SOL     OW13948   4.829   1.066   4.850
 4350SOL    HW113949   4.801   1.139   4.788
 4350SOL    HW213950   4.802   1.090   4.943
 4351SOL     OW13951   0.891   6.534   0.946
 4351SOL    HW113952   0.942   6.510   0.864
 4351SOL    HW213953   0.931   6.489   1.025
 4352SOL     OW13954   3.837   3.758   1.142
 4352SOL    HW113955   3.884   3.823   1.202
 4352SOL    HW213956   3.893   3.676   1.132
 4353SOL     OW13957   3.268   2.516   0.814
 4353SOL    HW113958   3.282   2.559   0.726
 4353SOL    HW213959   3.174   2.533   0.845
 4354SOL     OW13960   5.577   6.836   4.080
 4354SOL    HW113961   5.663   6.796   4.047
 4354SOL    HW213962   5.586   6.857   4.178
 4355SOL     OW13963   1.135   6.484   3.350
 4355SOL    HW113964   1.040   6.487   3.380
 4355SOL    HW213965   1.191   6.541   3.410
 4356SOL     OW13966   5.086   2.295   6.596
 4356SOL    HW113967   5.013   2.237   6.632
 4356SOL    HW213968   5.160   2.238   6.561
 4357SOL     OW13969   6.910   0.993   2.184
 4357SOL    HW113970   6.819   0.960   2.211
 4357SOL    HW213971   6.939   0.947   2.100
 4358SOL     OW13972   1.296   0.088   6.998
 4358SOL    HW113973   1.196   0.079   6.997
 4358SOL    HW213974   1.325   0.130   0.060
 4359SOL     OW13975   1.904   1.654   7.003
 4359SOL    HW113976   1.873   1.698   0.065
 4359SOL    HW213977   1.955   1.720   6.948
 4360SOL     OW13978   1.274   3.109   3.544
 4360SOL    HW113979   1.213   3.085   3.619
 4360SOL    HW213980   1.236   3.075   3.458
 4361SOL     OW13981   0.391   1.136   1.220
 4361SOL    HW113982   0.336   1.173   1.145
 4361SOL    HW213983   0.454   1.067   1.185
 4362SOL     OW13984   0.985   5.968   4.213
 4362SOL    HW113985   1.000   5.911   4.293
 4362SOL    HW213986   0.890   5.960   4.183
 4363SOL     OW13987   4.739   1.178   2.169
 4363SOL    HW113988   4.807   1.200   2.100
 4363SOL    HW213989   4.734   1.252   2.236
 4364SOL     OW13990   3.714   4.148   2.915
 4364SOL    HW113991   3.744   4.093   2.992
 4364SOL    HW213992   3.762   4.236   2.916
 4365SOL     OW13993   3.198   2.290   1.719
 4365SOL    HW113994   3.139   2.282   1.800
 4365SOL    HW213995   3.141   2.307   1.638
 4366SOL     OW13996   4.497   6.380   4.676
 4366SOL    HW113997   4.431   6.346   4.609
 4366SOL    HW213998   4.583   6.328   4.668
 4367SOL     OW13999   2.753   5.582   4.037
 4367SOL    HW114000   2.826   5.525   4.000
 4367SOL    HW214001   2.683   5.524   4.080
 4368SOL     OW14002   4.502   4.483   2.546
 4368SOL    HW114003   4.550   4.447   2.466
 4368SOL    HW214004   4.530   4.432   2.627
 4369SOL     OW14005   4.150   5.146   3.349
 4369SOL    HW114006   4.139   5.180   3.255
 4369SOL    HW214007   4.095   5.063   3.361
 4370SOL     OW14008   3.823   4.955   1.494
 4370SOL    HW114009   3.859   4.873   1.539
 4370SOL    HW214010   3.830   4.945   1.395
 4371SOL     OW14011   3.001   0.843   1.495
 4371SOL    HW114012   3.010   0.781   1.573
 4371SOL    HW214013   3.055   0.808   1.418
 4372SOL     OW14014   2.074   3.116   4.682
 4372SOL    HW114015   2.089   3.111   4.780
 4372SOL    HW214016   2.135   3.051   4.635
 4373SOL     OW14017   4.800   1.102   5.631
 4373SOL    HW114018   4.899   1.093   5.629
 4373SOL    HW214019   4.774   1.165   5.704
 4374SOL     OW14020   2.631   1.349   1.240
 4374SOL    HW114021   2.535   1.372   1.254
 4374SOL    HW214022   2.655   1.362   1.144
 4375SOL     OW14023   3.998   0.667   3.324
 4375SOL    HW114024   3.919   0.720   3.354
 4375SOL    HW214025   4.054   0.643   3.403
 4376SOL     OW14026   6.485   6.671   1.384
 4376SOL    HW114027   6.518   6.760   1.416
 4376SOL    HW214028   6.433   6.683   1.300
 4377SOL     OW14029   5.920   6.281   6.234
 4377SOL    HW114030   5.887   6.221   6.161
 4377SOL    HW214031   5.858   6.275   6.312
 4378SOL     OW14032   1.893   5.512   2.379
 4378SOL    HW114033   1.824   5.581   2.399
 4378SOL    HW214034   1.860   5.452   2.306
 4379SOL     OW14035   1.485   0.995   1.802
 4379SOL    HW114036   1.409   0.930   1.804
 4379SOL    HW214037   1.532   0.988   1.714
 4380SOL     OW14038   1.645   6.220   5.259
 4380SOL    HW114039   1.685   6.231   5.168
 4380SOL    HW214040   1.546   6.235   5.255
 4381SOL     OW14041   3.283   6.603   5.012
 4381SOL    HW114042   3.278   6.575   4.917
 4381SOL    HW214043   3.261   6.526   5.071
 4382SOL     OW14044   5.112   3.679   4.412
 4382SOL    HW114045   5.113   3.767   4.459
 4382SOL    HW214046   5.046   3.618   4.457
 4383SOL     OW14047   1.008   2.869   5.971
 4383SOL    HW114048   1.068   2.915   5.905
 4383SOL    HW214049   0.979   2.781   5.934
 4384SOL     OW14050   3.582   6.433   0.984
 4384SOL    HW114051   3.590   6.348   1.035
 4384SOL    HW214052   3.524   6.497   1.033
 4385SOL     OW14053   0.338   2.233   2.268
 4385SOL    HW114054   0.376   2.264   2.181
 4385SOL    HW214055   0.290   2.146   2.254
 4386SOL     OW14056   0.763   3.166   6.743
 4386SOL    HW114057   0.789   3.154   6.839
 4386SOL    HW214058   0.664   3.178   6.736
 4387SOL     OW14059   6.833   3.484   1.710
 4387SOL    HW114060   6.845   3.548   1.786
 4387SOL    HW214061   6.898   3.409   1.719
 4388SOL     OW14062   3.710   0.813   6.170
 4388SOL    HW114063   3.734   0.716   6.180
 4388SOL    HW214064   3.613   0.822   6.151
 4389SOL     OW14065   5.630   2.372   2.799
 4389SOL    HW114066   5.727   2.360   2.822
 4389SOL    HW214067   5.617   2.458   2.750
 4390SOL     OW14068   4.813   2.825   2.206
 4390SOL    HW114069   4.898   2.863   2.241
 4390SOL    HW214070   4.775   2.887   2.136
 4391SOL     OW14071   0.864   5.313   0.303
 4391SOL    HW114072   0.879   5.376   0.379
 4391SOL    HW214073   0.830   5.365   0.224
 4392SOL     OW14074   4.991   3.189   4.433
 4392SOL    HW114075   5.059   3.145   4.492
 4392SOL    HW214076   4.926   3.240   4.489
 4393SOL     OW14077   5.025   6.976   3.263
 4393SOL    HW114078   5.073   6.917   3.329
 4393SOL    HW214079   5.016   6.928   3.176
 4394SOL     OW14080   4.941   0.077   2.493
 4394SOL    HW114081   4.910   0.064   2.398
 4394SOL    HW214082   4.949   0.174   2.512
 4395SOL     OW14083   5.047   1.582   1.543
 4395SOL    HW114084   5.130   1.546   1.585
 4395SOL    HW214085   4.969   1.560   1.602
 4396SOL     OW14086   0.722   1.025   4.340
 4396SOL    HW114087   0.668   1.031   4.256
 4396SOL    HW214088   0.676   1.075   4.413
 4397SOL     OW14089   0.094   0.463   4.589
 4397SOL    HW114090   0.188   0.493   4.602
 4397SOL    HW214091   0.048   0.526   4.527
 4398SOL     OW14092   6.976   4.739   4.175
 4398SOL    HW114093   7.000   4.753   4.079
 4398SOL    HW214094   6.983   4.826   4.224
 4399SOL     OW14095   2.109   1.739   0.762
 4399SOL    HW114096   2.189   1.791   0.732
 4399SOL    HW214097   2.082   1.770   0.853
 4400SOL     OW14098   3.481   6.509   4.563
 4400SOL    HW114099   3.471   6.437   4.494
 4400SOL    HW214100   3.414   6.495   4.636
 4401SOL     OW14101   5.738   5.833   4.441
 4401SOL    HW114102   5.683   5.878   4.371
 4401SOL    HW214103   5.766   5.742   4.408
 4402SOL     OW14104   0.559   6.048   2.656
 4402SOL    HW114105   0.592   6.132   2.612
 4402SOL    HW214106   0.561   6.059   2.755
 4403SOL     OW14107   0.154   0.271   2.860
 4403SOL    HW114108   0.193   0.185   2.825
 4403SOL    HW214109   0.116   0.324   2.785
 4404SOL     OW14110   0.612   3.676   3.054
 4404SOL    HW114111   0.681   3.649   3.122
 4404SOL    HW214112   0.543   3.604   3.046
 4405SOL     OW14113   3.349   4.614   5.795
 4405SOL    HW114114   3.447   4.595   5.788
 4405SOL    HW214115   3.326   4.692   5.737
 4406SOL     OW14116   5.780   3.891   1.277
 4406SOL    HW114117   5.748   3.888   1.371
 4406SOL    HW214118   5.869   3.847   1.270
 4407SOL     OW14119   6.910   0.441   0.053
 4407SOL    HW114120   6.847   0.372   0.088
 4407SOL    HW214121   6.898   0.451   6.978
 4408SOL     OW14122   4.750   7.001   6.875
 4408SOL    HW114123   4.823   6.945   6.835
 4408SOL    HW214124   4.757   6.999   6.974
 4409SOL     OW14125   3.428   0.216   2.042
 4409SOL    HW114126   3.411   0.189   2.137
 4409SOL    HW214127   3.369   0.163   1.981
 4410SOL     OW14128   2.100   5.305   1.374
 4410SOL    HW114129   2.003   5.326   1.385
 4410SOL    HW214130   2.113   5.205   1.377
 4411SOL     OW14131   3.649   3.351   2.426
 4411SOL    HW114132   3.558   3.368   2.386
 4411SOL    HW214133   3.719   3.368   2.358
 4412SOL     OW14134   3.934   1.302   6.573
 4412SOL    HW114135   3.918   1.390   6.529
 4412SOL    HW214136   3.973   1.238   6.508
 4413SOL     OW14137   4.376   5.867   4.372
 4413SOL    HW114138   4.390   5.900   4.278
 4413SOL    HW214139   4.459   5.882   4.425
 4414SOL     OW14140   3.996   4.806   1.679
 4414SOL    HW114141   4.069   4.758   1.728
 4414SOL    HW214142   3.939   4.855   1.745
 4415SOL     OW14143   4.939   3.154   6.483
 4415SOL    HW114144   4.888   3.069   6.491
 4415SOL    HW214145   4.929   3.208   6.567
 4416SOL     OW14146   2.847   0.530   4.610
 4416SOL    HW114147   2.857   0.432   4.598
 4416SOL    HW214148   2.912   0.578   4.552
 4417SOL     OW14149   6.974   5.403   1.868
 4417SOL    HW114150   6.952   5.494   1.903
 4417SOL    HW214151   6.893   5.345   1.875
 4418SOL     OW14152   4.194   6.917   3.583
 4418SOL    HW114153   4.107   6.884   3.621
 4418SOL    HW214154   4.263   6.919   3.656
 4419SOL     OW14155   0.451   5.186   0.120
 4419SOL    HW114156   0.357   5.158   0.099
 4419SOL    HW214157   0.471   5.167   0.216
 4420SOL     OW14158   4.928   1.485   0.116
 4420SOL    HW114159   4.890   1.577   0.133
 4420SOL    HW214160   5.007   1.492   0.055
 4421SOL     OW14161   1.405   1.985   3.076
 4421SOL    HW114162   1.396   1.997   3.175
 4421SOL    HW214163   1.437   1.892   3.057
 4422SOL     OW14164   2.530   4.328   6.220
 4422SOL    HW114165   2.474   4.382   6.282
 4422SOL    HW214166   2.479   4.309   6.136
 4423SOL     OW14167   1.482   2.378   6.460
 4423SOL    HW114168   1.398   2.398   6.409
 4423SOL    HW214169   1.561   2.392   6.401
 4424SOL     OW14170   6.143   6.875   2.774
 4424SOL    HW114171   6.070   6.927   2.819
 4424SOL    HW214172   6.208   6.842   2.843
 4425SOL     OW14173   3.618   4.774   6.521
 4425SOL    HW114174   3.552   4.818   6.460
 4425SOL    HW214175   3.676   4.712   6.468
 4426SOL     OW14176   0.666   0.738   5.499
 4426SOL    HW114177   0.695   0.833   5.510
 4426SOL    HW214178   0.597   0.715   5.568
 4427SOL     OW14179   1.327   0.451   3.190
 4427SOL    HW114180   1.292   0.400   3.111
 4427SOL    HW214181   1.255   0.458   3.259
 4428SOL     OW14182   1.952   5.684   4.058
 4428SOL    HW114183   1.969   5.637   3.971
 4428SOL    HW214184   1.863   5.730   4.053
 4429SOL     OW14185   3.711   7.007   3.298
 4429SOL    HW114186   3.718   6.982   3.395
 4429SOL    HW214187   3.663   6.935   3.248
 4430SOL     OW14188   2.796   0.846   2.374
 4430SOL    HW114189   2.750   0.758   2.386
 4430SOL    HW214190   2.728   0.919   2.366
 4431SOL     OW14191   2.898   1.813   3.567
 4431SOL    HW114192   2.905   1.728   3.619
 4431SOL    HW214193   2.980   1.824   3.510
 4432SOL     OW14194   2.930   3.308   2.719
 4432SOL    HW114195   2.960   3.222   2.677
 4432SOL    HW214196   2.902   3.372   2.648
 4433SOL     OW14197   6.331   6.948   2.199
 4433SOL    HW114198   6.287   6.961   2.288
 4433SOL    HW214199   6.429   6.934   2.212
 4434SOL     OW14200   6.016   2.074   3.735
 4434SOL    HW114201   5.985   1.982   3.710
 4434SOL    HW214202   6.053   2.073   3.828
 4435SOL     OW14203   3.694   2.877   1.949
 4435SOL    HW114204   3.777   2.899   2.000
 4435SOL    HW214205   3.621   2.941   1.974
 4436SOL     OW14206   4.479   1.820   0.084
 4436SOL    HW114207   4.450   1.885   0.014
 4436SOL    HW214208   4.428   1.735   0.075
 4437SOL     OW14209   3.588   0.629   4.529
 4437SOL    HW114210   3.657   0.564   4.563
 4437SOL    HW214211   3.604   0.718   4.572
 4438SOL     OW14212   4.243   3.126   6.519
 4438SOL    HW114213   4.225   3.080   6.606
 4438SOL    HW214214   4.162   3.120   6.461
 4439SOL     OW14215   1.586   5.397   2.668
 4439SOL    HW114216   1.629   5.487   2.656
 4439SOL    HW214217   1.581   5.350   2.580
 4440SOL     OW14218   1.074   6.413   6.702
 4440SOL    HW114219   1.034   6.322   6.715
 4440SOL    HW214220   1.170   6.403   6.675
 4441SOL     OW14221   5.253   2.525   2.309
 4441SOL    HW114222   5.206   2.569   2.233
 4441SOL    HW214223   5.226   2.569   2.395
 4442SOL     OW14224   4.202   5.814   3.783
 4442SOL    HW114225   4.191   5.746   3.855
 4442SOL    HW214226   4.170   5.777   3.696
 4443SOL     OW14227   2.839   2.198   6.033
 4443SOL    HW114228   2.793   2.168   5.949
 4443SOL    HW214229   2.859   2.119   6.090
 4444SOL     OW14230   5.051   6.787   0.476
 4444SOL    HW114231   5.001   6.865   0.437
 4444SOL    HW214232   5.149   6.807   0.475
 4445SOL     OW14233   1.261   0.768   6.132
 4445SOL    HW114234   1.246   0.827   6.052
 4445SOL    HW214235   1.359   0.755   6.146
 4446SOL     OW14236   6.100   0.095   3.317
 4446SOL    HW114237   6.175   0.141   3.364
 4446SOL    HW214238   6.109   7.019   3.330
 4447SOL     OW14239   5.324   2.275   5.985
 4447SOL    HW114240   5.383   2.224   6.047
 4447SOL    HW214241   5.284   2.352   6.034
 4448SOL     OW14242   2.478   3.674   6.718
 4448SOL    HW114243   2.473   3.647   6.814
 4448SOL    HW214244   2.520   3.600   6.665
 4449SOL     OW14245   2.339   1.236   4.876
 4449SOL    HW114246   2.406   1.246   4.803
 4449SOL    HW214247   2.308   1.327   4.906
 4450SOL     OW14248   3.828   2.932   3.105
 4450SOL    HW114249   3.847   2.998   3.033
 4450SOL    HW214250   3.732   2.907   3.103
 4451SOL     OW14251   6.711   4.961   2.124
 4451SOL    HW114252   6.674   4.910   2.202
 4451SOL    HW214253   6.797   4.919   2.096
 4452SOL     OW14254   6.273   6.450   6.452
 4452SOL    HW114255   6.204   6.512   6.416
 4452SOL    HW214256   6.251   6.425   6.546
 4453SOL     OW14257   4.963   2.068   1.249
 4453SOL    HW114258   4.892   2.134   1.227
 4453SOL    HW214259   5.049   2.096   1.207
 4454SOL     OW14260   5.404   2.740   1.180
 4454SOL    HW114261   5.475   2.787   1.232
 4454SOL    HW214262   5.314   2.761   1.219
 4455SOL     OW14263   3.557   0.928   2.593
 4455SOL    HW114264   3.635   0.899   2.537
 4455SOL    HW214265   3.523   0.849   2.645
 4456SOL     OW14266   1.255   5.270   3.458
 4456SOL    HW114267   1.195   5.274   3.538
 4456SOL    HW214268   1.347   5.300   3.484
 4457SOL     OW14269   5.229   1.936   6.830
 4457SOL    HW114270   5.209   2.029   6.861
 4457SOL    HW214271   5.327   1.919   6.837
 4458SOL     OW14272   2.991   2.371   6.221
 4458SOL    HW114273   2.941   2.306   6.164
 4458SOL    HW214274   3.087   2.344   6.226
 4459SOL     OW14275   4.878   6.524   4.830
 4459SOL    HW114276   4.830   6.547   4.915
 4459SOL    HW214277   4.841   6.580   4.755
 4460SOL     OW14278   2.686   2.764   6.356
 4460SOL    HW114279   2.696   2.808   6.445
 4460SOL    HW214280   2.670   2.666   6.368
 4461SOL     OW14281   2.033   6.685   2.325
 4461SOL    HW114282   2.129   6.658   2.317
 4461SOL    HW214283   2.028   6.779   2.358
 4462SOL     OW14284   6.508   5.791   0.591
 4462SOL    HW114285   6.604   5.808   0.609
 4462SOL    HW214286   6.499   5.709   0.534
 4463SOL     OW14287   1.501   3.321   6.394
 4463SOL    HW114288   1.526   3.385   6.322
 4463SOL    HW214289   1.529   3.358   6.483
 4464SOL     OW14290   5.799   3.209   6.046
 4464SOL    HW114291   5.762   3.130   6.095
 4464SOL    HW214292   5.899   3.204   6.044
 4465SOL     OW14293   1.458   6.147   1.728
 4465SOL    HW114294   1.383   6.116   1.670
 4465SOL    HW214295   1.458   6.095   1.813
 4466SOL     OW14296   1.113   1.525   2.836
 4466SOL    HW114297   1.210   1.551   2.838
 4466SOL    HW214298   1.073   1.551   2.748
 4467SOL     OW14299   1.525   6.610   3.095
 4467SOL    HW114300   1.537   6.535   3.160
 4467SOL    HW214301   1.510   6.695   3.144
 4468SOL     OW14302   1.153   2.708   0.886
 4468SOL    HW114303   1.239   2.724   0.838
 4468SOL    HW214304   1.107   2.628   0.846
 4469SOL     OW14305   3.981   0.127   1.078
 4469SOL    HW114306   3.960   0.136   0.981
 4469SOL    HW214307   4.028   0.209   1.110
 4470SOL     OW14308   4.806   3.673   1.583
 4470SOL    HW114309   4.860   3.655   1.501
 4470SOL    HW214310   4.807   3.591   1.642
 4471SOL     OW14311   6.785   2.628   1.453
 4471SOL    HW114312   6.796   2.658   1.359
 4471SOL    HW214313   6.836   2.689   1.514
 4472SOL     OW14314   1.949   4.031   2.462
 4472SOL    HW114315   1.875   4.097   2.449
 4472SOL    HW214316   1.911   3.944   2.494
 4473SOL     OW14317   6.490   6.766   4.292
 4473SOL    HW114318   6.581   6.727   4.309
 4473SOL    HW214319   6.438   6.767   4.377
 4474SOL     OW14320   4.334   0.246   2.595
 4474SOL    HW114321   4.411   0.228   2.657
 4474SOL    HW214322   4.281   0.324   2.629
 4475SOL     OW14323   1.712   4.644   0.515
 4475SOL    HW114324   1.612   4.642   0.505
 4475SOL    HW214325   1.737   4.713   0.583
 4476SOL     OW14326   4.897   6.662   1.879
 4476SOL    HW114327   4.963   6.701   1.814
 4476SOL    HW214328   4.811   6.644   1.833
 4477SOL     OW14329   1.517   1.229   0.291
 4477SOL    HW114330   1.603   1.193   0.254
 4477SOL    HW214331   1.490   1.310   0.240
 4478SOL     OW14332   2.198   6.635   2.544
 4478SOL    HW114333   2.136   6.700   2.589
 4478SOL    HW214334   2.278   6.620   2.602
 4479SOL     OW14335   0.972   0.197   5.896
 4479SOL    HW114336   1.071   0.196   5.891
 4479SOL    HW214337   0.943   0.213   5.991
 4480SOL     OW14338   1.002   4.962   4.929
 4480SOL    HW114339   1.013   4.871   4.969
 4480SOL    HW214340   1.089   4.994   4.892
 4481SOL     OW14341   0.871   6.209   3.822
 4481SOL    HW114342   0.953   6.178   3.870
 4481SOL    HW214343   0.791   6.161   3.858
 4482SOL     OW14344   0.188   4.683   3.775
 4482SOL    HW114345   0.247   4.761   3.755
 4482SOL    HW214346   0.244   4.600   3.778
 4483SOL     OW14347   5.466   3.261   1.829
 4483SOL    HW114348   5.432   3.172   1.859
 4483SOL    HW214349   5.561   3.272   1.857
 4484SOL     OW14350   3.493   2.364   5.606
 4484SOL    HW114351   3.553   2.307   5.663
 4484SOL    HW214352   3.408   2.314   5.589
 4485SOL     OW14353   5.123   1.504   6.695
 4485SOL    HW114354   5.099   1.601   6.683
 4485SOL    HW214355   5.093   1.473   6.785
 4486SOL     OW14356   6.441   3.564   4.804
 4486SOL    HW114357   6.437   3.487   4.869
 4486SOL    HW214358   6.348   3.589   4.777
 4487SOL     OW14359   2.987   3.244   6.100
 4487SOL    HW114360   3.028   3.192   6.175
 4487SOL    HW214361   2.911   3.192   6.060
 4488SOL     OW14362   6.322   1.616   5.254
 4488SOL    HW114363   6.272   1.699   5.276
 4488SOL    HW214364   6.281   1.573   5.173
 4489SOL     OW14365   5.877   5.878   4.664
 4489SOL    HW114366   5.813   5.869   4.588
 4489SOL    HW214367   5.879   5.792   4.716
 4490SOL     OW14368   6.584   1.931   2.921
 4490SOL    HW114369   6.676   1.956   2.952
 4490SOL    HW214370   6.591   1.879   2.836
 4491SOL     OW14371   0.981   3.777   2.737
 4491SOL    HW114372   1.001   3.744   2.830
 4491SOL    HW214373   0.930   3.707   2.687
 4492SOL     OW14374   4.465   2.539   0.270
 4492SOL    HW114375   4.410   2.599   0.212
 4492SOL    HW214376   4.437   2.550   0.365
 4493SOL     OW14377   5.526   5.339   5.079
 4493SOL    HW114378   5.532   5.240   5.090
 4493SOL    HW214379   5.434   5.364   5.050
 4494SOL     OW14380   0.243   4.368   5.318
 4494SOL    HW114381   0.279   4.407   5.233
 4494SOL    HW214382   0.192   4.285   5.296
 4495SOL     OW14383   4.853   6.860   1.567
 4495SOL    HW114384   4.888   6.940   1.615
 4495SOL    HW214385   4.762   6.879   1.531
 4496SOL     OW14386   5.521   3.679   5.555
 4496SOL    HW114387   5.527   3.592   5.604
 4496SOL    HW214388   5.468   3.744   5.609
 4497SOL     OW14389   5.998   5.208   0.137
 4497SOL    HW114390   5.980   5.177   0.043
 4497SOL    HW214391   6.029   5.130   0.192
 4498SOL     OW14392   0.269   3.497   6.741
 4498SOL    HW114393   0.361   3.482   6.777
 4498SOL    HW214394   0.202   3.452   6.800
 4499SOL     OW14395   6.889   3.408   5.620
 4499SOL    HW114396   6.870   3.328   5.564
 4499SOL    HW214397   6.969   3.391   5.677
 4500SOL     OW14398   3.119   3.752   4.368
 4500SOL    HW114399   3.058   3.680   4.334
 4500SOL    HW214400   3.186   3.713   4.431
 4501SOL     OW14401   0.388   4.766   5.325
 4501SOL    HW114402   0.332   4.696   5.369
 4501SOL    HW214403   0.426   4.827   5.394
 4502SOL     OW14404   1.434   2.724   0.032
 4502SOL    HW114405   1.436   2.778   0.116
 4502SOL    HW214406   1.508   2.656   0.035
 4503SOL     OW14407   1.683   1.187   3.956
 4503SOL    HW114408   1.724   1.278   3.959
 4503SOL    HW214409   1.584   1.195   3.968
 4504SOL     OW14410   5.562   2.755   5.290
 4504SOL    HW114411   5.496   2.766   5.365
 4504SOL    HW214412   5.529   2.804   5.210
 4505SOL     OW14413   1.782   6.553   5.138
 4505SOL    HW114414   1.760   6.456   5.124
 4505SOL    HW214415   1.833   6.564   5.223
 4506SOL     OW14416   4.101   1.065   5.062
 4506SOL    HW114417   4.080   0.968   5.060
 4506SOL    HW214418   4.190   1.079   5.105
 4507SOL     OW14419   4.959   4.168   0.800
 4507SOL    HW114420   5.024   4.145   0.873
 4507SOL    HW214421   5.010   4.194   0.718
 4508SOL     OW14422   1.468   3.674   0.074
 4508SOL    HW114423   1.376   3.689   0.037
 4508SOL    HW214424   1.508   3.594   0.031
 4509SOL     OW14425   3.174   1.913   4.185
 4509SOL    HW114426   3.175   1.860   4.270
 4509SOL    HW214427   3.199   1.855   4.108
 4510SOL     OW14428   5.157   6.964   5.445
 4510SOL    HW114429   5.212   7.012   5.376
 4510SOL    HW214430   5.119   6.881   5.404
 4511SOL     OW14431   6.461   2.306   0.550
 4511SOL    HW114432   6.415   2.290   0.638
 4511SOL    HW214433   6.560   2.295   0.562
 4512SOL     OW14434   2.422   5.962   6.492
 4512SOL    HW114435   2.377   5.878   6.460
 4512SOL    HW214436   2.377   6.042   6.452
 4513SOL     OW14437   5.201   0.216   2.009
 4513SOL    HW114438   5.124   0.223   2.073
 4513SOL    HW214439   5.195   0.290   1.942
 4514SOL     OW14440   3.016   1.210   5.024
 4514SOL    HW114441   2.925   1.250   5.015
 4514SOL    HW214442   3.085   1.282   5.025
 4515SOL     OW14443   0.086   4.917   0.556
 4515SOL    HW114444   0.011   4.894   0.618
 4515SOL    HW214445   0.163   4.855   0.573
 4516SOL     OW14446   1.320   1.430   5.384
 4516SOL    HW114447   1.407   1.400   5.346
 4516SOL    HW214448   1.277   1.354   5.434
 4517SOL     OW14449   3.731   6.918   6.384
 4517SOL    HW114450   3.732   6.929   6.484
 4517SOL    HW214451   3.778   6.833   6.360
 4518SOL     OW14452   1.247   2.147   3.776
 4518SOL    HW114453   1.299   2.061   3.775
 4518SOL    HW214454   1.236   2.181   3.683
 4519SOL     OW14455   0.343   2.904   3.768
 4519SOL    HW114456   0.308   2.971   3.833
 4519SOL    HW214457   0.440   2.921   3.752
 4520SOL     OW14458   7.004   4.650   2.879
 4520SOL    HW114459   0.040   4.708   2.823
 4520SOL    HW214460   6.916   4.695   2.892
 4521SOL     OW14461   4.877   2.527   0.015
 4521SOL    HW114462   4.884   2.618   0.056
 4521SOL    HW214463   4.963   2.503   6.996
 4522SOL     OW14464   6.506   6.771   3.500
 4522SOL    HW114465   6.588   6.801   3.548
 4522SOL    HW214466   6.470   6.689   3.545
 4523SOL     OW14467   3.361   4.515   0.150
 4523SOL    HW114468   3.454   4.494   0.123
 4523SOL    HW214469   3.321   4.438   0.199
 4524SOL     OW14470   5.335   1.157   5.184
 4524SOL    HW114471   5.253   1.123   5.139
 4524SOL    HW214472   5.386   1.081   5.224
 4525SOL     OW14473   6.186   1.277   4.916
 4525SOL    HW114474   6.134   1.251   4.834
 4525SOL    HW214475   6.126   1.274   4.996
 4526SOL     OW14476   4.598   6.770   0.471
 4526SOL    HW114477   4.598   6.849   0.409
 4526SOL    HW214478   4.594   6.802   0.566
 4527SOL     OW14479   4.835   1.000   3.056
 4527SOL    HW114480   4.932   1.013   3.036
 4527SOL    HW214481   4.782   1.016   2.973
 4528SOL     OW14482   5.773   0.158   0.233
 4528SOL    HW114483   5.795   0.248   0.196
 4528SOL    HW214484   5.772   0.091   0.159
 4529SOL     OW14485   2.996   0.162   3.327
 4529SOL    HW114486   2.904   0.199   3.335
 4529SOL    HW214487   3.063   0.237   3.327
 4530SOL     OW14488   0.196   3.191   5.212
 4530SOL    HW114489   0.294   3.212   5.214
 4530SOL    HW214490   0.178   3.114   5.274
 4531SOL     OW14491   0.707   3.125   3.927
 4531SOL    HW114492   0.779   3.097   3.990
 4531SOL    HW214493   0.701   3.060   3.852
 4532SOL     OW14494   6.078   1.162   0.739
 4532SOL    HW114495   6.088   1.243   0.798
 4532SOL    HW214496   6.169   1.129   0.712
 4533SOL     OW14497   1.712   6.247   2.848
 4533SOL    HW114498   1.654   6.166   2.839
 4533SOL    HW214499   1.800   6.231   2.804
 4534SOL     OW14500   6.780   4.020   5.046
 4534SOL    HW114501   6.702   3.993   4.990
 4534SOL    HW214502   6.858   4.041   4.987
 4535SOL     OW14503   4.872   3.176   2.170
 4535SOL    HW114504   4.887   3.117   2.250
 4535SOL    HW214505   4.819   3.126   2.102
 4536SOL     OW14506   5.877   1.402   4.938
 4536SOL    HW114507   5.778   1.417   4.944
 4536SOL    HW214508   5.916   1.403   5.030
 4537SOL     OW14509   4.193   2.977   6.737
 4537SOL    HW114510   4.116   2.954   6.796
 4537SOL    HW214511   4.273   2.922   6.764
 4538SOL     OW14512   3.002   1.670   3.181
 4538SOL    HW114513   3.057   1.671   3.097
 4538SOL    HW214514   2.912   1.632   3.161
 4539SOL     OW14515   2.119   1.867   3.234
 4539SOL    HW114516   2.175   1.942   3.269
 4539SOL    HW214517   2.178   1.791   3.208
 4540SOL     OW14518   3.492   2.855   4.400
 4540SOL    HW114519   3.533   2.932   4.449
 4540SOL    HW214520   3.473   2.781   4.465
 4541SOL     OW14521   5.039   2.084   0.927
 4541SOL    HW114522   4.976   2.006   0.927
 4541SOL    HW214523   5.124   2.059   0.972
 4542SOL     OW14524   5.971   6.413   2.022
 4542SOL    HW114525   6.011   6.382   1.935
 4542SOL    HW214526   6.044   6.449   2.081
 4543SOL     OW14527   5.368   1.611   0.970
 4543SOL    HW114528   5.419   1.630   1.054
 4543SOL    HW214529   5.272   1.595   0.993
 4544SOL     OW14530   3.346   5.686   6.954
 4544SOL    HW114531   3.261   5.734   6.931
 4544SOL    HW214532   3.327   5.612   7.018
 4545SOL     OW14533   4.137   2.153   5.321
 4545SOL    HW114534   4.147   2.253   5.325
 4545SOL    HW214535   4.145   2.115   5.414
 4546SOL     OW14536   0.470   6.720   6.503
 4546SOL    HW114537   0.473   6.639   6.444
 4546SOL    HW214538   0.379   6.728   6.544
 4547SOL     OW14539   5.625   2.613   1.513
 4547SOL    HW114540   5.554   2.543   1.516
 4547SOL    HW214541   5.691   2.597   1.587
 4548SOL     OW14542   0.592   4.164   3.656
 4548SOL    HW114543   0.660   4.207   3.596
 4548SOL    HW214544   0.627   4.077   3.689
 4549SOL     OW14545   6.853   3.645   3.108
 4549SOL    HW114546   6.768   3.593   3.111
 4549SOL    HW214547   6.923   3.591   3.061
 4550SOL     OW14548   1.013   6.150   3.255
 4550SOL    HW114549   0.957   6.149   3.172
 4550SOL    HW214550   1.028   6.244   3.284
 4551SOL     OW14551   0.834   3.122   5.093
 4551SOL    HW114552   0.793   3.046   5.143
 4551SOL    HW214553   0.854   3.094   4.999
 4552SOL     OW14554   0.856   3.073   4.793
 4552SOL    HW114555   0.805   3.159   4.781
 4552SOL    HW214556   0.936   3.073   4.733
 4553SOL     OW14557   4.656   5.358   0.495
 4553SOL    HW114558   4.751   5.383   0.473
 4553SOL    HW214559   4.610   5.327   0.411
 4554SOL     OW14560   4.258   0.013   2.842
 4554SOL    HW114561   4.332   0.074   2.812
 4554SOL    HW214562   4.285   6.941   2.826
 4555SOL     OW14563   4.873   2.126   6.706
 4555SOL    HW114564   4.838   2.119   6.799
 4555SOL    HW214565   4.803   2.097   6.641
 4556SOL     OW14566   4.249   0.237   3.961
 4556SOL    HW114567   4.244   0.283   3.872
 4556SOL    HW214568   4.157   0.222   3.997
 4557SOL     OW14569   5.865   6.903   6.180
 4557SOL    HW114570   5.911   6.835   6.236
 4557SOL    HW214571   5.931   6.971   6.148
 4558SOL     OW14572   6.394   3.488   6.764
 4558SOL    HW114573   6.339   3.488   6.681
 4558SOL    HW214574   6.423   3.395   6.786
 4559SOL     OW14575   1.721   6.518   1.468
 4559SOL    HW114576   1.815   6.549   1.483
 4559SOL    HW214577   1.675   6.512   1.557
 4560SOL     OW14578   5.281   3.235   2.898
 4560SOL    HW114579   5.194   3.219   2.944
 4560SOL    HW214580   5.265   3.286   2.813
 4561SOL     OW14581   3.518   0.474   6.539
 4561SOL    HW114582   3.566   0.478   6.627
 4561SOL    HW214583   3.555   0.399   6.485
 4562SOL     OW14584   2.797   5.657   6.899
 4562SOL    HW114585   2.830   5.685   6.809
 4562SOL    HW214586   2.718   5.713   6.925
 4563SOL     OW14587   5.456   1.415   0.412
 4563SOL    HW114588   5.554   1.429   0.397
 4563SOL    HW214589   5.404   1.472   0.348
 4564SOL     OW14590   1.032   5.839   0.350
 4564SOL    HW114591   0.991   5.868   0.436
 4564SOL    HW214592   1.106   5.902   0.325
 4565SOL     OW14593   1.053   0.920   5.296
 4565SOL    HW114594   1.093   0.851   5.235
 4565SOL    HW214595   0.979   0.968   5.249
 4566SOL     OW14596   0.465   1.047   6.614
 4566SOL    HW114597   0.524   1.127   6.621
 4566SOL    HW214598   0.379   1.064   6.663
 4567SOL     OW14599   6.394   1.683   0.718
 4567SOL    HW114600   6.482   1.670   0.673
 4567SOL    HW214601   6.406   1.682   0.817
 4568SOL     OW14602   3.185   4.459   5.611
 4568SOL    HW114603   3.232   4.504   5.688
 4568SOL    HW214604   3.202   4.360   5.616
 4569SOL     OW14605   1.068   1.777   4.255
 4569SOL    HW114606   1.166   1.790   4.239
 4569SOL    HW214607   1.029   1.861   4.292
 4570SOL     OW14608   6.970   5.766   3.630
 4570SOL    HW114609   6.895   5.822   3.595
 4570SOL    HW214610   6.992   5.796   3.723
 4571SOL     OW14611   3.170   3.383   4.586
 4571SOL    HW114612   3.234   3.333   4.644
 4571SOL    HW214613   3.222   3.436   4.518
 4572SOL     OW14614   1.164   6.665   1.088
 4572SOL    HW114615   1.109   6.583   1.104
 4572SOL    HW214616   1.206   6.694   1.174
 4573SOL     OW14617   5.961   5.626   0.971
 4573SOL    HW114618   5.959   5.725   0.964
 4573SOL    HW214619   5.929   5.597   1.061
 4574SOL     OW14620   7.011   4.081   1.994
 4574SOL    HW114621   6.913   4.079   1.978
 4574SOL    HW214622   0.035   4.046   1.913
 4575SOL     OW14623   6.507   1.581   1.414
 4575SOL    HW114624   6.416   1.574   1.373
 4575SOL    HW214625   6.515   1.669   1.462
 4576SOL     OW14626   3.115   5.813   6.790
 4576SOL    HW114627   3.086   5.725   6.752
 4576SOL    HW214628   3.069   5.887   6.741
 4577SOL     OW14629   1.145   3.826   3.721
 4577SOL    HW114630   1.160   3.787   3.630
 4577SOL    HW214631   1.098   3.759   3.779
 4578SOL     OW14632   0.220   3.573   3.604
 4578SOL    HW114633   0.213   3.476   3.583
 4578SOL    HW214634   0.273   3.586   3.688
 4579SOL     OW14635   5.215   1.924   3.061
 4579SOL    HW114636   5.142   1.964   3.116
 4579SOL    HW214637   5.303   1.940   3.105
 4580SOL     OW14638   5.714   5.747   0.608
 4580SOL    HW114639   5.693   5.791   0.521
 4580SOL    HW214640   5.691   5.650   0.603
 4581SOL     OW14641   3.405   5.382   3.598
 4581SOL    HW114642   3.405   5.313   3.671
 4581SOL    HW214643   3.337   5.451   3.618
 4582SOL     OW14644   5.330   6.401   2.914
 4582SOL    HW114645   5.328   6.339   2.992
 4582SOL    HW214646   5.239   6.406   2.873
 4583SOL     OW14647   2.916   2.005   5.263
 4583SOL    HW114648   2.824   1.989   5.299
 4583SOL    HW214649   2.981   1.947   5.311
 4584SOL     OW14650   0.507   5.288   5.831
 4584SOL    HW114651   0.502   5.364   5.896
 4584SOL    HW214652   0.589   5.234   5.849
 4585SOL     OW14653   3.287   5.833   3.291
 4585SOL    HW114654   3.310   5.864   3.384
 4585SOL    HW214655   3.203   5.877   3.261
 4586SOL     OW14656   3.497   5.614   2.088
 4586SOL    HW114657   3.489   5.665   2.003
 4586SOL    HW214658   3.438   5.655   2.158
 4587SOL     OW14659   2.803   2.818   1.281
 4587SOL    HW114660   2.767   2.837   1.372
 4587SOL    HW214661   2.889   2.866   1.269
 4588SOL     OW14662   3.919   3.664   5.466
 4588SOL    HW114663   3.996   3.609   5.433
 4588SOL    HW214664   3.949   3.759   5.476
 4589SOL     OW14665   6.115   2.108   3.392
 4589SOL    HW114666   6.037   2.139   3.338
 4589SOL    HW214667   6.140   2.178   3.459
 4590SOL     OW14668   4.635   5.018   2.521
 4590SOL    HW114669   4.574   5.075   2.576
 4590SOL    HW214670   4.590   4.930   2.503
 4591SOL     OW14671   5.967   5.716   5.644
 4591SOL    HW114672   6.067   5.716   5.636
 4591SOL    HW214673   5.939   5.795   5.700
 4592SOL     OW14674   4.086   2.533   0.150
 4592SOL    HW114675   4.083   2.441   0.111
 4592SOL    HW214676   3.994   2.572   0.151
 4593SOL     OW14677   3.951   6.426   2.675
 4593SOL    HW114678   3.865   6.392   2.637
 4593SOL    HW214679   3.977   6.510   2.627
 4594SOL     OW14680   2.633   1.321   1.794
 4594SOL    HW114681   2.565   1.389   1.766
 4594SOL    HW214682   2.723   1.348   1.760
 4595SOL     OW14683   3.969   3.129   6.407
 4595SOL    HW114684   3.900   3.086   6.465
 4595SOL    HW214685   3.925   3.176   6.331
 4596SOL     OW14686   5.796   6.633   2.208
 4596SOL    HW114687   5.791   6.728   2.240
 4596SOL    HW214688   5.851   6.580   2.272
 4597SOL     OW14689   5.375   4.058   6.205
 4597SOL    HW114690   5.431   4.141   6.199
 4597SOL    HW214691   5.347   4.044   6.300
 4598SOL     OW14692   2.094   5.259   6.589
 4598SOL    HW114693   2.164   5.266   6.661
 4598SOL    HW214694   2.003   5.258   6.630
 4599SOL     OW14695   1.420   4.798   1.400
 4599SOL    HW114696   1.505   4.746   1.408
 4599SOL    HW214697   1.435   4.892   1.431
 4600SOL     OW14698   3.131   5.975   0.510
 4600SOL    HW114699   3.045   5.977   0.560
 4600SOL    HW214700   3.126   5.903   0.440
 4601SOL     OW14701   2.076   0.783   4.865
 4601SOL    HW114702   2.146   0.771   4.936
 4601SOL    HW214703   2.100   0.727   4.786
 4602SOL     OW14704   2.195   0.321   2.009
 4602SOL    HW114705   2.206   0.222   2.010
 4602SOL    HW214706   2.267   0.363   2.065
 4603SOL     OW14707   3.164   6.877   1.867
 4603SOL    HW114708   3.135   6.857   1.961
 4603SOL    HW214709   3.258   6.846   1.854
 4604SOL     OW14710   3.411   0.110   2.631
 4604SOL    HW114711   3.509   0.122   2.646
 4604SOL    HW214712   3.376   0.039   2.693
 4605SOL     OW14713   5.190   0.719   4.754
 4605SOL    HW114714   5.275   0.770   4.760
 4605SOL    HW214715   5.138   0.729   4.839
 4606SOL     OW14716   6.479   6.308   4.979
 4606SOL    HW114717   6.476   6.226   4.921
 4606SOL    HW214718   6.460   6.281   5.074
 4607SOL     OW14719   2.916   1.335   1.693
 4607SOL    HW114720   2.937   1.253   1.639
 4607SOL    HW214721   3.000   1.385   1.714
 4608SOL     OW14722   1.584   4.722   5.179
 4608SOL    HW114723   1.629   4.639   5.146
 4608SOL    HW214724   1.571   4.716   5.278
 4609SOL     OW14725   5.017   6.882   0.161
 4609SOL    HW114726   5.022   6.801   0.103
 4609SOL    HW214727   5.110   6.908   0.189
 4610SOL     OW14728   0.189   2.846   6.469
 4610SOL    HW114729   0.272   2.877   6.515
 4610SOL    HW214730   0.179   2.747   6.483
 4611SOL     OW14731   0.620   3.930   0.102
 4611SOL    HW114732   0.608   3.916   0.004
 4611SOL    HW214733   0.710   3.895   0.130
 4612SOL     OW14734   2.108   6.382   6.123
 4612SOL    HW114735   2.070   6.313   6.184
 4612SOL    HW214736   2.161   6.448   6.176
 4613SOL     OW14737   3.437   5.313   2.855
 4613SOL    HW114738   3.338   5.309   2.862
 4613SOL    HW214739   3.473   5.379   2.922
 4614SOL     OW14740   1.809   5.477   0.059
 4614SOL    HW114741   1.833   5.573   0.045
 4614SOL    HW214742   1.877   5.419   0.016
 4615SOL     OW14743   1.555   2.031   0.037
 4615SOL    HW114744   1.484   1.961   0.033
 4615SOL    HW214745   1.524   2.113   7.012
 4616SOL     OW14746   6.101   0.640   6.585
 4616SOL    HW114747   6.038   0.667   6.512
 4616SOL    HW214748   6.149   0.556   6.558
 4617SOL     OW14749   0.992   2.980   1.730
 4617SOL    HW114750   1.070   3.042   1.743
 4617SOL    HW214751   0.930   2.987   1.807
 4618SOL     OW14752   0.978   2.564   5.808
 4618SOL    HW114753   0.989   2.585   5.711
 4618SOL    HW214754   0.902   2.500   5.820
 4619SOL     OW14755   4.535   0.735   3.988
 4619SOL    HW114756   4.587   0.773   4.064
 4619SOL    HW214757   4.598   0.701   3.918
 4620SOL     OW14758   2.909   4.286   6.701
 4620SOL    HW114759   2.985   4.222   6.710
 4620SOL    HW214760   2.944   4.375   6.670
 4621SOL     OW14761   0.433   0.828   5.113
 4621SOL    HW114762   0.476   0.755   5.166
 4621SOL    HW214763   0.503   0.893   5.083
 4622SOL     OW14764   1.972   3.243   0.249
 4622SOL    HW114765   1.899   3.204   0.304
 4622SOL    HW214766   1.984   3.340   0.273
 4623SOL     OW14767   6.899   5.055   1.048
 4623SOL    HW114768   6.822   4.994   1.067
 4623SOL    HW214769   6.926   5.102   1.133
 4624SOL     OW14770   4.608   0.578   4.323
 4624SOL    HW114771   4.578   0.570   4.418
 4624SOL    HW214772   4.686   0.641   4.317
 4625SOL     OW14773   0.930   3.894   6.769
 4625SOL    HW114774   1.012   3.880   6.826
 4625SOL    HW214775   0.957   3.907   6.674
 4626SOL     OW14776   6.335   4.816   1.603
 4626SOL    HW114777   6.285   4.840   1.687
 4626SOL    HW214778   6.316   4.721   1.579
 4627SOL     OW14779   3.450   6.045   5.400
 4627SOL    HW114780   3.521   6.073   5.464
 4627SOL    HW214781   3.373   6.108   5.406
 4628SOL     OW14782   6.175   4.687   2.047
 4628SOL    HW114783   6.089   4.727   2.016
 4628SOL    HW214784   6.227   4.756   2.097
 4629SOL     OW14785   2.133   4.752   5.267
 4629SOL    HW114786   2.146   4.699   5.351
 4629SOL    HW214787   2.042   4.793   5.267
 4630SOL     OW14788   1.834   5.606   3.310
 4630SOL    HW114789   1.740   5.607   3.276
 4630SOL    HW214790   1.895   5.573   3.238
 4631SOL     OW14791   3.151   6.433   3.193
 4631SOL    HW114792   3.198   6.364   3.137
 4631SOL    HW214793   3.054   6.409   3.201
 4632SOL     OW14794   4.747   5.717   4.731
 4632SOL    HW114795   4.740   5.649   4.659
 4632SOL    HW214796   4.821   5.781   4.709
 4633SOL     OW14797   6.524   1.863   4.774
 4633SOL    HW114798   6.464   1.942   4.772
 4633SOL    HW214799   6.535   1.831   4.868
 4634SOL     OW14800   2.481   4.842   0.955
 4634SOL    HW114801   2.423   4.864   1.033
 4634SOL    HW214802   2.544   4.919   0.938
 4635SOL     OW14803   4.947   3.197   2.516
 4635SOL    HW114804   4.875   3.127   2.513
 4635SOL    HW214805   5.036   3.154   2.501
 4636SOL     OW14806   2.848   5.972   0.393
 4636SOL    HW114807   2.799   5.889   0.420
 4636SOL    HW214808   2.847   5.980   0.293
 4637SOL     OW14809   1.054   0.733   5.881
 4637SOL    HW114810   1.083   0.656   5.823
 4637SOL    HW214811   1.134   0.788   5.905
 4638SOL     OW14812   4.462   3.274   5.981
 4638SOL    HW114813   4.521   3.353   5.969
 4638SOL    HW214814   4.420   3.277   6.072
 4639SOL     OW14815   0.824   3.901   5.947
 4639SOL    HW114816   0.738   3.915   5.996
 4639SOL    HW214817   0.901   3.919   6.008
 4640SOL     OW14818   5.037   4.468   3.071
 4640SOL    HW114819   4.972   4.499   3.141
 4640SOL    HW214820   5.128   4.461   3.112
 4641SOL     OW14821   2.756   4.801   4.534
 4641SOL    HW114822   2.720   4.716   4.496
 4641SOL    HW214823   2.728   4.810   4.629
 4642SOL     OW14824   6.417   5.766   4.411
 4642SOL    HW114825   6.472   5.782   4.329
 4642SOL    HW214826   6.440   5.676   4.450
 4643SOL     OW14827   3.976   2.315   1.764
 4643SOL    HW114828   3.997   2.218   1.769
 4643SOL    HW214829   3.883   2.331   1.797
 4644SOL     OW14830   1.361   6.370   4.486
 4644SOL    HW114831   1.372   6.417   4.399
 4644SOL    HW214832   1.302   6.425   4.546
 4645SOL     OW14833   2.042   6.546   4.425
 4645SOL    HW114834   2.013   6.620   4.365
 4645SOL    HW214835   1.980   6.541   4.504
 4646SOL     OW14836   3.100   0.517   1.894
 4646SOL    HW114837   3.082   0.582   1.967
 4646SOL    HW214838   3.176   0.550   1.838
 4647SOL     OW14839   6.464   0.380   4.090
 4647SOL    HW114840   6.473   0.474   4.054
 4647SOL    HW214841   6.411   0.382   4.174
 4648SOL     OW14842   2.652   5.751   2.334
 4648SOL    HW114843   2.558   5.772   2.308
 4648SOL    HW214844   2.689   5.682   2.273
 4649SOL     OW14845   5.114   0.899   5.672
 4649SOL    HW114846   5.074   0.862   5.755
 4649SOL    HW214847   5.160   0.986   5.693
 4650SOL     OW14848   5.272   5.713   2.574
 4650SOL    HW114849   5.277   5.689   2.477
 4650SOL    HW214850   5.346   5.668   2.623
 4651SOL     OW14851   0.356   1.963   1.674
 4651SOL    HW114852   0.296   2.006   1.605
 4651SOL    HW214853   0.451   1.980   1.650
 4652SOL     OW14854   6.928   0.429   4.818
 4652SOL    HW114855   6.885   0.365   4.883
 4652SOL    HW214856   6.949   0.381   4.733
 4653SOL     OW14857   6.752   6.574   6.957
 4653SOL    HW114858   6.774   6.665   6.922
 4653SOL    HW214859   6.741   6.511   6.879
 4654SOL     OW14860   0.489   0.268   0.555
 4654SOL    HW114861   0.560   0.275   0.626
 4654SOL    HW214862   0.405   0.312   0.587
 4655SOL     OW14863   0.319   4.439   3.188
 4655SOL    HW114864   0.354   4.498   3.115
 4655SOL    HW214865   0.347   4.477   3.277
 4656SOL     OW14866   1.224   0.716   3.339
 4656SOL    HW114867   1.164   0.795   3.348
 4656SOL    HW214868   1.270   0.698   3.426
 4657SOL     OW14869   5.233   6.868   1.495
 4657SOL    HW114870   5.152   6.830   1.450
 4657SOL    HW214871   5.228   6.968   1.492
 4658SOL     OW14872   4.543   0.386   2.910
 4658SOL    HW114873   4.555   0.403   3.007
 4658SOL    HW214874   4.464   0.438   2.877
 4659SOL     OW14875   2.235   2.546   5.173
 4659SOL    HW114876   2.143   2.544   5.135
 4659SOL    HW214877   2.260   2.455   5.206
 4660SOL     OW14878   0.439   1.641   5.830
 4660SOL    HW114879   0.409   1.546   5.826
 4660SOL    HW214880   0.437   1.673   5.925
 4661SOL     OW14881   3.624   4.166   4.640
 4661SOL    HW114882   3.546   4.179   4.579
 4661SOL    HW214883   3.647   4.069   4.644
 4662SOL     OW14884   5.286   0.706   5.625
 4662SOL    HW114885   5.302   0.663   5.714
 4662SOL    HW214886   5.243   0.795   5.639
 4663SOL     OW14887   6.989   2.509   2.450
 4663SOL    HW114888   0.055   2.494   2.408
 4663SOL    HW214889   6.962   2.605   2.439
 4664SOL     OW14890   3.024   2.614   6.921
 4664SOL    HW114891   3.070   2.639   6.836
 4664SOL    HW214892   3.074   2.540   6.966
 4665SOL     OW14893   5.056   0.116   6.884
 4665SOL    HW114894   5.050   0.019   6.863
 4665SOL    HW214895   5.129   0.131   6.951
 4666SOL     OW14896   2.101   1.728   0.427
 4666SOL    HW114897   2.162   1.674   0.485
 4666SOL    HW214898   2.026   1.764   0.483
 4667SOL     OW14899   0.335   4.795   6.981
 4667SOL    HW114900   0.397   4.782   6.905
 4667SOL    HW214901   0.353   4.726   0.028
 4668SOL     OW14902   6.681   1.543   4.766
 4668SOL    HW114903   6.633   1.630   4.782
 4668SOL    HW214904   6.765   1.542   4.820
 4669SOL     OW14905   1.274   6.778   0.370
 4669SOL    HW114906   1.303   6.874   0.371
 4669SOL    HW214907   1.315   6.730   0.448
 4670SOL     OW14908   2.215   1.920   5.121
 4670SOL    HW114909   2.307   1.958   5.108
 4670SOL    HW214910   2.155   1.951   5.047
 4671SOL     OW14911   5.702   3.097   1.637
 4671SOL    HW114912   5.713   3.167   1.708
 4671SOL    HW214913   5.672   3.011   1.679
 4672SOL     OW14914   1.939   3.987   6.415
 4672SOL    HW114915   1.892   3.980   6.504
 4672SOL    HW214916   1.947   4.083   6.389
 4673SOL     OW14917   2.972   0.703   2.222
 4673SOL    HW114918   3.030   0.635   2.266
 4673SOL    HW214919   2.904   0.738   2.287
 4674SOL     OW14920   4.810   5.894   5.300
 4674SOL    HW114921   4.726   5.947   5.289
 4674SOL    HW214922   4.815   5.825   5.229
 4675SOL     OW14923   1.120   4.146   0.083
 4675SOL    HW114924   1.180   4.226   0.080
 4675SOL    HW214925   1.043   4.164   0.145
 4676SOL     OW14926   1.438   5.706   3.446
 4676SOL    HW114927   1.414   5.676   3.354
 4676SOL    HW214928   1.497   5.637   3.489
 4677SOL     OW14929   1.690   2.616   0.137
 4677SOL    HW114930   1.736   2.700   0.165
 4677SOL    HW214931   1.754   2.556   0.089
 4678SOL     OW14932   1.782   4.276   3.006
 4678SOL    HW114933   1.827   4.188   2.993
 4678SOL    HW214934   1.734   4.302   2.923
 4679SOL     OW14935   5.280   6.705   1.213
 4679SOL    HW114936   5.330   6.662   1.288
 4679SOL    HW214937   5.267   6.639   1.139
 4680SOL     OW14938   2.624   1.664   1.598
 4680SOL    HW114939   2.668   1.676   1.687
 4680SOL    HW214940   2.539   1.614   1.610
 4681SOL     OW14941   5.417   4.006   1.153
 4681SOL    HW114942   5.480   3.931   1.176
 4681SOL    HW214943   5.339   4.004   1.215
 4682SOL     OW14944   4.925   3.624   6.035
 4682SOL    HW114945   5.005   3.589   6.085
 4682SOL    HW214946   4.904   3.563   5.959
 4683SOL     OW14947   6.135   4.226   4.025
 4683SOL    HW114948   6.152   4.325   4.023
 4683SOL    HW214949   6.064   4.204   3.958
 4684SOL     OW14950   4.765   6.653   0.176
 4684SOL    HW114951   4.701   6.726   0.197
 4684SOL    HW214952   4.820   6.632   0.257
 4685SOL     OW14953   2.314   3.452   5.802
 4685SOL    HW114954   2.321   3.463   5.901
 4685SOL    HW214955   2.349   3.534   5.757
 4686SOL     OW14956   3.620   5.957   0.552
 4686SOL    HW114957   3.708   5.940   0.596
 4686SOL    HW214958   3.547   5.919   0.609
 4687SOL     OW14959   3.029   0.834   2.539
 4687SOL    HW114960   2.993   0.853   2.448
 4687SOL    HW214961   2.957   0.793   2.595
 4688SOL     OW14962   5.239   2.618   5.871
 4688SOL    HW114963   5.188   2.615   5.957
 4688SOL    HW214964   5.189   2.674   5.804
 4689SOL     OW14965   5.580   0.854   0.266
 4689SOL    HW114966   5.654   0.851   0.333
 4689SOL    HW214967   5.492   0.855   0.313
 4690SOL     OW14968   2.127   1.225   0.587
 4690SOL    HW114969   2.098   1.301   0.645
 4690SOL    HW214970   2.065   1.217   0.509
 4691SOL     OW14971   5.813   4.443   0.524
 4691SOL    HW114972   5.737   4.379   0.515
 4691SOL    HW214973   5.888   4.401   0.575
 4692SOL     OW14974   6.635   4.658   3.088
 4692SOL    HW114975   6.608   4.661   3.185
 4692SOL    HW214976   6.656   4.563   3.063
 4693SOL     OW14977   1.893   0.867   3.453
 4693SOL    HW114978   1.821   0.875   3.384
 4693SOL    HW214979   1.959   0.798   3.425
 4694SOL     OW14980   2.856   1.021   0.673
 4694SOL    HW114981   2.780   1.055   0.618
 4694SOL    HW214982   2.938   1.075   0.654
 4695SOL     OW14983   1.286   5.729   0.769
 4695SOL    HW114984   1.364   5.717   0.707
 4695SOL    HW214985   1.310   5.693   0.860
 4696SOL     OW14986   1.353   5.287   6.121
 4696SOL    HW114987   1.281   5.225   6.090
 4696SOL    HW214988   1.325   5.329   6.208
 4697SOL     OW14989   1.992   4.507   0.799
 4697SOL    HW114990   2.052   4.505   0.719
 4697SOL    HW214991   2.047   4.518   0.882
 4698SOL     OW14992   4.810   0.197   3.733
 4698SOL    HW114993   4.893   0.181   3.787
 4698SOL    HW214994   4.823   0.279   3.677
 4699SOL     OW14995   0.831   0.689   2.275
 4699SOL    HW114996   0.779   0.663   2.357
 4699SOL    HW214997   0.810   0.783   2.251
 4700SOL     OW14998   6.338   2.250   2.803
 4700SOL    HW114999   6.323   2.161   2.846
 4700SOL    HW215000   6.310   2.322   2.866
 4701SOL     OW15001   3.421   2.103   1.884
 4701SOL    HW115002   3.480   2.132   1.959
 4701SOL    HW215003   3.330   2.143   1.895
 4702SOL     OW15004   4.745   4.971   6.605
 4702SOL    HW115005   4.765   4.904   6.676
 4702SOL    HW215006   4.740   5.062   6.646
 4703SOL     OW15007   1.022   4.471   2.734
 4703SOL    HW115008   1.070   4.407   2.795
 4703SOL    HW215009   0.974   4.420   2.663
 4704SOL     OW15010   6.986   6.004   5.834
 4704SOL    HW115011   0.011   5.918   5.825
 4704SOL    HW215012   6.887   5.986   5.838
 4705SOL     OW15013   3.130   2.780   1.335
 4705SOL    HW115014   3.157   2.690   1.368
 4705SOL    HW215015   3.079   2.828   1.407
 4706SOL     OW15016   1.133   0.243   0.567
 4706SOL    HW115017   1.052   0.289   0.531
 4706SOL    HW215018   1.115   0.212   0.660
 4707SOL     OW15019   1.248   6.523   1.512
 4707SOL    HW115020   1.329   6.513   1.570
 4707SOL    HW215021   1.276   6.545   1.419
 4708SOL     OW15022   1.179   2.429   4.167
 4708SOL    HW115023   1.242   2.468   4.235
 4708SOL    HW215024   1.163   2.495   4.094
 4709SOL     OW15025   4.777   4.001   5.114
 4709SOL    HW115026   4.736   4.039   5.031
 4709SOL    HW215027   4.864   3.957   5.091
 4710SOL     OW15028   5.349   6.507   4.206
 4710SOL    HW115029   5.397   6.459   4.133
 4710SOL    HW215030   5.385   6.477   4.295
 4711SOL     OW15031   6.018   3.344   3.153
 4711SOL    HW115032   6.023   3.291   3.069
 4711SOL    HW215033   6.020   3.282   3.232
 4712SOL     OW15034   4.630   4.208   5.295
 4712SOL    HW115035   4.707   4.269   5.313
 4712SOL    HW215036   4.662   4.122   5.255
 4713SOL     OW15037   5.376   3.950   0.891
 4713SOL    HW115038   5.409   3.960   0.984
 4713SOL    HW215039   5.333   4.035   0.860
 4714SOL     OW15040   6.397   1.418   6.537
 4714SOL    HW115041   6.331   1.364   6.484
 4714SOL    HW215042   6.488   1.379   6.527
 4715SOL     OW15043   6.201   1.884   2.647
 4715SOL    HW115044   6.249   1.969   2.664
 4715SOL    HW215045   6.224   1.817   2.718
 4716SOL     OW15046   4.040   5.183   5.805
 4716SOL    HW115047   4.048   5.278   5.774
 4716SOL    HW215048   3.957   5.173   5.860
 4717SOL     OW15049   3.013   5.417   5.588
 4717SOL    HW115050   3.055   5.427   5.498
 4717SOL    HW215051   2.921   5.454   5.586
 4718SOL     OW15052   5.506   3.465   0.824
 4718SOL    HW115053   5.603   3.471   0.848
 4718SOL    HW215054   5.458   3.545   0.858
 4719SOL     OW15055   6.451   3.310   3.662
 4719SOL    HW115056   6.382   3.291   3.732
 4719SOL    HW215057   6.405   3.337   3.577
 4720SOL     OW15058   3.015   4.798   6.942
 4720SOL    HW115059   2.950   4.849   6.998
 4720SOL    HW215060   2.969   4.764   6.860
 4721SOL     OW15061   6.113   3.522   2.513
 4721SOL    HW115062   6.175   3.526   2.435
 4721SOL    HW215063   6.094   3.614   2.546
 4722SOL     OW15064   1.260   4.415   6.552
 4722SOL    HW115065   1.272   4.324   6.514
 4722SOL    HW215066   1.261   4.482   6.478
 4723SOL     OW15067   3.817   4.084   6.121
 4723SOL    HW115068   3.804   4.146   6.044
 4723SOL    HW215069   3.879   4.010   6.093
 4724SOL     OW15070   0.497   6.465   4.249
 4724SOL    HW115071   0.451   6.462   4.160
 4724SOL    HW215072   0.431   6.446   4.321
 4725SOL     OW15073   5.624   5.126   0.838
 4725SOL    HW115074   5.616   5.077   0.751
 4725SOL    HW215075   5.535   5.130   0.883
 4726SOL     OW15076   1.899   3.036   5.816
 4726SOL    HW115077   1.886   2.950   5.864
 4726SOL    HW215078   1.993   3.068   5.828
 4727SOL     OW15079   0.707   5.936   0.980
 4727SOL    HW115080   0.790   5.882   0.996
 4727SOL    HW215081   0.689   5.943   0.882
 4728SOL     OW15082   6.252   0.848   3.381
 4728SOL    HW115083   6.233   0.914   3.454
 4728SOL    HW215084   6.230   0.756   3.412
 4729SOL     OW15085   6.302   0.839   0.253
 4729SOL    HW115086   6.289   0.861   0.157
 4729SOL    HW215087   6.400   0.831   0.273
 4730SOL     OW15088   3.297   6.428   4.739
 4730SOL    HW115089   3.204   6.390   4.741
 4730SOL    HW215090   3.361   6.363   4.778
 4731SOL     OW15091   3.121   0.117   0.720
 4731SOL    HW115092   3.138   0.019   0.715
 4731SOL    HW215093   3.190   0.166   0.665
 4732SOL     OW15094   0.363   3.872   4.330
 4732SOL    HW115095   0.303   3.846   4.254
 4732SOL    HW215096   0.406   3.960   4.310
 4733SOL     OW15097   2.051   3.579   3.194
 4733SOL    HW115098   2.071   3.540   3.284
 4733SOL    HW215099   2.111   3.536   3.126
 4734SOL     OW15100   5.410   3.651   6.135
 4734SOL    HW115101   5.453   3.741   6.137
 4734SOL    HW215102   5.443   3.595   6.211
 4735SOL     OW15103   6.961   6.428   5.064
 4735SOL    HW115104   6.990   6.475   5.147
 4735SOL    HW215105   0.014   6.424   5.000
 4736SOL     OW15106   6.666   1.951   3.544
 4736SOL    HW115107   6.753   1.904   3.560
 4736SOL    HW215108   6.654   2.022   3.613
 4737SOL     OW15109   1.821   5.083   1.209
 4737SOL    HW115110   1.791   5.014   1.275
 4737SOL    HW215111   1.829   5.171   1.256
 4738SOL     OW15112   2.151   0.301   3.762
 4738SOL    HW115113   2.152   0.400   3.749
 4738SOL    HW215114   2.241   0.263   3.740
 4739SOL     OW15115   6.090   3.340   4.704
 4739SOL    HW115116   5.993   3.336   4.727
 4739SOL    HW215117   6.126   3.430   4.728
 4740SOL     OW15118   0.613   0.956   1.916
 4740SOL    HW115119   0.709   0.961   1.942
 4740SOL    HW215120   0.579   0.863   1.930
 4741SOL     OW15121   4.180   4.853   1.282
 4741SOL    HW115122   4.133   4.790   1.343
 4741SOL    HW215123   4.164   4.826   1.187
 4742SOL     OW15124   2.901   6.020   1.055
 4742SOL    HW115125   2.802   6.034   1.052
 4742SOL    HW215126   2.942   6.051   0.968
 4743SOL     OW15127   2.374   1.876   6.425
 4743SOL    HW115128   2.295   1.915   6.471
 4743SOL    HW215129   2.373   1.903   6.328
 4744SOL     OW15130   2.008   3.607   5.440
 4744SOL    HW115131   1.938   3.549   5.481
 4744SOL    HW215132   2.026   3.577   5.347
 4745SOL     OW15133   3.210   5.152   5.065
 4745SOL    HW115134   3.290   5.204   5.096
 4745SOL    HW215135   3.224   5.123   4.970
 4746SOL     OW15136   6.000   6.023   0.358
 4746SOL    HW115137   5.967   6.076   0.436
 4746SOL    HW215138   6.030   5.933   0.389
 4747SOL     OW15139   7.011   2.293   0.343
 4747SOL    HW115140   0.084   2.284   0.318
 4747SOL    HW215141   6.966   2.204   0.332
 4748SOL     OW15142   1.118   0.273   1.558
 4748SOL    HW115143   1.070   0.191   1.592
 4748SOL    HW215144   1.173   0.249   1.478
 4749SOL     OW15145   1.963   6.373   6.706
 4749SOL    HW115146   1.900   6.351   6.632
 4749SOL    HW215147   2.014   6.456   6.683
 4750SOL     OW15148   0.028   1.248   4.405
 4750SOL    HW115149   6.998   1.211   4.329
 4750SOL    HW215150   6.990   1.296   4.468
 4751SOL     OW15151   1.536   4.704   6.497
 4751SOL    HW115152   1.510   4.715   6.401
 4751SOL    HW215153   1.459   4.729   6.556
 4752SOL     OW15154   2.813   6.658   1.577
 4752SOL    HW115155   2.721   6.630   1.551
 4752SOL    HW215156   2.811   6.749   1.617
 4753SOL     OW15157   5.541   6.856   5.330
 4753SOL    HW115158   5.522   6.883   5.235
 4753SOL    HW215159   5.550   6.938   5.386
 4754SOL     OW15160   0.323   6.996   6.145
 4754SOL    HW115161   0.289   6.911   6.185
 4754SOL    HW215162   0.309   6.994   6.046
 4755SOL     OW15163   2.315   1.598   6.108
 4755SOL    HW115164   2.251   1.668   6.077
 4755SOL    HW215165   2.345   1.620   6.201
 4756SOL     OW15166   4.504   2.851   1.598
 4756SOL    HW115167   4.521   2.828   1.502
 4756SOL    HW215168   4.553   2.787   1.656
 4757SOL     OW15169   2.431   2.077   1.983
 4757SOL    HW115170   2.504   2.108   2.044
 4757SOL    HW215171   2.382   2.001   2.026
 4758SOL     OW15172   4.917   4.943   5.551
 4758SOL    HW115173   4.932   4.845   5.543
 4758SOL    HW215174   4.997   4.986   5.594
 4759SOL     OW15175   5.462   6.016   5.981
 4759SOL    HW115176   5.483   5.962   6.062
 4759SOL    HW215177   5.374   5.988   5.944
 4760SOL     OW15178   1.703   1.230   1.282
 4760SOL    HW115179   1.764   1.152   1.296
 4760SOL    HW215180   1.625   1.201   1.227
 4761SOL     OW15181   6.877   0.296   6.454
 4761SOL    HW115182   6.883   0.197   6.448
 4761SOL    HW215183   6.928   0.328   6.534
 4762SOL     OW15184   2.910   5.083   2.383
 4762SOL    HW115185   2.818   5.052   2.360
 4762SOL    HW215186   2.953   5.125   2.303
 4763SOL     OW15187   5.816   6.169   3.005
 4763SOL    HW115188   5.879   6.164   3.083
 4763SOL    HW215189   5.806   6.077   2.966
 4764SOL     OW15190   4.483   3.717   5.383
 4764SOL    HW115191   4.537   3.660   5.320
 4764SOL    HW215192   4.517   3.705   5.476
 4765SOL     OW15193   4.551   6.042   5.268
 4765SOL    HW115194   4.530   6.097   5.187
 4765SOL    HW215195   4.533   6.095   5.350
 4766SOL     OW15196   2.755   0.266   3.267
 4766SOL    HW115197   2.682   0.198   3.271
 4766SOL    HW215198   2.751   0.315   3.180
 4767SOL     OW15199   4.009   6.818   0.699
 4767SOL    HW115200   4.058   6.816   0.787
 4767SOL    HW215201   3.962   6.731   0.685
 4768SOL     OW15202   5.586   0.931   4.529
 4768SOL    HW115203   5.583   1.026   4.500
 4768SOL    HW215204   5.680   0.897   4.524
 4769SOL     OW15205   3.932   6.028   1.861
 4769SOL    HW115206   4.000   6.037   1.934
 4769SOL    HW215207   3.976   6.046   1.773
 4770SOL     OW15208   2.334   0.523   3.089
 4770SOL    HW115209   2.252   0.534   3.146
 4770SOL    HW215210   2.382   0.440   3.116
 4771SOL     OW15211   3.458   4.626   6.171
 4771SOL    HW115212   3.463   4.700   6.239
 4771SOL    HW215213   3.372   4.576   6.184
 4772SOL     OW15214   2.663   0.618   1.309
 4772SOL    HW115215   2.667   0.710   1.346
 4772SOL    HW215216   2.635   0.554   1.381
 4773SOL     OW15217   0.427   5.940   3.915
 4773SOL    HW115218   0.397   5.849   3.888
 4773SOL    HW215219   0.393   5.961   4.007
 4774SOL     OW15220   0.827   3.515   2.083
 4774SOL    HW115221   0.791   3.598   2.127
 4774SOL    HW215222   0.926   3.522   2.075
 4775SOL     OW15223   4.498   0.490   3.167
 4775SOL    HW115224   4.506   0.390   3.169
 4775SOL    HW215225   4.407   0.516   3.198
 4776SOL     OW15226   2.935   6.173   2.425
 4776SOL    HW115227   2.920   6.103   2.355
 4776SOL    HW215228   2.942   6.130   2.515
 4777SOL     OW15229   2.225   4.589   0.983
 4777SOL    HW115230   2.275   4.607   1.068
 4777SOL    HW215231   2.180   4.673   0.952
 4778SOL     OW15232   4.763   3.449   1.735
 4778SOL    HW115233   4.668   3.429   1.712
 4778SOL    HW215234   4.788   3.401   1.819
 4779SOL     OW15235   6.590   0.628   3.271
 4779SOL    HW115236   6.652   0.609   3.347
 4779SOL    HW215237   6.542   0.714   3.289
 4780SOL     OW15238   0.941   6.660   5.795
 4780SOL    HW115239   0.855   6.612   5.816
 4780SOL    HW215240   0.925   6.726   5.722
 4781SOL     OW15241   2.279   5.320   1.167
 4781SOL    HW115242   2.363   5.332   1.220
 4781SOL    HW215243   2.200   5.321   1.229
 4782SOL     OW15244   5.707   0.100   6.615
 4782SOL    HW115245   5.794   0.067   6.578
 4782SOL    HW215246   5.632   0.065   6.558
 4783SOL     OW15247   5.100   3.830   1.045
 4783SOL    HW115248   5.141   3.815   1.136
 4783SOL    HW215249   5.154   3.898   0.996
 4784SOL     OW15250   5.912   5.018   5.533
 4784SOL    HW115251   5.927   4.919   5.534
 4784SOL    HW215252   5.889   5.047   5.440
 4785SOL     OW15253   6.653   6.574   0.760
 4785SOL    HW115254   6.698   6.604   0.676
 4785SOL    HW215255   6.591   6.499   0.740
 4786SOL     OW15256   2.058   3.125   2.088
 4786SOL    HW115257   2.113   3.138   2.006
 4786SOL    HW215258   2.068   3.032   2.122
 4787SOL     OW15259   3.349   2.145   3.588
 4787SOL    HW115260   3.285   2.136   3.511
 4787SOL    HW215261   3.430   2.090   3.571
 4788SOL     OW15262   1.726   5.250   5.132
 4788SOL    HW115263   1.813   5.201   5.128
 4788SOL    HW215264   1.721   5.302   5.217
 4789SOL     OW15265   5.679   0.724   6.912
 4789SOL    HW115266   5.726   0.813   6.916
 4789SOL    HW215267   5.651   0.697   7.004
 4790SOL     OW15268   5.502   2.167   6.761
 4790SOL    HW115269   5.525   2.222   6.840
 4790SOL    HW215270   5.522   2.071   6.780
 4791SOL     OW15271   5.504   6.819   2.113
 4791SOL    HW115272   5.597   6.789   2.135
 4791SOL    HW215273   5.438   6.771   2.171
 4792SOL     OW15274   2.236   2.688   2.920
 4792SOL    HW115275   2.146   2.656   2.948
 4792SOL    HW215276   2.271   2.629   2.847
 4793SOL     OW15277   1.314   6.865   6.112
 4793SOL    HW115278   1.281   6.952   6.150
 4793SOL    HW215279   1.343   6.805   6.187
 4794SOL     OW15280   2.517   6.242   3.111
 4794SOL    HW115281   2.508   6.335   3.077
 4794SOL    HW215282   2.497   6.240   3.209
 4795SOL     OW15283   6.549   2.904   4.436
 4795SOL    HW115284   6.455   2.938   4.435
 4795SOL    HW215285   6.550   2.806   4.456
 4796SOL     OW15286   5.548   3.426   0.188
 4796SOL    HW115287   5.581   3.520   0.181
 4796SOL    HW215288   5.460   3.425   0.235
 4797SOL     OW15289   0.824   4.684   5.753
 4797SOL    HW115290   0.847   4.777   5.781
 4797SOL    HW215291   0.728   4.680   5.727
 4798SOL     OW15292   0.259   4.263   4.169
 4798SOL    HW115293   0.351   4.295   4.193
 4798SOL    HW215294   0.219   4.326   4.102
 4799SOL     OW15295   4.990   1.329   4.916
 4799SOL    HW115296   5.036   1.264   4.855
 4799SOL    HW215297   4.899   1.295   4.938
 4800SOL     OW15298   2.575   2.822   5.638
 4800SOL    HW115299   2.625   2.735   5.632
 4800SOL    HW215300   2.531   2.841   5.550
 4801SOL     OW15301   1.525   1.657   0.629
 4801SOL    HW115302   1.550   1.576   0.683
 4801SOL    HW215303   1.472   1.628   0.549
 4802SOL     OW15304   2.839   6.605   1.857
 4802SOL    HW115305   2.853   6.611   1.758
 4802SOL    HW215306   2.742   6.617   1.878
 4803SOL     OW15307   0.659   6.778   0.682
 4803SOL    HW115308   0.717   6.845   0.729
 4803SOL    HW215309   0.714   6.730   0.613
 4804SOL     OW15310   4.342   5.116   6.374
 4804SOL    HW115311   4.373   5.069   6.291
 4804SOL    HW215312   4.323   5.212   6.352
 4805SOL     OW15313   6.878   1.072   0.362
 4805SOL    HW115314   6.782   1.096   0.374
 4805SOL    HW215315   6.907   1.013   0.438
 4806SOL     OW15316   0.302   4.069   3.353
 4806SOL    HW115317   0.278   3.985   3.401
 4806SOL    HW215318   0.319   4.142   3.419
 4807SOL     OW15319   0.639   5.747   1.645
 4807SOL    HW115320   0.591   5.666   1.679
 4807SOL    HW215321   0.680   5.728   1.556
 4808SOL     OW15322   5.413   3.513   1.754
 4808SOL    HW115323   5.343   3.501   1.683
 4808SOL    HW215324   5.452   3.424   1.776
 4809SOL     OW15325   2.956   5.322   0.096
 4809SOL    HW115326   3.025   5.263   0.138
 4809SOL    HW215327   2.990   5.357   0.009
 4810SOL     OW15328   0.583   5.498   1.390
 4810SOL    HW115329   0.511   5.462   1.331
 4810SOL    HW215330   0.638   5.564   1.338
 4811SOL     OW15331   3.472   5.251   2.046
 4811SOL    HW115332   3.406   5.235   2.119
 4811SOL    HW215333   3.426   5.293   1.967
 4812SOL     OW15334   7.017   5.466   3.887
 4812SOL    HW115335   7.003   5.516   3.972
 4812SOL    HW215336   6.966   5.380   3.891
 4813SOL     OW15337   5.014   1.775   2.109
 4813SOL    HW115338   4.925   1.793   2.151
 4813SOL    HW215339   5.077   1.740   2.178
 4814SOL     OW15340   6.931   3.632   1.093
 4814SOL    HW115341   6.847   3.579   1.085
 4814SOL    HW215342   6.914   3.727   1.069
 4815SOL     OW15343   4.582   5.452   1.556
 4815SOL    HW115344   4.566   5.362   1.598
 4815SOL    HW215345   4.634   5.509   1.619
 4816SOL     OW15346   5.547   5.116   2.512
 4816SOL    HW115347   5.487   5.081   2.440
 4816SOL    HW215348   5.627   5.159   2.469
 4817SOL     OW15349   1.297   2.590   5.609
 4817SOL    HW115350   1.268   2.495   5.592
 4817SOL    HW215351   1.301   2.606   5.707
 4818SOL     OW15352   6.861   0.070   3.917
 4818SOL    HW115353   6.933   0.139   3.909
 4818SOL    HW215354   6.778   0.112   3.955
 4819SOL     OW15355   1.512   3.378   0.002
 4819SOL    HW115356   1.598   3.327   0.010
 4819SOL    HW215357   1.516   3.438   6.945
 4820SOL     OW15358   6.687   3.582   2.316
 4820SOL    HW115359   6.598   3.542   2.296
 4820SOL    HW215360   6.754   3.548   2.250
 4821SOL     OW15361   0.011   6.112   2.294
 4821SOL    HW115362   6.998   6.195   2.251
 4821SOL    HW215363   0.109   6.124   2.312
 4822SOL     OW15364   1.098   4.116   4.294
 4822SOL    HW115365   1.022   4.160   4.343
 4822SOL    HW215366   1.125   4.033   4.341
 4823SOL     OW15367   1.621   2.754   2.025
 4823SOL    HW115368   1.645   2.657   2.025
 4823SOL    HW215369   1.640   2.792   2.116
 4824SOL     OW15370   5.352   0.258   5.207
 4824SOL    HW115371   5.387   0.265   5.300
 4824SOL    HW215372   5.252   0.251   5.209
 4825SOL     OW15373   1.359   0.734   4.619
 4825SOL    HW115374   1.281   0.692   4.574
 4825SOL    HW215375   1.408   0.793   4.554
 4826SOL     OW15376   4.652   0.216   1.519
 4826SOL    HW115377   4.709   0.236   1.598
 4826SOL    HW215378   4.624   0.302   1.476
 4827SOL     OW15379   0.187   1.940   0.908
 4827SOL    HW115380   0.119   1.983   0.848
 4827SOL    HW215381   0.217   2.005   0.977
 4828SOL     OW15382   4.591   0.596   2.508
 4828SOL    HW115383   4.561   0.646   2.589
 4828SOL    HW215384   4.691   0.593   2.506
 4829SOL     OW15385   4.060   6.824   5.680
 4829SOL    HW115386   4.100   6.871   5.759
 4829SOL    HW215387   3.985   6.879   5.643
 4830SOL     OW15388   3.202   5.577   3.543
 4830SOL    HW115389   3.249   5.572   3.455
 4830SOL    HW215390   3.154   5.664   3.550
 4831SOL     OW15391   3.583   5.212   6.097
 4831SOL    HW115392   3.545   5.301   6.073
 4831SOL    HW215393   3.509   5.146   6.109
 4832SOL     OW15394   2.937   3.510   4.554
 4832SOL    HW115395   3.026   3.473   4.583
 4832SOL    HW215396   2.936   3.519   4.455
 4833SOL     OW15397   6.298   2.815   4.690
 4833SOL    HW115398   6.263   2.772   4.774
 4833SOL    HW215399   6.279   2.913   4.693
 4834SOL     OW15400   2.258   5.549   1.917
 4834SOL    HW115401   2.211   5.477   1.866
 4834SOL    HW215402   2.221   5.554   2.009
 4835SOL     OW15403   6.904   2.958   5.381
 4835SOL    HW115404   6.827   2.897   5.398
 4835SOL    HW215405   6.951   2.930   5.296
 4836SOL     OW15406   5.107   1.063   5.044
 4836SOL    HW115407   5.094   0.965   5.026
 4836SOL    HW215408   5.099   1.113   4.958
 4837SOL     OW15409   6.951   3.444   4.365
 4837SOL    HW115410   6.967   3.384   4.444
 4837SOL    HW215411   6.986   3.401   4.282
 4838SOL     OW15412   1.245   4.601   6.347
 4838SOL    HW115413   1.193   4.667   6.401
 4838SOL    HW215414   1.302   4.650   6.281
 4839SOL     OW15415   2.218   2.161   0.769
 4839SOL    HW115416   2.212   2.260   0.757
 4839SOL    HW215417   2.311   2.137   0.799
 4840SOL     OW15418   5.636   3.268   5.441
 4840SOL    HW115419   5.552   3.292   5.391
 4840SOL    HW215420   5.714   3.272   5.379
 4841SOL     OW15421   3.252   5.307   3.229
 4841SOL    HW115422   3.342   5.286   3.189
 4841SOL    HW215423   3.243   5.406   3.240
 4842SOL     OW15424   2.775   5.339   3.184
 4842SOL    HW115425   2.696   5.310   3.238
 4842SOL    HW215426   2.859   5.313   3.230
 4843SOL     OW15427   0.228   2.412   2.436
 4843SOL    HW115428   0.259   2.498   2.396
 4843SOL    HW215429   0.264   2.335   2.383
 4844SOL     OW15430   1.584   5.418   5.367
 4844SOL    HW115431   1.527   5.445   5.289
 4844SOL    HW215432   1.548   5.334   5.406
 4845SOL     OW15433   4.702   4.216   4.953
 4845SOL    HW115434   4.646   4.298   4.941
 4845SOL    HW215435   4.794   4.242   4.981
 4846SOL     OW15436   6.853   3.592   5.044
 4846SOL    HW115437   6.820   3.528   4.974
 4846SOL    HW215438   6.856   3.546   5.132
 4847SOL     OW15439   2.541   6.437   5.955
 4847SOL    HW115440   2.522   6.471   5.863
 4847SOL    HW215441   2.490   6.353   5.971
 4848SOL     OW15442   2.593   0.657   3.947
 4848SOL    HW115443   2.512   0.710   3.923
 4848SOL    HW215444   2.661   0.666   3.874
 4849SOL     OW15445   1.973   6.649   1.436
 4849SOL    HW115446   1.931   6.739   1.433
 4849SOL    HW215447   2.069   6.657   1.465
 4850SOL     OW15448   4.721   0.799   0.494
 4850SOL    HW115449   4.798   0.737   0.480
 4850SOL    HW215450   4.673   0.774   0.578
 4851SOL     OW15451   3.547   5.883   6.985
 4851SOL    HW115452   3.638   5.859   6.952
 4851SOL    HW215453   3.487   5.804   6.980
 4852SOL     OW15454   4.414   5.176   5.203
 4852SOL    HW115455   4.436   5.143   5.111
 4852SOL    HW215456   4.438   5.273   5.210
 4853SOL     OW15457   4.097   1.141   3.218
 4853SOL    HW115458   4.055   1.079   3.152
 4853SOL    HW215459   4.060   1.233   3.206
 4854SOL     OW15460   5.936   6.231   1.430
 4854SOL    HW115461   6.007   6.191   1.489
 4854SOL    HW215462   5.962   6.324   1.405
 4855SOL     OW15463   6.230   5.061   4.420
 4855SOL    HW115464   6.322   5.066   4.381
 4855SOL    HW215465   6.188   5.152   4.419
 4856SOL     OW15466   0.218   3.688   3.161
 4856SOL    HW115467   0.188   3.721   3.071
 4856SOL    HW215468   0.287   3.616   3.148
 4857SOL     OW15469   2.716   2.249   4.185
 4857SOL    HW115470   2.794   2.200   4.223
 4857SOL    HW215471   2.671   2.301   4.258
 4858SOL     OW15472   0.233   6.154   4.563
 4858SOL    HW115473   0.332   6.157   4.556
 4858SOL    HW215474   0.207   6.147   4.660
 4859SOL     OW15475   0.493   5.834   2.225
 4859SOL    HW115476   0.553   5.784   2.163
 4859SOL    HW215477   0.478   5.926   2.189
 4860SOL     OW15478   5.093   5.610   0.911
 4860SOL    HW115479   5.101   5.619   0.812
 4860SOL    HW215480   5.141   5.686   0.955
 4861SOL     OW15481   0.600   4.705   6.508
 4861SOL    HW115482   0.610   4.720   6.607
 4861SOL    HW215483   0.682   4.660   6.473
 4862SOL     OW15484   2.662   4.581   5.337
 4862SOL    HW115485   2.747   4.577   5.285
 4862SOL    HW215486   2.605   4.502   5.312
 4863SOL     OW15487   4.594   2.464   3.027
 4863SOL    HW115488   4.652   2.389   3.057
 4863SOL    HW215489   4.508   2.427   2.991
 4864SOL     OW15490   2.630   1.070   1.652
 4864SOL    HW115491   2.695   1.092   1.579
 4864SOL    HW215492   2.617   1.151   1.710
 4865SOL     OW15493   3.787   5.948   5.337
 4865SOL    HW115494   3.741   5.860   5.325
 4865SOL    HW215495   3.763   5.986   5.426
 4866SOL     OW15496   5.671   4.605   1.349
 4866SOL    HW115497   5.736   4.672   1.313
 4866SOL    HW215498   5.717   4.517   1.363
 4867SOL     OW15499   5.085   5.935   2.402
 4867SOL    HW115500   5.055   5.875   2.476
 4867SOL    HW215501   5.163   5.893   2.355
 4868SOL     OW15502   0.072   5.631   1.169
 4868SOL    HW115503   0.108   5.699   1.233
 4868SOL    HW215504   0.137   5.617   1.095
 4869SOL     OW15505   0.237   1.242   0.104
 4869SOL    HW115506   0.144   1.237   0.066
 4869SOL    HW215507   0.296   1.179   0.055
 4870SOL     OW15508   5.311   6.541   2.044
 4870SOL    HW115509   5.341   6.565   1.952
 4870SOL    HW215510   5.392   6.529   2.103
 4871SOL     OW15511   1.365   2.834   3.602
 4871SOL    HW115512   1.317   2.780   3.533
 4871SOL    HW215513   1.353   2.931   3.583
 4872SOL     OW15514   1.299   0.193   2.368
 4872SOL    HW115515   1.299   0.272   2.307
 4872SOL    HW215516   1.210   0.148   2.364
 4873SOL     OW15517   0.063   5.493   5.197
 4873SOL    HW115518   0.108   5.565   5.144
 4873SOL    HW215519   0.132   5.433   5.238
 4874SOL     OW15520   5.268   3.720   3.212
 4874SOL    HW115521   5.297   3.707   3.117
 4874SOL    HW215522   5.299   3.810   3.244
 4875SOL     OW15523   5.551   1.944   1.013
 4875SOL    HW115524   5.608   2.016   1.053
 4875SOL    HW215525   5.511   1.888   1.085
 4876SOL     OW15526   0.210   1.562   0.099
 4876SOL    HW115527   0.153   1.488   0.133
 4876SOL    HW215528   0.160   1.649   0.106
 4877SOL     OW15529   6.413   0.773   1.240
 4877SOL    HW115530   6.360   0.762   1.156
 4877SOL    HW215531   6.374   0.716   1.312
 4878SOL     OW15532   6.564   1.562   1.753
 4878SOL    HW115533   6.656   1.524   1.739
 4878SOL    HW215534   6.558   1.601   1.845
 4879SOL     OW15535   4.618   5.349   3.625
 4879SOL    HW115536   4.585   5.350   3.531
 4879SOL    HW215537   4.647   5.257   3.650
 4880SOL     OW15538   5.724   1.587   6.531
 4880SOL    HW115539   5.776   1.623   6.455
 4880SOL    HW215540   5.719   1.487   6.524
 4881SOL     OW15541   3.563   6.190   6.232
 4881SOL    HW115542   3.649   6.147   6.204
 4881SOL    HW215543   3.501   6.195   6.155
 4882SOL     OW15544   6.064   0.549   5.765
 4882SOL    HW115545   6.026   0.459   5.741
 4882SOL    HW215546   6.016   0.584   5.846
 4883SOL     OW15547   6.778   4.766   1.864
 4883SOL    HW115548   6.738   4.812   1.785
 4883SOL    HW215549   6.719   4.691   1.893
 4884SOL     OW15550   3.567   6.348   2.037
 4884SOL    HW115551   3.474   6.348   1.999
 4884SOL    HW215552   3.562   6.350   2.137
 4885SOL     OW15553   1.862   6.905   1.393
 4885SOL    HW115554   1.828   6.966   1.465
 4885SOL    HW215555   1.895   6.960   1.316
 4886SOL     OW15556   6.577   0.785   0.035
 4886SOL    HW115557   6.573   0.770   0.134
 4886SOL    HW215558   6.673   0.792   0.007
 4887SOL     OW15559   0.328   2.340   3.629
 4887SOL    HW115560   0.336   2.431   3.588
 4887SOL    HW215561   0.398   2.329   3.699
 4888SOL     OW15562   2.412   5.771   2.586
 4888SOL    HW115563   2.427   5.698   2.520
 4888SOL    HW215564   2.334   5.747   2.645
 4889SOL     OW15565   1.163   1.771   0.384
 4889SOL    HW115566   1.247   1.716   0.389
 4889SOL    HW215567   1.184   1.860   0.345
 4890SOL     OW15568   1.329   1.063   4.674
 4890SOL    HW115569   1.282   1.075   4.762
 4890SOL    HW215570   1.305   1.139   4.613
 4891SOL     OW15571   0.888   4.748   0.533
 4891SOL    HW115572   0.860   4.801   0.612
 4891SOL    HW215573   0.964   4.795   0.487
 4892SOL     OW15574   0.421   5.603   1.163
 4892SOL    HW115575   0.479   5.674   1.202
 4892SOL    HW215576   0.381   5.636   1.078
 4893SOL     OW15577   0.759   3.461   6.486
 4893SOL    HW115578   0.842   3.406   6.482
 4893SOL    HW215579   0.772   3.546   6.436
 4894SOL     OW15580   2.130   1.108   3.299
 4894SOL    HW115581   2.132   1.009   3.281
 4894SOL    HW215582   2.224   1.143   3.300
 4895SOL     OW15583   0.982   2.875   0.112
 4895SOL    HW115584   0.974   2.896   0.209
 4895SOL    HW215585   1.020   2.954   0.064
 4896SOL     OW15586   3.666   5.004   5.094
 4896SOL    HW115587   3.655   4.950   5.177
 4896SOL    HW215588   3.729   5.080   5.112
 4897SOL     OW15589   3.815   5.762   6.914
 4897SOL    HW115590   3.778   5.678   6.875
 4897SOL    HW215591   3.834   5.748   7.011
 4898SOL     OW15592   5.147   1.576   5.302
 4898SOL    HW115593   5.160   1.653   5.365
 4898SOL    HW215594   5.211   1.503   5.325
 4899SOL     OW15595   5.964   4.509   3.636
 4899SOL    HW115596   6.059   4.481   3.644
 4899SOL    HW215597   5.928   4.482   3.546
 4900SOL     OW15598   1.020   6.775   5.507
 4900SOL    HW115599   1.081   6.703   5.540
 4900SOL    HW215600   1.043   6.861   5.552
 4901SOL     OW15601   0.669   6.670   3.757
 4901SOL    HW115602   0.577   6.707   3.746
 4901SOL    HW215603   0.690   6.662   3.855
 4902SOL     OW15604   2.196   4.891   1.659
 4902SOL    HW115605   2.213   4.794   1.678
 4902SOL    HW215606   2.221   4.946   1.739
 4903SOL     OW15607   4.656   0.135   6.664
 4903SOL    HW115608   4.672   0.078   6.745
 4903SOL    HW215609   4.592   0.208   6.688
 4904SOL     OW15610   2.744   6.009   4.297
 4904SOL    HW115611   2.682   5.936   4.327
 4904SOL    HW215612   2.796   6.043   4.375
 4905SOL     OW15613   4.807   3.044   1.718
 4905SOL    HW115614   4.722   3.039   1.770
 4905SOL    HW215615   4.883   3.009   1.773
 4906SOL     OW15616   4.752   0.369   0.246
 4906SOL    HW115617   4.731   0.308   0.323
 4906SOL    HW215618   4.821   0.326   0.188
 4907SOL     OW15619   3.620   0.613   3.691
 4907SOL    HW115620   3.566   0.660   3.621
 4907SOL    HW215621   3.670   0.537   3.649
 4908SOL     OW15622   3.526   6.526   6.836
 4908SOL    HW115623   3.586   6.582   6.893
 4908SOL    HW215624   3.436   6.518   6.879
 4909SOL     OW15625   6.362   6.597   5.216
 4909SOL    HW115626   6.456   6.613   5.248
 4909SOL    HW215627   6.335   6.504   5.239
 4910SOL     OW15628   5.674   0.503   5.172
 4910SOL    HW115629   5.636   0.568   5.106
 4910SOL    HW215630   5.649   0.410   5.146
 4911SOL     OW15631   6.549   2.695   6.021
 4911SOL    HW115632   6.519   2.656   6.108
 4911SOL    HW215633   6.649   2.703   6.020
 4912SOL     OW15634   3.599   1.916   2.423
 4912SOL    HW115635   3.615   1.826   2.383
 4912SOL    HW215636   3.620   1.987   2.356
 4913SOL     OW15637   3.492   4.164   3.413
 4913SOL    HW115638   3.534   4.171   3.504
 4913SOL    HW215639   3.430   4.242   3.400
 4914SOL     OW15640   2.587   6.581   3.424
 4914SOL    HW115641   2.521   6.587   3.349
 4914SOL    HW215642   2.648   6.503   3.409
 4915SOL     OW15643   3.892   6.007   3.982
 4915SOL    HW115644   3.910   5.910   4.001
 4915SOL    HW215645   3.937   6.032   3.896
 4916SOL     OW15646   2.237   1.528   2.751
 4916SOL    HW115647   2.188   1.612   2.773
 4916SOL    HW215648   2.334   1.540   2.770
 4917SOL     OW15649   2.086   4.826   0.961
 4917SOL    HW115650   1.998   4.782   0.974
 4917SOL    HW215651   2.123   4.854   1.050
 4918SOL     OW15652   2.453   0.355   2.276
 4918SOL    HW115653   2.551   0.368   2.293
 4918SOL    HW215654   2.420   0.426   2.214
 4919SOL     OW15655   2.479   2.572   1.987
 4919SOL    HW115656   2.557   2.522   1.949
 4919SOL    HW215657   2.395   2.546   1.938
 4920SOL     OW15658   4.314   0.694   0.481
 4920SOL    HW115659   4.274   0.639   0.554
 4920SOL    HW215660   4.261   0.778   0.470
 4921SOL     OW15661   1.467   4.399   1.858
 4921SOL    HW115662   1.437   4.474   1.799
 4921SOL    HW215663   1.503   4.437   1.943
 4922SOL     OW15664   1.565   3.089   5.007
 4922SOL    HW115665   1.626   3.019   4.969
 4922SOL    HW215666   1.563   3.082   5.106
 4923SOL     OW15667   5.020   1.045   1.434
 4923SOL    HW115668   5.037   1.043   1.335
 4923SOL    HW215669   5.080   0.979   1.480
 4924SOL     OW15670   0.673   4.074   4.737
 4924SOL    HW115671   0.755   4.037   4.781
 4924SOL    HW215672   0.656   4.024   4.652
 4925SOL     OW15673   5.118   6.425   0.139
 4925SOL    HW115674   5.067   6.409   0.223
 4925SOL    HW215675   5.082   6.507   0.093
 4926SOL     OW15676   4.925   2.681   1.914
 4926SOL    HW115677   4.874   2.669   1.999
 4926SOL    HW215678   4.915   2.599   1.857
 4927SOL     OW15679   3.326   2.939   3.236
 4927SOL    HW115680   3.253   2.991   3.282
 4927SOL    HW215681   3.372   2.880   3.302
 4928SOL     OW15682   0.422   6.012   6.958
 4928SOL    HW115683   0.324   6.023   6.976
 4928SOL    HW215684   0.441   5.917   6.932
 4929SOL     OW15685   0.917   5.169   4.333
 4929SOL    HW115686   0.918   5.077   4.294
 4929SOL    HW215687   1.003   5.216   4.310
 4930SOL     OW15688   0.470   1.904   0.769
 4930SOL    HW115689   0.390   1.871   0.819
 4930SOL    HW215690   0.459   2.001   0.748
 4931SOL     OW15691   0.272   1.090   0.333
 4931SOL    HW115692   0.252   0.994   0.312
 4931SOL    HW215693   0.239   1.148   0.260
 4932SOL     OW15694   2.566   2.308   1.379
 4932SOL    HW115695   2.628   2.379   1.346
 4932SOL    HW215696   2.487   2.351   1.424
 4933SOL     OW15697   2.512   1.172   3.890
 4933SOL    HW115698   2.526   1.160   3.989
 4933SOL    HW215699   2.464   1.259   3.874
 4934SOL     OW15700   1.030   6.078   4.625
 4934SOL    HW115701   1.057   6.006   4.561
 4934SOL    HW215702   1.022   6.165   4.578
 4935SOL     OW15703   1.371   0.963   6.891
 4935SOL    HW115704   1.349   1.050   6.935
 4935SOL    HW215705   1.363   0.973   6.792
 4936SOL     OW15706   3.800   5.654   1.184
 4936SOL    HW115707   3.874   5.722   1.192
 4936SOL    HW215708   3.788   5.629   1.088
 4937SOL     OW15709   0.601   2.652   5.858
 4937SOL    HW115710   0.531   2.672   5.789
 4937SOL    HW215711   0.577   2.700   5.943
 4938SOL     OW15712   3.388   4.525   1.690
 4938SOL    HW115713   3.461   4.564   1.746
 4938SOL    HW215714   3.345   4.598   1.637
 4939SOL     OW15715   1.676   1.910   1.514
 4939SOL    HW115716   1.660   1.884   1.418
 4939SOL    HW215717   1.638   2.001   1.531
 4940SOL     OW15718   0.341   2.923   4.160
 4940SOL    HW115719   0.340   2.831   4.120
 4940SOL    HW215720   0.435   2.951   4.176
 4941SOL     OW15721   3.893   2.370   5.315
 4941SOL    HW115722   3.818   2.425   5.353
 4941SOL    HW215723   3.960   2.430   5.271
 4942SOL     OW15724   5.777   2.364   3.637
 4942SOL    HW115725   5.797   2.432   3.707
 4942SOL    HW215726   5.832   2.382   3.556
 4943SOL     OW15727   5.625   2.846   6.708
 4943SOL    HW115728   5.713   2.857   6.661
 4943SOL    HW215729   5.556   2.815   6.643
 4944SOL     OW15730   1.657   5.523   1.508
 4944SOL    HW115731   1.568   5.478   1.500
 4944SOL    HW215732   1.674   5.579   1.427
 4945SOL     OW15733   2.292   1.138   5.303
 4945SOL    HW115734   2.384   1.105   5.283
 4945SOL    HW215735   2.288   1.237   5.290
 4946SOL     OW15736   1.757   5.354   0.327
 4946SOL    HW115737   1.755   5.406   0.242
 4946SOL    HW215738   1.851   5.325   0.347
 4947SOL     OW15739   1.767   0.813   1.503
 4947SOL    HW115740   1.793   0.761   1.422
 4947SOL    HW215741   1.849   0.842   1.551
 4948SOL     OW15742   1.747   2.399   1.639
 4948SOL    HW115743   1.673   2.465   1.656
 4948SOL    HW215744   1.799   2.427   1.559
 4949SOL     OW15745   6.909   3.610   6.659
 4949SOL    HW115746   6.854   3.584   6.739
 4949SOL    HW215747   6.872   3.565   6.577
 4950SOL     OW15748   2.176   4.352   5.437
 4950SOL    HW115749   2.225   4.335   5.351
 4950SOL    HW215750   2.085   4.313   5.431
 4951SOL     OW15751   5.533   5.677   3.469
 4951SOL    HW115752   5.483   5.614   3.410
 4951SOL    HW215753   5.606   5.721   3.416
 4952SOL     OW15754   0.713   6.437   5.547
 4952SOL    HW115755   0.727   6.535   5.529
 4952SOL    HW215756   0.800   6.395   5.572
 4953SOL     OW15757   1.434   2.262   4.760
 4953SOL    HW115758   1.371   2.257   4.683
 4953SOL    HW215759   1.429   2.353   4.801
 4954SOL     OW15760   3.003   3.993   4.749
 4954SOL    HW115761   2.949   3.971   4.831
 4954SOL    HW215762   2.995   3.919   4.683
 4955SOL     OW15763   3.081   5.958   0.008
 4955SOL    HW115764   3.168   5.978   0.055
 4955SOL    HW215765   3.099   5.903   6.950
 4956SOL     OW15766   2.409   0.183   4.835
 4956SOL    HW115767   2.404   0.215   4.930
 4956SOL    HW215768   2.475   0.238   4.784
 4957SOL     OW15769   6.490   4.184   0.080
 4957SOL    HW115770   6.586   4.170   0.058
 4957SOL    HW215771   6.461   4.275   0.049
 4958SOL     OW15772   2.651   6.623   0.401
 4958SOL    HW115773   2.721   6.692   0.378
 4958SOL    HW215774   2.683   6.567   0.477
 4959SOL     OW15775   0.408   3.214   2.000
 4959SOL    HW115776   0.477   3.215   2.073
 4959SOL    HW215777   0.452   3.190   1.913
 4960SOL     OW15778   4.080   5.465   4.480
 4960SOL    HW115779   4.139   5.449   4.559
 4960SOL    HW215780   4.130   5.522   4.414
 4961SOL     OW15781   3.680   1.117   0.637
 4961SOL    HW115782   3.638   1.027   0.644
 4961SOL    HW215783   3.622   1.176   0.580
 4962SOL     OW15784   1.011   4.209   1.480
 4962SOL    HW115785   1.073   4.266   1.534
 4962SOL    HW215786   0.920   4.209   1.522
 4963SOL     OW15787   1.060   3.885   6.443
 4963SOL    HW115788   1.124   3.927   6.379
 4963SOL    HW215789   0.970   3.877   6.399
 4964SOL     OW15790   2.799   6.757   4.749
 4964SOL    HW115791   2.832   6.812   4.671
 4964SOL    HW215792   2.819   6.806   4.834
 4965SOL     OW15793   1.233   6.451   2.765
 4965SOL    HW115794   1.311   6.503   2.732
 4965SOL    HW215795   1.238   6.442   2.864
 4966SOL     OW15796   3.696   6.049   4.155
 4966SOL    HW115797   3.754   6.037   4.075
 4966SOL    HW215798   3.678   5.959   4.196
 4967SOL     OW15799   4.003   4.722   5.885
 4967SOL    HW115800   4.056   4.750   5.805
 4967SOL    HW215801   3.911   4.763   5.881
 4968SOL     OW15802   0.189   1.631   3.989
 4968SOL    HW115803   0.177   1.569   4.066
 4968SOL    HW215804   0.270   1.687   4.003
 4969SOL     OW15805   0.504   6.161   2.916
 4969SOL    HW115806   0.450   6.080   2.940
 4969SOL    HW215807   0.448   6.243   2.929
 4970SOL     OW15808   1.603   1.140   1.580
 4970SOL    HW115809   1.587   1.237   1.560
 4970SOL    HW215810   1.688   1.130   1.631
 4971SOL     OW15811   6.234   6.313   2.660
 4971SOL    HW115812   6.297   6.359   2.597
 4971SOL    HW215813   6.277   6.301   2.749
 4972SOL     OW15814   1.695   3.996   1.274
 4972SOL    HW115815   1.729   4.061   1.342
 4972SOL    HW215816   1.595   3.997   1.275
 4973SOL     OW15817   0.088   0.846   1.013
 4973SOL    HW115818   0.115   0.758   1.053
 4973SOL    HW215819   0.025   0.831   0.937
 4974SOL     OW15820   3.714   4.842   5.324
 4974SOL    HW115821   3.754   4.925   5.363
 4974SOL    HW215822   3.786   4.789   5.278
 4975SOL     OW15823   6.244   3.462   0.338
 4975SOL    HW115824   6.247   3.407   0.422
 4975SOL    HW215825   6.152   3.497   0.324
 4976SOL     OW15826   1.547   6.591   4.056
 4976SOL    HW115827   1.599   6.676   4.071
 4976SOL    HW215828   1.467   6.611   4.000
 4977SOL     OW15829   2.580   4.962   6.357
 4977SOL    HW115830   2.659   5.017   6.330
 4977SOL    HW215831   2.536   4.925   6.276
 4978SOL     OW15832   5.232   4.172   5.093
 4978SOL    HW115833   5.268   4.222   5.172
 4978SOL    HW215834   5.287   4.090   5.077
 4979SOL     OW15835   1.697   6.728   6.394
 4979SOL    HW115836   1.761   6.680   6.334
 4979SOL    HW215837   1.675   6.670   6.473
 4980SOL     OW15838   6.292   4.265   2.789
 4980SOL    HW115839   6.215   4.252   2.727
 4980SOL    HW215840   6.303   4.184   2.847
 4981SOL     OW15841   3.524   5.057   1.836
 4981SOL    HW115842   3.524   5.125   1.909
 4981SOL    HW215843   3.497   4.968   1.873
 4982SOL     OW15844   4.449   1.320   6.740
 4982SOL    HW115845   4.487   1.254   6.674
 4982SOL    HW215846   4.350   1.308   6.744
 4983SOL     OW15847   6.802   5.546   3.031
 4983SOL    HW115848   6.841   5.574   2.943
 4983SOL    HW215849   6.723   5.602   3.052
 4984SOL     OW15850   5.047   4.528   2.539
 4984SOL    HW115851   5.137   4.556   2.572
 4984SOL    HW215852   4.985   4.606   2.541
 4985SOL     OW15853   5.705   5.111   2.975
 4985SOL    HW115854   5.799   5.145   2.979
 4985SOL    HW215855   5.651   5.153   3.049
 4986SOL     OW15856   0.932   5.044   1.983
 4986SOL    HW115857   1.027   5.015   1.967
 4986SOL    HW215858   0.932   5.129   2.036
 4987SOL     OW15859   0.988   0.330   2.291
 4987SOL    HW115860   0.894   0.362   2.281
 4987SOL    HW215861   1.030   0.324   2.200
 4988SOL     OW15862   5.780   6.875   3.078
 4988SOL    HW115863   5.739   6.793   3.118
 4988SOL    HW215864   5.787   6.946   3.149
 4989SOL     OW15865   4.465   1.220   2.221
 4989SOL    HW115866   4.533   1.196   2.151
 4989SOL    HW215867   4.497   1.191   2.311
 4990SOL     OW15868   4.623   1.549   5.455
 4990SOL    HW115869   4.665   1.562   5.365
 4990SOL    HW215870   4.677   1.598   5.524
 4991SOL     OW15871   0.612   5.932   4.935
 4991SOL    HW115872   0.590   5.841   4.899
 4991SOL    HW215873   0.646   5.923   5.029
 4992SOL     OW15874   7.011   1.589   3.469
 4992SOL    HW115875   0.047   1.582   3.389
 4992SOL    HW215876   6.994   1.498   3.506
 4993SOL     OW15877   4.441   6.023   4.856
 4993SOL    HW115878   4.351   6.040   4.817
 4993SOL    HW215879   4.506   6.005   4.783
 4994SOL     OW15880   2.950   5.136   5.686
 4994SOL    HW115881   2.956   5.234   5.667
 4994SOL    HW215882   2.867   5.100   5.642
 4995SOL     OW15883   0.468   0.575   4.751
 4995SOL    HW115884   0.536   0.545   4.684
 4995SOL    HW215885   0.462   0.675   4.751
 4996SOL     OW15886   6.852   1.328   4.592
 4996SOL    HW115887   6.888   1.245   4.635
 4996SOL    HW215888   6.752   1.321   4.584
 4997SOL     OW15889   3.148   2.176   1.439
 4997SOL    HW115890   3.131   2.124   1.355
 4997SOL    HW215891   3.244   2.200   1.444
 4998SOL     OW15892   1.249   3.228   4.284
 4998SOL    HW115893   1.218   3.242   4.378
 4998SOL    HW215894   1.345   3.201   4.284
 4999SOL     OW15895   0.887   3.916   4.826
 4999SOL    HW115896   0.961   3.946   4.767
 4999SOL    HW215897   0.866   3.820   4.807
 5000SOL     OW15898   3.016   5.779   3.545
 5000SOL    HW115899   3.000   5.790   3.643
 5000SOL    HW215900   2.950   5.714   3.508
 5001SOL     OW15901   1.148   5.547   2.872
 5001SOL    HW115902   1.214   5.477   2.897
 5001SOL    HW215903   1.073   5.547   2.938
 5002SOL     OW15904   0.888   3.657   2.994
 5002SOL    HW115905   0.922   3.671   3.087
 5002SOL    HW215906   0.790   3.678   2.990
 5003SOL     OW15907   4.217   5.947   3.497
 5003SOL    HW115908   4.212   5.976   3.402
 5003SOL    HW215909   4.279   6.007   3.547
 5004SOL     OW15910   2.883   6.042   6.361
 5004SOL    HW115911   2.847   6.111   6.298
 5004SOL    HW215912   2.928   5.969   6.308
 5005SOL     OW15913   2.753   3.061   6.050
 5005SOL    HW115914   2.672   3.028   6.002
 5005SOL    HW215915   2.821   2.988   6.055
 5006SOL     OW15916   5.626   1.548   1.786
 5006SOL    HW115917   5.663   1.630   1.743
 5006SOL    HW215918   5.530   1.562   1.809
 5007SOL     OW15919   6.263   0.587   1.427
 5007SOL    HW115920   6.179   0.637   1.447
 5007SOL    HW215921   6.302   0.551   1.511
 5008SOL     OW15922   6.302   6.953   1.640
 5008SOL    HW115923   6.236   6.936   1.568
 5008SOL    HW215924   6.393   6.926   1.609
 5009SOL     OW15925   1.042   2.478   0.794
 5009SOL    HW115926   1.045   2.455   0.696
 5009SOL    HW215927   0.955   2.448   0.832
 5010SOL     OW15928   3.571   2.978   0.376
 5010SOL    HW115929   3.609   2.904   0.431
 5010SOL    HW215930   3.626   3.061   0.389
 5011SOL     OW15931   2.200   3.812   0.033
 5011SOL    HW115932   2.275   3.844   6.999
 5011SOL    HW215933   2.114   3.818   7.005
 5012SOL     OW15934   5.820   1.941   5.614
 5012SOL    HW115935   5.740   1.940   5.675
 5012SOL    HW215936   5.866   1.853   5.618
 5013SOL     OW15937   6.443   0.081   5.303
 5013SOL    HW115938   6.406   0.031   5.225
 5013SOL    HW215939   6.436   0.024   5.385
 5014SOL     OW15940   6.588   3.256   1.133
 5014SOL    HW115941   6.658   3.218   1.193
 5014SOL    HW215942   6.509   3.195   1.131
 5015SOL     OW15943   6.088   0.604   4.421
 5015SOL    HW115944   6.037   0.639   4.342
 5015SOL    HW215945   6.026   0.555   4.482
 5016SOL     OW15946   1.083   3.525   4.931
 5016SOL    HW115947   1.034   3.502   4.847
 5016SOL    HW215948   1.022   3.574   4.993
 5017SOL     OW15949   0.496   2.262   1.003
 5017SOL    HW115950   0.487   2.352   1.046
 5017SOL    HW215951   0.475   2.191   1.070
 5018SOL     OW15952   0.558   5.049   1.829
 5018SOL    HW115953   0.517   5.138   1.852
 5018SOL    HW215954   0.501   4.976   1.869
 5019SOL     OW15955   1.696   5.658   5.304
 5019SOL    HW115956   1.640   5.738   5.328
 5019SOL    HW215957   1.639   5.576   5.305
 5020SOL     OW15958   0.181   6.781   4.659
 5020SOL    HW115959   0.202   6.739   4.570
 5020SOL    HW215960   0.257   6.764   4.722
 5021SOL     OW15961   1.991   0.836   0.913
 5021SOL    HW115962   2.008   0.871   0.821
 5021SOL    HW215963   2.032   0.898   0.981
 5022SOL     OW15964   0.319   2.974   1.287
 5022SOL    HW115965   0.252   2.922   1.340
 5022SOL    HW215966   0.410   2.933   1.298
 5023SOL     OW15967   0.710   4.195   1.877
 5023SOL    HW115968   0.618   4.182   1.913
 5023SOL    HW215969   0.759   4.262   1.933
 5024SOL     OW15970   5.289   3.703   1.260
 5024SOL    HW115971   5.239   3.626   1.221
 5024SOL    HW215972   5.386   3.679   1.266
 5025SOL     OW15973   4.044   1.736   3.856
 5025SOL    HW115974   4.108   1.743   3.933
 5025SOL    HW215975   4.035   1.826   3.813
 5026SOL     OW15976   5.853   5.763   5.074
 5026SOL    HW115977   5.946   5.754   5.110
 5026SOL    HW215978   5.788   5.722   5.138
 5027SOL     OW15979   4.746   0.643   0.161
 5027SOL    HW115980   4.660   0.664   0.208
 5027SOL    HW215981   4.776   0.551   0.188
 5028SOL     OW15982   0.101   2.361   2.742
 5028SOL    HW115983   0.133   2.438   2.797
 5028SOL    HW215984   0.124   2.377   2.646
 5029SOL     OW15985   6.318   2.454   1.918
 5029SOL    HW115986   6.311   2.547   1.883
 5029SOL    HW215987   6.365   2.455   2.007
 5030SOL     OW15988   6.989   5.331   6.466
 5030SOL    HW115989   6.946   5.246   6.496
 5030SOL    HW215990   7.019   5.383   6.546
 5031SOL     OW15991   0.021   0.986   5.213
 5031SOL    HW115992   7.000   1.033   5.138
 5031SOL    HW215993   6.975   0.946   5.273
 5032SOL     OW15994   3.702   2.555   5.704
 5032SOL    HW115995   3.621   2.507   5.672
 5032SOL    HW215996   3.751   2.594   5.626
 5033SOL     OW15997   2.136   1.375   0.810
 5033SOL    HW115998   2.089   1.455   0.846
 5033SOL    HW215999   2.101   1.293   0.855
 5034SOL     OW16000   4.526   6.172   4.295
 5034SOL    HW116001   4.576   6.092   4.327
 5034SOL    HW216002   4.491   6.155   4.203
 5035SOL     OW16003   0.277   4.678   4.581
 5035SOL    HW116004   0.277   4.649   4.677
 5035SOL    HW216005   0.305   4.601   4.523
 5036SOL     OW16006   6.505   3.933   5.218
 5036SOL    HW116007   6.550   3.845   5.204
 5036SOL    HW216008   6.435   3.947   5.147
 5037SOL     OW16009   4.107   4.610   1.383
 5037SOL    HW116010   4.106   4.590   1.481
 5037SOL    HW216011   4.019   4.583   1.344
 5038SOL     OW16012   3.406   3.422   4.390
 5038SOL    HW116013   3.485   3.470   4.430
 5038SOL    HW216014   3.439   3.353   4.325
 5039SOL     OW16015   2.044   3.429   6.166
 5039SOL    HW116016   2.131   3.381   6.172
 5039SOL    HW216017   1.998   3.404   6.081
 5040SOL     OW16018   1.267   5.061   5.400
 5040SOL    HW116019   1.363   5.072   5.427
 5040SOL    HW216020   1.263   5.038   5.303
 5041SOL     OW16021   0.554   3.248   1.742
 5041SOL    HW116022   0.627   3.288   1.797
 5041SOL    HW216023   0.506   3.320   1.692
 5042SOL     OW16024   0.117   4.107   6.236
 5042SOL    HW116025   0.077   4.178   6.179
 5042SOL    HW216026   0.110   4.132   6.332
 5043SOL     OW16027   3.938   0.789   0.594
 5043SOL    HW116028   3.962   0.862   0.530
 5043SOL    HW216029   3.917   0.830   0.683
 5044SOL     OW16030   6.884   5.641   0.322
 5044SOL    HW116031   6.926   5.688   0.399
 5044SOL    HW216032   6.787   5.626   0.341
 5045SOL     OW16033   6.148   4.146   6.322
 5045SOL    HW116034   6.152   4.184   6.230
 5045SOL    HW216035   6.176   4.217   6.388
 5046SOL     OW16036   3.551   3.731   4.167
 5046SOL    HW116037   3.493   3.671   4.111
 5046SOL    HW216038   3.517   3.733   4.261
 5047SOL     OW16039   1.809   3.354   2.964
 5047SOL    HW116040   1.742   3.357   3.038
 5047SOL    HW216041   1.894   3.312   2.997
 5048SOL     OW16042   1.886   1.179   5.291
 5048SOL    HW116043   1.932   1.093   5.268
 5048SOL    HW216044   1.834   1.168   5.376
 5049SOL     OW16045   6.028   0.779   6.011
 5049SOL    HW116046   6.061   0.813   5.923
 5049SOL    HW216047   5.960   0.708   5.996
 5050SOL     OW16048   1.815   1.184   6.892
 5050SOL    HW116049   1.803   1.133   6.807
 5050SOL    HW216050   1.836   1.279   6.872
 5051SOL     OW16051   3.688   4.658   1.466
 5051SOL    HW116052   3.652   4.731   1.523
 5051SOL    HW216053   3.615   4.621   1.409
 5052SOL     OW16054   3.248   2.004   5.440
 5052SOL    HW116055   3.332   1.965   5.477
 5052SOL    HW216056   3.209   1.942   5.372
 5053SOL     OW16057   0.656   4.943   2.681
 5053SOL    HW116058   0.670   4.909   2.774
 5053SOL    HW216059   0.687   4.875   2.615
 5054SOL     OW16060   3.717   4.447   5.558
 5054SOL    HW116061   3.779   4.413   5.487
 5054SOL    HW216062   3.631   4.396   5.554
 5055SOL     OW16063   0.117   3.329   6.082
 5055SOL    HW116064   0.125   3.230   6.097
 5055SOL    HW216065   0.128   3.349   5.985
 5056SOL     OW16066   5.317   3.922   5.019
 5056SOL    HW116067   5.270   3.840   5.052
 5056SOL    HW216068   5.414   3.903   5.008
 5057SOL     OW16069   0.999   0.052   2.344
 5057SOL    HW116070   0.920   7.023   2.378
 5057SOL    HW216071   0.973   0.148   2.332
 5058SOL     OW16072   3.229   5.019   6.586
 5058SOL    HW116073   3.223   5.005   6.685
 5058SOL    HW216074   3.302   5.084   6.566
 5059SOL     OW16075   6.840   6.970   2.866
 5059SOL    HW116076   6.855   6.953   2.964
 5059SOL    HW216077   6.928   6.973   2.819
 5060SOL     OW16078   6.549   2.056   6.204
 5060SOL    HW116079   6.494   2.067   6.286
 5060SOL    HW216080   6.609   1.977   6.214
 5061SOL     OW16081   4.499   2.898   0.095
 5061SOL    HW116082   4.429   2.848   0.042
 5061SOL    HW216083   4.456   2.937   0.177
 5062SOL     OW16084   0.542   0.165   1.670
 5062SOL    HW116085   0.567   0.262   1.674
 5062SOL    HW216086   0.551   0.124   1.760
 5063SOL     OW16087   0.495   6.857   1.781
 5063SOL    HW116088   0.420   6.896   1.834
 5063SOL    HW216089   0.581   6.902   1.806
 5064SOL     OW16090   4.755   3.053   0.681
 5064SOL    HW116091   4.779   2.983   0.613
 5064SOL    HW216092   4.837   3.103   0.708
 5065SOL     OW16093   2.813   0.192   5.439
 5065SOL    HW116094   2.814   0.128   5.515
 5065SOL    HW216095   2.901   0.189   5.391
 5066SOL     OW16096   5.528   4.101   1.472
 5066SOL    HW116097   5.497   4.151   1.553
 5066SOL    HW216098   5.527   4.162   1.393
 5067SOL     OW16099   5.242   1.176   6.979
 5067SOL    HW116100   5.310   1.129   6.923
 5067SOL    HW216101   5.280   1.195   0.046
 5068SOL     OW16102   3.044   4.722   0.648
 5068SOL    HW116103   2.973   4.724   0.718
 5068SOL    HW216104   3.090   4.810   0.644
 5069SOL     OW16105   0.963   4.250   3.027
 5069SOL    HW116106   1.038   4.250   2.961
 5069SOL    HW216107   0.881   4.289   2.984
 5070SOL     OW16108   5.114   3.361   4.250
 5070SOL    HW116109   5.071   3.309   4.324
 5070SOL    HW216110   5.043   3.399   4.190
 5071SOL     OW16111   4.266   2.030   5.135
 5071SOL    HW116112   4.322   1.948   5.149
 5071SOL    HW216113   4.205   2.042   5.213
 5072SOL     OW16114   0.077   4.898   0.965
 5072SOL    HW116115   0.015   4.968   1.000
 5072SOL    HW216116   0.050   4.874   0.871
 5073SOL     OW16117   6.552   0.057   1.979
 5073SOL    HW116118   6.592   0.146   2.003
 5073SOL    HW216119   6.583   7.012   2.045
 5074SOL     OW16120   3.103   4.150   6.831
 5074SOL    HW116121   3.091   4.216   6.905
 5074SOL    HW216122   3.200   4.145   6.806
 5075SOL     OW16123   0.092   6.684   5.507
 5075SOL    HW116124   0.091   6.746   5.586
 5075SOL    HW216125   0.175   6.701   5.454
 5076SOL     OW16126   3.283   0.513   0.614
 5076SOL    HW116127   3.305   0.417   0.595
 5076SOL    HW216128   3.291   0.529   0.712
 5077SOL     OW16129   1.338   2.531   3.772
 5077SOL    HW116130   1.417   2.592   3.763
 5077SOL    HW216131   1.293   2.522   3.683
 5078SOL     OW16132   1.581   1.829   4.186
 5078SOL    HW116133   1.603   1.920   4.152
 5078SOL    HW216134   1.624   1.815   4.275
 5079SOL     OW16135   3.166   5.037   5.876
 5079SOL    HW116136   3.258   5.007   5.851
 5079SOL    HW216137   3.123   5.081   5.797
 5080SOL     OW16138   5.762   6.714   5.419
 5080SOL    HW116139   5.732   6.689   5.511
 5080SOL    HW216140   5.689   6.764   5.373
 5081SOL     OW16141   3.300   3.532   3.544
 5081SOL    HW116142   3.265   3.516   3.451
 5081SOL    HW216143   3.294   3.630   3.564
 5082SOL     OW16144   5.236   5.906   5.895
 5082SOL    HW116145   5.216   5.810   5.877
 5082SOL    HW216146   5.192   5.964   5.827
 5083SOL     OW16147   1.594   6.745   1.914
 5083SOL    HW116148   1.618   6.696   1.999
 5083SOL    HW216149   1.678   6.773   1.868
 5084SOL     OW16150   1.096   5.213   3.686
 5084SOL    HW116151   1.004   5.248   3.669
 5084SOL    HW216152   1.144   5.273   3.749
 5085SOL     OW16153   5.679   1.256   6.746
 5085SOL    HW116154   5.773   1.220   6.746
 5085SOL    HW216155   5.655   1.286   6.654
 5086SOL     OW16156   6.593   4.774   3.398
 5086SOL    HW116157   6.683   4.814   3.407
 5086SOL    HW216158   6.563   4.737   3.486
 5087SOL     OW16159   6.735   5.660   4.626
 5087SOL    HW116160   6.754   5.627   4.718
 5087SOL    HW216161   6.695   5.751   4.630
 5088SOL     OW16162   6.488   0.651   5.990
 5088SOL    HW116163   6.572   0.598   5.999
 5088SOL    HW216164   6.496   0.736   6.043
 5089SOL     OW16165   6.321   2.973   2.633
 5089SOL    HW116166   6.421   2.974   2.642
 5089SOL    HW216167   6.284   3.061   2.662
 5090SOL     OW16168   2.184   4.917   1.201
 5090SOL    HW116169   2.149   4.979   1.271
 5090SOL    HW216170   2.229   4.839   1.244
 5091SOL     OW16171   1.204   6.178   2.743
 5091SOL    HW116172   1.246   6.188   2.653
 5091SOL    HW216173   1.207   6.265   2.791
 5092SOL     OW16174   3.413   2.017   0.688
 5092SOL    HW116175   3.476   1.942   0.711
 5092SOL    HW216176   3.464   2.095   0.654
 5093SOL     OW16177   1.237   1.837   2.023
 5093SOL    HW116178   1.328   1.814   1.988
 5093SOL    HW216179   1.168   1.811   1.956
 5094SOL     OW16180   1.066   6.382   5.375
 5094SOL    HW116181   1.086   6.428   5.289
 5094SOL    HW216182   1.073   6.283   5.362
 5095SOL     OW16183   1.960   0.510   4.792
 5095SOL    HW116184   2.006   0.485   4.707
 5095SOL    HW216185   1.879   0.453   4.804
 5096SOL     OW16186   4.947   3.550   0.903
 5096SOL    HW116187   4.899   3.562   0.990
 5096SOL    HW216188   4.989   3.636   0.876
 5097SOL     OW16189   1.796   0.096   5.603
 5097SOL    HW116190   1.886   0.094   5.645
 5097SOL    HW216191   1.729   0.129   5.669
 5098SOL     OW16192   0.657   1.370   2.491
 5098SOL    HW116193   0.573   1.424   2.497
 5098SOL    HW216194   0.638   1.275   2.512
 5099SOL     OW16195   1.201   0.309   5.242
 5099SOL    HW116196   1.220   0.375   5.314
 5099SOL    HW216197   1.208   0.216   5.278
 5100SOL     OW16198   5.819   6.341   6.730
 5100SOL    HW116199   5.771   6.393   6.659
 5100SOL    HW216200   5.885   6.400   6.775
 5101SOL     OW16201   4.369   6.447   0.042
 5101SOL    HW116202   4.353   6.534   7.018
 5101SOL    HW216203   4.462   6.445   0.078
 5102SOL     OW16204   4.978   0.539   5.644
 5102SOL    HW116205   4.978   0.536   5.744
 5102SOL    HW216206   4.973   0.634   5.614
 5103SOL     OW16207   0.376   1.054   4.105
 5103SOL    HW116208   0.280   1.029   4.089
 5103SOL    HW216209   0.398   1.135   4.052
 5104SOL     OW16210   2.037   1.085   1.906
 5104SOL    HW116211   1.977   1.147   1.857
 5104SOL    HW216212   1.984   1.032   1.972
 5105SOL     OW16213   3.920   4.114   6.618
 5105SOL    HW116214   4.014   4.146   6.605
 5105SOL    HW216215   3.880   4.092   6.529
 5106SOL     OW16216   3.147   0.233   2.786
 5106SOL    HW116217   3.225   0.280   2.745
 5106SOL    HW216218   3.139   0.260   2.882
 5107SOL     OW16219   2.943   6.980   6.410
 5107SOL    HW116220   3.008   6.951   6.481
 5107SOL    HW216221   2.969   0.047   6.376
 5108SOL     OW16222   3.004   3.735   3.886
 5108SOL    HW116223   3.008   3.809   3.818
 5108SOL    HW216224   3.052   3.763   3.969
 5109SOL     OW16225   0.550   0.959   1.114
 5109SOL    HW116226   0.592   1.016   1.044
 5109SOL    HW216227   0.621   0.918   1.171
 5110SOL     OW16228   1.585   6.311   5.526
 5110SOL    HW116229   1.490   6.327   5.498
 5110SOL    HW216230   1.639   6.289   5.445
 5111SOL     OW16231   1.522   1.433   6.428
 5111SOL    HW116232   1.524   1.357   6.363
 5111SOL    HW216233   1.428   1.465   6.440
 5112SOL     OW16234   0.505   6.245   3.882
 5112SOL    HW116235   0.442   6.312   3.922
 5112SOL    HW216236   0.479   6.153   3.913
 5113SOL     OW16237   1.182   0.558   6.924
 5113SOL    HW116238   1.187   0.657   6.931
 5113SOL    HW216239   1.274   0.519   6.927
 5114SOL     OW16240   3.482   4.987   6.979
 5114SOL    HW116241   3.528   4.942   6.902
 5114SOL    HW216242   3.519   4.952   0.042
 5115SOL     OW16243   1.480   3.701   5.964
 5115SOL    HW116244   1.447   3.747   6.047
 5115SOL    HW216245   1.407   3.647   5.924
 5116SOL     OW16246   5.964   4.779   0.242
 5116SOL    HW116247   5.878   4.821   0.269
 5116SOL    HW216248   5.968   4.773   0.142
 5117SOL     OW16249   2.549   4.560   4.578
 5117SOL    HW116250   2.555   4.475   4.631
 5117SOL    HW216251   2.520   4.539   4.485
 5118SOL     OW16252   4.565   5.806   0.266
 5118SOL    HW116253   4.494   5.858   0.219
 5118SOL    HW216254   4.622   5.867   0.320
 5119SOL     OW16255   5.884   0.916   2.412
 5119SOL    HW116256   5.951   0.891   2.343
 5119SOL    HW216257   5.813   0.845   2.416
 5120SOL     OW16258   5.239   1.426   2.466
 5120SOL    HW116259   5.238   1.476   2.553
 5120SOL    HW216260   5.160   1.364   2.463
 5121SOL     OW16261   0.269   3.362   5.621
 5121SOL    HW116262   0.328   3.390   5.698
 5121SOL    HW216263   0.268   3.435   5.552
 5122SOL     OW16264   2.190   0.083   3.187
 5122SOL    HW116265   2.252   0.122   3.118
 5122SOL    HW216266   2.149   0.157   3.240
 5123SOL     OW16267   4.608   4.373   2.789
 5123SOL    HW116268   4.649   4.296   2.840
 5123SOL    HW216269   4.654   4.458   2.815
 5124SOL     OW16270   3.270   6.648   0.133
 5124SOL    HW116271   3.368   6.666   0.138
 5124SOL    HW216272   3.239   6.605   0.218
 5125SOL     OW16273   7.001   3.325   4.107
 5125SOL    HW116274   6.985   3.409   4.054
 5125SOL    HW216275   0.041   3.266   4.057
 5126SOL     OW16276   6.022   4.891   6.021
 5126SOL    HW116277   5.932   4.867   6.055
 5126SOL    HW216278   6.079   4.809   6.016
 5127SOL     OW16279   5.200   3.131   6.899
 5127SOL    HW116280   5.154   3.093   6.979
 5127SOL    HW216281   5.234   3.222   6.921
 5128SOL     OW16282   0.610   0.804   6.480
 5128SOL    HW116283   0.596   0.776   6.385
 5128SOL    HW216284   0.557   0.887   6.499
 5129SOL     OW16285   4.534   1.529   2.141
 5129SOL    HW116286   4.583   1.581   2.071
 5129SOL    HW216287   4.554   1.432   2.130
 5130SOL     OW16288   1.092   5.056   4.092
 5130SOL    HW116289   1.141   5.019   4.013
 5130SOL    HW216290   1.157   5.070   4.167
 5131SOL     OW16291   3.220   4.929   3.318
 5131SOL    HW116292   3.239   4.952   3.223
 5131SOL    HW216293   3.124   4.952   3.339
 5132SOL     OW16294   3.552   1.649   6.839
 5132SOL    HW116295   3.553   1.550   6.822
 5132SOL    HW216296   3.615   1.671   6.913
 5133SOL     OW16297   4.089   4.736   6.382
 5133SOL    HW116298   4.169   4.686   6.349
 5133SOL    HW216299   4.118   4.801   6.452
 5134SOL     OW16300   6.642   6.470   1.438
 5134SOL    HW116301   6.575   6.545   1.432
 5134SOL    HW216302   6.689   6.474   1.526
 5135SOL     OW16303   6.195   3.276   2.044
 5135SOL    HW116304   6.097   3.271   2.066
 5135SOL    HW216305   6.244   3.209   2.100
 5136SOL     OW16306   0.629   0.739   5.971
 5136SOL    HW116307   0.686   0.659   5.950
 5136SOL    HW216308   0.589   0.728   6.062
 5137SOL     OW16309   5.402   1.623   5.191
 5137SOL    HW116310   5.352   1.637   5.276
 5137SOL    HW216311   5.362   1.547   5.141
 5138SOL     OW16312   3.475   3.199   4.298
 5138SOL    HW116313   3.404   3.129   4.300
 5138SOL    HW216314   3.554   3.167   4.351
 5139SOL     OW16315   1.500   0.380   4.770
 5139SOL    HW116316   1.494   0.479   4.786
 5139SOL    HW216317   1.421   0.335   4.812
 5140SOL     OW16318   4.286   2.366   6.208
 5140SOL    HW116319   4.328   2.282   6.244
 5140SOL    HW216320   4.226   2.406   6.277
 5141SOL     OW16321   6.556   2.902   1.926
 5141SOL    HW116322   6.639   2.904   1.870
 5141SOL    HW216323   6.580   2.920   2.022
 5142SOL     OW16324   6.879   0.445   3.106
 5142SOL    HW116325   6.786   0.441   3.144
 5142SOL    HW216326   6.876   0.486   3.016
 5143SOL     OW16327   0.443   5.129   4.302
 5143SOL    HW116328   0.390   5.137   4.218
 5143SOL    HW216329   0.423   5.041   4.346
 5144SOL     OW16330   1.895   3.656   6.123
 5144SOL    HW116331   1.919   3.673   6.028
 5144SOL    HW216332   1.955   3.587   6.162
 5145SOL     OW16333   2.736   6.327   6.841
 5145SOL    HW116334   2.741   6.425   6.858
 5145SOL    HW216335   2.643   6.295   6.860
 5146SOL     OW16336   5.393   5.016   5.982
 5146SOL    HW116337   5.350   5.092   6.031
 5146SOL    HW216338   5.460   4.972   6.042
 5147SOL     OW16339   4.741   2.711   3.276
 5147SOL    HW116340   4.712   2.751   3.190
 5147SOL    HW216341   4.674   2.643   3.306
 5148SOL     OW16342   0.355   6.807   1.411
 5148SOL    HW116343   0.383   6.901   1.434
 5148SOL    HW216344   0.400   6.743   1.473
 5149SOL     OW16345   5.566   4.239   3.167
 5149SOL    HW116346   5.646   4.293   3.143
 5149SOL    HW216347   5.543   4.178   3.091
 5150SOL     OW16348   0.882   5.644   4.080
 5150SOL    HW116349   0.906   5.739   4.103
 5150SOL    HW216350   0.856   5.596   4.164
 5151SOL     OW16351   6.052   4.772   1.465
 5151SOL    HW116352   6.028   4.740   1.373
 5151SOL    HW216353   6.000   4.854   1.487
 5152SOL     OW16354   1.319   1.121   6.331
 5152SOL    HW116355   1.409   1.083   6.352
 5152SOL    HW216356   1.314   1.144   6.234
 5153SOL     OW16357   1.121   1.867   0.913
 5153SOL    HW116358   1.129   1.810   0.831
 5153SOL    HW216359   1.027   1.864   0.946
 5154SOL     OW16360   0.179   2.576   6.602
 5154SOL    HW116361   0.241   2.529   6.665
 5154SOL    HW216362   0.096   2.604   6.650
 5155SOL     OW16363   1.799   1.331   0.484
 5155SOL    HW116364   1.746   1.370   0.559
 5155SOL    HW216365   1.834   1.406   0.426
 5156SOL     OW16366   5.511   5.093   5.715
 5156SOL    HW116367   5.547   5.174   5.670
 5156SOL    HW216368   5.443   5.119   5.783
 5157SOL     OW16369   4.438   0.320   1.991
 5157SOL    HW116370   4.355   0.320   2.047
 5157SOL    HW216371   4.423   0.265   1.909
 5158SOL     OW16372   3.148   1.675   2.573
 5158SOL    HW116373   3.235   1.704   2.613
 5158SOL    HW216374   3.132   1.578   2.592
 5159SOL     OW16375   6.076   3.100   5.673
 5159SOL    HW116376   5.977   3.117   5.674
 5159SOL    HW216377   6.112   3.120   5.582
 5160SOL     OW16378   6.631   6.419   3.381
 5160SOL    HW116379   6.726   6.427   3.412
 5160SOL    HW216380   6.595   6.330   3.408
 5161SOL     OW16381   0.900   3.164   0.293
 5161SOL    HW116382   0.813   3.133   0.331
 5161SOL    HW216383   0.975   3.133   0.352
 5162SOL     OW16384   6.791   6.532   2.828
 5162SOL    HW116385   6.714   6.570   2.879
 5162SOL    HW216386   6.874   6.584   2.849
 5163SOL     OW16387   2.955   6.852   2.392
 5163SOL    HW116388   3.015   6.856   2.471
 5163SOL    HW216389   2.902   6.767   2.395
 5164SOL     OW16390   3.181   3.629   0.983
 5164SOL    HW116391   3.092   3.637   0.938
 5164SOL    HW216392   3.201   3.532   1.002
 5165SOL     OW16393   1.177   4.736   0.036
 5165SOL    HW116394   1.142   4.644   0.018
 5165SOL    HW216395   1.255   4.754   6.999
 5166SOL     OW16396   1.582   5.714   1.705
 5166SOL    HW116397   1.507   5.778   1.686
 5166SOL    HW216398   1.587   5.646   1.632
 5167SOL     OW16399   4.812   2.491   5.022
 5167SOL    HW116400   4.876   2.558   5.060
 5167SOL    HW216401   4.745   2.537   4.964
 5168SOL     OW16402   4.318   2.150   2.299
 5168SOL    HW116403   4.323   2.234   2.354
 5168SOL    HW216404   4.234   2.152   2.245
 5169SOL     OW16405   3.978   6.971   3.242
 5169SOL    HW116406   3.978   6.890   3.184
 5169SOL    HW216407   3.885   6.990   3.274
 5170SOL     OW16408   0.995   2.961   6.416
 5170SOL    HW116409   1.041   3.023   6.479
 5170SOL    HW216410   0.896   2.975   6.422
 5171SOL     OW16411   1.994   5.892   4.944
 5171SOL    HW116412   1.925   5.852   5.005
 5171SOL    HW216413   1.951   5.964   4.889
 5172SOL     OW16414   0.134   5.498   3.416
 5172SOL    HW116415   0.220   5.508   3.466
 5172SOL    HW216416   0.057   5.504   3.481
 5173SOL     OW16417   5.011   3.834   5.669
 5173SOL    HW116418   4.955   3.763   5.627
 5173SOL    HW216419   4.989   3.841   5.766
 5174SOL     OW16420   2.787   6.428   3.277
 5174SOL    HW116421   2.797   6.393   3.183
 5174SOL    HW216422   2.768   6.351   3.339
 5175SOL     OW16423   2.766   4.264   6.942
 5175SOL    HW116424   2.727   4.350   6.976
 5175SOL    HW216425   2.808   4.280   6.852
 5176SOL     OW16426   5.651   5.484   0.668
 5176SOL    HW116427   5.552   5.477   0.682
 5176SOL    HW216428   5.679   5.425   0.593
 5177SOL     OW16429   5.051   0.807   6.922
 5177SOL    HW116430   4.992   0.816   7.003
 5177SOL    HW216431   5.147   0.814   6.950
 5178SOL     OW16432   1.190   3.741   1.939
 5178SOL    HW116433   1.278   3.763   1.895
 5178SOL    HW216434   1.117   3.746   1.871
 5179SOL     OW16435   6.374   4.516   2.962
 5179SOL    HW116436   6.333   4.428   2.938
 5179SOL    HW216437   6.336   4.549   3.049
 5180SOL     OW16438   2.374   0.083   2.069
 5180SOL    HW116439   2.443   0.062   2.138
 5180SOL    HW216440   2.326   7.022   2.043
 5181SOL     OW16441   0.579   7.022   5.876
 5181SOL    HW116442   0.585   6.971   5.961
 5181SOL    HW216443   0.503   0.063   5.881
 5182SOL     OW16444   4.048   5.540   3.116
 5182SOL    HW116445   4.024   5.445   3.099
 5182SOL    HW216446   3.969   5.588   3.154
 5183SOL     OW16447   4.136   1.741   3.596
 5183SOL    HW116448   4.078   1.719   3.674
 5183SOL    HW216449   4.190   1.661   3.569
 5184SOL     OW16450   2.304   0.949   4.143
 5184SOL    HW116451   2.393   0.941   4.189
 5184SOL    HW216452   2.236   0.894   4.192
 5185SOL     OW16453   6.144   1.108   1.871
 5185SOL    HW116454   6.189   1.034   1.821
 5185SOL    HW216455   6.210   1.181   1.890
 5186SOL     OW16456   6.870   3.400   6.026
 5186SOL    HW116457   6.949   3.347   6.058
 5186SOL    HW216458   6.836   3.456   6.102
 5187SOL     OW16459   1.937   5.119   5.103
 5187SOL    HW116460   1.973   5.041   5.051
 5187SOL    HW216461   1.992   5.200   5.084
 5188SOL     OW16462   6.586   6.931   2.286
 5188SOL    HW116463   6.628   6.859   2.231
 5188SOL    HW216464   6.657   6.979   2.338
 5189SOL     OW16465   5.109   0.331   6.212
 5189SOL    HW116466   5.027   0.285   6.177
 5189SOL    HW216467   5.082   0.403   6.275
 5190SOL     OW16468   1.678   3.623   1.560
 5190SOL    HW116469   1.588   3.597   1.523
 5190SOL    HW216470   1.741   3.642   1.485
 5191SOL     OW16471   3.350   5.231   2.282
 5191SOL    HW116472   3.364   5.292   2.360
 5191SOL    HW216473   3.331   5.139   2.314
 5192SOL     OW16474   2.498   4.948   2.344
 5192SOL    HW116475   2.423   5.006   2.312
 5192SOL    HW216476   2.577   4.960   2.284
 5193SOL     OW16477   6.187   0.830   6.773
 5193SOL    HW116478   6.138   0.760   6.722
 5193SOL    HW216479   6.284   0.805   6.780
 5194SOL     OW16480   4.500   2.369   6.672
 5194SOL    HW116481   4.547   2.411   6.594
 5194SOL    HW216482   4.561   2.370   6.752
 5195SOL     OW16483   6.461   0.702   4.775
 5195SOL    HW116484   6.381   0.720   4.832
 5195SOL    HW216485   6.521   0.635   4.820
 5196SOL     OW16486   5.457   6.178   2.744
 5196SOL    HW116487   5.450   6.248   2.816
 5196SOL    HW216488   5.538   6.196   2.688
 5197SOL     OW16489   1.226   4.296   5.940
 5197SOL    HW116490   1.177   4.307   5.854
 5197SOL    HW216491   1.240   4.198   5.959
 5198SOL     OW16492   5.503   5.679   2.703
 5198SOL    HW116493   5.559   5.601   2.676
 5198SOL    HW216494   5.552   5.764   2.684
 5199SOL     OW16495   6.514   5.151   1.137
 5199SOL    HW116496   6.511   5.080   1.207
 5199SOL    HW216497   6.421   5.170   1.104
 5200SOL     OW16498   0.361   3.643   5.412
 5200SOL    HW116499   0.343   3.710   5.340
 5200SOL    HW216500   0.342   3.683   5.501
 5201SOL     OW16501   1.781   5.324   4.043
 5201SOL    HW116502   1.772   5.403   4.104
 5201SOL    HW216503   1.811   5.355   3.952
 5202SOL     OW16504   6.890   3.779   0.408
 5202SOL    HW116505   6.988   3.783   0.427
 5202SOL    HW216506   6.874   3.786   0.310
 5203SOL     OW16507   0.866   2.367   6.732
 5203SOL    HW116508   0.890   2.378   6.636
 5203SOL    HW216509   0.897   2.447   6.784
 5204SOL     OW16510   4.292   5.002   0.224
 5204SOL    HW116511   4.195   4.982   0.216
 5204SOL    HW216512   4.343   4.954   0.152
 5205SOL     OW16513   1.863   0.302   1.547
 5205SOL    HW116514   1.905   0.363   1.479
 5205SOL    HW216515   1.887   0.333   1.639
 5206SOL     OW16516   0.553   4.258   6.861
 5206SOL    HW116517   0.500   4.255   6.946
 5206SOL    HW216518   0.515   4.191   6.797
 5207SOL     OW16519   1.326   5.226   4.285
 5207SOL    HW116520   1.384   5.190   4.212
 5207SOL    HW216521   1.321   5.325   4.278
 5208SOL     OW16522   3.525   0.810   0.272
 5208SOL    HW116523   3.613   0.857   0.286
 5208SOL    HW216524   3.541   0.725   0.222
 5209SOL     OW16525   5.954   5.767   3.449
 5209SOL    HW116526   5.924   5.814   3.532
 5209SOL    HW216527   5.936   5.669   3.458
 5210SOL     OW16528   4.994   4.318   3.921
 5210SOL    HW116529   5.004   4.410   3.882
 5210SOL    HW216530   4.920   4.318   3.989
 5211SOL     OW16531   3.379   2.991   3.654
 5211SOL    HW116532   3.352   3.083   3.626
 5211SOL    HW216533   3.447   2.955   3.590
 5212SOL     OW16534   0.448   2.221   0.746
 5212SOL    HW116535   0.530   2.191   0.698
 5212SOL    HW216536   0.467   2.225   0.844
 5213SOL     OW16537   5.078   2.765   5.701
 5213SOL    HW116538   4.987   2.730   5.721
 5213SOL    HW216539   5.092   2.771   5.603
 5214SOL     OW16540   5.453   1.733   5.528
 5214SOL    HW116541   5.486   1.827   5.524
 5214SOL    HW216542   5.459   1.700   5.622
 5215SOL     OW16543   4.935   4.899   3.252
 5215SOL    HW116544   5.030   4.903   3.284
 5215SOL    HW216545   4.889   4.986   3.272
 5216SOL     OW16546   5.126   4.872   0.895
 5216SOL    HW116547   5.170   4.901   0.980
 5216SOL    HW216548   5.048   4.812   0.916
 5217SOL     OW16549   3.355   5.304   4.126
 5217SOL    HW116550   3.257   5.294   4.142
 5217SOL    HW216551   3.379   5.401   4.126
 5218SOL     OW16552   1.330   6.642   3.454
 5218SOL    HW116553   1.426   6.651   3.481
 5218SOL    HW216554   1.272   6.677   3.527
 5219SOL     OW16555   3.370   6.903   6.654
 5219SOL    HW116556   3.346   6.805   6.651
 5219SOL    HW216557   3.360   6.937   6.747
 5220SOL     OW16558   0.297   5.834   2.409
 5220SOL    HW116559   0.313   5.927   2.378
 5220SOL    HW216560   0.377   5.778   2.389
 5221SOL     OW16561   5.594   1.193   4.524
 5221SOL    HW116562   5.575   1.252   4.602
 5221SOL    HW216563   5.544   1.226   4.444
 5222SOL     OW16564   1.664   0.319   3.390
 5222SOL    HW116565   1.742   0.359   3.439
 5222SOL    HW216566   1.674   0.337   3.292
 5223SOL     OW16567   5.175   0.830   1.515
 5223SOL    HW116568   5.254   0.781   1.477
 5223SOL    HW216569   5.136   0.776   1.590
 5224SOL     OW16570   6.621   1.873   2.474
 5224SOL    HW116571   6.631   1.833   2.566
 5224SOL    HW216572   6.571   1.959   2.481
 5225SOL     OW16573   6.215   6.300   4.100
 5225SOL    HW116574   6.141   6.305   4.167
 5225SOL    HW216575   6.303   6.312   4.146
 5226SOL     OW16576   0.756   6.427   3.970
 5226SOL    HW116577   0.814   6.376   3.906
 5226SOL    HW216578   0.669   6.380   3.981
 5227SOL     OW16579   6.335   4.826   3.307
 5227SOL    HW116580   6.331   4.926   3.312
 5227SOL    HW216581   6.429   4.796   3.322
 5228SOL     OW16582   5.601   1.623   0.837
 5228SOL    HW116583   5.624   1.537   0.790
 5228SOL    HW216584   5.512   1.614   0.881
 5229SOL     OW16585   1.388   3.731   6.229
 5229SOL    HW116586   1.344   3.645   6.253
 5229SOL    HW216587   1.470   3.743   6.284
 5230SOL     OW16588   0.253   0.377   0.691
 5230SOL    HW116589   0.253   0.441   0.768
 5230SOL    HW216590   0.215   0.421   0.610
 5231SOL     OW16591   4.001   3.133   4.116
 5231SOL    HW116592   3.960   3.043   4.134
 5231SOL    HW216593   4.002   3.150   4.017
 5232SOL     OW16594   4.573   2.171   0.066
 5232SOL    HW116595   4.487   2.205   0.105
 5232SOL    HW216596   4.618   2.112   0.132
 5233SOL     OW16597   6.822   6.038   1.715
 5233SOL    HW116598   6.880   6.087   1.780
 5233SOL    HW216599   6.879   5.988   1.651
 5234SOL     OW16600   3.353   6.762   0.551
 5234SOL    HW116601   3.446   6.725   0.562
 5234SOL    HW216602   3.349   6.816   0.466
 5235SOL     OW16603   1.871   3.473   0.679
 5235SOL    HW116604   1.965   3.503   0.667
 5235SOL    HW216605   1.868   3.393   0.740
 5236SOL     OW16606   5.146   3.472   1.161
 5236SOL    HW116607   5.108   3.401   1.220
 5236SOL    HW216608   5.191   3.429   1.083
 5237SOL     OW16609   2.453   1.932   5.265
 5237SOL    HW116610   2.460   1.927   5.166
 5237SOL    HW216611   2.380   1.872   5.297
 5238SOL     OW16612   1.544   5.197   0.604
 5238SOL    HW116613   1.472   5.164   0.666
 5238SOL    HW216614   1.617   5.239   0.658
 5239SOL     OW16615   3.161   3.033   4.142
 5239SOL    HW116616   3.099   3.101   4.182
 5239SOL    HW216617   3.124   3.002   4.054
 5240SOL     OW16618   3.335   2.118   5.206
 5240SOL    HW116619   3.322   2.089   5.301
 5240SOL    HW216620   3.259   2.175   5.177
 5241SOL     OW16621   1.040   6.218   6.337
 5241SOL    HW116622   1.071   6.264   6.419
 5241SOL    HW216623   1.003   6.128   6.361
 5242SOL     OW16624   5.993   1.225   5.795
 5242SOL    HW116625   5.977   1.321   5.818
 5242SOL    HW216626   5.917   1.169   5.829
 5243SOL     OW16627   0.901   5.760   1.024
 5243SOL    HW116628   0.907   5.736   0.927
 5243SOL    HW216629   0.986   5.736   1.070
 5244SOL     OW16630   4.388   4.141   5.587
 5244SOL    HW116631   4.368   4.213   5.654
 5244SOL    HW216632   4.346   4.165   5.499
 5245SOL     OW16633   4.177   4.051   6.330
 5245SOL    HW116634   4.141   4.125   6.273
 5245SOL    HW216635   4.146   3.963   6.295
 5246SOL     OW16636   0.675   3.075   2.539
 5246SOL    HW116637   0.688   2.990   2.488
 5246SOL    HW216638   0.656   3.053   2.635
 5247SOL     OW16639   0.119   5.200   0.570
 5247SOL    HW116640   0.103   5.109   0.532
 5247SOL    HW216641   0.081   5.205   0.662
 5248SOL     OW16642   5.249   1.060   6.142
 5248SOL    HW116643   5.218   1.050   6.236
 5248SOL    HW216644   5.263   1.157   6.121
 5249SOL     OW16645   0.815   4.892   5.209
 5249SOL    HW116646   0.810   4.992   5.214
 5249SOL    HW216647   0.905   4.865   5.175
 5250SOL     OW16648   0.169   2.072   5.972
 5250SOL    HW116649   0.235   2.108   6.038
 5250SOL    HW216650   0.206   2.083   5.880
 5251SOL     OW16651   6.370   3.500   1.176
 5251SOL    HW116652   6.404   3.410   1.203
 5251SOL    HW216653   6.416   3.529   1.093
 5252SOL     OW16654   3.199   6.245   0.928
 5252SOL    HW116655   3.208   6.300   0.846
 5252SOL    HW216656   3.232   6.297   1.007
 5253SOL     OW16657   5.739   3.763   4.570
 5253SOL    HW116658   5.682   3.685   4.597
 5253SOL    HW216659   5.835   3.739   4.579
 5254SOL     OW16660   4.353   1.123   4.054
 5254SOL    HW116661   4.296   1.156   3.979
 5254SOL    HW216662   4.402   1.200   4.094
 5255SOL     OW16663   3.114   6.800   4.961
 5255SOL    HW116664   3.151   6.831   4.873
 5255SOL    HW216665   3.176   6.734   5.002
 5256SOL     OW16666   4.895   0.696   3.691
 5256SOL    HW116667   4.942   0.724   3.775
 5256SOL    HW216668   4.833   0.769   3.662
 5257SOL     OW16669   3.816   6.627   0.390
 5257SOL    HW116670   3.793   6.709   0.338
 5257SOL    HW216671   3.826   6.549   0.327
 5258SOL     OW16672   5.001   4.259   2.565
 5258SOL    HW116673   4.964   4.257   2.658
 5258SOL    HW216674   5.049   4.346   2.551
 5259SOL     OW16675   4.555   6.445   2.461
 5259SOL    HW116676   4.575   6.487   2.550
 5259SOL    HW216677   4.639   6.407   2.423
 5260SOL     OW16678   6.084   3.419   0.928
 5260SOL    HW116679   5.996   3.371   0.921
 5260SOL    HW216680   6.107   3.433   1.024
 5261SOL     OW16681   0.245   2.952   4.578
 5261SOL    HW116682   0.290   3.026   4.628
 5261SOL    HW216683   0.215   2.986   4.489
 5262SOL     OW16684   2.565   6.485   2.317
 5262SOL    HW116685   2.468   6.507   2.326
 5262SOL    HW216686   2.590   6.481   2.220
 5263SOL     OW16687   1.621   0.177   5.814
 5263SOL    HW116688   1.575   0.182   5.903
 5263SOL    HW216689   1.680   0.257   5.802
 5264SOL     OW16690   6.466   1.367   1.604
 5264SOL    HW116691   6.476   1.409   1.514
 5264SOL    HW216692   6.501   1.430   1.674
 5265SOL     OW16693   5.520   4.681   2.168
 5265SOL    HW116694   5.556   4.678   2.262
 5265SOL    HW216695   5.435   4.628   2.164
 5266SOL     OW16696   1.101   6.605   2.035
 5266SOL    HW116697   1.012   6.584   2.075
 5266SOL    HW216698   1.089   6.648   1.946
 5267SOL     OW16699   4.668   5.355   5.257
 5267SOL    HW116700   4.693   5.337   5.162
 5267SOL    HW216701   4.739   5.316   5.317
 5268SOL     OW16702   6.587   5.278   5.412
 5268SOL    HW116703   6.492   5.307   5.403
 5268SOL    HW216704   6.636   5.342   5.471
 5269SOL     OW16705   1.508   5.509   4.383
 5269SOL    HW116706   1.484   5.459   4.466
 5269SOL    HW216707   1.600   5.482   4.353
 5270SOL     OW16708   5.662   2.849   1.753
 5270SOL    HW116709   5.726   2.782   1.714
 5270SOL    HW216710   5.574   2.841   1.707
 5271SOL     OW16711   4.749   5.042   5.074
 5271SOL    HW116712   4.814   5.015   5.146
 5271SOL    HW216713   4.758   5.140   5.057
 5272SOL     OW16714   0.035   5.851   4.650
 5272SOL    HW116715   0.126   5.892   4.656
 5272SOL    HW216716   0.031   5.790   4.571
 5273SOL     OW16717   0.733   2.216   3.991
 5273SOL    HW116718   0.805   2.151   3.966
 5273SOL    HW216719   0.743   2.242   4.086
 5274SOL     OW16720   7.020   4.817   3.921
 5274SOL    HW116721   0.074   4.777   3.872
 5274SOL    HW216722   6.949   4.843   3.855
 5275SOL     OW16723   2.446   6.823   6.229
 5275SOL    HW116724   2.517   6.799   6.294
 5275SOL    HW216725   2.413   6.916   6.247
 5276SOL     OW16726   6.810   6.985   1.757
 5276SOL    HW116727   6.772   7.007   1.667
 5276SOL    HW216728   6.753   6.916   1.801
 5277SOL     OW16729   1.302   1.478   3.544
 5277SOL    HW116730   1.222   1.420   3.527
 5277SOL    HW216731   1.382   1.421   3.558
 5278SOL     OW16732   0.425   6.522   5.747
 5278SOL    HW116733   0.449   6.521   5.650
 5278SOL    HW216734   0.403   6.429   5.777
 5279SOL     OW16735   1.187   5.714   6.562
 5279SOL    HW116736   1.202   5.643   6.631
 5279SOL    HW216737   1.200   5.804   6.604
 5280SOL     OW16738   3.762   6.492   4.512
 5280SOL    HW116739   3.803   6.430   4.579
 5280SOL    HW216740   3.664   6.501   4.531
 5281SOL     OW16741   1.251   0.941   4.387
 5281SOL    HW116742   1.291   0.996   4.460
 5281SOL    HW216743   1.214   0.856   4.424
 5282SOL     OW16744   1.844   0.161   2.675
 5282SOL    HW116745   1.812   0.067   2.686
 5282SOL    HW216746   1.774   0.224   2.706
 5283SOL     OW16747   0.245   0.674   3.556
 5283SOL    HW116748   0.334   0.638   3.582
 5283SOL    HW216749   0.175   0.604   3.570
 5284SOL     OW16750   5.087   2.030   2.049
 5284SOL    HW116751   5.083   1.936   2.083
 5284SOL    HW216752   5.182   2.060   2.043
 5285SOL     OW16753   0.950   3.119   3.135
 5285SOL    HW116754   1.006   3.193   3.172
 5285SOL    HW216755   0.968   3.109   3.037
 5286SOL     OW16756   6.537   2.831   0.511
 5286SOL    HW116757   6.616   2.871   0.464
 5286SOL    HW216758   6.569   2.768   0.582
 5287SOL     OW16759   3.369   5.336   1.801
 5287SOL    HW116760   3.301   5.284   1.748
 5287SOL    HW216761   3.332   5.426   1.824
 5288SOL     OW16762   5.284   0.288   1.647
 5288SOL    HW116763   5.310   0.354   1.717
 5288SOL    HW216764   5.304   0.325   1.556
 5289SOL     OW16765   1.763   5.363   6.519
 5289SOL    HW116766   1.685   5.351   6.580
 5289SOL    HW216767   1.810   5.275   6.508
 5290SOL     OW16768   1.928   4.382   5.736
 5290SOL    HW116769   1.868   4.417   5.664
 5290SOL    HW216770   1.949   4.286   5.718
 5291SOL     OW16771   2.918   4.096   5.534
 5291SOL    HW116772   2.931   4.196   5.532
 5291SOL    HW216773   2.996   4.054   5.581
 5292SOL     OW16774   6.952   4.488   6.679
 5292SOL    HW116775   7.007   4.563   6.644
 5292SOL    HW216776   6.855   4.509   6.668
 5293SOL     OW16777   2.326   5.378   4.375
 5293SOL    HW116778   2.248   5.402   4.432
 5293SOL    HW216779   2.408   5.425   4.409
 5294SOL     OW16780   4.485   0.588   5.071
 5294SOL    HW116781   4.524   0.670   5.111
 5294SOL    HW216782   4.463   0.522   5.143
 5295SOL     OW16783   3.313   1.038   3.153
 5295SOL    HW116784   3.407   1.005   3.140
 5295SOL    HW216785   3.290   1.032   3.251
 5296SOL     OW16786   3.814   4.329   0.719
 5296SOL    HW116787   3.780   4.238   0.746
 5296SOL    HW216788   3.898   4.318   0.666
 5297SOL     OW16789   2.669   3.728   0.431
 5297SOL    HW116790   2.716   3.805   0.389
 5297SOL    HW216791   2.586   3.708   0.380
 5298SOL     OW16792   2.400   6.588   6.983
 5298SOL    HW116793   2.491   6.619   6.953
 5298SOL    HW216794   2.390   6.491   6.965
 5299SOL     OW16795   2.668   2.283   0.636
 5299SOL    HW116796   2.693   2.378   0.618
 5299SOL    HW216797   2.669   2.232   0.550
 5300SOL     OW16798   1.209   4.854   0.760
 5300SOL    HW116799   1.196   4.866   0.858
 5300SOL    HW216800   1.170   4.766   0.732
 5301SOL     OW16801   4.182   0.690   0.071
 5301SOL    HW116802   4.248   0.765   0.068
 5301SOL    HW216803   4.109   0.712   0.136
 5302SOL     OW16804   4.709   5.929   3.699
 5302SOL    HW116805   4.651   5.977   3.634
 5302SOL    HW216806   4.754   5.852   3.653
 5303SOL     OW16807   6.597   5.309   6.332
 5303SOL    HW116808   6.597   5.404   6.301
 5303SOL    HW216809   6.581   5.249   6.254
 5304SOL     OW16810   5.895   1.280   1.041
 5304SOL    HW116811   5.895   1.268   1.140
 5304SOL    HW216812   5.803   1.261   1.005
 5305SOL     OW16813   1.391   5.415   2.875
 5305SOL    HW116814   1.434   5.375   2.957
 5305SOL    HW216815   1.459   5.425   2.803
 5306SOL     OW16816   0.207   4.364   5.928
 5306SOL    HW116817   0.267   4.325   5.858
 5306SOL    HW216818   0.217   4.463   5.930
 5307SOL     OW16819   4.599   2.324   0.360
 5307SOL    HW116820   4.677   2.285   0.312
 5307SOL    HW216821   4.561   2.400   0.307
 5308SOL     OW16822   1.306   4.695   2.737
 5308SOL    HW116823   1.341   4.613   2.782
 5308SOL    HW216824   1.380   4.740   2.687
 5309SOL     OW16825   4.247   6.180   2.769
 5309SOL    HW116826   4.344   6.159   2.761
 5309SOL    HW216827   4.195   6.096   2.785
 5310SOL     OW16828   6.068   3.266   2.365
 5310SOL    HW116829   6.024   3.354   2.384
 5310SOL    HW216830   6.001   3.204   2.323
 5311SOL     OW16831   6.224   0.511   7.015
 5311SOL    HW116832   6.202   0.434   0.052
 5311SOL    HW216833   6.141   0.541   6.968
 5312SOL     OW16834   0.062   5.924   1.388
 5312SOL    HW116835   7.015   5.969   1.333
 5312SOL    HW216836   0.019   5.866   1.457
 5313SOL     OW16837   0.151   4.820   5.575
 5313SOL    HW116838   0.052   4.825   5.560
 5313SOL    HW216839   0.194   4.778   5.494
 5314SOL     OW16840   5.383   6.814   0.560
 5314SOL    HW116841   5.450   6.791   0.630
 5314SOL    HW216842   5.430   6.850   0.480
 5315SOL     OW16843   4.815   2.247   3.324
 5315SOL    HW116844   4.760   2.193   3.261
 5315SOL    HW216845   4.889   2.292   3.274
 5316SOL     OW16846   0.761   3.869   5.310
 5316SOL    HW116847   0.746   3.898   5.216
 5316SOL    HW216848   0.739   3.772   5.319
 5317SOL     OW16849   6.810   1.119   5.504
 5317SOL    HW116850   6.811   1.132   5.405
 5317SOL    HW216851   6.863   1.038   5.528
 5318SOL     OW16852   0.117   2.977   0.678
 5318SOL    HW116853   0.173   2.949   0.600
 5318SOL    HW216854   0.021   2.968   0.655
 5319SOL     OW16855   4.680   6.259   0.989
 5319SOL    HW116856   4.603   6.306   1.033
 5319SOL    HW216857   4.649   6.218   0.904
 5320SOL     OW16858   4.333   5.769   1.453
 5320SOL    HW116859   4.241   5.744   1.484
 5320SOL    HW216860   4.366   5.700   1.389
 5321SOL     OW16861   2.024   4.606   5.059
 5321SOL    HW116862   2.052   4.637   5.150
 5321SOL    HW216863   1.963   4.528   5.068
 5322SOL     OW16864   5.680   7.013   0.762
 5322SOL    HW116865   5.718   0.048   0.690
 5322SOL    HW216866   5.753   6.956   0.800
 5323SOL     OW16867   4.411   1.409   5.702
 5323SOL    HW116868   4.388   1.484   5.764
 5323SOL    HW216869   4.335   1.393   5.639
 5324SOL     OW16870   2.741   1.998   6.887
 5324SOL    HW116871   2.723   2.078   6.830
 5324SOL    HW216872   2.782   2.028   6.974
 5325SOL     OW16873   2.713   1.771   5.040
 5325SOL    HW116874   2.664   1.775   5.127
 5325SOL    HW216875   2.668   1.705   4.980
 5326SOL     OW16876   6.350   5.855   3.286
 5326SOL    HW116877   6.418   5.876   3.217
 5326SOL    HW216878   6.260   5.887   3.256
 5327SOL     OW16879   5.916   2.638   4.709
 5327SOL    HW116880   5.908   2.572   4.784
 5327SOL    HW216881   6.012   2.645   4.682
 5328SOL     OW16882   3.972   3.836   6.011
 5328SOL    HW116883   4.024   3.868   5.931
 5328SOL    HW216884   3.889   3.789   5.981
 5329SOL     OW16885   0.992   5.282   6.483
 5329SOL    HW116886   0.988   5.188   6.517
 5329SOL    HW216887   0.959   5.345   6.553
 5330SOL     OW16888   3.963   4.387   0.107
 5330SOL    HW116889   3.933   4.305   0.058
 5330SOL    HW216890   4.060   4.380   0.129
 5331SOL     OW16891   6.168   1.953   6.707
 5331SOL    HW116892   6.092   1.988   6.654
 5331SOL    HW216893   6.152   1.857   6.729
 5332SOL     OW16894   1.789   4.149   1.466
 5332SOL    HW116895   1.871   4.173   1.517
 5332SOL    HW216896   1.708   4.171   1.521
 5333SOL     OW16897   1.449   0.876   3.230
 5333SOL    HW116898   1.372   0.917   3.182
 5333SOL    HW216899   1.424   0.785   3.263
 5334SOL     OW16900   3.235   0.685   5.466
 5334SOL    HW116901   3.186   0.770   5.487
 5334SOL    HW216902   3.261   0.685   5.369
 5335SOL     OW16903   6.080   6.039   0.827
 5335SOL    HW116904   6.002   5.987   0.863
 5335SOL    HW216905   6.164   5.988   0.843
 5336SOL     OW16906   1.675   3.502   2.334
 5336SOL    HW116907   1.722   3.420   2.368
 5336SOL    HW216908   1.637   3.483   2.243
 5337SOL     OW16909   4.571   3.773   1.702
 5337SOL    HW116910   4.647   3.737   1.649
 5337SOL    HW216911   4.566   3.873   1.691
 5338SOL     OW16912   5.835   1.811   6.660
 5338SOL    HW116913   5.821   1.722   6.617
 5338SOL    HW216914   5.854   1.799   6.757
 5339SOL     OW16915   6.378   1.754   3.886
 5339SOL    HW116916   6.420   1.770   3.797
 5339SOL    HW216917   6.440   1.700   3.943
 5340SOL     OW16918   6.080   2.901   0.475
 5340SOL    HW116919   6.005   2.935   0.532
 5340SOL    HW216920   6.160   2.959   0.487
 5341SOL     OW16921   3.911   2.326   5.787
 5341SOL    HW116922   3.824   2.303   5.744
 5341SOL    HW216923   3.960   2.391   5.729
 5342SOL     OW16924   4.056   0.803   5.064
 5342SOL    HW116925   3.974   0.756   5.097
 5342SOL    HW216926   4.104   0.745   4.999
 5343SOL     OW16927   3.600   3.619   3.602
 5343SOL    HW116928   3.646   3.678   3.535
 5343SOL    HW216929   3.504   3.608   3.575
 5344SOL     OW16930   1.644   2.645   2.716
 5344SOL    HW116931   1.600   2.571   2.666
 5344SOL    HW216932   1.575   2.708   2.750
 5345SOL     OW16933   4.580   5.814   0.877
 5345SOL    HW116934   4.484   5.795   0.900
 5345SOL    HW216935   4.583   5.866   0.792
 5346SOL     OW16936   3.141   6.349   3.589
 5346SOL    HW116937   3.058   6.306   3.624
 5346SOL    HW216938   3.218   6.286   3.600
 5347SOL     OW16939   6.866   2.088   2.215
 5347SOL    HW116940   6.802   2.137   2.156
 5347SOL    HW216941   6.893   2.146   2.292
 5348SOL     OW16942   0.859   1.461   0.432
 5348SOL    HW116943   0.866   1.484   0.529
 5348SOL    HW216944   0.843   1.363   0.422
 5349SOL     OW16945   0.875   2.415   0.349
 5349SOL    HW116946   0.959   2.445   0.394
 5349SOL    HW216947   0.896   2.379   0.258
 5350SOL     OW16948   2.396   0.375   6.096
 5350SOL    HW116949   2.329   0.301   6.093
 5350SOL    HW216950   2.381   0.436   6.018
 5351SOL     OW16951   4.819   5.470   1.405
 5351SOL    HW116952   4.807   5.561   1.365
 5351SOL    HW216953   4.730   5.429   1.423
 5352SOL     OW16954   2.308   6.187   3.687
 5352SOL    HW116955   2.400   6.149   3.688
 5352SOL    HW216956   2.244   6.120   3.647
 5353SOL     OW16957   4.292   6.028   4.601
 5353SOL    HW116958   4.297   6.120   4.563
 5353SOL    HW216959   4.273   5.962   4.528
 5354SOL     OW16960   2.351   4.468   2.620
 5354SOL    HW116961   2.433   4.504   2.575
 5354SOL    HW216962   2.280   4.538   2.620
 5355SOL     OW16963   4.881   2.300   3.623
 5355SOL    HW116964   4.921   2.391   3.621
 5355SOL    HW216965   4.885   2.260   3.531
 5356SOL     OW16966   5.818   4.162   1.635
 5356SOL    HW116967   5.775   4.168   1.726
 5356SOL    HW216968   5.757   4.114   1.573
 5357SOL     OW16969   3.482   1.209   1.019
 5357SOL    HW116970   3.568   1.160   1.030
 5357SOL    HW216971   3.407   1.153   1.056
 5358SOL     OW16972   4.124   2.427   0.766
 5358SOL    HW116973   4.173   2.510   0.792
 5358SOL    HW216974   4.047   2.414   0.828
 5359SOL     OW16975   2.358   1.836   0.670
 5359SOL    HW116976   2.317   1.774   0.603
 5359SOL    HW216977   2.396   1.915   0.623
 5360SOL     OW16978   3.808   6.561   4.920
 5360SOL    HW116979   3.817   6.462   4.928
 5360SOL    HW216980   3.779   6.600   5.007
 5361SOL     OW16981   2.704   0.946   4.815
 5361SOL    HW116982   2.691   0.850   4.791
 5361SOL    HW216983   2.784   0.956   4.874
 5362SOL     OW16984   5.070   4.558   3.635
 5362SOL    HW116985   5.048   4.623   3.563
 5362SOL    HW216986   5.145   4.593   3.691
 5363SOL     OW16987   0.948   5.826   5.945
 5363SOL    HW116988   0.878   5.781   6.000
 5363SOL    HW216989   1.026   5.849   6.003
 5364SOL     OW16990   6.431   5.476   0.790
 5364SOL    HW116991   6.475   5.517   0.870
 5364SOL    HW216992   6.360   5.537   0.756
 5365SOL     OW16993   4.498   3.141   6.571
 5365SOL    HW116994   4.398   3.144   6.561
 5365SOL    HW216995   4.540   3.182   6.491
 5366SOL     OW16996   4.873   4.982   1.421
 5366SOL    HW116997   4.973   4.976   1.428
 5366SOL    HW216998   4.831   4.930   1.496
 5367SOL     OW16999   0.431   5.071   0.670
 5367SOL    HW117000   0.365   5.122   0.725
 5367SOL    HW217001   0.518   5.063   0.720
 5368SOL     OW17002   5.232   1.560   2.986
 5368SOL    HW117003   5.271   1.560   2.894
 5368SOL    HW217004   5.199   1.468   3.008
 5369SOL     OW17005   2.579   5.638   3.531
 5369SOL    HW117006   2.638   5.661   3.609
 5369SOL    HW217007   2.547   5.722   3.487
 5370SOL     OW17008   4.007   2.935   1.817
 5370SOL    HW117009   3.948   2.994   1.762
 5370SOL    HW217010   4.100   2.936   1.780
 5371SOL     OW17011   2.031   4.319   4.385
 5371SOL    HW117012   2.061   4.367   4.303
 5371SOL    HW217013   1.962   4.374   4.432
 5372SOL     OW17014   2.731   5.530   2.212
 5372SOL    HW117015   2.805   5.507   2.276
 5372SOL    HW217016   2.661   5.459   2.216
 5373SOL     OW17017   2.998   4.796   4.340
 5373SOL    HW117018   2.939   4.816   4.262
 5373SOL    HW217019   2.942   4.775   4.420
 5374SOL     OW17020   1.219   3.422   0.012
 5374SOL    HW117021   1.301   3.366   0.017
 5374SOL    HW217022   1.221   3.476   6.951
 5375SOL     OW17023   1.053   4.760   5.153
 5375SOL    HW117024   1.070   4.694   5.080
 5375SOL    HW217025   1.036   4.712   5.239
 5376SOL     OW17026   1.572   3.088   1.476
 5376SOL    HW117027   1.666   3.105   1.447
 5376SOL    HW217028   1.539   3.166   1.530
 5377SOL     OW17029   6.838   0.210   1.861
 5377SOL    HW117030   6.934   0.236   1.872
 5377SOL    HW217031   6.832   0.120   1.818
 5378SOL     OW17032   6.772   0.735   0.938
 5378SOL    HW117033   6.856   0.758   0.889
 5378SOL    HW217034   6.757   0.800   1.013
 5379SOL     OW17035   0.363   5.426   4.028
 5379SOL    HW117036   0.459   5.417   4.004
 5379SOL    HW217037   0.342   5.523   4.044
 5380SOL     OW17038   1.961   1.090   3.630
 5380SOL    HW117039   1.929   1.017   3.569
 5380SOL    HW217040   1.902   1.171   3.619
 5381SOL     OW17041   6.867   3.443   0.740
 5381SOL    HW117042   6.954   3.395   0.752
 5381SOL    HW217043   6.869   3.494   0.654
 5382SOL     OW17044   2.916   0.169   1.525
 5382SOL    HW117045   2.966   0.096   1.571
 5382SOL    HW217046   2.938   0.168   1.427
 5383SOL     OW17047   2.955   2.301   5.324
 5383SOL    HW117048   2.894   2.226   5.348
 5383SOL    HW217049   3.002   2.280   5.238
 5384SOL     OW17050   5.852   0.180   3.861
 5384SOL    HW117051   5.821   0.217   3.773
 5384SOL    HW217052   5.951   0.166   3.859
 5385SOL     OW17053   3.043   3.986   3.311
 5385SOL    HW117054   2.982   4.065   3.319
 5385SOL    HW217055   3.046   3.956   3.216
 5386SOL     OW17056   4.903   6.196   4.399
 5386SOL    HW117057   5.001   6.212   4.395
 5386SOL    HW217058   4.865   6.197   4.307
 5387SOL     OW17059   2.086   5.827   3.080
 5387SOL    HW117060   2.093   5.857   2.984
 5387SOL    HW217061   2.104   5.905   3.140
 5388SOL     OW17062   5.427   6.025   2.456
 5388SOL    HW117063   5.399   6.032   2.360
 5388SOL    HW217064   5.374   6.089   2.511
 5389SOL     OW17065   5.445   0.760   1.813
 5389SOL    HW117066   5.472   0.771   1.717
 5389SOL    HW217067   5.482   0.836   1.867
 5390SOL     OW17068   4.362   5.355   4.273
 5390SOL    HW117069   4.439   5.329   4.332
 5390SOL    HW217070   4.389   5.432   4.216
 5391SOL     OW17071   2.464   3.319   0.499
 5391SOL    HW117072   2.509   3.389   0.444
 5391SOL    HW217073   2.374   3.298   0.460
 5392SOL     OW17074   6.467   3.544   0.927
 5392SOL    HW117075   6.422   3.469   0.880
 5392SOL    HW217076   6.566   3.528   0.927
 5393SOL     OW17077   6.557   0.046   6.777
 5393SOL    HW117078   6.526   7.008   6.849
 5393SOL    HW217079   6.600   0.127   6.818
 5394SOL     OW17080   0.283   3.693   6.272
 5394SOL    HW117081   0.330   3.697   6.361
 5394SOL    HW217082   0.351   3.699   6.199
 5395SOL     OW17083   4.608   0.830   1.514
 5395SOL    HW117084   4.603   0.894   1.437
 5395SOL    HW217085   4.539   0.759   1.503
 5396SOL     OW17086   5.237   3.350   2.662
 5396SOL    HW117087   5.214   3.355   2.565
 5396SOL    HW217088   5.222   3.439   2.704
 5397SOL     OW17089   6.943   3.013   2.105
 5397SOL    HW117090   0.009   3.058   2.103
 5397SOL    HW217091   6.880   3.066   2.162
 5398SOL     OW17092   3.220   2.542   1.482
 5398SOL    HW117093   3.308   2.511   1.446
 5398SOL    HW217094   3.231   2.571   1.577
 5399SOL     OW17095   2.433   6.481   0.968
 5399SOL    HW117096   2.457   6.462   0.873
 5399SOL    HW217097   2.478   6.414   1.028
 5400SOL     OW17098   3.018   4.424   1.037
 5400SOL    HW117099   3.031   4.352   0.969
 5400SOL    HW217100   3.086   4.497   1.021
 5401SOL     OW17101   5.658   3.197   2.119
 5401SOL    HW117102   5.616   3.122   2.068
 5401SOL    HW217103   5.757   3.185   2.120
 5402SOL     OW17104   2.477   5.882   1.976
 5402SOL    HW117105   2.440   5.825   2.050
 5402SOL    HW217106   2.423   5.966   1.968
 5403SOL     OW17107   6.913   3.410   6.432
 5403SOL    HW117108   6.976   3.453   6.366
 5403SOL    HW217109   6.833   3.374   6.383
 5404SOL     OW17110   1.164   2.244   3.536
 5404SOL    HW117111   1.074   2.286   3.543
 5404SOL    HW217112   1.159   2.163   3.477
 5405SOL     OW17113   6.849   5.179   0.037
 5405SOL    HW117114   6.857   5.085   0.069
 5405SOL    HW217115   6.758   5.193   7.021
 5406SOL     OW17116   2.621   1.555   6.635
 5406SOL    HW117117   2.646   1.564   6.732
 5406SOL    HW217118   2.668   1.477   6.595
 5407SOL     OW17119   4.329   3.350   0.502
 5407SOL    HW117120   4.379   3.334   0.587
 5407SOL    HW217121   4.375   3.302   0.427
 5408SOL     OW17122   2.846   1.148   5.321
 5408SOL    HW117123   2.865   1.139   5.419
 5408SOL    HW217124   2.859   1.059   5.276
 5409SOL     OW17125   5.170   0.286   2.911
 5409SOL    HW117126   5.165   0.385   2.898
 5409SOL    HW217127   5.080   0.246   2.895
 5410SOL     OW17128   2.617   2.468   1.774
 5410SOL    HW117129   2.607   2.384   1.720
 5410SOL    HW217130   2.703   2.463   1.826
 5411SOL     OW17131   6.261   5.070   6.070
 5411SOL    HW117132   6.228   5.137   6.136
 5411SOL    HW217133   6.214   4.983   6.085
 5412SOL     OW17134   4.608   2.475   0.580
 5412SOL    HW117135   4.702   2.496   0.552
 5412SOL    HW217136   4.575   2.396   0.530
 5413SOL     OW17137   2.658   1.093   1.365
 5413SOL    HW117138   2.597   1.168   1.339
 5413SOL    HW217139   2.753   1.119   1.344
 5414SOL     OW17140   5.368   2.018   4.371
 5414SOL    HW117141   5.330   2.006   4.279
 5414SOL    HW217142   5.339   2.106   4.407
 5415SOL     OW17143   0.285   5.807   1.319
 5415SOL    HW117144   0.205   5.866   1.333
 5415SOL    HW217145   0.347   5.849   1.253
 5416SOL     OW17146   4.228   5.531   5.573
 5416SOL    HW117147   4.216   5.517   5.475
 5416SOL    HW217148   4.281   5.614   5.589
 5417SOL     OW17149   3.499   6.643   5.693
 5417SOL    HW117150   3.531   6.624   5.786
 5417SOL    HW217151   3.476   6.740   5.684
 5418SOL     OW17152   3.607   0.286   3.215
 5418SOL    HW117153   3.622   0.194   3.251
 5418SOL    HW217154   3.517   0.290   3.172
 5419SOL     OW17155   3.620   5.039   0.234
 5419SOL    HW117156   3.588   4.953   0.195
 5419SOL    HW217157   3.694   5.076   0.177
 5420SOL     OW17158   1.885   3.271   3.292
 5420SOL    HW117159   1.938   3.239   3.214
 5420SOL    HW217160   1.938   3.338   3.344
 5421SOL     OW17161   1.711   3.503   1.794
 5421SOL    HW117162   1.702   3.570   1.720
 5421SOL    HW217163   1.806   3.500   1.825
 5422SOL     OW17164   0.460   4.802   0.890
 5422SOL    HW117165   0.415   4.872   0.945
 5422SOL    HW217166   0.439   4.817   0.793
 5423SOL     OW17167   6.589   2.849   0.023
 5423SOL    HW117168   6.538   2.934   0.039
 5423SOL    HW217169   6.646   2.860   6.965
 5424SOL     OW17170   5.367   3.031   3.952
 5424SOL    HW117171   5.372   2.933   3.968
 5424SOL    HW217172   5.390   3.051   3.856
 5425SOL     OW17173   4.275   1.101   4.700
 5425SOL    HW117174   4.191   1.123   4.751
 5425SOL    HW217175   4.311   1.184   4.658
 5426SOL     OW17176   5.945   6.268   4.583
 5426SOL    HW117177   5.859   6.230   4.620
 5426SOL    HW217178   6.022   6.231   4.634
 5427SOL     OW17179   4.811   5.683   6.769
 5427SOL    HW117180   4.753   5.760   6.742
 5427SOL    HW217181   4.878   5.714   6.836
 5428SOL     OW17182   6.601   0.020   1.279
 5428SOL    HW117183   6.631   6.967   1.336
 5428SOL    HW217184   6.680   0.063   1.236
 5429SOL     OW17185   1.874   1.897   6.482
 5429SOL    HW117186   1.870   1.845   6.397
 5429SOL    HW217187   1.798   1.870   6.541
 5430SOL     OW17188   0.318   2.311   5.491
 5430SOL    HW117189   0.349   2.406   5.504
 5430SOL    HW217190   0.395   2.256   5.458
 5431SOL     OW17191   3.318   5.995   0.122
 5431SOL    HW117192   3.394   5.943   0.083
 5431SOL    HW217193   3.343   6.092   0.129
 5432SOL     OW17194   5.742   0.469   6.842
 5432SOL    HW117195   5.647   0.438   6.832
 5432SOL    HW217196   5.742   0.567   6.863
 5433SOL     OW17197   0.382   1.899   4.541
 5433SOL    HW117198   0.290   1.860   4.534
 5433SOL    HW217199   0.377   1.999   4.532
 5434SOL     OW17200   3.278   0.609   6.025
 5434SOL    HW117201   3.262   0.655   6.112
 5434SOL    HW217202   3.377   0.605   6.007
 5435SOL     OW17203   5.913   0.241   1.921
 5435SOL    HW117204   5.842   0.221   1.989
 5435SOL    HW217205   5.881   0.214   1.830
 5436SOL     OW17206   4.859   3.985   4.145
 5436SOL    HW117207   4.798   4.041   4.202
 5436SOL    HW217208   4.860   3.891   4.180
 5437SOL     OW17209   2.779   3.959   0.329
 5437SOL    HW117210   2.722   4.036   0.302
 5437SOL    HW217211   2.875   3.985   0.323
 5438SOL     OW17212   6.771   2.364   1.568
 5438SOL    HW117213   6.858   2.321   1.591
 5438SOL    HW217214   6.787   2.457   1.533
 5439SOL     OW17215   1.522   1.517   1.211
 5439SOL    HW117216   1.568   1.601   1.239
 5439SOL    HW217217   1.578   1.469   1.144
 5440SOL     OW17218   1.258   1.086   0.891
 5440SOL    HW117219   1.183   1.097   0.957
 5440SOL    HW217220   1.229   1.121   0.802
 5441SOL     OW17221   3.951   1.955   3.696
 5441SOL    HW117222   3.854   1.962   3.719
 5441SOL    HW217223   3.968   2.001   3.609
 5442SOL     OW17224   4.390   6.803   2.759
 5442SOL    HW117225   4.459   6.752   2.709
 5442SOL    HW217226   4.328   6.739   2.805
 5443SOL     OW17227   3.452   6.805   4.922
 5443SOL    HW117228   3.473   6.761   4.835
 5443SOL    HW217229   3.417   6.736   4.986
 5444SOL     OW17230   0.896   0.792   4.168
 5444SOL    HW117231   0.944   0.813   4.254
 5444SOL    HW217232   0.820   0.856   4.156
 5445SOL     OW17233   6.360   4.203   3.072
 5445SOL    HW117234   6.408   4.138   3.013
 5445SOL    HW217235   6.426   4.250   3.130
 5446SOL     OW17236   6.419   5.755   4.909
 5446SOL    HW117237   6.398   5.850   4.886
 5446SOL    HW217238   6.355   5.695   4.862
 5447SOL     OW17239   2.759   2.481   6.819
 5447SOL    HW117240   2.839   2.540   6.829
 5447SOL    HW217241   2.684   2.532   6.777
 5448SOL     OW17242   4.243   2.702   5.661
 5448SOL    HW117243   4.255   2.747   5.572
 5448SOL    HW217244   4.332   2.675   5.697
 5449SOL     OW17245   1.575   2.711   6.263
 5449SOL    HW117246   1.556   2.799   6.307
 5449SOL    HW217247   1.599   2.644   6.333
 5450SOL     OW17248   2.178   0.565   1.559
 5450SOL    HW117249   2.274   0.592   1.573
 5450SOL    HW217250   2.158   0.560   1.462
 5451SOL     OW17251   1.856   6.272   3.430
 5451SOL    HW117252   1.766   6.315   3.422
 5451SOL    HW217253   1.904   6.309   3.510
 5452SOL     OW17254   2.118   4.686   6.814
 5452SOL    HW117255   2.068   4.600   6.824
 5452SOL    HW217256   2.213   4.674   6.843
 5453SOL     OW17257   6.588   3.826   0.437
 5453SOL    HW117258   6.680   3.807   0.403
 5453SOL    HW217259   6.563   3.920   0.415
 5454SOL     OW17260   0.206   4.048   0.024
 5454SOL    HW117261   0.240   3.959   7.016
 5454SOL    HW217262   0.237   4.120   6.985
 5455SOL     OW17263   6.441   3.101   0.186
 5455SOL    HW117264   6.351   3.143   0.178
 5455SOL    HW217265   6.512   3.171   0.177
 5456SOL     OW17266   3.675   6.939   6.677
 5456SOL    HW117267   3.577   6.922   6.671
 5456SOL    HW217268   3.694   7.004   6.750
 5457SOL     OW17269   5.241   2.159   1.231
 5457SOL    HW117270   5.235   2.249   1.275
 5457SOL    HW217271   5.292   2.168   1.146
 5458SOL     OW17272   0.861   4.583   0.003
 5458SOL    HW117273   0.947   4.537   7.007
 5458SOL    HW217274   0.837   4.569   0.099
 5459SOL     OW17275   1.743   5.542   0.529
 5459SOL    HW117276   1.731   5.494   0.442
 5459SOL    HW217277   1.838   5.531   0.559
 5460SOL     OW17278   3.251   0.128   1.858
 5460SOL    HW117279   3.175   0.179   1.817
 5460SOL    HW217280   3.228   0.031   1.861
 5461SOL     OW17281   5.848   6.181   5.044
 5461SOL    HW117282   5.858   6.262   4.988
 5461SOL    HW217283   5.763   6.133   5.020
 5462SOL     OW17284   1.934   0.465   0.540
 5462SOL    HW117285   1.931   0.403   0.619
 5462SOL    HW217286   1.921   0.412   0.456
 5463SOL     OW17287   6.000   2.064   0.308
 5463SOL    HW117288   6.034   2.127   0.238
 5463SOL    HW217289   5.946   2.115   0.375
 5464SOL     OW17290   1.165   0.540   4.235
 5464SOL    HW117291   1.159   0.602   4.157
 5464SOL    HW217292   1.260   0.513   4.249
 5465SOL     OW17293   3.358   6.517   3.515
 5465SOL    HW117294   3.265   6.485   3.530
 5465SOL    HW217295   3.373   6.532   3.417
 5466SOL     OW17296   5.705   4.715   4.932
 5466SOL    HW117297   5.673   4.801   4.891
 5466SOL    HW217298   5.801   4.701   4.909
 5467SOL     OW17299   5.183   1.833   2.818
 5467SOL    HW117300   5.254   1.878   2.763
 5467SOL    HW217301   5.187   1.866   2.912
 5468SOL     OW17302   4.862   1.582   4.222
 5468SOL    HW117303   4.950   1.610   4.261
 5468SOL    HW217304   4.855   1.616   4.128
 5469SOL     OW17305   3.831   4.998   6.541
 5469SOL    HW117306   3.795   4.926   6.482
 5469SOL    HW217307   3.870   5.071   6.484
 5470SOL     OW17308   1.936   5.239   3.220
 5470SOL    HW117309   1.841   5.245   3.250
 5470SOL    HW217310   1.940   5.191   3.132
 5471SOL     OW17311   5.640   6.636   1.014
 5471SOL    HW117312   5.676   6.612   1.105
 5471SOL    HW217313   5.610   6.552   0.968
 5472SOL     OW17314   4.618   4.299   6.129
 5472SOL    HW117315   4.696   4.276   6.187
 5472SOL    HW217316   4.534   4.287   6.181
 5473SOL     OW17317   0.847   3.811   3.544
 5473SOL    HW117318   0.750   3.836   3.540
 5473SOL    HW217319   0.862   3.750   3.623
 5474SOL     OW17320   1.455   4.813   4.460
 5474SOL    HW117321   1.361   4.832   4.432
 5474SOL    HW217322   1.481   4.722   4.430
 5475SOL     OW17323   3.691   2.721   1.310
 5475SOL    HW117324   3.663   2.817   1.301
 5475SOL    HW217325   3.621   2.671   1.360
 5476SOL     OW17326   2.303   3.567   6.348
 5476SOL    HW117327   2.223   3.513   6.322
 5476SOL    HW217328   2.340   3.614   6.268
 5477SOL     OW17329   2.101   3.725   3.539
 5477SOL    HW117330   2.114   3.687   3.631
 5477SOL    HW217331   2.135   3.819   3.537
 5478SOL     OW17332   5.739   5.623   5.960
 5478SOL    HW117333   5.801   5.694   5.992
 5478SOL    HW217334   5.695   5.653   5.874
 5479SOL     OW17335   4.782   0.966   5.192
 5479SOL    HW117336   4.763   0.954   5.290
 5479SOL    HW217337   4.830   0.886   5.158
 5480SOL     OW17338   1.004   3.761   4.034
 5480SOL    HW117339   1.038   3.855   4.029
 5480SOL    HW217340   1.075   3.702   4.072
 5481SOL     OW17341   3.016   0.250   4.516
 5481SOL    HW117342   2.924   0.269   4.482
 5481SOL    HW217343   3.083   0.279   4.448
 5482SOL     OW17344   3.813   4.499   1.674
 5482SOL    HW117345   3.756   4.548   1.740
 5482SOL    HW217346   3.826   4.554   1.592
 5483SOL     OW17347   0.691   3.355   5.240
 5483SOL    HW117348   0.743   3.273   5.216
 5483SOL    HW217349   0.612   3.330   5.296
 5484SOL     OW17350   4.532   0.420   4.832
 5484SOL    HW117351   4.515   0.475   4.914
 5484SOL    HW217352   4.505   0.472   4.751
 5485SOL     OW17353   2.761   6.850   5.461
 5485SOL    HW117354   2.812   6.885   5.540
 5485SOL    HW217355   2.805   6.767   5.427
 5486SOL     OW17356   2.379   5.606   5.137
 5486SOL    HW117357   2.446   5.580   5.067
 5486SOL    HW217358   2.357   5.527   5.194
 5487SOL     OW17359   3.049   4.375   6.004
 5487SOL    HW117360   3.088   4.284   6.021
 5487SOL    HW217361   3.031   4.386   5.907
 5488SOL     OW17362   6.617   1.126   0.436
 5488SOL    HW117363   6.589   1.198   0.499
 5488SOL    HW217364   6.559   1.129   0.354
 5489SOL     OW17365   6.498   3.018   2.186
 5489SOL    HW117366   6.514   3.110   2.151
 5489SOL    HW217367   6.402   3.007   2.210
 5490SOL     OW17368   1.239   6.861   2.592
 5490SOL    HW117369   1.222   6.811   2.677
 5490SOL    HW217370   1.157   6.857   2.534
 5491SOL     OW17371   6.764   3.164   0.462
 5491SOL    HW117372   6.842   3.226   0.449
 5491SOL    HW217373   6.686   3.215   0.498
 5492SOL     OW17374   0.874   3.054   5.466
 5492SOL    HW117375   0.967   3.021   5.474
 5492SOL    HW217376   0.831   3.017   5.384
 5493SOL     OW17377   4.186   3.600   1.861
 5493SOL    HW117378   4.153   3.573   1.951
 5493SOL    HW217379   4.221   3.519   1.813
 5494SOL     OW17380   5.916   4.493   5.123
 5494SOL    HW117381   5.897   4.414   5.181
 5494SOL    HW217382   5.946   4.570   5.179
 5495SOL     OW17383   6.139   0.924   0.491
 5495SOL    HW117384   6.110   0.846   0.546
 5495SOL    HW217385   6.190   0.892   0.412
 5496SOL     OW17386   4.344   0.495   4.284
 5496SOL    HW117387   4.363   0.400   4.262
 5496SOL    HW217388   4.430   0.546   4.290
 5497SOL     OW17389   0.517   0.627   5.707
 5497SOL    HW117390   0.527   0.675   5.794
 5497SOL    HW217391   0.428   0.581   5.704
 5498SOL     OW17392   0.276   4.772   1.496
 5498SOL    HW117393   0.236   4.708   1.431
 5498SOL    HW217394   0.217   4.780   1.576
 5499SOL     OW17395   0.174   0.543   3.816
 5499SOL    HW117396   0.272   0.565   3.814
 5499SOL    HW217397   0.121   0.626   3.799
 5500SOL     OW17398   1.794   0.580   0.038
 5500SOL    HW117399   1.805   0.650   0.109
 5500SOL    HW217400   1.703   0.539   0.046
 5501SOL     OW17401   3.985   2.056   0.436
 5501SOL    HW117402   3.950   2.137   0.483
 5501SOL    HW217403   3.979   2.070   0.337
 5502SOL     OW17404   5.236   3.631   6.428
 5502SOL    HW117405   5.290   3.546   6.426
 5502SOL    HW217406   5.151   3.617   6.377
 5503SOL     OW17407   0.111   3.739   0.117
 5503SOL    HW117408   0.079   3.750   0.211
 5503SOL    HW217409   0.088   3.821   0.064
 5504SOL     OW17410   3.810   1.114   6.782
 5504SOL    HW117411   3.839   1.164   6.701
 5504SOL    HW217412   3.881   1.048   6.808
 5505SOL     OW17413   2.255   4.317   3.902
 5505SOL    HW117414   2.278   4.221   3.919
 5505SOL    HW217415   2.238   4.331   3.804
 5506SOL     OW17416   0.461   3.641   6.064
 5506SOL    HW117417   0.528   3.673   5.997
 5506SOL    HW217418   0.500   3.568   6.119
 5507SOL     OW17419   3.171   0.262   6.325
 5507SOL    HW117420   3.072   0.247   6.329
 5507SOL    HW217421   3.219   0.176   6.339
 5508SOL     OW17422   1.024   1.069   6.763
 5508SOL    HW117423   1.108   1.016   6.751
 5508SOL    HW217424   0.945   1.008   6.758
 5509SOL     OW17425   0.090   5.402   0.934
 5509SOL    HW117426   0.029   5.450   0.997
 5509SOL    HW217427   0.038   5.333   0.883
 5510SOL     OW17428   4.569   5.753   6.930
 5510SOL    HW117429   4.612   5.817   6.866
 5510SOL    HW217430   4.638   5.715   6.991
 5511SOL     OW17431   0.289   1.719   5.097
 5511SOL    HW117432   0.321   1.646   5.036
 5511SOL    HW217433   0.229   1.679   5.167
 5512SOL     OW17434   3.480   1.294   2.301
 5512SOL    HW117435   3.422   1.239   2.240
 5512SOL    HW217436   3.473   1.259   2.394
 5513SOL     OW17437   4.349   4.687   6.327
 5513SOL    HW117438   4.411   4.611   6.346
 5513SOL    HW217439   4.390   4.773   6.357
 5514SOL     OW17440   2.996   6.591   5.470
 5514SOL    HW117441   2.939   6.601   5.388
 5514SOL    HW217442   3.090   6.619   5.449
 5515SOL     OW17443   1.964   5.743   1.999
 5515SOL    HW117444   2.060   5.716   1.984
 5515SOL    HW217445   1.906   5.696   1.932
 5516SOL     OW17446   2.412   2.885   5.402
 5516SOL    HW117447   2.340   2.836   5.353
 5516SOL    HW217448   2.440   2.965   5.348
 5517SOL     OW17449   1.783   3.953   2.744
 5517SOL    HW117450   1.823   3.921   2.658
 5517SOL    HW217451   1.776   3.876   2.808
 5518SOL     OW17452   4.930   4.611   5.299
 5518SOL    HW117453   4.954   4.628   5.394
 5518SOL    HW217454   4.964   4.686   5.242
 5519SOL     OW17455   4.482   2.482   3.632
 5519SOL    HW117456   4.463   2.501   3.536
 5519SOL    HW217457   4.410   2.424   3.669
 5520SOL     OW17458   5.399   6.691   2.316
 5520SOL    HW117459   5.439   6.601   2.335
 5520SOL    HW217460   5.397   6.745   2.401
 5521SOL     OW17461   5.517   5.411   1.986
 5521SOL    HW117462   5.513   5.314   2.009
 5521SOL    HW217463   5.436   5.458   2.022
 5522SOL     OW17464   5.570   5.210   1.196
 5522SOL    HW117465   5.499   5.278   1.218
 5522SOL    HW217466   5.540   5.155   1.118
 5523SOL     OW17467   6.268   1.409   2.418
 5523SOL    HW117468   6.190   1.358   2.456
 5523SOL    HW217469   6.287   1.375   2.326
 5524SOL     OW17470   3.148   0.742   4.869
 5524SOL    HW117471   3.173   0.707   4.779
 5524SOL    HW217472   3.059   0.705   4.895
 5525SOL     OW17473   6.818   2.697   1.186
 5525SOL    HW117474   6.906   2.731   1.153
 5525SOL    HW217475   6.744   2.757   1.155
 5526SOL     OW17476   4.572   4.627   3.435
 5526SOL    HW117477   4.671   4.631   3.438
 5526SOL    HW217478   4.540   4.649   3.342
 5527SOL     OW17479   5.103   2.633   4.175
 5527SOL    HW117480   5.084   2.721   4.218
 5527SOL    HW217481   5.160   2.577   4.235
 5528SOL     OW17482   1.286   1.449   1.301
 5528SOL    HW117483   1.217   1.512   1.268
 5528SOL    HW217484   1.376   1.477   1.268
 5529SOL     OW17485   3.379   0.500   2.679
 5529SOL    HW117486   3.284   0.502   2.646
 5529SOL    HW217487   3.400   0.585   2.727
 5530SOL     OW17488   6.614   2.216   1.414
 5530SOL    HW117489   6.651   2.286   1.475
 5530SOL    HW217490   6.639   2.238   1.319
 5531SOL     OW17491   3.584   3.859   1.416
 5531SOL    HW117492   3.566   3.854   1.514
 5531SOL    HW217493   3.681   3.876   1.400
 5532SOL     OW17494   1.891   2.578   1.446
 5532SOL    HW117495   1.973   2.613   1.490
 5532SOL    HW217496   1.813   2.634   1.472
 5533SOL     OW17497   4.335   2.040   4.118
 5533SOL    HW117498   4.322   2.137   4.137
 5533SOL    HW217499   4.260   1.987   4.157
 5534SOL     OW17500   0.923   1.833   5.351
 5534SOL    HW117501   0.972   1.919   5.366
 5534SOL    HW217502   0.982   1.770   5.299
 5535SOL     OW17503   1.070   1.801   3.255
 5535SOL    HW117504   1.116   1.884   3.287
 5535SOL    HW217505   1.037   1.815   3.162
 5536SOL     OW17506   2.969   0.960   4.944
 5536SOL    HW117507   2.984   1.048   4.988
 5536SOL    HW217508   3.057   0.912   4.934
 5537SOL     OW17509   2.990   0.967   2.879
 5537SOL    HW117510   3.048   0.886   2.881
 5537SOL    HW217511   3.044   1.048   2.902
 5538SOL     OW17512   4.837   5.692   4.996
 5538SOL    HW117513   4.843   5.789   5.022
 5538SOL    HW217514   4.815   5.686   4.899
 5539SOL     OW17515   2.436   2.637   1.144
 5539SOL    HW117516   2.341   2.612   1.122
 5539SOL    HW217517   2.498   2.573   1.100
 5540SOL     OW17518   4.978   5.496   2.914
 5540SOL    HW117519   4.949   5.415   2.863
 5540SOL    HW217520   5.046   5.546   2.861
 5541SOL     OW17521   5.069   1.349   5.719
 5541SOL    HW117522   5.165   1.374   5.734
 5541SOL    HW217523   5.058   1.312   5.627
 5542SOL     OW17524   3.826   4.702   6.358
 5542SOL    HW117525   3.917   4.698   6.400
 5542SOL    HW217526   3.832   4.674   6.262
 5543SOL     OW17527   6.389   2.850   6.282
 5543SOL    HW117528   6.356   2.908   6.357
 5543SOL    HW217529   6.478   2.812   6.307
 5544SOL     OW17530   5.916   0.623   5.529
 5544SOL    HW117531   6.006   0.626   5.573
 5544SOL    HW217532   5.924   0.576   5.441
 5545SOL     OW17533   3.748   2.119   2.253
 5545SOL    HW117534   3.713   2.153   2.166
 5545SOL    HW217535   3.720   2.180   2.327
 5546SOL     OW17536   2.149   4.979   5.728
 5546SOL    HW117537   2.150   5.079   5.725
 5546SOL    HW217538   2.068   4.945   5.681
 5547SOL     OW17539   3.005   5.094   5.270
 5547SOL    HW117540   3.006   5.094   5.170
 5547SOL    HW217541   3.092   5.132   5.303
 5548SOL     OW17542   6.562   3.557   5.463
 5548SOL    HW117543   6.640   3.526   5.409
 5548SOL    HW217544   6.524   3.640   5.422
 5549SOL     OW17545   2.828   4.989   0.013
 5549SOL    HW117546   2.907   5.044   7.011
 5549SOL    HW217547   2.744   5.041   7.022
 5550SOL     OW17548   4.332   6.546   1.222
 5550SOL    HW117549   4.243   6.581   1.191
 5550SOL    HW217550   4.401   6.619   1.212
 5551SOL     OW17551   0.991   1.552   3.316
 5551SOL    HW117552   1.010   1.647   3.295
 5551SOL    HW217553   1.057   1.493   3.270
 5552SOL     OW17554   0.096   2.430   1.322
 5552SOL    HW117555   0.013   2.420   1.267
 5552SOL    HW217556   0.100   2.522   1.360
 5553SOL     OW17557   5.367   6.120   0.800
 5553SOL    HW117558   5.351   6.032   0.755
 5553SOL    HW217559   5.387   6.104   0.897
 5554SOL     OW17560   3.029   2.136   4.666
 5554SOL    HW117561   3.080   2.208   4.711
 5554SOL    HW217562   2.990   2.074   4.735
 5555SOL     OW17563   0.412   5.483   3.506
 5555SOL    HW117564   0.391   5.458   3.600
 5555SOL    HW217565   0.509   5.508   3.499
 5556SOL     OW17566   0.348   2.125   4.844
 5556SOL    HW117567   0.385   2.039   4.878
 5556SOL    HW217568   0.249   2.120   4.840
 5557SOL     OW17569   1.964   0.131   3.825
 5557SOL    HW117570   2.047   0.185   3.808
 5557SOL    HW217571   1.946   0.071   3.747
 5558SOL     OW17572   5.300   3.075   5.300
 5558SOL    HW117573   5.240   3.079   5.380
 5558SOL    HW217574   5.307   2.980   5.269
 5559SOL     OW17575   1.814   0.415   1.035
 5559SOL    HW117576   1.878   0.492   1.040
 5559SOL    HW217577   1.733   0.442   0.983
 5560SOL     OW17578   0.343   0.863   3.844
 5560SOL    HW117579   0.390   0.840   3.758
 5560SOL    HW217580   0.318   0.960   3.843
 5561SOL     OW17581   1.587   2.629   3.656
 5561SOL    HW117582   1.574   2.723   3.625
 5561SOL    HW217583   1.541   2.566   3.593
 5562SOL     OW17584   2.527   2.956   6.262
 5562SOL    HW117585   2.447   2.969   6.320
 5562SOL    HW217586   2.568   2.867   6.283
 5563SOL     OW17587   4.642   5.875   1.750
 5563SOL    HW117588   4.708   5.858   1.677
 5563SOL    HW217589   4.557   5.911   1.711
 5564SOL     OW17590   5.503   3.968   1.830
 5564SOL    HW117591   5.418   3.964   1.883
 5564SOL    HW217592   5.539   3.876   1.818
 5565SOL     OW17593   3.454   3.114   5.690
 5565SOL    HW117594   3.438   3.212   5.680
 5565SOL    HW217595   3.398   3.064   5.624
 5566SOL     OW17596   1.681   4.689   1.406
 5566SOL    HW117597   1.696   4.788   1.417
 5566SOL    HW217598   1.766   4.640   1.423
 5567SOL     OW17599   1.221   5.477   1.604
 5567SOL    HW117600   1.146   5.411   1.607
 5567SOL    HW217601   1.207   5.546   1.676
 5568SOL     OW17602   3.385   2.306   1.490
 5568SOL    HW117603   3.477   2.275   1.469
 5568SOL    HW217604   3.369   2.298   1.589
 5569SOL     OW17605   5.017   1.187   0.134
 5569SOL    HW117606   5.080   1.193   0.057
 5569SOL    HW217607   4.993   1.279   0.164
 5570SOL     OW17608   7.010   4.257   6.042
 5570SOL    HW117609   7.004   4.172   5.990
 5570SOL    HW217610   0.058   4.315   6.003
 5571SOL     OW17611   6.685   4.798   6.358
 5571SOL    HW117612   6.743   4.717   6.369
 5571SOL    HW217613   6.634   4.813   6.442
 5572SOL     OW17614   4.966   2.455   6.402
 5572SOL    HW117615   4.989   2.545   6.440
 5572SOL    HW217616   5.007   2.383   6.458
 5573SOL     OW17617   1.056   3.825   0.662
 5573SOL    HW117618   1.050   3.830   0.562
 5573SOL    HW217619   0.975   3.778   0.698
 5574SOL     OW17620   0.699   6.069   4.725
 5574SOL    HW117621   0.674   6.011   4.802
 5574SOL    HW217622   0.798   6.063   4.709
 5575SOL     OW17623   1.795   0.699   0.678
 5575SOL    HW117624   1.815   0.615   0.628
 5575SOL    HW217625   1.881   0.743   0.705
 5576SOL     OW17626   6.096   6.118   6.735
 5576SOL    HW117627   5.998   6.099   6.727
 5576SOL    HW217628   6.137   6.052   6.797
 5577SOL     OW17629   2.010   3.867   5.512
 5577SOL    HW117630   2.017   3.767   5.501
 5577SOL    HW217631   2.022   3.911   5.423
 5578SOL     OW17632   4.044   2.628   6.759
 5578SOL    HW117633   4.141   2.622   6.783
 5578SOL    HW217634   4.014   2.722   6.767
 5579SOL     OW17635   4.757   4.292   6.885
 5579SOL    HW117636   4.737   4.271   6.789
 5579SOL    HW217637   4.742   4.211   6.941
 5580SOL     OW17638   5.957   1.456   0.534
 5580SOL    HW117639   5.888   1.387   0.556
 5580SOL    HW217640   6.005   1.484   0.617
 5581SOL     OW17641   2.129   2.200   6.696
 5581SOL    HW117642   2.051   2.260   6.710
 5581SOL    HW217643   2.200   2.219   6.764
 5582SOL     OW17644   3.977   3.502   3.657
 5582SOL    HW117645   3.879   3.493   3.675
 5582SOL    HW217646   4.013   3.417   3.619
 5583SOL     OW17647   4.265   6.826   1.300
 5583SOL    HW117648   4.261   6.917   1.340
 5583SOL    HW217649   4.190   6.770   1.337
 5584SOL     OW17650   6.647   3.151   3.348
 5584SOL    HW117651   6.568   3.129   3.291
 5584SOL    HW217652   6.731   3.122   3.300
 5585SOL     OW17653   6.088   0.164   4.271
 5585SOL    HW117654   6.095   0.229   4.195
 5585SOL    HW217655   6.179   0.135   4.299
 5586SOL     OW17656   1.941   0.841   6.278
 5586SOL    HW117657   1.934   0.743   6.260
 5586SOL    HW217658   1.867   0.888   6.230
 5587SOL     OW17659   3.372   0.243   4.055
 5587SOL    HW117660   3.365   0.229   3.956
 5587SOL    HW217661   3.413   0.332   4.073
 5588SOL     OW17662   3.969   7.022   6.255
 5588SOL    HW117663   4.030   6.990   6.328
 5588SOL    HW217664   3.881   6.975   6.262
 5589SOL     OW17665   4.395   3.133   6.893
 5589SOL    HW117666   4.356   3.101   6.806
 5589SOL    HW217667   4.471   3.196   6.875
 5590SOL     OW17668   0.139   6.292   3.587
 5590SOL    HW117669   0.141   6.228   3.663
 5590SOL    HW217670   0.172   6.247   3.504
 5591SOL     OW17671   4.652   1.062   0.034
 5591SOL    HW117672   4.590   1.137   0.055
 5591SOL    HW217673   4.710   1.086   6.980
 5592SOL     OW17674   1.886   2.752   2.624
 5592SOL    HW117675   1.793   2.725   2.647
 5592SOL    HW217676   1.933   2.783   2.706
 5593SOL     OW17677   1.613   3.048   5.793
 5593SOL    HW117678   1.575   3.063   5.884
 5593SOL    HW217679   1.711   3.031   5.800
 5594SOL     OW17680   2.202   0.453   7.022
 5594SOL    HW117681   2.112   0.487   6.995
 5594SOL    HW217682   2.220   0.366   6.976
 5595SOL     OW17683   6.469   2.217   5.789
 5595SOL    HW117684   6.533   2.161   5.840
 5595SOL    HW217685   6.399   2.158   5.747
 5596SOL     OW17686   4.867   1.317   3.522
 5596SOL    HW117687   4.840   1.345   3.614
 5596SOL    HW217688   4.787   1.281   3.473
 5597SOL     OW17689   0.251   1.187   6.023
 5597SOL    HW117690   0.180   1.184   6.094
 5597SOL    HW217691   0.260   1.097   5.981
 5598SOL     OW17692   6.763   2.214   4.088
 5598SOL    HW117693   6.679   2.169   4.120
 5598SOL    HW217694   6.754   2.236   3.991
 5599SOL     OW17695   5.191   2.789   3.385
 5599SOL    HW117696   5.144   2.806   3.471
 5599SOL    HW217697   5.124   2.782   3.311
 5600SOL     OW17698   2.737   1.583   2.438
 5600SOL    HW117699   2.825   1.619   2.407
 5600SOL    HW217700   2.666   1.605   2.371
 5601SOL     OW17701   5.610   2.445   5.446
 5601SOL    HW117702   5.524   2.446   5.496
 5601SOL    HW217703   5.662   2.528   5.468
 5602SOL     OW17704   6.592   2.297   2.432
 5602SOL    HW117705   6.556   2.375   2.381
 5602SOL    HW217706   6.585   2.214   2.376
 5603SOL     OW17707   4.049   1.610   5.251
 5603SOL    HW117708   4.043   1.512   5.232
 5603SOL    HW217709   4.107   1.655   5.183
 5604SOL     OW17710   1.129   0.701   4.467
 5604SOL    HW117711   1.037   0.742   4.466
 5604SOL    HW217712   1.127   0.615   4.417
 5605SOL     OW17713   3.446   6.257   4.427
 5605SOL    HW117714   3.526   6.229   4.479
 5605SOL    HW217715   3.471   6.272   4.332
 5606SOL     OW17716   4.375   2.631   0.547
 5606SOL    HW117717   4.465   2.606   0.582
 5606SOL    HW217718   4.319   2.549   0.536
 5607SOL     OW17719   6.413   2.517   2.579
 5607SOL    HW117720   6.376   2.482   2.492
 5607SOL    HW217721   6.495   2.464   2.604
 5608SOL     OW17722   4.831   0.452   3.617
 5608SOL    HW117723   4.753   0.455   3.554
 5608SOL    HW217724   4.863   0.545   3.634
 5609SOL     OW17725   0.204   0.087   0.618
 5609SOL    HW117726   0.198   0.186   0.636
 5609SOL    HW217727   0.276   0.047   0.675
 5610SOL     OW17728   5.615   4.663   0.578
 5610SOL    HW117729   5.701   4.619   0.606
 5610SOL    HW217730   5.600   4.646   0.481
 5611SOL     OW17731   6.663   4.535   1.471
 5611SOL    HW117732   6.631   4.442   1.450
 5611SOL    HW217733   6.680   4.542   1.569
 5612SOL     OW17734   3.037   1.548   0.472
 5612SOL    HW117735   3.137   1.550   0.480
 5612SOL    HW217736   2.997   1.517   0.558
 5613SOL     OW17737   6.501   5.167   5.756
 5613SOL    HW117738   6.508   5.242   5.823
 5613SOL    HW217739   6.591   5.125   5.744
 5614SOL     OW17740   5.505   2.594   3.847
 5614SOL    HW117741   5.439   2.662   3.881
 5614SOL    HW217742   5.463   2.503   3.849
 5615SOL     OW17743   0.235   2.948   2.970
 5615SOL    HW117744   0.154   2.934   3.027
 5615SOL    HW217745   0.272   3.039   2.985
 5616SOL     OW17746   1.226   3.066   2.518
 5616SOL    HW117747   1.185   3.068   2.427
 5616SOL    HW217748   1.162   3.024   2.582
 5617SOL     OW17749   1.973   4.939   6.019
 5617SOL    HW117750   1.986   4.888   5.934
 5617SOL    HW217751   2.056   4.991   6.040
 5618SOL     OW17752   6.138   5.794   2.978
 5618SOL    HW117753   6.078   5.728   2.932
 5618SOL    HW217754   6.189   5.846   2.909
 5619SOL     OW17755   3.804   2.948   3.834
 5619SOL    HW117756   3.830   2.858   3.870
 5619SOL    HW217757   3.705   2.961   3.844
 5620SOL     OW17758   4.892   4.526   4.911
 5620SOL    HW117759   4.941   4.443   4.938
 5620SOL    HW217760   4.795   4.516   4.932
 5621SOL     OW17761   1.657   2.304   5.308
 5621SOL    HW117762   1.590   2.370   5.273
 5621SOL    HW217763   1.693   2.336   5.395
 5622SOL     OW17764   4.836   5.983   4.723
 5622SOL    HW117765   4.928   5.943   4.726
 5622SOL    HW217766   4.840   6.073   4.681
 5623SOL     OW17767   5.006   5.573   3.625
 5623SOL    HW117768   4.952   5.495   3.658
 5623SOL    HW217769   4.969   5.604   3.537
 5624SOL     OW17770   6.408   5.479   3.882
 5624SOL    HW117771   6.471   5.443   3.813
 5624SOL    HW217772   6.355   5.404   3.920
 5625SOL     OW17773   1.145   6.476   5.148
 5625SOL    HW117774   1.117   6.477   5.052
 5625SOL    HW217775   1.230   6.527   5.158
 5626SOL     OW17776   0.757   4.320   6.272
 5626SOL    HW117777   0.811   4.301   6.190
 5626SOL    HW217778   0.732   4.234   6.316
 5627SOL     OW17779   0.508   5.967   0.200
 5627SOL    HW117780   0.494   5.869   0.210
 5627SOL    HW217781   0.472   5.997   0.111
 5628SOL     OW17782   2.385   2.277   1.726
 5628SOL    HW117783   2.447   2.226   1.786
 5628SOL    HW217784   2.348   2.356   1.776
 5629SOL     OW17785   5.443   3.338   2.199
 5629SOL    HW117786   5.473   3.403   2.268
 5629SOL    HW217787   5.523   3.299   2.153
 5630SOL     OW17788   1.318   4.331   0.051
 5630SOL    HW117789   1.338   4.339   6.977
 5630SOL    HW217790   1.360   4.248   0.087
 5631SOL     OW17791   4.087   1.546   1.638
 5631SOL    HW117792   4.057   1.628   1.687
 5631SOL    HW217793   4.094   1.566   1.541
 5632SOL     OW17794   5.254   6.834   5.849
 5632SOL    HW117795   5.215   6.776   5.777
 5632SOL    HW217796   5.182   6.894   5.885
 5633SOL     OW17797   0.775   4.943   5.839
 5633SOL    HW117798   0.820   4.946   5.928
 5633SOL    HW217799   0.676   4.945   5.851
 5634SOL     OW17800   2.278   0.091   1.215
 5634SOL    HW117801   2.320   0.125   1.131
 5634SOL    HW217802   2.256   0.168   1.275
 5635SOL     OW17803   2.104   0.748   6.743
 5635SOL    HW117804   2.194   0.707   6.755
 5635SOL    HW217805   2.106   0.843   6.773
 5636SOL     OW17806   5.996   1.737   5.676
 5636SOL    HW117807   6.033   1.819   5.720
 5636SOL    HW217808   6.071   1.685   5.634
 5637SOL     OW17809   4.759   6.697   4.677
 5637SOL    HW117810   4.746   6.790   4.711
 5637SOL    HW217811   4.732   6.691   4.582
 5638SOL     OW17812   6.011   5.656   1.244
 5638SOL    HW117813   6.089   5.600   1.215
 5638SOL    HW217814   6.039   5.752   1.245
 5639SOL     OW17815   1.419   0.366   1.044
 5639SOL    HW117816   1.469   0.386   1.128
 5639SOL    HW217817   1.369   0.281   1.054
 5640SOL     OW17818   2.946   5.972   2.952
 5640SOL    HW117819   2.871   6.038   2.947
 5640SOL    HW217820   2.910   5.879   2.941
 5641SOL     OW17821   1.240   4.448   4.490
 5641SOL    HW117822   1.262   4.409   4.400
 5641SOL    HW217823   1.190   4.380   4.544
 5642SOL     OW17824   1.616   4.916   0.006
 5642SOL    HW117825   1.702   4.955   6.998
 5642SOL    HW217826   1.633   4.833   0.058
 5643SOL     OW17827   4.467   2.149   4.989
 5643SOL    HW117828   4.436   2.185   4.901
 5643SOL    HW217829   4.389   2.108   5.037
 5644SOL     OW17830   4.389   0.890   4.832
 5644SOL    HW117831   4.352   0.960   4.772
 5644SOL    HW217832   4.318   0.822   4.853
 5645SOL     OW17833   5.785   5.572   4.392
 5645SOL    HW117834   5.857   5.557   4.324
 5645SOL    HW217835   5.790   5.501   4.462
 5646SOL     OW17836   0.373   5.778   4.497
 5646SOL    HW117837   0.393   5.813   4.589
 5646SOL    HW217838   0.456   5.783   4.441
 5647SOL     OW17839   5.500   5.307   5.979
 5647SOL    HW117840   5.580   5.342   6.027
 5647SOL    HW217841   5.423   5.302   6.042
 5648SOL     OW17842   1.869   1.712   4.772
 5648SOL    HW117843   1.815   1.684   4.693
 5648SOL    HW217844   1.877   1.812   4.772
 5649SOL     OW17845   0.744   0.984   5.488
 5649SOL    HW117846   0.723   1.077   5.458
 5649SOL    HW217847   0.827   0.985   5.543
 5650SOL     OW17848   6.127   4.880   6.738
 5650SOL    HW117849   6.157   4.910   6.647
 5650SOL    HW217850   6.087   4.789   6.731
 5651SOL     OW17851   6.890   0.561   2.849
 5651SOL    HW117852   6.826   0.635   2.829
 5651SOL    HW217853   6.964   0.594   2.907
 5652SOL     OW17854   4.945   4.718   1.003
 5652SOL    HW117855   4.975   4.672   1.086
 5652SOL    HW217856   4.864   4.673   0.967
 5653SOL     OW17857   1.136   5.871   6.133
 5653SOL    HW117858   1.202   5.945   6.142
 5653SOL    HW217859   1.153   5.802   6.204
 5654SOL     OW17860   6.856   6.257   5.611
 5654SOL    HW117861   6.831   6.304   5.696
 5654SOL    HW217862   6.799   6.291   5.536
 5655SOL     OW17863   6.965   3.284   3.815
 5655SOL    HW117864   6.955   3.383   3.810
 5655SOL    HW217865   0.023   3.256   3.764
 5656SOL     OW17866   3.660   4.616   0.345
 5656SOL    HW117867   3.707   4.529   0.330
 5656SOL    HW217868   3.650   4.632   0.443
 5657SOL     OW17869   3.876   6.843   1.892
 5657SOL    HW117870   3.896   6.895   1.975
 5657SOL    HW217871   3.817   6.765   1.915
 5658SOL     OW17872   3.899   0.138   5.802
 5658SOL    HW117873   3.844   0.090   5.734
 5658SOL    HW217874   3.996   0.115   5.790
 5659SOL     OW17875   3.042   3.944   3.046
 5659SOL    HW117876   2.974   3.924   2.976
 5659SOL    HW217877   3.111   4.006   3.008
 5660SOL     OW17878   6.037   6.688   6.757
 5660SOL    HW117879   6.035   6.591   6.778
 5660SOL    HW217880   6.003   6.741   6.835
 5661SOL     OW17881   6.152   5.781   4.330
 5661SOL    HW117882   6.246   5.786   4.362
 5661SOL    HW217883   6.125   5.869   4.292
 5662SOL     OW17884   2.499   4.506   4.329
 5662SOL    HW117885   2.471   4.412   4.310
 5662SOL    HW217886   2.461   4.567   4.259
 5663SOL     OW17887   1.460   4.525   0.578
 5663SOL    HW117888   1.383   4.538   0.516
 5663SOL    HW217889   1.453   4.435   0.621
 5664SOL     OW17890   0.273   4.424   2.517
 5664SOL    HW117891   0.316   4.357   2.457
 5664SOL    HW217892   0.289   4.516   2.480
 5665SOL     OW17893   2.295   2.687   5.944
 5665SOL    HW117894   2.381   2.648   5.976
 5665SOL    HW217895   2.260   2.752   6.011
 5666SOL     OW17896   5.571   4.385   0.969
 5666SOL    HW117897   5.621   4.416   1.050
 5666SOL    HW217898   5.628   4.321   0.917
 5667SOL     OW17899   0.277   4.943   3.663
 5667SOL    HW117900   0.305   4.950   3.568
 5667SOL    HW217901   0.198   5.002   3.679
 5668SOL     OW17902   5.726   2.177   6.341
 5668SOL    HW117903   5.737   2.216   6.432
 5668SOL    HW217904   5.708   2.079   6.348
 5669SOL     OW17905   0.476   4.511   6.279
 5669SOL    HW117906   0.570   4.495   6.310
 5669SOL    HW217907   0.439   4.427   6.240
 5670SOL     OW17908   0.812   3.964   3.820
 5670SOL    HW117909   0.898   3.916   3.798
 5670SOL    HW217910   0.736   3.918   3.775
 5671SOL     OW17911   1.895   0.887   5.768
 5671SOL    HW117912   1.965   0.921   5.832
 5671SOL    HW217913   1.919   0.795   5.738
 5672SOL     OW17914   4.407   4.982   5.806
 5672SOL    HW117915   4.474   5.056   5.816
 5672SOL    HW217916   4.405   4.928   5.890
 5673SOL     OW17917   0.706   0.605   2.545
 5673SOL    HW117918   0.686   0.514   2.508
 5673SOL    HW217919   0.624   0.661   2.540
 5674SOL     OW17920   6.657   3.292   1.828
 5674SOL    HW117921   6.711   3.349   1.766
 5674SOL    HW217922   6.642   3.202   1.786
 5675SOL     OW17923   4.512   2.558   5.515
 5675SOL    HW117924   4.573   2.496   5.563
 5675SOL    HW217925   4.506   2.532   5.419
 5676SOL     OW17926   2.363   0.534   2.086
 5676SOL    HW117927   2.447   0.581   2.111
 5676SOL    HW217928   2.310   0.592   2.023
 5677SOL     OW17929   6.502   0.432   3.482
 5677SOL    HW117930   6.466   0.482   3.403
 5677SOL    HW217931   6.427   0.400   3.539
 5678SOL     OW17932   2.811   6.503   2.926
 5678SOL    HW117933   2.904   6.469   2.910
 5678SOL    HW217934   2.745   6.429   2.913
 5679SOL     OW17935   2.225   6.688   4.939
 5679SOL    HW117936   2.314   6.722   4.971
 5679SOL    HW217937   2.211   6.595   4.972
 5680SOL     OW17938   1.969   5.779   6.562
 5680SOL    HW117939   1.913   5.829   6.629
 5680SOL    HW217940   2.056   5.825   6.550
 5681SOL     OW17941   1.209   2.945   6.724
 5681SOL    HW117942   1.116   2.928   6.757
 5681SOL    HW217943   1.238   2.870   6.665
 5682SOL     OW17944   1.238   3.835   5.190
 5682SOL    HW117945   1.301   3.809   5.117
 5682SOL    HW217946   1.160   3.883   5.150
 5683SOL     OW17947   3.233   2.300   5.793
 5683SOL    HW117948   3.233   2.292   5.693
 5683SOL    HW217949   3.234   2.396   5.819
 5684SOL     OW17950   3.593   4.013   4.097
 5684SOL    HW117951   3.508   4.066   4.101
 5684SOL    HW217952   3.572   3.915   4.104
 5685SOL     OW17953   0.126   5.008   1.869
 5685SOL    HW117954   0.071   5.043   1.794
 5685SOL    HW217955   0.171   5.084   1.916
 5686SOL     OW17956   3.653   0.263   0.412
 5686SOL    HW117957   3.665   0.177   0.461
 5686SOL    HW217958   3.693   0.257   0.321
 5687SOL     OW17959   5.053   4.866   5.134
 5687SOL    HW117960   5.140   4.912   5.112
 5687SOL    HW217961   4.997   4.927   5.190
 5688SOL     OW17962   5.645   1.796   1.669
 5688SOL    HW117963   5.637   1.792   1.569
 5688SOL    HW217964   5.605   1.881   1.703
 5689SOL     OW17965   3.715   2.410   0.338
 5689SOL    HW117966   3.741   2.421   0.435
 5689SOL    HW217967   3.635   2.351   0.331
 5690SOL     OW17968   4.857   6.509   1.023
 5690SOL    HW117969   4.818   6.487   0.934
 5690SOL    HW217970   4.793   6.481   1.095
 5691SOL     OW17971   1.949   0.389   1.805
 5691SOL    HW117972   1.954   0.487   1.784
 5691SOL    HW217973   2.032   0.362   1.854
 5692SOL     OW17974   6.555   2.399   6.928
 5692SOL    HW117975   6.589   2.353   7.010
 5692SOL    HW217976   6.462   2.431   6.944
 5693SOL     OW17977   5.016   2.376   2.521
 5693SOL    HW117978   5.076   2.438   2.571
 5693SOL    HW217979   4.923   2.413   2.522
 5694SOL     OW17980   0.270   1.752   3.726
 5694SOL    HW117981   0.209   1.826   3.696
 5694SOL    HW217982   0.233   1.711   3.809
 5695SOL     OW17983   1.762   3.178   3.490
 5695SOL    HW117984   1.808   3.229   3.563
 5695SOL    HW217985   1.794   3.211   3.401
 5696SOL     OW17986   2.899   0.611   4.869
 5696SOL    HW117987   2.827   0.664   4.914
 5696SOL    HW217988   2.881   0.606   4.771
 5697SOL     OW17989   6.483   2.402   0.296
 5697SOL    HW117990   6.455   2.372   0.387
 5697SOL    HW217991   6.482   2.502   0.292
 5698SOL     OW17992   0.754   3.611   1.750
 5698SOL    HW117993   0.751   3.599   1.651
 5698SOL    HW217994   0.676   3.563   1.792
 5699SOL     OW17995   5.743   0.872   5.152
 5699SOL    HW117996   5.797   0.902   5.231
 5699SOL    HW217997   5.794   0.801   5.103
 5700SOL     OW17998   1.610   5.885   4.310
 5700SOL    HW117999   1.592   5.861   4.405
 5700SOL    HW218000   1.669   5.965   4.306
 5701SOL     OW18001   6.329   5.369   1.673
 5701SOL    HW118002   6.255   5.435   1.656
 5701SOL    HW218003   6.311   5.285   1.621
 5702SOL     OW18004   2.559   0.451   6.330
 5702SOL    HW118005   2.509   0.431   6.246
 5702SOL    HW218006   2.572   0.367   6.382
 5703SOL     OW18007   4.526   4.904   0.386
 5703SOL    HW118008   4.473   4.931   0.306
 5703SOL    HW218009   4.471   4.914   0.468
 5704SOL     OW18010   4.642   5.547   3.917
 5704SOL    HW118011   4.645   5.519   3.821
 5704SOL    HW218012   4.664   5.645   3.923
 5705SOL     OW18013   5.915   0.476   1.325
 5705SOL    HW118014   5.967   0.554   1.357
 5705SOL    HW218015   5.899   0.484   1.226
 5706SOL     OW18016   1.030   1.362   6.726
 5706SOL    HW118017   1.053   1.268   6.750
 5706SOL    HW218018   1.114   1.417   6.725
 5707SOL     OW18019   2.259   1.800   6.779
 5707SOL    HW118020   2.302   1.863   6.714
 5707SOL    HW218021   2.161   1.819   6.784
 5708SOL     OW18022   4.878   6.714   2.363
 5708SOL    HW118023   4.818   6.772   2.418
 5708SOL    HW218024   4.823   6.662   2.297
 5709SOL     OW18025   0.105   6.916   2.811
 5709SOL    HW118026   0.196   6.896   2.848
 5709SOL    HW218027   0.111   6.928   2.712
 5710SOL     OW18028   3.222   3.017   6.055
 5710SOL    HW118029   3.301   2.977   6.009
 5710SOL    HW218030   3.246   3.107   6.092
 5711SOL     OW18031   4.527   0.939   4.432
 5711SOL    HW118032   4.473   0.925   4.349
 5711SOL    HW218033   4.481   0.898   4.510
 5712SOL     OW18034   0.245   5.943   6.356
 5712SOL    HW118035   0.303   5.916   6.433
 5712SOL    HW218036   0.254   5.876   6.282
 5713SOL     OW18037   0.042   2.987   2.496
 5713SOL    HW118038   0.056   2.978   2.595
 5713SOL    HW218039   0.064   3.080   2.468
 5714SOL     OW18040   1.536   0.775   6.144
 5714SOL    HW118041   1.535   0.828   6.229
 5714SOL    HW218042   1.574   0.830   6.070
 5715SOL     OW18043   1.485   6.514   2.551
 5715SOL    HW118044   1.513   6.510   2.647
 5715SOL    HW218045   1.542   6.580   2.503
 5716SOL     OW18046   2.077   3.834   5.979
 5716SOL    HW118047   2.079   3.765   5.907
 5716SOL    HW218048   2.078   3.925   5.937
 5717SOL     OW18049   1.264   4.104   0.431
 5717SOL    HW118050   1.270   4.146   0.340
 5717SOL    HW218051   1.344   4.128   0.485
 5718SOL     OW18052   3.078   4.795   6.604
 5718SOL    HW118053   3.169   4.829   6.583
 5718SOL    HW218054   3.019   4.872   6.630
 5719SOL     OW18055   3.150   0.662   6.610
 5719SOL    HW118056   3.155   0.576   6.560
 5719SOL    HW218057   3.055   0.679   6.637
 5720SOL     OW18058   1.568   4.969   5.060
 5720SOL    HW118059   1.642   5.031   5.085
 5720SOL    HW218060   1.577   4.884   5.112
 5721SOL     OW18061   0.847   3.783   1.452
 5721SOL    HW118062   0.914   3.710   1.435
 5721SOL    HW218063   0.877   3.867   1.407
 5722SOL     OW18064   5.380   6.912   4.582
 5722SOL    HW118065   5.328   6.829   4.604
 5722SOL    HW218066   5.337   6.960   4.506
 5723SOL     OW18067   3.488   5.497   0.522
 5723SOL    HW118068   3.422   5.564   0.555
 5723SOL    HW218069   3.567   5.544   0.484
 5724SOL     OW18070   5.297   1.648   6.177
 5724SOL    HW118071   5.291   1.619   6.273
 5724SOL    HW218072   5.385   1.622   6.139
 5725SOL     OW18073   5.569   5.046   5.079
 5725SOL    HW118074   5.618   4.972   5.124
 5725SOL    HW218075   5.569   5.031   4.980
 5726SOL     OW18076   5.703   3.489   6.012
 5726SOL    HW118077   5.606   3.470   6.002
 5726SOL    HW218078   5.752   3.405   6.033
 5727SOL     OW18079   5.749   1.958   3.451
 5727SOL    HW118080   5.776   2.053   3.468
 5727SOL    HW218081   5.661   1.940   3.495
 5728SOL     OW18082   6.107   0.237   5.115
 5728SOL    HW118083   6.188   0.295   5.105
 5728SOL    HW218084   6.080   0.200   5.026
 5729SOL     OW18085   0.388   1.985   6.382
 5729SOL    HW118086   0.303   2.025   6.417
 5729SOL    HW218087   0.390   1.887   6.402
 5730SOL     OW18088   3.879   4.471   5.837
 5730SOL    HW118089   3.951   4.531   5.873
 5730SOL    HW218090   3.844   4.509   5.751
 5731SOL     OW18091   2.883   0.761   3.922
 5731SOL    HW118092   2.957   0.693   3.921
 5731SOL    HW218093   2.892   0.822   3.844
 5732SOL     OW18094   5.894   5.036   5.263
 5732SOL    HW118095   5.915   4.978   5.185
 5732SOL    HW218096   5.871   5.128   5.232
 5733SOL     OW18097   3.262   1.215   7.003
 5733SOL    HW118098   3.243   1.303   0.024
 5733SOL    HW218099   3.289   1.149   0.049
 5734SOL     OW18100   1.641   6.356   6.029
 5734SOL    HW118101   1.579   6.430   6.001
 5734SOL    HW218102   1.651   6.291   5.954
 5735SOL     OW18103   4.238   0.580   2.156
 5735SOL    HW118104   4.218   0.490   2.193
 5735SOL    HW218105   4.328   0.610   2.187
 5736SOL     OW18106   4.446   3.981   6.811
 5736SOL    HW118107   4.381   3.915   6.847
 5736SOL    HW218108   4.480   3.950   6.723
 5737SOL     OW18109   4.492   5.400   1.105
 5737SOL    HW118110   4.547   5.414   1.023
 5737SOL    HW218111   4.484   5.302   1.124
 5738SOL     OW18112   3.333   1.053   6.349
 5738SOL    HW118113   3.421   1.089   6.319
 5738SOL    HW218114   3.261   1.084   6.288
 5739SOL     OW18115   2.952   0.627   5.679
 5739SOL    HW118116   2.988   0.547   5.727
 5739SOL    HW218117   3.022   0.663   5.617
 5740SOL     OW18118   5.376   3.787   2.040
 5740SOL    HW118119   5.287   3.742   2.028
 5740SOL    HW218120   5.448   3.731   1.999
 5741SOL     OW18121   0.616   3.784   4.372
 5741SOL    HW118122   0.517   3.786   4.366
 5741SOL    HW218123   0.656   3.799   4.282
 5742SOL     OW18124   4.424   0.278   3.457
 5742SOL    HW118125   4.360   0.215   3.412
 5742SOL    HW218126   4.497   0.226   3.501
 5743SOL     OW18127   3.557   3.838   5.294
 5743SOL    HW118128   3.602   3.917   5.335
 5743SOL    HW218129   3.623   3.764   5.282
 5744SOL     OW18130   5.854   6.086   2.621
 5744SOL    HW118131   5.935   6.030   2.602
 5744SOL    HW218132   5.878   6.183   2.613
 5745SOL     OW18133   2.151   2.512   3.557
 5745SOL    HW118134   2.056   2.529   3.585
 5745SOL    HW218135   2.213   2.556   3.621
 5746SOL     OW18136   4.202   0.221   3.664
 5746SOL    HW118137   4.212   0.165   3.746
 5746SOL    HW218138   4.201   0.162   3.584
 5747SOL     OW18139   0.862   5.855   1.805
 5747SOL    HW118140   0.789   5.808   1.756
 5747SOL    HW218141   0.884   5.805   1.889
 5748SOL     OW18142   0.590   6.185   0.683
 5748SOL    HW118143   0.553   6.092   0.679
 5748SOL    HW218144   0.659   6.196   0.612
 5749SOL     OW18145   1.728   6.267   5.010
 5749SOL    HW118146   1.689   6.176   4.994
 5749SOL    HW218147   1.806   6.281   4.949
 5750SOL     OW18148   6.695   4.719   4.092
 5750SOL    HW118149   6.639   4.648   4.134
 5750SOL    HW218150   6.792   4.698   4.108
 5751SOL     OW18151   2.120   3.730   4.374
 5751SOL    HW118152   2.192   3.671   4.338
 5751SOL    HW218153   2.132   3.742   4.472
 5752SOL     OW18154   5.455   0.056   0.876
 5752SOL    HW118155   5.543   0.044   0.830
 5752SOL    HW218156   5.440   7.003   0.940
 5753SOL     OW18157   3.240   4.098   4.688
 5753SOL    HW118158   3.160   4.049   4.724
 5753SOL    HW218159   3.223   4.197   4.693
 5754SOL     OW18160   0.724   6.104   1.631
 5754SOL    HW118161   0.749   6.162   1.554
 5754SOL    HW218162   0.786   6.122   1.708
 5755SOL     OW18163   2.122   2.074   0.239
 5755SOL    HW118164   2.111   2.062   0.337
 5755SOL    HW218165   2.206   2.027   0.209
 5756SOL     OW18166   5.701   5.985   1.701
 5756SOL    HW118167   5.688   5.889   1.678
 5756SOL    HW218168   5.664   6.002   1.793
 5757SOL     OW18169   6.943   0.027   3.630
 5757SOL    HW118170   6.999   0.108   3.646
 5757SOL    HW218171   6.916   0.024   3.534
 5758SOL     OW18172   0.827   6.755   3.046
 5758SOL    HW118173   0.831   6.677   2.984
 5758SOL    HW218174   0.918   6.770   3.086
 5759SOL     OW18175   3.992   6.640   1.485
 5759SOL    HW118176   4.084   6.648   1.524
 5759SOL    HW218177   3.932   6.704   1.532
 5760SOL     OW18178   7.009   3.302   1.766
 5760SOL    HW118179   6.977   3.243   1.839
 5760SOL    HW218180   0.081   3.281   1.746
 5761SOL     OW18181   5.617   5.423   4.802
 5761SOL    HW118182   5.582   5.369   4.878
 5761SOL    HW218183   5.566   5.508   4.795
 5762SOL     OW18184   5.142   4.420   6.783
 5762SOL    HW118185   5.179   4.512   6.773
 5762SOL    HW218186   5.108   4.408   6.877
 5763SOL     OW18187   5.618   0.459   0.523
 5763SOL    HW118188   5.546   0.486   0.588
 5763SOL    HW218189   5.687   0.531   0.519
 5764SOL     OW18190   4.500   5.310   3.379
 5764SOL    HW118191   4.519   5.228   3.325
 5764SOL    HW218192   4.457   5.379   3.320
 5765SOL     OW18193   6.389   4.561   1.124
 5765SOL    HW118194   6.434   4.593   1.040
 5765SOL    HW218195   6.380   4.637   1.188
 5766SOL     OW18196   0.703   1.654   4.659
 5766SOL    HW118197   0.688   1.716   4.583
 5766SOL    HW218198   0.708   1.706   4.744
 5767SOL     OW18199   2.034   7.003   1.142
 5767SOL    HW118200   2.049   6.917   1.093
 5767SOL    HW218201   2.122   0.015   1.175
 5768SOL     OW18202   6.700   6.394   4.066
 5768SOL    HW118203   6.729   6.336   4.142
 5768SOL    HW218204   6.644   6.340   4.003
 5769SOL     OW18205   1.489   5.037   6.225
 5769SOL    HW118206   1.558   4.992   6.168
 5769SOL    HW218207   1.447   5.112   6.173
 5770SOL     OW18208   0.781   5.921   1.380
 5770SOL    HW118209   0.864   5.967   1.349
 5770SOL    HW218210   0.743   5.971   1.458
 5771SOL     OW18211   2.258   5.331   4.055
 5771SOL    HW118212   2.198   5.273   4.001
 5771SOL    HW218213   2.321   5.274   4.108
 5772SOL     OW18214   4.823   0.050   2.239
 5772SOL    HW118215   4.740   0.105   2.240
 5772SOL    HW218216   4.800   6.978   2.220
 5773SOL     OW18217   4.636   2.103   1.977
 5773SOL    HW118218   4.588   2.050   2.047
 5773SOL    HW218219   4.570   2.158   1.926
 5774SOL     OW18220   0.504   6.420   3.349
 5774SOL    HW118221   0.569   6.460   3.414
 5774SOL    HW218222   0.540   6.333   3.315
 5775SOL     OW18223   0.573   5.434   2.490
 5775SOL    HW118224   0.596   5.340   2.518
 5775SOL    HW218225   0.501   5.431   2.421
 5776SOL     OW18226   2.086   0.114   2.824
 5776SOL    HW118227   2.080   0.033   2.883
 5776SOL    HW218228   1.994   0.140   2.793
 5777SOL     OW18229   1.163   0.141   3.343
 5777SOL    HW118230   1.260   0.159   3.361
 5777SOL    HW218231   1.107   0.207   3.393
 5778SOL     OW18232   1.238   1.502   6.455
 5778SOL    HW118233   1.187   1.420   6.481
 5778SOL    HW218234   1.183   1.558   6.394
 5779SOL     OW18235   4.710   2.408   6.472
 5779SOL    HW118236   4.789   2.450   6.427
 5779SOL    HW218237   4.724   2.309   6.478
 5780SOL     OW18238   5.470   4.509   3.994
 5780SOL    HW118239   5.386   4.483   4.042
 5780SOL    HW218240   5.527   4.565   4.055
 5781SOL     OW18241   0.398   4.300   4.880
 5781SOL    HW118242   0.377   4.341   4.969
 5781SOL    HW218243   0.493   4.323   4.855
 5782SOL     OW18244   0.760   1.207   0.357
 5782SOL    HW118245   0.798   1.133   0.412
 5782SOL    HW218246   0.660   1.208   0.366
 5783SOL     OW18247   1.724   1.550   1.974
 5783SOL    HW118248   1.674   1.564   2.059
 5783SOL    HW218249   1.716   1.631   1.916
 5784SOL     OW18250   0.294   6.690   0.234
 5784SOL    HW118251   0.236   6.633   0.176
 5784SOL    HW218252   0.246   6.713   0.318
 5785SOL     OW18253   2.678   1.439   0.984
 5785SOL    HW118254   2.667   1.489   0.898
 5785SOL    HW218255   2.775   1.425   1.003
 5786SOL     OW18256   6.989   4.126   0.143
 5786SOL    HW118257   6.999   4.094   0.238
 5786SOL    HW218258   0.044   4.096   0.089
 5787SOL     OW18259   2.659   2.055   5.784
 5787SOL    HW118260   2.596   2.132   5.775
 5787SOL    HW218261   2.623   1.990   5.852
 5788SOL     OW18262   2.615   0.483   2.664
 5788SOL    HW118263   2.536   0.449   2.614
 5788SOL    HW218264   2.584   0.530   2.747
 5789SOL     OW18265   3.733   5.304   6.638
 5789SOL    HW118266   3.652   5.333   6.588
 5789SOL    HW218267   3.784   5.239   6.582
 5790SOL     OW18268   0.511   3.238   4.363
 5790SOL    HW118269   0.417   3.270   4.370
 5790SOL    HW218270   0.515   3.158   4.304
 5791SOL     OW18271   2.749   6.999   2.870
 5791SOL    HW118272   2.763   0.070   2.840
 5791SOL    HW218273   2.810   6.979   2.946
 5792SOL     OW18274   7.014   1.861   3.139
 5792SOL    HW118275   6.945   1.896   3.075
 5792SOL    HW218276   0.001   1.763   3.125
 5793SOL     OW18277   6.692   1.146   3.865
 5793SOL    HW118278   6.653   1.191   3.945
 5793SOL    HW218279   6.620   1.126   3.799
 5794SOL     OW18280   3.638   3.261   0.400
 5794SOL    HW118281   3.718   3.320   0.407
 5794SOL    HW218282   3.557   3.317   0.383
 5795SOL     OW18283   5.691   5.029   5.939
 5795SOL    HW118284   5.735   5.110   5.901
 5795SOL    HW218285   5.599   5.020   5.902
 5796SOL     OW18286   3.035   1.240   0.237
 5796SOL    HW118287   3.071   1.204   0.323
 5796SOL    HW218288   2.993   1.165   0.185
 5797SOL     OW18289   3.624   2.122   4.628
 5797SOL    HW118290   3.532   2.125   4.588
 5797SOL    HW218291   3.616   2.108   4.727
 5798SOL     OW18292   0.263   4.628   4.934
 5798SOL    HW118293   0.236   4.717   4.972
 5798SOL    HW218294   0.186   4.590   4.882
 5799SOL     OW18295   5.321   0.102   3.473
 5799SOL    HW118296   5.396   0.070   3.415
 5799SOL    HW218297   5.259   0.159   3.420
 5800SOL     OW18298   5.432   4.530   1.476
 5800SOL    HW118299   5.467   4.489   1.560
 5800SOL    HW218300   5.509   4.554   1.416
 5801SOL     OW18301   0.464   1.727   3.540
 5801SOL    HW118302   0.529   1.663   3.582
 5801SOL    HW218303   0.390   1.746   3.604
 5802SOL     OW18304   0.796   4.134   6.515
 5802SOL    HW118305   0.721   4.099   6.572
 5802SOL    HW218306   0.851   4.198   6.568
 5803SOL     OW18307   1.258   4.927   1.213
 5803SOL    HW118308   1.270   5.026   1.220
 5803SOL    HW218309   1.325   4.881   1.271
 5804SOL     OW18310   6.509   3.891   4.432
 5804SOL    HW118311   6.511   3.978   4.481
 5804SOL    HW218312   6.511   3.815   4.498
 5805SOL     OW18313   4.143   4.349   6.333
 5805SOL    HW118314   4.148   4.352   6.233
 5805SOL    HW218315   4.049   4.370   6.361
 5806SOL     OW18316   0.983   6.841   0.412
 5806SOL    HW118317   1.021   6.928   0.380
 5806SOL    HW218318   1.054   6.771   0.408
 5807SOL     OW18319   1.420   4.056   1.023
 5807SOL    HW118320   1.384   4.000   0.949
 5807SOL    HW218321   1.519   4.040   1.032
 5808SOL     OW18322   5.314   4.311   2.909
 5808SOL    HW118323   5.356   4.224   2.934
 5808SOL    HW218324   5.319   4.374   2.987
 5809SOL     OW18325   6.894   3.246   4.545
 5809SOL    HW118326   6.868   3.152   4.570
 5809SOL    HW218327   6.829   3.310   4.586
 5810SOL     OW18328   3.009   1.236   3.839
 5810SOL    HW118329   2.913   1.244   3.814
 5810SOL    HW218330   3.031   1.141   3.861
 5811SOL     OW18331   3.046   0.487   5.185
 5811SOL    HW118332   3.010   0.560   5.243
 5811SOL    HW218333   2.992   0.483   5.100
 5812SOL     OW18334   5.081   6.896   4.012
 5812SOL    HW118335   5.047   6.879   3.920
 5812SOL    HW218336   5.150   6.828   4.036
 5813SOL     OW18337   1.185   1.145   6.041
 5813SOL    HW118338   1.087   1.160   6.035
 5813SOL    HW218339   1.233   1.225   6.004
 5814SOL     OW18340   6.747   4.105   0.725
 5814SOL    HW118341   6.662   4.062   0.755
 5814SOL    HW218342   6.824   4.043   0.744
 5815SOL     OW18343   4.337   2.366   2.957
 5815SOL    HW118344   4.309   2.401   3.046
 5815SOL    HW218345   4.335   2.266   2.958
 5816SOL     OW18346   5.627   0.401   0.056
 5816SOL    HW118347   5.704   0.438   0.005
 5816SOL    HW218348   5.573   0.342   7.019
 5817SOL     OW18349   6.043   3.052   5.939
 5817SOL    HW118350   6.074   3.074   5.847
 5817SOL    HW218351   6.112   2.996   5.985
 5818SOL     OW18352   5.948   6.300   5.270
 5818SOL    HW118353   5.904   6.278   5.357
 5818SOL    HW218354   5.907   6.246   5.197
 5819SOL     OW18355   4.782   0.449   1.005
 5819SOL    HW118356   4.815   0.470   0.913
 5819SOL    HW218357   4.726   0.366   1.002
 5820SOL     OW18358   4.836   6.727   3.447
 5820SOL    HW118359   4.936   6.732   3.454
 5820SOL    HW218360   4.800   6.814   3.413
 5821SOL     OW18361   2.666   0.614   1.803
 5821SOL    HW118362   2.695   0.523   1.834
 5821SOL    HW218363   2.671   0.678   1.879
 5822SOL     OW18364   0.842   2.495   1.622
 5822SOL    HW118365   0.829   2.539   1.533
 5822SOL    HW218366   0.787   2.543   1.691
 5823SOL     OW18367   0.892   0.661   5.130
 5823SOL    HW118368   0.919   0.757   5.123
 5823SOL    HW218369   0.914   0.626   5.221
 5824SOL     OW18370   6.589   6.629   2.989
 5824SOL    HW118371   6.539   6.551   3.028
 5824SOL    HW218372   6.525   6.703   2.971
 5825SOL     OW18373   2.416   1.567   6.423
 5825SOL    HW118374   2.408   1.656   6.378
 5825SOL    HW218375   2.459   1.579   6.513
 5826SOL     OW18376   6.460   6.244   5.264
 5826SOL    HW118377   6.376   6.281   5.304
 5826SOL    HW218378   6.459   6.144   5.271
 5827SOL     OW18379   1.012   5.318   5.232
 5827SOL    HW118380   0.951   5.391   5.262
 5827SOL    HW218381   1.016   5.247   5.303
 5828SOL     OW18382   0.564   3.767   1.931
 5828SOL    HW118383   0.616   3.834   1.877
 5828SOL    HW218384   0.555   3.682   1.879
 5829SOL     OW18385   2.713   1.209   2.231
 5829SOL    HW118386   2.656   1.137   2.269
 5829SOL    HW218387   2.657   1.270   2.174
 5830SOL     OW18388   4.082   0.728   5.938
 5830SOL    HW118389   4.046   0.663   5.872
 5830SOL    HW218390   4.011   0.794   5.961
 5831SOL     OW18391   6.055   6.434   3.120
 5831SOL    HW118392   6.025   6.454   3.026
 5831SOL    HW218393   6.033   6.339   3.142
 5832SOL     OW18394   4.397   3.902   5.703
 5832SOL    HW118395   4.490   3.875   5.726
 5832SOL    HW218396   4.397   3.992   5.659
 5833SOL     OW18397   3.195   3.364   4.222
 5833SOL    HW118398   3.266   3.398   4.284
 5833SOL    HW218399   3.237   3.308   4.151
 5834SOL     OW18400   6.153   1.610   0.323
 5834SOL    HW118401   6.143   1.699   0.366
 5834SOL    HW218402   6.075   1.552   0.348
 5835SOL     OW18403   5.042   2.513   3.681
 5835SOL    HW118404   5.021   2.595   3.629
 5835SOL    HW218405   5.013   2.524   3.776
 5836SOL     OW18406   3.168   5.605   2.889
 5836SOL    HW118407   3.083   5.626   2.937
 5836SOL    HW218408   3.184   5.506   2.893
 5837SOL     OW18409   4.627   4.397   0.292
 5837SOL    HW118410   4.631   4.489   0.331
 5837SOL    HW218411   4.564   4.396   0.214
 5838SOL     OW18412   1.676   1.449   6.120
 5838SOL    HW118413   1.638   1.520   6.179
 5838SOL    HW218414   1.772   1.468   6.102
 5839SOL     OW18415   6.791   3.183   2.250
 5839SOL    HW118416   6.752   3.206   2.339
 5839SOL    HW218417   6.730   3.214   2.177
 5840SOL     OW18418   1.264   5.815   7.006
 5840SOL    HW118419   1.298   5.905   0.010
 5840SOL    HW218420   1.230   5.766   0.063
 5841SOL     OW18421   5.919   3.322   2.769
 5841SOL    HW118422   5.997   3.276   2.811
 5841SOL    HW218423   5.835   3.295   2.816
 5842SOL     OW18424   3.535   3.478   0.649
 5842SOL    HW118425   3.613   3.531   0.616
 5842SOL    HW218426   3.493   3.525   0.727
 5843SOL     OW18427   2.091   3.716   2.438
 5843SOL    HW118428   2.139   3.789   2.390
 5843SOL    HW218429   2.083   3.636   2.380
 5844SOL     OW18430   0.556   6.030   6.666
 5844SOL    HW118431   0.459   6.007   6.675
 5844SOL    HW218432   0.578   6.107   6.726
 5845SOL     OW18433   1.300   2.479   3.517
 5845SOL    HW118434   1.268   2.388   3.541
 5845SOL    HW218435   1.341   2.477   3.425
 5846SOL     OW18436   6.677   2.958   5.083
 5846SOL    HW118437   6.760   2.913   5.049
 5846SOL    HW218438   6.619   2.891   5.129
 5847SOL     OW18439   2.206   2.170   2.258
 5847SOL    HW118440   2.123   2.148   2.309
 5847SOL    HW218441   2.180   2.204   2.167
 5848SOL     OW18442   2.174   5.128   3.312
 5848SOL    HW118443   2.167   5.058   3.241
 5848SOL    HW218444   2.086   5.176   3.320
 5849SOL     OW18445   1.323   0.129   5.512
 5849SOL    HW118446   1.408   0.147   5.465
 5849SOL    HW218447   1.259   0.082   5.450
 5850SOL     OW18448   1.109   3.546   2.106
 5850SOL    HW118449   1.184   3.481   2.091
 5850SOL    HW218450   1.113   3.619   2.038
 5851SOL     OW18451   6.016   3.948   2.517
 5851SOL    HW118452   5.956   3.871   2.495
 5851SOL    HW218453   5.990   4.027   2.462
 5852SOL     OW18454   4.126   6.381   2.880
 5852SOL    HW118455   4.185   6.304   2.854
 5852SOL    HW218456   4.067   6.405   2.802
 5853SOL     OW18457   2.954   5.497   6.277
 5853SOL    HW118458   2.984   5.583   6.320
 5853SOL    HW218459   2.871   5.464   6.322
 5854SOL     OW18460   6.628   3.295   5.922
 5854SOL    HW118461   6.586   3.364   5.863
 5854SOL    HW218462   6.711   3.333   5.964
 5855SOL     OW18463   1.223   1.299   4.557
 5855SOL    HW118464   1.137   1.247   4.554
 5855SOL    HW218465   1.207   1.387   4.602
 5856SOL     OW18466   2.195   5.570   3.420
 5856SOL    HW118467   2.107   5.534   3.449
 5856SOL    HW218468   2.246   5.603   3.500
 5857SOL     OW18469   6.307   2.842   5.231
 5857SOL    HW118470   6.326   2.866   5.326
 5857SOL    HW218471   6.229   2.780   5.227
 5858SOL     OW18472   2.947   1.703   2.341
 5858SOL    HW118473   3.004   1.686   2.422
 5858SOL    HW218474   2.906   1.794   2.348
 5859SOL     OW18475   6.234   6.460   0.609
 5859SOL    HW118476   6.314   6.509   0.642
 5859SOL    HW218477   6.227   6.470   0.510
 5860SOL     OW18478   1.989   4.764   1.956
 5860SOL    HW118479   1.897   4.734   1.933
 5860SOL    HW218480   2.055   4.706   1.908
 5861SOL     OW18481   5.568   2.126   4.039
 5861SOL    HW118482   5.626   2.148   3.961
 5861SOL    HW218483   5.567   2.203   4.103
 5862SOL     OW18484   3.713   5.207   3.247
 5862SOL    HW118485   3.779   5.210   3.172
 5862SOL    HW218486   3.663   5.121   3.244
 5863SOL     OW18487   2.360   0.636   6.394
 5863SOL    HW118488   2.397   0.716   6.442
 5863SOL    HW218489   2.436   0.578   6.363
 5864SOL     OW18490   4.263   4.105   1.693
 5864SOL    HW118491   4.270   4.006   1.706
 5864SOL    HW218492   4.329   4.151   1.752
 5865SOL     OW18493   5.290   0.552   3.852
 5865SOL    HW118494   5.230   0.495   3.796
 5865SOL    HW218495   5.314   0.503   3.936
 5866SOL     OW18496   4.638   6.566   6.140
 5866SOL    HW118497   4.672   6.480   6.178
 5866SOL    HW218498   4.549   6.588   6.179
 5867SOL     OW18499   0.558   2.552   1.151
 5867SOL    HW118500   0.584   2.639   1.108
 5867SOL    HW218501   0.461   2.554   1.174
 5868SOL     OW18502   0.351   0.466   5.189
 5868SOL    HW118503   0.380   0.381   5.146
 5868SOL    HW218504   0.431   0.521   5.213
 5869SOL     OW18505   2.395   4.648   3.809
 5869SOL    HW118506   2.413   4.582   3.736
 5869SOL    HW218507   2.431   4.613   3.895
 5870SOL     OW18508   5.058   4.971   4.693
 5870SOL    HW118509   5.043   4.879   4.658
 5870SOL    HW218510   5.121   5.021   4.633
 5871SOL     OW18511   3.560   3.744   0.353
 5871SOL    HW118512   3.511   3.710   0.434
 5871SOL    HW218513   3.637   3.683   0.334
 5872SOL     OW18514   4.316   5.602   6.625
 5872SOL    HW118515   4.304   5.591   6.724
 5872SOL    HW218516   4.341   5.513   6.585
 5873SOL     OW18517   2.216   3.225   0.400
 5873SOL    HW118518   2.149   3.194   0.332
 5873SOL    HW218519   2.168   3.251   0.484
 5874SOL     OW18520   2.561   3.341   1.416
 5874SOL    HW118521   2.652   3.336   1.456
 5874SOL    HW218522   2.496   3.374   1.484
 5875SOL     OW18523   3.557   1.886   0.218
 5875SOL    HW118524   3.530   1.962   0.158
 5875SOL    HW218525   3.476   1.833   0.242
 5876SOL     OW18526   3.184   3.286   6.442
 5876SOL    HW118527   3.249   3.270   6.517
 5876SOL    HW218528   3.125   3.206   6.431
 5877SOL     OW18529   6.363   0.105   1.160
 5877SOL    HW118530   6.441   0.068   1.211
 5877SOL    HW218531   6.340   0.196   1.194
 5878SOL     OW18532   4.562   5.740   2.173
 5878SOL    HW118533   4.466   5.741   2.203
 5878SOL    HW218534   4.578   5.818   2.112
 5879SOL     OW18535   3.738   3.216   6.264
 5879SOL    HW118536   3.701   3.309   6.272
 5879SOL    HW218537   3.687   3.166   6.194
 5880SOL     OW18538   4.961   3.099   5.444
 5880SOL    HW118539   4.958   3.022   5.380
 5880SOL    HW218540   4.873   3.107   5.490
 5881SOL     OW18541   0.952   6.364   2.649
 5881SOL    HW118542   1.040   6.397   2.683
 5881SOL    HW218543   0.924   6.283   2.701
 5882SOL     OW18544   1.311   6.174   5.702
 5882SOL    HW118545   1.321   6.230   5.620
 5882SOL    HW218546   1.400   6.165   5.747
 5883SOL     OW18547   0.275   3.836   0.770
 5883SOL    HW118548   0.374   3.845   0.769
 5883SOL    HW218549   0.250   3.739   0.773
 5884SOL     OW18550   6.019   1.395   3.984
 5884SOL    HW118551   5.996   1.452   3.905
 5884SOL    HW218552   6.117   1.403   4.003
 5885SOL     OW18553   0.489   5.155   0.403
 5885SOL    HW118554   0.439   5.117   0.482
 5885SOL    HW218555   0.586   5.136   0.413
 5886SOL     OW18556   1.255   3.342   3.267
 5886SOL    HW118557   1.212   3.307   3.184
 5886SOL    HW218558   1.351   3.364   3.248
 5887SOL     OW18559   2.138   1.915   1.454
 5887SOL    HW118560   2.190   1.960   1.527
 5887SOL    HW218561   2.175   1.823   1.440
 5888SOL     OW18562   2.674   0.206   1.633
 5888SOL    HW118563   2.636   0.118   1.607
 5888SOL    HW218564   2.763   0.218   1.589
 5889SOL     OW18565   0.164   0.951   1.267
 5889SOL    HW118566   0.228   1.022   1.237
 5889SOL    HW218567   0.104   0.927   1.191
 5890SOL     OW18568   2.654   6.058   2.383
 5890SOL    HW118569   2.663   5.978   2.442
 5890SOL    HW218570   2.733   6.063   2.321
 5891SOL     OW18571   2.889   3.227   0.567
 5891SOL    HW118572   2.968   3.184   0.522
 5891SOL    HW218573   2.918   3.310   0.614
 5892SOL     OW18574   0.520   3.737   0.491
 5892SOL    HW118575   0.522   3.831   0.458
 5892SOL    HW218576   0.538   3.674   0.416
 5893SOL     OW18577   1.088   5.525   2.155
 5893SOL    HW118578   1.043   5.471   2.226
 5893SOL    HW218579   1.187   5.514   2.164
 5894SOL     OW18580   0.564   5.737   5.486
 5894SOL    HW118581   0.653   5.705   5.521
 5894SOL    HW218582   0.493   5.673   5.515
 5895SOL     OW18583   5.785   3.125   4.904
 5895SOL    HW118584   5.746   3.040   4.938
 5895SOL    HW218585   5.882   3.129   4.927
 5896SOL     OW18586   5.956   1.474   1.668
 5896SOL    HW118587   5.969   1.558   1.616
 5896SOL    HW218588   5.936   1.496   1.764
 5897SOL     OW18589   4.403   1.478   1.299
 5897SOL    HW118590   4.466   1.434   1.235
 5897SOL    HW218591   4.321   1.507   1.249
 5898SOL     OW18592   1.795   1.333   5.717
 5898SOL    HW118593   1.858   1.264   5.753
 5898SOL    HW218594   1.847   1.402   5.666
 5899SOL     OW18595   6.928   5.449   6.194
 5899SOL    HW118596   6.983   5.520   6.149
 5899SOL    HW218597   6.977   5.417   6.275
 5900SOL     OW18598   6.907   5.827   3.223
 5900SOL    HW118599   6.895   5.831   3.124
 5900SOL    HW218600   7.002   5.846   3.246
 5901SOL     OW18601   1.626   7.006   6.381
 5901SOL    HW118602   1.675   0.024   6.304
 5901SOL    HW218603   1.627   6.906   6.371
 5902SOL     OW18604   5.924   4.370   4.694
 5902SOL    HW118605   5.893   4.367   4.599
 5902SOL    HW218606   5.981   4.289   4.713
 5903SOL     OW18607   6.284   2.487   6.808
 5903SOL    HW118608   6.329   2.454   6.725
 5903SOL    HW218609   6.187   2.462   6.805
 5904SOL     OW18610   2.011   4.717   2.982
 5904SOL    HW118611   1.971   4.781   3.047
 5904SOL    HW218612   1.947   4.643   2.963
 5905SOL     OW18613   5.558   0.908   3.967
 5905SOL    HW118614   5.575   0.993   4.018
 5905SOL    HW218615   5.540   0.834   4.031
 5906SOL     OW18616   5.347   1.411   5.706
 5906SOL    HW118617   5.379   1.415   5.611
 5906SOL    HW218618   5.362   1.500   5.749
 5907SOL     OW18619   1.332   1.666   6.656
 5907SOL    HW118620   1.285   1.747   6.619
 5907SOL    HW218621   1.329   1.592   6.589
 5908SOL     OW18622   4.537   3.701   6.347
 5908SOL    HW118623   4.451   3.691   6.297
 5908SOL    HW218624   4.601   3.629   6.318
 5909SOL     OW18625   0.024   4.744   5.159
 5909SOL    HW118626   0.027   4.645   5.151
 5909SOL    HW218627   7.009   4.769   5.249
 5910SOL     OW18628   2.034   3.956   1.358
 5910SOL    HW118629   1.983   4.014   1.422
 5910SOL    HW218630   1.982   3.948   1.273
 5911SOL     OW18631   6.206   5.210   6.322
 5911SOL    HW118632   6.135   5.273   6.291
 5911SOL    HW218633   6.264   5.255   6.389
 5912SOL     OW18634   6.349   3.714   6.942
 5912SOL    HW118635   6.369   3.627   6.896
 5912SOL    HW218636   6.326   3.783   6.873
 5913SOL     OW18637   2.122   1.835   6.110
 5913SOL    HW118638   2.035   1.793   6.135
 5913SOL    HW218639   2.141   1.910   6.173
 5914SOL     OW18640   2.374   5.669   0.563
 5914SOL    HW118641   2.363   5.648   0.660
 5914SOL    HW218642   2.456   5.622   0.529
 5915SOL     OW18643   4.836   2.894   2.837
 5915SOL    HW118644   4.811   2.834   2.914
 5915SOL    HW218645   4.877   2.978   2.872
 5916SOL     OW18646   3.848   6.979   5.597
 5916SOL    HW118647   3.764   6.970   5.650
 5916SOL    HW218648   3.828   7.023   5.510
 5917SOL     OW18649   3.840   3.496   3.336
 5917SOL    HW118650   3.805   3.446   3.415
 5917SOL    HW218651   3.763   3.520   3.276
 5918SOL     OW18652   1.666   3.374   4.099
 5918SOL    HW118653   1.658   3.473   4.092
 5918SOL    HW218654   1.753   3.351   4.143
 5919SOL     OW18655   2.315   2.564   0.424
 5919SOL    HW118656   2.414   2.554   0.429
 5919SOL    HW218657   2.275   2.483   0.380
 5920SOL     OW18658   3.897   0.446   6.495
 5920SOL    HW118659   3.848   0.381   6.437
 5920SOL    HW218660   3.960   0.397   6.554
 5921SOL     OW18661   3.772   5.312   5.710
 5921SOL    HW118662   3.675   5.324   5.728
 5921SOL    HW218663   3.815   5.267   5.788
 5922SOL     OW18664   6.415   4.697   2.768
 5922SOL    HW118665   6.400   4.617   2.826
 5922SOL    HW218666   6.390   4.780   2.818
 5923SOL     OW18667   6.317   0.187   3.486
 5923SOL    HW118668   6.391   0.158   3.547
 5923SOL    HW218669   6.356   0.222   3.401
 5924SOL     OW18670   5.252   2.474   4.335
 5924SOL    HW118671   5.319   2.421   4.284
 5924SOL    HW218672   5.298   2.527   4.406
 5925SOL     OW18673   5.683   5.729   1.718
 5925SOL    HW118674   5.665   5.719   1.816
 5925SOL    HW218675   5.614   5.679   1.666
 5926SOL     OW18676   3.669   5.457   1.837
 5926SOL    HW118677   3.593   5.394   1.847
 5926SOL    HW218678   3.635   5.551   1.837
 5927SOL     OW18679   2.893   5.816   1.573
 5927SOL    HW118680   2.863   5.731   1.616
 5927SOL    HW218681   2.817   5.859   1.525
 5928SOL     OW18682   1.521   0.163   2.510
 5928SOL    HW118683   1.558   0.240   2.562
 5928SOL    HW218684   1.434   0.189   2.469
 5929SOL     OW18685   1.147   6.508   5.897
 5929SOL    HW118686   1.085   6.572   5.852
 5929SOL    HW218687   1.211   6.559   5.954
 5930SOL     OW18688   6.426   1.114   5.106
 5930SOL    HW118689   6.457   1.206   5.081
 5930SOL    HW218690   6.364   1.080   5.034
 5931SOL     OW18691   5.834   5.443   1.585
 5931SOL    HW118692   5.801   5.431   1.679
 5931SOL    HW218693   5.885   5.528   1.577
 5932SOL     OW18694   2.077   6.443   1.299
 5932SOL    HW118695   2.176   6.453   1.306
 5932SOL    HW218696   2.032   6.525   1.336
 5933SOL     OW18697   0.142   4.084   2.849
 5933SOL    HW118698   0.196   4.131   2.919
 5933SOL    HW218699   0.188   3.999   2.823
 5934SOL     OW18700   3.736   3.668   3.125
 5934SOL    HW118701   3.803   3.737   3.153
 5934SOL    HW218702   3.713   3.681   3.028
 5935SOL     OW18703   3.875   4.077   4.975
 5935SOL    HW118704   3.889   4.020   4.894
 5935SOL    HW218705   3.789   4.126   4.966
 5936SOL     OW18706   4.855   4.749   6.789
 5936SOL    HW118707   4.902   4.775   6.874
 5936SOL    HW218708   4.923   4.732   6.718
 5937SOL     OW18709   1.105   4.093   0.673
 5937SOL    HW118710   1.168   4.119   0.599
 5937SOL    HW218711   1.067   4.003   0.654
 5938SOL     OW18712   2.182   4.517   3.206
 5938SOL    HW118713   2.272   4.547   3.175
 5938SOL    HW218714   2.141   4.458   3.136
 5939SOL     OW18715   3.094   0.567   3.064
 5939SOL    HW118716   3.178   0.592   3.113
 5939SOL    HW218717   3.017   0.571   3.127
 5940SOL     OW18718   3.734   6.909   2.869
 5940SOL    HW118719   3.821   6.929   2.915
 5940SOL    HW218720   3.725   6.811   2.854
 5941SOL     OW18721   6.204   4.936   2.204
 5941SOL    HW118722   6.202   4.983   2.293
 5941SOL    HW218723   6.211   5.004   2.131
 5942SOL     OW18724   3.926   3.450   6.177
 5942SOL    HW118725   3.912   3.354   6.150
 5942SOL    HW218726   3.854   3.507   6.137
 5943SOL     OW18727   1.812   5.784   0.051
 5943SOL    HW118728   1.872   5.825   0.119
 5943SOL    HW218729   1.716   5.796   0.079
 5944SOL     OW18730   4.983   1.281   2.402
 5944SOL    HW118731   5.042   1.274   2.321
 5944SOL    HW218732   4.889   1.301   2.374
 5945SOL     OW18733   6.486   4.919   5.637
 5945SOL    HW118734   6.510   4.955   5.546
 5945SOL    HW218735   6.469   4.996   5.699
 5946SOL     OW18736   4.530   3.737   5.966
 5946SOL    HW118737   4.577   3.763   5.882
 5946SOL    HW218738   4.559   3.796   6.041
 5947SOL     OW18739   4.212   3.278   1.659
 5947SOL    HW118740   4.283   3.208   1.651
 5947SOL    HW218741   4.151   3.254   1.735
 5948SOL     OW18742   3.608   4.866   3.013
 5948SOL    HW118743   3.653   4.864   2.923
 5948SOL    HW218744   3.677   4.885   3.083
 5949SOL     OW18745   4.181   4.830   1.008
 5949SOL    HW118746   4.101   4.875   0.967
 5949SOL    HW218747   4.187   4.736   0.972
 5950SOL     OW18748   5.943   2.068   4.733
 5950SOL    HW118749   5.920   1.972   4.718
 5950SOL    HW218750   5.860   2.121   4.747
 5951SOL     OW18751   1.952   6.334   4.037
 5951SOL    HW118752   2.046   6.304   4.025
 5951SOL    HW218753   1.932   6.409   3.974
 5952SOL     OW18754   6.329   5.997   3.548
 5952SOL    HW118755   6.260   5.934   3.584
 5952SOL    HW218756   6.344   5.980   3.451
 5953SOL     OW18757   6.611   3.462   5.696
 5953SOL    HW118758   6.586   3.514   5.614
 5953SOL    HW218759   6.711   3.465   5.707
 5954SOL     OW18760   6.879   4.594   6.383
 5954SOL    HW118761   6.959   4.589   6.443
 5954SOL    HW218762   6.829   4.507   6.387
 5955SOL     OW18763   5.263   5.015   1.911
 5955SOL    HW118764   5.229   5.105   1.881
 5955SOL    HW218765   5.198   4.975   1.976
 5956SOL     OW18766   3.884   2.430   6.865
 5956SOL    HW118767   3.895   2.358   6.797
 5956SOL    HW218768   3.942   2.508   6.841
 5957SOL     OW18769   5.399   6.264   5.800
 5957SOL    HW118770   5.302   6.277   5.823
 5957SOL    HW218771   5.441   6.353   5.783
 5958SOL     OW18772   6.316   6.225   1.653
 5958SOL    HW118773   6.412   6.220   1.625
 5958SOL    HW218774   6.282   6.133   1.672
 5959SOL     OW18775   2.934   1.835   5.716
 5959SOL    HW118776   2.872   1.895   5.766
 5959SOL    HW218777   3.028   1.866   5.730
 5960SOL     OW18778   2.543   0.291   3.547
 5960SOL    HW118779   2.600   0.364   3.583
 5960SOL    HW218780   2.494   0.323   3.466
 5961SOL     OW18781   3.557   0.620   5.065
 5961SOL    HW118782   3.558   0.709   5.019
 5961SOL    HW218783   3.536   0.548   4.998
 5962SOL     OW18784   4.942   5.667   2.226
 5962SOL    HW118785   4.988   5.584   2.195
 5962SOL    HW218786   4.907   5.717   2.147
 5963SOL     OW18787   3.765   3.803   2.873
 5963SOL    HW118788   3.826   3.809   2.794
 5963SOL    HW218789   3.806   3.850   2.951
 5964SOL     OW18790   0.189   4.937   6.722
 5964SOL    HW118791   0.283   4.908   6.704
 5964SOL    HW218792   0.189   5.030   6.757
 5965SOL     OW18793   1.711   2.572   6.451
 5965SOL    HW118794   1.676   2.590   6.543
 5965SOL    HW218795   1.792   2.515   6.457
 5966SOL     OW18796   2.816   6.172   4.685
 5966SOL    HW118797   2.872   6.119   4.749
 5966SOL    HW218798   2.842   6.149   4.592
 5967SOL     OW18799   4.590   6.954   2.926
 5967SOL    HW118800   4.534   6.886   2.879
 5967SOL    HW218801   4.576   6.948   3.024
 5968SOL     OW18802   6.510   2.279   3.293
 5968SOL    HW118803   6.513   2.195   3.239
 5968SOL    HW218804   6.444   2.268   3.368
 5969SOL     OW18805   5.892   3.469   4.021
 5969SOL    HW118806   5.991   3.474   4.033
 5969SOL    HW218807   5.847   3.520   4.093
 5970SOL     OW18808   1.360   3.587   2.968
 5970SOL    HW118809   1.365   3.514   2.900
 5970SOL    HW218810   1.444   3.642   2.964
 5971SOL     OW18811   1.751   6.826   3.100
 5971SOL    HW118812   1.659   6.863   3.089
 5971SOL    HW218813   1.767   6.754   3.032
 5972SOL     OW18814   5.266   0.156   0.061
 5972SOL    HW118815   5.264   0.195   0.153
 5972SOL    HW218816   5.331   0.080   0.059
 5973SOL     OW18817   1.734   4.219   2.734
 5973SOL    HW118818   1.781   4.259   2.656
 5973SOL    HW218819   1.743   4.119   2.731
 5974SOL     OW18820   6.835   3.876   6.711
 5974SOL    HW118821   6.922   3.924   6.722
 5974SOL    HW218822   6.852   3.782   6.682
 5975SOL     OW18823   3.864   2.678   1.106
 5975SOL    HW118824   3.935   2.746   1.088
 5975SOL    HW218825   3.803   2.713   1.177
 5976SOL     OW18826   2.930   3.334   4.775
 5976SOL    HW118827   2.949   3.245   4.733
 5976SOL    HW218828   2.865   3.385   4.718
 5977SOL     OW18829   2.139   4.923   2.150
 5977SOL    HW118830   2.130   4.847   2.085
 5977SOL    HW218831   2.108   4.894   2.240
 5978SOL     OW18832   5.346   4.561   2.509
 5978SOL    HW118833   5.440   4.528   2.500
 5978SOL    HW218834   5.326   4.580   2.605
 5979SOL     OW18835   6.431   0.838   3.793
 5979SOL    HW118836   6.395   0.849   3.885
 5979SOL    HW218837   6.462   0.927   3.759
 5980SOL     OW18838   4.865   4.355   0.598
 5980SOL    HW118839   4.932   4.386   0.666
 5980SOL    HW218840   4.798   4.295   0.643
 5981SOL     OW18841   6.149   1.665   2.434
 5981SOL    HW118842   6.174   1.724   2.511
 5981SOL    HW218843   6.210   1.586   2.432
 5982SOL     OW18844   7.005   1.899   6.669
 5982SOL    HW118845   0.019   1.982   6.712
 5982SOL    HW218846   0.031   1.819   6.703
 5983SOL     OW18847   2.206   2.140   4.062
 5983SOL    HW118848   2.217   2.168   4.158
 5983SOL    HW218849   2.295   2.142   4.017
 5984SOL     OW18850   6.808   6.222   4.286
 5984SOL    HW118851   6.763   6.141   4.322
 5984SOL    HW218852   6.851   6.273   4.360
 5985SOL     OW18853   5.329   2.080   3.694
 5985SOL    HW118854   5.421   2.109   3.668
 5985SOL    HW218855   5.277   2.160   3.725
 5986SOL     OW18856   3.565   2.985   3.116
 5986SOL    HW118857   3.474   2.964   3.152
 5986SOL    HW218858   3.559   3.065   3.056
 5987SOL     OW18859   4.344   6.599   4.645
 5987SOL    HW118860   4.385   6.690   4.636
 5987SOL    HW218861   4.416   6.533   4.668
 5988SOL     OW18862   4.534   6.802   4.154
 5988SOL    HW118863   4.459   6.746   4.119
 5988SOL    HW218864   4.506   6.898   4.156
 5989SOL     OW18865   2.643   0.202   6.147
 5989SOL    HW118866   2.565   0.253   6.109
 5989SOL    HW218867   2.671   0.132   6.081
 5990SOL     OW18868   3.809   4.616   0.615
 5990SOL    HW118869   3.825   4.536   0.672
 5990SOL    HW218870   3.890   4.636   0.560
 5991SOL     OW18871   3.445   5.407   4.406
 5991SOL    HW118872   3.429   5.375   4.313
 5991SOL    HW218873   3.510   5.347   4.451
 5992SOL     OW18874   3.561   0.692   3.962
 5992SOL    HW118875   3.533   0.662   3.871
 5992SOL    HW218876   3.657   0.670   3.977
 5993SOL     OW18877   2.529   6.479   5.677
 5993SOL    HW118878   2.433   6.451   5.669
 5993SOL    HW218879   2.545   6.560   5.620
 5994SOL     OW18880   6.316   2.400   2.344
 5994SOL    HW118881   6.237   2.457   2.322
 5994SOL    HW218882   6.292   2.304   2.334
 5995SOL     OW18883   6.652   5.388   1.251
 5995SOL    HW118884   6.625   5.296   1.223
 5995SOL    HW218885   6.714   5.427   1.183
 5996SOL     OW18886   0.413   5.652   6.552
 5996SOL    HW118887   0.381   5.566   6.591
 5996SOL    HW218888   0.505   5.641   6.516
 5997SOL     OW18889   0.198   6.826   1.717
 5997SOL    HW118890   0.233   6.909   1.762
 5997SOL    HW218891   0.213   6.833   1.618
 5998SOL     OW18892   5.362   1.970   2.632
 5998SOL    HW118893   5.353   2.056   2.681
 5998SOL    HW218894   5.459   1.942   2.630
 5999SOL     OW18895   1.766   1.738   3.327
 5999SOL    HW118896   1.674   1.776   3.320
 5999SOL    HW218897   1.781   1.702   3.419
 6000SOL     OW18898   3.972   4.884   2.610
 6000SOL    HW118899   4.036   4.823   2.563
 6000SOL    HW218900   4.010   4.976   2.612
 6001SOL     OW18901   6.984   2.955   0.087
 6001SOL    HW118902   6.990   3.007   0.002
 6001SOL    HW218903   6.931   2.871   0.072
 6002SOL     OW18904   1.539   0.624   1.576
 6002SOL    HW118905   1.467   0.686   1.545
 6002SOL    HW218906   1.627   0.671   1.576
 6003SOL     OW18907   5.663   3.870   4.815
 6003SOL    HW118908   5.682   3.840   4.721
 6003SOL    HW218909   5.592   3.812   4.854
 6004SOL     OW18910   0.897   3.391   2.868
 6004SOL    HW118911   0.912   3.488   2.886
 6004SOL    HW218912   0.896   3.375   2.770
 6005SOL     OW18913   4.102   5.808   4.125
 6005SOL    HW118914   4.096   5.728   4.066
 6005SOL    HW218915   4.107   5.780   4.220
 6006SOL     OW18916   2.858   6.428   6.572
 6006SOL    HW118917   2.770   6.463   6.601
 6006SOL    HW218918   2.860   6.328   6.581
 6007SOL     OW18919   5.796   2.182   3.847
 6007SOL    HW118920   5.880   2.160   3.796
 6007SOL    HW218921   5.764   2.272   3.820
 6008SOL     OW18922   3.439   5.042   5.781
 6008SOL    HW118923   3.453   4.961   5.723
 6008SOL    HW218924   3.380   5.107   5.734
 6009SOL     OW18925   2.616   1.744   4.291
 6009SOL    HW118926   2.645   1.787   4.205
 6009SOL    HW218927   2.691   1.748   4.357
 6010SOL     OW18928   1.727   4.193   2.389
 6010SOL    HW118929   1.730   4.239   2.300
 6010SOL    HW218930   1.654   4.124   2.388
 6011SOL     OW18931   5.156   2.671   2.099
 6011SOL    HW118932   5.134   2.765   2.127
 6011SOL    HW218933   5.095   2.644   2.024
 6012SOL     OW18934   6.836   2.718   0.094
 6012SOL    HW118935   6.832   2.628   0.137
 6012SOL    HW218936   6.748   2.738   0.051
 6013SOL     OW18937   6.274   0.813   2.031
 6013SOL    HW118938   6.242   0.735   2.085
 6013SOL    HW218939   6.254   0.796   1.934
 6014SOL     OW18940   5.952   0.947   0.214
 6014SOL    HW118941   6.004   1.018   0.263
 6014SOL    HW218942   6.005   0.916   0.135
 6015SOL     OW18943   6.154   2.205   4.697
 6015SOL    HW118944   6.069   2.153   4.689
 6015SOL    HW218945   6.191   2.222   4.606
 6016SOL     OW18946   1.263   0.577   5.049
 6016SOL    HW118947   1.207   0.504   5.010
 6016SOL    HW218948   1.324   0.613   4.978
 6017SOL     OW18949   5.978   5.195   2.996
 6017SOL    HW118950   5.990   5.294   3.006
 6017SOL    HW218951   6.020   5.149   3.074
 6018SOL     OW18952   2.854   3.516   0.588
 6018SOL    HW118953   2.818   3.585   0.526
 6018SOL    HW218954   2.778   3.466   0.631
 6019SOL     OW18955   3.826   0.879   3.874
 6019SOL    HW118956   3.796   0.788   3.902
 6019SOL    HW218957   3.926   0.883   3.877
 6020SOL     OW18958   3.962   0.768   2.718
 6020SOL    HW118959   3.900   0.692   2.736
 6020SOL    HW218960   4.030   0.740   2.649
 6021SOL     OW18961   4.250   1.142   2.075
 6021SOL    HW118962   4.333   1.181   2.115
 6021SOL    HW218963   4.211   1.074   2.138
 6022SOL     OW18964   4.804   1.453   3.110
 6022SOL    HW118965   4.748   1.525   3.149
 6022SOL    HW218966   4.758   1.365   3.122
 6023SOL     OW18967   0.459   1.456   3.153
 6023SOL    HW118968   0.396   1.517   3.105
 6023SOL    HW218969   0.458   1.477   3.251
 6024SOL     OW18970   0.559   4.695   2.071
 6024SOL    HW118971   0.518   4.744   1.994
 6024SOL    HW218972   0.576   4.600   2.045
 6025SOL     OW18973   4.574   1.350   1.903
 6025SOL    HW118974   4.583   1.450   1.898
 6025SOL    HW218975   4.623   1.308   1.827
 6026SOL     OW18976   6.642   5.243   5.145
 6026SOL    HW118977   6.690   5.325   5.114
 6026SOL    HW218978   6.631   5.246   5.244
 6027SOL     OW18979   2.786   2.821   6.940
 6027SOL    HW118980   2.789   2.919   6.956
 6027SOL    HW218981   2.691   2.790   6.939
 6028SOL     OW18982   1.666   4.659   0.130
 6028SOL    HW118983   1.610   4.583   0.164
 6028SOL    HW218984   1.735   4.682   0.198
 6029SOL     OW18985   1.753   6.088   0.604
 6029SOL    HW118986   1.828   6.141   0.645
 6029SOL    HW218987   1.791   6.023   0.538
 6030SOL     OW18988   2.206   0.707   1.912
 6030SOL    HW118989   2.143   0.674   1.841
 6030SOL    HW218990   2.230   0.802   1.894
 6031SOL     OW18991   4.664   6.761   5.923
 6031SOL    HW118992   4.635   6.684   5.979
 6031SOL    HW218993   4.690   6.729   5.832
 6032SOL     OW18994   1.576   3.698   2.615
 6032SOL    HW118995   1.495   3.741   2.654
 6032SOL    HW218996   1.571   3.599   2.628
 6033SOL     OW18997   1.525   1.973   2.685
 6033SOL    HW118998   1.553   2.011   2.774
 6033SOL    HW218999   1.440   2.017   2.656
 6034SOL     OW19000   2.391   4.478   4.834
 6034SOL    HW119001   2.448   4.532   4.895
 6034SOL    HW219002   2.310   4.531   4.807
 6035SOL     OW19003   5.221   0.510   4.581
 6035SOL    HW119004   5.197   0.592   4.632
 6035SOL    HW219005   5.199   0.523   4.484
 6036SOL     OW19006   0.380   0.157   5.117
 6036SOL    HW119007   0.461   0.116   5.074
 6036SOL    HW219008   0.300   0.100   5.098
 6037SOL     OW19009   4.922   5.053   5.298
 6037SOL    HW119010   4.975   5.022   5.377
 6037SOL    HW219011   4.959   5.141   5.266
 6038SOL     OW19012   6.627   3.981   6.145
 6038SOL    HW119013   6.649   3.945   6.055
 6038SOL    HW219014   6.570   4.063   6.136
 6039SOL     OW19015   3.383   3.451   2.392
 6039SOL    HW119016   3.333   3.538   2.391
 6039SOL    HW219017   3.321   3.378   2.421
 6040SOL     OW19018   0.626   2.123   6.346
 6040SOL    HW119019   0.541   2.073   6.359
 6040SOL    HW219020   0.635   2.194   6.416
 6041SOL     OW19021   0.974   1.510   0.133
 6041SOL    HW119022   0.882   1.481   0.105
 6041SOL    HW219023   0.978   1.517   0.232
 6042SOL     OW19024   4.921   5.025   2.520
 6042SOL    HW119025   4.821   5.016   2.516
 6042SOL    HW219026   4.962   4.972   2.446
 6043SOL     OW19027   1.055   4.862   4.552
 6043SOL    HW119028   0.968   4.832   4.591
 6043SOL    HW219029   1.131   4.827   4.608
 6044SOL     OW19030   0.446   0.570   1.118
 6044SOL    HW119031   0.493   0.482   1.120
 6044SOL    HW219032   0.458   0.616   1.206
 6045SOL     OW19033   5.890   5.077   0.871
 6045SOL    HW119034   5.804   5.127   0.862
 6045SOL    HW219035   5.959   5.118   0.812
 6046SOL     OW19036   2.473   2.492   0.073
 6046SOL    HW119037   2.454   2.420   0.140
 6046SOL    HW219038   2.543   2.460   0.009
 6047SOL     OW19039   6.177   6.897   3.966
 6047SOL    HW119040   6.161   6.977   4.024
 6047SOL    HW219041   6.244   6.837   4.010
 6048SOL     OW19042   4.045   0.470   3.676
 6048SOL    HW119043   4.067   0.558   3.635
 6048SOL    HW219044   4.116   0.403   3.653
 6049SOL     OW19045   4.773   3.834   6.422
 6049SOL    HW119046   4.686   3.792   6.395
 6049SOL    HW219047   4.810   3.887   6.346
 6050SOL     OW19048   3.976   4.742   5.301
 6050SOL    HW119049   4.047   4.809   5.283
 6050SOL    HW219050   4.018   4.651   5.313
 6051SOL     OW19051   2.385   2.242   2.578
 6051SOL    HW119052   2.325   2.176   2.623
 6051SOL    HW219053   2.331   2.297   2.513
 6052SOL     OW19054   6.602   1.570   0.552
 6052SOL    HW119055   6.579   1.532   0.462
 6052SOL    HW219056   6.695   1.542   0.576
 6053SOL     OW19057   2.921   6.914   6.897
 6053SOL    HW119058   2.925   6.823   6.938
 6053SOL    HW219059   2.849   6.967   6.943
 6054SOL     OW19060   1.575   5.363   1.142
 6054SOL    HW119061   1.580   5.461   1.162
 6054SOL    HW219062   1.594   5.348   1.045
 6055SOL     OW19063   4.917   1.192   5.232
 6055SOL    HW119064   4.879   1.099   5.224
 6055SOL    HW219065   4.998   1.199   5.174
 6056SOL     OW19066   3.764   1.410   6.239
 6056SOL    HW119067   3.803   1.496   6.205
 6056SOL    HW219068   3.672   1.398   6.203
 6057SOL     OW19069   4.308   1.429   5.235
 6057SOL    HW119070   4.236   1.376   5.190
 6057SOL    HW219071   4.386   1.370   5.255
 6058SOL     OW19072   5.699   2.953   4.314
 6058SOL    HW119073   5.747   2.878   4.361
 6058SOL    HW219074   5.602   2.933   4.309
 6059SOL     OW19075   4.899   4.570   6.318
 6059SOL    HW119076   4.867   4.550   6.226
 6059SOL    HW219077   4.868   4.661   6.346
 6060SOL     OW19078   4.438   5.301   5.746
 6060SOL    HW119079   4.344   5.307   5.711
 6060SOL    HW219080   4.435   5.286   5.845
 6061SOL     OW19081   3.353   1.893   6.591
 6061SOL    HW119082   3.261   1.866   6.619
 6061SOL    HW219083   3.393   1.821   6.534
 6062SOL     OW19084   1.739   0.914   4.618
 6062SOL    HW119085   1.740   0.950   4.711
 6062SOL    HW219086   1.833   0.901   4.585
 6063SOL     OW19087   4.077   1.013   6.569
 6063SOL    HW119088   4.034   0.994   6.658
 6063SOL    HW219089   4.022   0.973   6.496
 6064SOL     OW19090   1.184   5.786   3.033
 6064SOL    HW119091   1.168   5.881   3.006
 6064SOL    HW219092   1.167   5.726   2.955
 6065SOL     OW19093   6.059   6.550   0.933
 6065SOL    HW119094   6.085   6.458   0.959
 6065SOL    HW219095   6.074   6.612   1.010
 6066SOL     OW19096   4.408   2.049   0.964
 6066SOL    HW119097   4.367   1.973   1.015
 6066SOL    HW219098   4.399   2.133   1.017
 6067SOL     OW19099   6.380   1.257   5.815
 6067SOL    HW119100   6.337   1.212   5.736
 6067SOL    HW219101   6.479   1.262   5.801
 6068SOL     OW19102   4.949   3.160   5.010
 6068SOL    HW119103   4.866   3.155   5.065
 6068SOL    HW219104   4.975   3.256   4.996
 6069SOL     OW19105   6.929   4.289   5.497
 6069SOL    HW119106   6.860   4.233   5.450
 6069SOL    HW219107   7.013   4.236   5.506
 6070SOL     OW19108   4.137   2.447   6.406
 6070SOL    HW119109   4.059   2.501   6.438
 6070SOL    HW219110   4.166   2.384   6.478
 6071SOL     OW19111   4.258   6.187   5.314
 6071SOL    HW119112   4.297   6.278   5.302
 6071SOL    HW219113   4.177   6.178   5.256
 6072SOL     OW19114   1.219   2.105   1.957
 6072SOL    HW119115   1.152   2.178   1.965
 6072SOL    HW219116   1.182   2.020   1.993
 6073SOL     OW19117   6.647   2.690   0.707
 6073SOL    HW119118   6.584   2.658   0.778
 6073SOL    HW219119   6.694   2.772   0.739
 6074SOL     OW19120   0.714   6.793   4.640
 6074SOL    HW119121   0.692   6.702   4.674
 6074SOL    HW219122   0.632   6.851   4.645
 6075SOL     OW19123   6.403   3.485   0.116
 6075SOL    HW119124   6.357   3.524   0.036
 6075SOL    HW219125   6.334   3.462   0.186
 6076SOL     OW19126   2.174   6.744   3.971
 6076SOL    HW119127   2.218   6.793   3.896
 6076SOL    HW219128   2.241   6.681   4.012
 6077SOL     OW19129   5.933   6.199   2.331
 6077SOL    HW119130   5.980   6.268   2.277
 6077SOL    HW219131   5.834   6.206   2.316
 6078SOL     OW19132   2.924   5.128   3.992
 6078SOL    HW119133   2.954   5.222   4.007
 6078SOL    HW219134   2.923   5.109   3.893
 6079SOL     OW19135   2.424   2.813   0.230
 6079SOL    HW119136   2.478   2.729   0.231
 6079SOL    HW219137   2.405   2.842   0.323
 6080SOL     OW19138   5.887   2.054   1.568
 6080SOL    HW119139   5.887   2.012   1.478
 6080SOL    HW219140   5.974   2.034   1.615
 6081SOL     OW19141   6.518   3.641   3.691
 6081SOL    HW119142   6.539   3.713   3.757
 6081SOL    HW219143   6.549   3.553   3.726
 6082SOL     OW19144   4.148   0.475   2.674
 6082SOL    HW119145   4.137   0.548   2.607
 6082SOL    HW219146   4.203   0.508   2.751
 6083SOL     OW19147   1.187   5.942   6.761
 6083SOL    HW119148   1.201   5.892   6.846
 6083SOL    HW219149   1.145   6.031   6.781
 6084SOL     OW19150   6.276   5.320   4.930
 6084SOL    HW119151   6.253   5.397   4.989
 6084SOL    HW219152   6.317   5.247   4.984
 6085SOL     OW19153   6.704   3.231   6.926
 6085SOL    HW119154   6.611   3.204   6.901
 6085SOL    HW219155   6.706   3.254   0.000
 6086SOL     OW19156   4.336   1.384   4.552
 6086SOL    HW119157   4.394   1.464   4.569
 6086SOL    HW219158   4.376   1.328   4.480
 6087SOL     OW19159   5.774   6.696   6.994
 6087SOL    HW119160   5.797   6.788   6.962
 6087SOL    HW219161   5.725   6.647   6.921
 6088SOL     OW19162   0.742   0.221   4.729
 6088SOL    HW119163   0.728   0.265   4.641
 6088SOL    HW219164   0.662   0.237   4.787
 6089SOL     OW19165   0.806   3.410   0.998
 6089SOL    HW119166   0.852   3.336   1.047
 6089SOL    HW219167   0.761   3.470   1.064
 6090SOL     OW19168   0.534   6.012   5.474
 6090SOL    HW119169   0.553   5.916   5.495
 6090SOL    HW219170   0.587   6.071   5.535
 6091SOL     OW19171   6.479   1.680   2.245
 6091SOL    HW119172   6.380   1.684   2.230
 6091SOL    HW219173   6.505   1.752   2.309
 6092SOL     OW19174   2.398   0.938   2.119
 6092SOL    HW119175   2.384   0.916   2.023
 6092SOL    HW219176   2.333   0.887   2.175
 6093SOL     OW19177   1.379   3.075   1.271
 6093SOL    HW119178   1.433   3.072   1.355
 6093SOL    HW219179   1.361   2.982   1.239
 6094SOL     OW19180   1.551   1.395   1.501
 6094SOL    HW119181   1.518   1.363   1.412
 6094SOL    HW219182   1.593   1.485   1.491
 6095SOL     OW19183   5.710   2.894   6.973
 6095SOL    HW119184   5.802   2.918   7.004
 6095SOL    HW219185   5.707   2.900   6.873
 6096SOL     OW19186   4.177   1.344   4.150
 6096SOL    HW119187   4.128   1.259   4.129
 6096SOL    HW219188   4.232   1.371   4.071
 6097SOL     OW19189   2.474   0.853   2.596
 6097SOL    HW119190   2.480   0.857   2.696
 6097SOL    HW219191   2.398   0.794   2.569
 6098SOL     OW19192   2.312   2.258   6.035
 6098SOL    HW119193   2.283   2.189   6.101
 6098SOL    HW219194   2.239   2.324   6.021
 6099SOL     OW19195   6.137   5.768   5.119
 6099SOL    HW119196   6.111   5.812   5.205
 6099SOL    HW219197   6.146   5.837   5.048
 6100SOL     OW19198   6.370   2.682   6.993
 6100SOL    HW119199   6.337   2.616   6.925
 6100SOL    HW219200   6.454   2.724   6.961
 6101SOL     OW19201   6.702   2.007   5.659
 6101SOL    HW119202   6.695   2.011   5.559
 6101SOL    HW219203   6.704   1.911   5.688
 6102SOL     OW19204   3.446   1.047   5.184
 6102SOL    HW119205   3.356   1.044   5.140
 6102SOL    HW219206   3.516   1.023   5.117
 6103SOL     OW19207   6.572   0.530   4.474
 6103SOL    HW119208   6.560   0.628   4.490
 6103SOL    HW219209   6.655   0.515   4.421
 6104SOL     OW19210   6.115   1.399   6.933
 6104SOL    HW119211   6.142   1.470   6.998
 6104SOL    HW219212   6.015   1.395   6.928
 6105SOL     OW19213   3.669   5.606   6.202
 6105SOL    HW119214   3.669   5.649   6.112
 6105SOL    HW219215   3.677   5.677   6.272
 6106SOL     OW19216   2.791   5.148   6.309
 6106SOL    HW119217   2.798   5.162   6.210
 6106SOL    HW219218   2.874   5.103   6.342
 6107SOL     OW19219   2.115   5.397   4.537
 6107SOL    HW119220   2.118   5.353   4.627
 6107SOL    HW219221   2.074   5.487   4.546
 6108SOL     OW19222   0.933   2.290   4.191
 6108SOL    HW119223   1.027   2.315   4.166
 6108SOL    HW219224   0.879   2.373   4.201
 6109SOL     OW19225   5.826   3.263   0.609
 6109SOL    HW119226   5.840   3.361   0.591
 6109SOL    HW219227   5.812   3.215   0.523
 6110SOL     OW19228   3.405   1.728   5.561
 6110SOL    HW119229   3.402   1.720   5.462
 6110SOL    HW219230   3.319   1.695   5.600
 6111SOL     OW19231   1.076   4.666   3.022
 6111SOL    HW119232   1.086   4.579   3.071
 6111SOL    HW219233   1.157   4.722   3.037
 6112SOL     OW19234   1.444   1.629   3.067
 6112SOL    HW119235   1.414   1.634   2.972
 6112SOL    HW219236   1.531   1.678   3.078
 6113SOL     OW19237   1.706   0.466   5.788
 6113SOL    HW119238   1.689   0.445   5.691
 6113SOL    HW219239   1.667   0.555   5.810
 6114SOL     OW19240   4.881   5.673   0.622
 6114SOL    HW119241   4.855   5.760   0.664
 6114SOL    HW219242   4.799   5.627   0.589
 6115SOL     OW19243   4.863   5.238   2.783
 6115SOL    HW119244   4.837   5.271   2.693
 6115SOL    HW219245   4.917   5.155   2.774
 6116SOL     OW19246   2.970   1.260   2.129
 6116SOL    HW119247   2.949   1.357   2.121
 6116SOL    HW219248   2.889   1.211   2.161
 6117SOL     OW19249   5.935   6.526   4.702
 6117SOL    HW119250   5.997   6.599   4.671
 6117SOL    HW219251   5.949   6.445   4.645
 6118SOL     OW19252   6.376   1.264   3.336
 6118SOL    HW119253   6.397   1.258   3.238
 6118SOL    HW219254   6.461   1.256   3.388
 6119SOL     OW19255   0.700   5.332   4.922
 6119SOL    HW119256   0.663   5.377   5.002
 6119SOL    HW219257   0.632   5.331   4.849
 6120SOL     OW19258   3.141   6.813   3.260
 6120SOL    HW119259   3.069   6.756   3.300
 6120SOL    HW219260   3.198   6.849   3.333
 6121SOL     OW19261   0.340   2.583   3.534
 6121SOL    HW119262   0.288   2.641   3.597
 6121SOL    HW219263   0.420   2.633   3.501
 6122SOL     OW19264   4.101   6.306   3.391
 6122SOL    HW119265   4.187   6.296   3.442
 6122SOL    HW219266   4.121   6.324   3.295
 6123SOL     OW19267   6.494   0.980   1.755
 6123SOL    HW119268   6.465   0.951   1.847
 6123SOL    HW219269   6.434   0.938   1.687
 6124SOL     OW19270   3.140   0.350   5.997
 6124SOL    HW119271   3.108   0.308   6.082
 6124SOL    HW219272   3.212   0.416   6.016
 6125SOL     OW19273   1.677   6.099   1.570
 6125SOL    HW119274   1.602   6.125   1.632
 6125SOL    HW219275   1.661   6.141   1.481
 6126SOL     OW19276   4.866   4.701   3.464
 6126SOL    HW119277   4.860   4.743   3.373
 6126SOL    HW219278   4.871   4.772   3.534
 6127SOL     OW19279   2.106   6.030   1.316
 6127SOL    HW119280   2.052   5.948   1.338
 6127SOL    HW219281   2.073   6.107   1.370
 6128SOL     OW19282   6.838   2.454   0.482
 6128SOL    HW119283   6.914   2.393   0.458
 6128SOL    HW219284   6.861   2.548   0.456
 6129SOL     OW19285   6.024   4.211   2.386
 6129SOL    HW119286   5.983   4.203   2.296
 6129SOL    HW219287   6.106   4.268   2.380
 6130SOL     OW19288   4.867   2.697   3.539
 6130SOL    HW119289   4.826   2.681   3.450
 6130SOL    HW219290   4.795   2.714   3.606
 6131SOL     OW19291   6.670   1.248   5.760
 6131SOL    HW119292   6.699   1.223   5.668
 6131SOL    HW219293   6.718   1.191   5.827
 6132SOL     OW19294   3.714   3.002   0.862
 6132SOL    HW119295   3.720   3.045   0.772
 6132SOL    HW219296   3.786   3.039   0.921
 6133SOL     OW19297   1.036   3.617   1.349
 6133SOL    HW119298   1.015   3.525   1.317
 6133SOL    HW219299   1.107   3.657   1.291
 6134SOL     OW19300   3.787   3.895   6.709
 6134SOL    HW119301   3.834   3.809   6.691
 6134SOL    HW219302   3.844   3.971   6.680
 6135SOL     OW19303   6.570   6.980   0.972
 6135SOL    HW119304   6.533   6.956   1.062
 6135SOL    HW219305   6.544   0.050   0.949
 6136SOL     OW19306   0.696   2.053   1.979
 6136SOL    HW119307   0.608   2.016   2.009
 6136SOL    HW219308   0.717   2.019   1.887
 6137SOL     OW19309   2.972   6.369   6.210
 6137SOL    HW119310   2.904   6.368   6.136
 6137SOL    HW219311   3.026   6.284   6.206
 6138SOL     OW19312   4.063   6.304   2.361
 6138SOL    HW119313   4.152   6.291   2.404
 6138SOL    HW219314   4.012   6.374   2.412
 6139SOL     OW19315   1.543   4.040   4.993
 6139SOL    HW119316   1.560   3.990   5.079
 6139SOL    HW219317   1.626   4.037   4.937
 6140SOL     OW19318   1.362   6.829   1.796
 6140SOL    HW119319   1.388   6.820   1.700
 6140SOL    HW219320   1.438   6.800   1.854
 6141SOL     OW19321   6.730   5.418   5.807
 6141SOL    HW119322   6.793   5.490   5.838
 6141SOL    HW219323   6.660   5.403   5.877
 6142SOL     OW19324   6.715   3.440   0.965
 6142SOL    HW119325   6.660   3.358   0.980
 6142SOL    HW219326   6.763   3.433   0.878
 6143SOL     OW19327   5.894   5.121   6.498
 6143SOL    HW119328   5.860   5.032   6.529
 6143SOL    HW219329   5.919   5.177   6.577
 6144SOL     OW19330   0.199   4.222   3.709
 6144SOL    HW119331   0.271   4.226   3.641
 6144SOL    HW219332   0.113   4.195   3.666
 6145SOL     OW19333   5.028   5.648   2.640
 6145SOL    HW119334   5.112   5.675   2.593
 6145SOL    HW219335   5.004   5.716   2.709
 6146SOL     OW19336   5.115   1.308   3.037
 6146SOL    HW119337   5.076   1.285   3.126
 6146SOL    HW219338   5.052   1.280   2.964
 6147SOL     OW19339   1.849   3.715   2.870
 6147SOL    HW119340   1.760   3.687   2.908
 6147SOL    HW219341   1.909   3.745   2.944
 6148SOL     OW19342   5.939   6.456   4.226
 6148SOL    HW119343   5.993   6.519   4.281
 6148SOL    HW219344   5.957   6.472   4.129
 6149SOL     OW19345   3.429   5.139   3.103
 6149SOL    HW119346   3.353   5.087   3.062
 6149SOL    HW219347   3.482   5.078   3.162
 6150SOL     OW19348   4.903   6.163   5.953
 6150SOL    HW119349   4.941   6.254   5.939
 6150SOL    HW219350   4.878   6.152   6.050
 6151SOL     OW19351   5.129   2.371   5.438
 6151SOL    HW119352   5.032   2.371   5.416
 6151SOL    HW219353   5.148   2.302   5.508
 6152SOL     OW19354   5.703   4.554   6.317
 6152SOL    HW119355   5.688   4.460   6.287
 6152SOL    HW219356   5.659   4.567   6.406
 6153SOL     OW19357   4.503   3.962   1.438
 6153SOL    HW119358   4.505   4.011   1.525
 6153SOL    HW219359   4.577   3.895   1.435
 6154SOL     OW19360   5.947   2.412   2.791
 6154SOL    HW119361   5.940   2.456   2.880
 6154SOL    HW219362   5.938   2.480   2.718
 6155SOL     OW19363   0.403   3.771   4.791
 6155SOL    HW119364   0.372   3.691   4.740
 6155SOL    HW219365   0.362   3.854   4.752
 6156SOL     OW19366   5.727   6.701   2.858
 6156SOL    HW119367   5.748   6.746   2.771
 6156SOL    HW219368   5.735   6.766   2.933
 6157SOL     OW19369   1.783   1.777   4.384
 6157SOL    HW119370   1.718   1.789   4.459
 6157SOL    HW219371   1.870   1.819   4.410
 6158SOL     OW19372   4.246   0.723   6.724
 6158SOL    HW119373   4.325   0.683   6.771
 6158SOL    HW219374   4.278   0.777   6.646
 6159SOL     OW19375   5.458   2.859   0.677
 6159SOL    HW119376   5.448   2.895   0.770
 6159SOL    HW219377   5.549   2.820   0.666
 6160SOL     OW19378   5.643   5.911   1.266
 6160SOL    HW119379   5.716   5.935   1.329
 6160SOL    HW219380   5.668   5.829   1.215
 6161SOL     OW19381   5.322   0.220   6.448
 6161SOL    HW119382   5.250   0.211   6.380
 6161SOL    HW219383   5.282   0.248   6.535
 6162SOL     OW19384   0.507   5.447   4.731
 6162SOL    HW119385   0.450   5.365   4.728
 6162SOL    HW219386   0.541   5.467   4.639
 6163SOL     OW19387   5.949   3.895   0.518
 6163SOL    HW119388   5.878   3.867   0.453
 6163SOL    HW219389   6.039   3.883   0.476
 6164SOL     OW19390   3.155   1.166   0.897
 6164SOL    HW119391   3.106   1.081   0.920
 6164SOL    HW219392   3.152   1.228   0.975
 6165SOL     OW19393   4.155   6.122   0.562
 6165SOL    HW119394   4.251   6.096   0.550
 6165SOL    HW219395   4.149   6.217   0.591
 6166SOL     OW19396   2.625   1.139   5.988
 6166SOL    HW119397   2.581   1.213   5.940
 6166SOL    HW219398   2.556   1.079   6.029
 6167SOL     OW19399   0.500   4.171   2.909
 6167SOL    HW119400   0.441   4.240   2.867
 6167SOL    HW219401   0.460   4.140   2.995
 6168SOL     OW19402   0.417   3.774   2.333
 6168SOL    HW119403   0.322   3.804   2.342
 6168SOL    HW219404   0.478   3.846   2.365
 6169SOL     OW19405   2.323   4.155   2.240
 6169SOL    HW119406   2.276   4.228   2.290
 6169SOL    HW219407   2.422   4.175   2.238
 6170SOL     OW19408   6.842   3.445   5.306
 6170SOL    HW119409   6.940   3.465   5.315
 6170SOL    HW219410   6.828   3.346   5.304
 6171SOL     OW19411   0.500   0.425   6.938
 6171SOL    HW119412   0.559   0.368   6.995
 6171SOL    HW219413   0.507   0.520   6.968
 6172SOL     OW19414   0.622   2.992   2.806
 6172SOL    HW119415   0.669   2.909   2.836
 6172SOL    HW219416   0.628   3.062   2.877
 6173SOL     OW19417   6.380   7.017   2.691
 6173SOL    HW119418   6.298   6.994   2.743
 6173SOL    HW219419   6.359   7.017   2.593
 6174SOL     OW19420   5.413   4.084   3.023
 6174SOL    HW119421   5.492   4.026   3.004
 6174SOL    HW219422   5.330   4.038   2.993
 6175SOL     OW19423   2.475   1.013   4.992
 6175SOL    HW119424   2.414   1.079   4.949
 6175SOL    HW219425   2.565   1.017   4.948
 6176SOL     OW19426   4.354   4.234   5.281
 6176SOL    HW119427   4.334   4.305   5.213
 6176SOL    HW219428   4.452   4.232   5.300
 6177SOL     OW19429   6.312   1.360   2.155
 6177SOL    HW119430   6.304   1.452   2.116
 6177SOL    HW219431   6.297   1.292   2.082
 6178SOL     OW19432   5.093   4.050   2.211
 6178SOL    HW119433   4.996   4.058   2.188
 6178SOL    HW219434   5.113   4.103   2.293
 6179SOL     OW19435   6.121   5.023   2.527
 6179SOL    HW119436   6.072   5.024   2.614
 6179SOL    HW219437   6.219   5.017   2.544
 6180SOL     OW19438   2.758   4.708   0.155
 6180SOL    HW119439   2.819   4.735   0.229
 6180SOL    HW219440   2.723   4.790   0.110
 6181SOL     OW19441   4.842   5.222   6.279
 6181SOL    HW119442   4.841   5.209   6.378
 6181SOL    HW219443   4.890   5.306   6.257
 6182SOL     OW19444   3.423   3.226   0.087
 6182SOL    HW119445   3.415   3.162   0.163
 6182SOL    HW219446   3.424   3.319   0.121
 6183SOL     OW19447   0.947   2.171   0.930
 6183SOL    HW119448   1.039   2.172   0.969
 6183SOL    HW219449   0.909   2.079   0.938
 6184SOL     OW19450   2.917   0.779   5.915
 6184SOL    HW119451   2.851   0.854   5.909
 6184SOL    HW219452   2.921   0.732   5.827
 6185SOL     OW19453   3.427   2.728   5.285
 6185SOL    HW119454   3.365   2.768   5.217
 6185SOL    HW219455   3.522   2.743   5.257
 6186SOL     OW19456   6.301   2.004   2.094
 6186SOL    HW119457   6.240   1.938   2.138
 6186SOL    HW219458   6.354   1.957   2.023
 6187SOL     OW19459   5.304   2.221   5.187
 6187SOL    HW119460   5.302   2.148   5.256
 6187SOL    HW219461   5.211   2.251   5.168
 6188SOL     OW19462   1.809   2.186   5.106
 6188SOL    HW119463   1.732   2.238   5.144
 6188SOL    HW219464   1.829   2.108   5.165
 6189SOL     OW19465   5.251   6.368   2.491
 6189SOL    HW119466   5.213   6.362   2.399
 6189SOL    HW219467   5.241   6.279   2.537
 6190SOL     OW19468   6.951   2.348   5.197
 6190SOL    HW119469   7.016   2.310   5.262
 6190SOL    HW219470   6.884   2.279   5.172
 6191SOL     OW19471   3.519   3.633   6.704
 6191SOL    HW119472   3.510   3.704   6.773
 6191SOL    HW219473   3.463   3.554   6.729
 6192SOL     OW19474   2.410   2.021   0.467
 6192SOL    HW119475   2.313   2.046   0.475
 6192SOL    HW219476   2.435   2.016   0.370
 6193SOL     OW19477   5.169   5.363   0.207
 6193SOL    HW119478   5.073   5.359   0.233
 6193SOL    HW219479   5.204   5.456   0.220
 6194SOL     OW19480   6.337   0.221   5.929
 6194SOL    HW119481   6.282   0.272   5.863
 6194SOL    HW219482   6.371   0.285   5.999
 6195SOL     OW19483   5.979   6.607   5.311
 6195SOL    HW119484   5.982   6.509   5.294
 6195SOL    HW219485   5.883   6.636   5.322
 6196SOL     OW19486   4.921   3.820   3.293
 6196SOL    HW119487   5.019   3.803   3.299
 6196SOL    HW219488   4.883   3.770   3.215
 6197SOL     OW19489   2.871   5.453   1.972
 6197SOL    HW119490   2.950   5.507   2.000
 6197SOL    HW219491   2.790   5.484   2.022
 6198SOL     OW19492   6.540   6.506   6.486
 6198SOL    HW119493   6.614   6.480   6.425
 6198SOL    HW219494   6.454   6.507   6.435
 6199SOL     OW19495   1.133   6.973   0.713
 6199SOL    HW119496   1.173   6.926   0.634
 6199SOL    HW219497   1.181   6.945   0.796
 6200SOL     OW19498   2.003   2.196   2.432
 6200SOL    HW119499   1.968   2.194   2.525
 6200SOL    HW219500   1.970   2.279   2.386
 6201SOL     OW19501   6.804   3.704   3.828
 6201SOL    HW119502   6.782   3.789   3.876
 6201SOL    HW219503   6.848   3.726   3.740
 6202SOL     OW19504   6.233   1.333   2.810
 6202SOL    HW119505   6.316   1.359   2.762
 6202SOL    HW219506   6.228   1.233   2.818
 6203SOL     OW19507   6.450   5.925   1.960
 6203SOL    HW119508   6.405   5.843   1.996
 6203SOL    HW219509   6.438   6.000   2.025
 6204SOL     OW19510   1.851   0.101   5.168
 6204SOL    HW119511   1.849   0.106   5.069
 6204SOL    HW219512   1.870   0.192   5.206
 6205SOL     OW19513   4.914   4.338   2.836
 6205SOL    HW119514   4.958   4.376   2.918
 6205SOL    HW219515   4.859   4.259   2.862
 6206SOL     OW19516   4.985   2.054   3.861
 6206SOL    HW119517   5.057   1.985   3.864
 6206SOL    HW219518   4.916   2.034   3.931
 6207SOL     OW19519   2.142   5.867   4.089
 6207SOL    HW119520   2.081   5.945   4.077
 6207SOL    HW219521   2.091   5.782   4.077
 6208SOL     OW19522   3.864   2.792   5.566
 6208SOL    HW119523   3.907   2.754   5.484
 6208SOL    HW219524   3.794   2.859   5.539
 6209SOL     OW19525   3.996   3.820   0.803
 6209SOL    HW119526   3.963   3.735   0.843
 6209SOL    HW219527   4.050   3.800   0.722
 6210SOL     OW19528   4.539   2.437   3.366
 6210SOL    HW119529   4.605   2.364   3.384
 6210SOL    HW219530   4.463   2.401   3.312
 6211SOL     OW19531   5.037   5.453   4.755
 6211SOL    HW119532   4.941   5.426   4.755
 6211SOL    HW219533   5.058   5.503   4.671
 6212SOL     OW19534   4.286   4.472   5.946
 6212SOL    HW119535   4.294   4.489   5.847
 6212SOL    HW219536   4.200   4.425   5.966
 6213SOL     OW19537   4.391   5.989   0.469
 6213SOL    HW119538   4.403   6.061   0.401
 6213SOL    HW219539   4.473   5.983   0.526
 6214SOL     OW19540   6.183   5.905   5.614
 6214SOL    HW119541   6.236   5.898   5.530
 6214SOL    HW219542   6.220   5.843   5.683
 6215SOL     OW19543   5.099   2.516   6.123
 6215SOL    HW119544   5.171   2.474   6.178
 6215SOL    HW219545   5.054   2.588   6.176
 6216SOL     OW19546   4.759   2.663   2.970
 6216SOL    HW119547   4.692   2.593   2.997
 6216SOL    HW219548   4.849   2.621   2.963
 6217SOL     OW19549   1.050   4.316   2.313
 6217SOL    HW119550   1.054   4.217   2.329
 6217SOL    HW219551   1.029   4.363   2.399
 6218SOL     OW19552   4.612   6.947   0.262
 6218SOL    HW119553   4.521   6.989   0.257
 6218SOL    HW219554   4.670   6.987   0.191
 6219SOL     OW19555   1.584   1.030   5.653
 6219SOL    HW119556   1.607   1.100   5.585
 6219SOL    HW219557   1.575   0.941   5.608
 6220SOL     OW19558   4.168   0.769   0.979
 6220SOL    HW119559   4.117   0.833   0.922
 6220SOL    HW219560   4.234   0.819   1.036
 6221SOL     OW19561   6.242   5.791   6.507
 6221SOL    HW119562   6.185   5.783   6.425
 6221SOL    HW219563   6.309   5.717   6.508
 6222SOL     OW19564   6.445   1.593   2.844
 6222SOL    HW119565   6.472   1.541   2.762
 6222SOL    HW219566   6.345   1.595   2.850
 6223SOL     OW19567   0.621   5.451   3.955
 6223SOL    HW119568   0.620   5.410   3.863
 6223SOL    HW219569   0.640   5.379   4.022
 6224SOL     OW19570   4.308   1.950   6.926
 6224SOL    HW119571   4.239   1.900   6.874
 6224SOL    HW219572   4.363   2.006   6.865
 6225SOL     OW19573   4.136   7.009   6.449
 6225SOL    HW119574   4.229   0.021   6.456
 6225SOL    HW219575   4.090   7.020   6.537
 6226SOL     OW19576   0.618   1.387   4.230
 6226SOL    HW119577   0.703   1.341   4.256
 6226SOL    HW219578   0.571   1.417   4.313
 6227SOL     OW19579   3.194   3.966   5.115
 6227SOL    HW119580   3.239   4.054   5.103
 6227SOL    HW219581   3.124   3.953   5.044
 6228SOL     OW19582   1.964   2.573   3.920
 6228SOL    HW119583   2.042   2.541   3.973
 6228SOL    HW219584   1.888   2.594   3.983
 6229SOL     OW19585   0.666   3.808   4.097
 6229SOL    HW119586   0.588   3.857   4.057
 6229SOL    HW219587   0.729   3.782   4.024
 6230SOL     OW19588   0.892   1.010   1.983
 6230SOL    HW119589   0.892   0.940   1.911
 6230SOL    HW219590   0.978   1.007   2.033
 6231SOL     OW19591   0.463   4.776   0.297
 6231SOL    HW119592   0.548   4.810   0.258
 6231SOL    HW219593   0.484   4.710   0.370
 6232SOL     OW19594   4.701   1.436   6.756
 6232SOL    HW119595   4.609   1.398   6.767
 6232SOL    HW219596   4.761   1.399   6.827
 6233SOL     OW19597   0.384   3.641   1.553
 6233SOL    HW119598   0.445   3.716   1.527
 6233SOL    HW219599   0.290   3.675   1.557
 6234SOL     OW19600   5.884   0.186   4.445
 6234SOL    HW119601   5.834   0.116   4.497
 6234SOL    HW219602   5.966   0.145   4.405
 6235SOL     OW19603   6.771   1.162   2.382
 6235SOL    HW119604   6.690   1.213   2.353
 6235SOL    HW219605   6.838   1.159   2.307
 6236SOL     OW19606   0.563   4.744   1.145
 6236SOL    HW119607   0.542   4.754   1.048
 6236SOL    HW219608   0.485   4.703   1.192
 6237SOL     OW19609   3.678   0.790   1.145
 6237SOL    HW119610   3.590   0.760   1.107
 6237SOL    HW219611   3.752   0.747   1.093
 6238SOL     OW19612   2.419   6.691   4.747
 6238SOL    HW119613   2.329   6.699   4.790
 6238SOL    HW219614   2.462   6.781   4.742
 6239SOL     OW19615   4.474   1.130   2.894
 6239SOL    HW119616   4.388   1.078   2.893
 6239SOL    HW219617   4.548   1.074   2.857
 6240SOL     OW19618   4.081   3.297   4.304
 6240SOL    HW119619   4.085   3.388   4.262
 6240SOL    HW219620   4.065   3.228   4.233
 6241SOL     OW19621   3.107   6.587   3.922
 6241SOL    HW119622   3.189   6.567   3.868
 6241SOL    HW219623   3.036   6.520   3.901
 6242SOL     OW19624   2.763   2.018   3.720
 6242SOL    HW119625   2.825   1.951   3.681
 6242SOL    HW219626   2.772   2.105   3.672
 6243SOL     OW19627   5.545   1.573   6.011
 6243SOL    HW119628   5.615   1.504   5.993
 6243SOL    HW219629   5.583   1.644   6.070
 6244SOL     OW19630   4.215   4.763   3.111
 6244SOL    HW119631   4.193   4.853   3.147
 6244SOL    HW219632   4.297   4.727   3.156
 6245SOL     OW19633   0.636   4.314   2.549
 6245SOL    HW119634   0.637   4.266   2.462
 6245SOL    HW219635   0.563   4.277   2.606
 6246SOL     OW19636   6.917   6.450   4.514
 6246SOL    HW119637   6.866   6.471   4.597
 6246SOL    HW219638   7.012   6.430   4.538
 6247SOL     OW19639   5.963   6.341   2.655
 6247SOL    HW119640   6.061   6.324   2.665
 6247SOL    HW219641   5.925   6.370   2.742
 6248SOL     OW19642   3.710   3.038   6.553
 6248SOL    HW119643   3.745   2.944   6.555
 6248SOL    HW219644   3.688   3.063   6.458
 6249SOL     OW19645   5.945   2.985   1.244
 6249SOL    HW119646   5.915   3.069   1.291
 6249SOL    HW219647   5.869   2.949   1.190
 6250SOL     OW19648   0.208   0.493   0.435
 6250SOL    HW119649   0.229   0.434   0.357
 6250SOL    HW219650   0.133   0.555   0.411
 6251SOL     OW19651   2.828   6.403   4.404
 6251SOL    HW119652   2.808   6.501   4.410
 6251SOL    HW219653   2.854   6.381   4.310
 6252SOL     OW19654   2.393   5.735   0.177
 6252SOL    HW119655   2.369   5.698   0.087
 6252SOL    HW219656   2.493   5.745   0.183
 6253SOL     OW19657   3.293   5.046   4.487
 6253SOL    HW119658   3.324   5.057   4.582
 6253SOL    HW219659   3.372   5.032   4.428
 6254SOL     OW19660   6.745   6.137   0.107
 6254SOL    HW119661   6.647   6.153   0.116
 6254SOL    HW219662   6.764   6.039   0.120
 6255SOL     OW19663   0.101   1.198   1.593
 6255SOL    HW119664   0.197   1.220   1.580
 6255SOL    HW219665   0.064   1.248   1.671
 6256SOL     OW19666   4.693   5.729   2.405
 6256SOL    HW119667   4.631   5.741   2.327
 6256SOL    HW219668   4.774   5.677   2.375
 6257SOL     OW19669   4.207   4.286   1.488
 6257SOL    HW119670   4.237   4.211   1.548
 6257SOL    HW219671   4.120   4.260   1.445
 6258SOL     OW19672   4.379   6.209   5.585
 6258SOL    HW119673   4.316   6.176   5.515
 6258SOL    HW219674   4.343   6.292   5.627
 6259SOL     OW19675   2.788   0.903   5.163
 6259SOL    HW119676   2.761   0.807   5.156
 6259SOL    HW219677   2.833   0.931   5.078
 6260SOL     OW19678   2.381   1.518   0.221
 6260SOL    HW119679   2.353   1.431   0.262
 6260SOL    HW219680   2.438   1.569   0.287
 6261SOL     OW19681   3.694   6.182   1.632
 6261SOL    HW119682   3.651   6.133   1.556
 6261SOL    HW219683   3.793   6.172   1.627
 6262SOL     OW19684   6.591   0.331   2.019
 6262SOL    HW119685   6.532   0.410   2.004
 6262SOL    HW219686   6.681   0.349   1.979
 6263SOL     OW19687   6.217   6.378   5.319
 6263SOL    HW119688   6.222   6.433   5.403
 6263SOL    HW219689   6.130   6.331   5.314
 6264SOL     OW19690   1.643   6.525   1.200
 6264SOL    HW119691   1.670   6.544   1.295
 6264SOL    HW219692   1.636   6.611   1.150
 6265SOL     OW19693   4.618   1.662   0.249
 6265SOL    HW119694   4.540   1.606   0.276
 6265SOL    HW219695   4.591   1.721   0.172
 6266SOL     OW19696   2.689   5.382   3.506
 6266SOL    HW119697   2.637   5.467   3.514
 6266SOL    HW219698   2.637   5.315   3.452
 6267SOL     OW19699   1.219   6.752   4.880
 6267SOL    HW119700   1.260   6.843   4.870
 6267SOL    HW219701   1.275   6.697   4.942
 6268SOL     OW19702   3.711   0.471   1.560
 6268SOL    HW119703   3.684   0.380   1.593
 6268SOL    HW219704   3.750   0.523   1.636
 6269SOL     OW19705   5.617   5.437   0.938
 6269SOL    HW119706   5.681   5.386   0.995
 6269SOL    HW219707   5.651   5.440   0.844
 6270SOL     OW19708   1.880   6.266   0.287
 6270SOL    HW119709   1.835   6.251   0.376
 6270SOL    HW219710   1.869   6.362   0.261
 6271SOL     OW19711   6.035   3.212   6.566
 6271SOL    HW119712   5.961   3.174   6.511
 6271SOL    HW219713   5.997   3.255   6.648
 6272SOL     OW19714   6.919   6.968   0.263
 6272SOL    HW119715   6.906   6.968   0.363
 6272SOL    HW219716   6.958   0.032   0.235
 6273SOL     OW19717   6.903   0.474   1.713
 6273SOL    HW119718   6.853   0.546   1.760
 6273SOL    HW219719   6.872   0.385   1.746
 6274SOL     OW19720   3.221   5.601   4.912
 6274SOL    HW119721   3.202   5.576   5.006
 6274SOL    HW219722   3.193   5.527   4.851
 6275SOL     OW19723   1.818   5.126   7.008
 6275SOL    HW119724   1.914   5.144   0.005
 6275SOL    HW219725   1.784   5.196   6.945
 6276SOL     OW19726   1.546   6.018   2.836
 6276SOL    HW119727   1.465   6.048   2.887
 6276SOL    HW219728   1.608   5.971   2.898
 6277SOL     OW19729   5.494   3.223   1.513
 6277SOL    HW119730   5.424   3.220   1.584
 6277SOL    HW219731   5.575   3.173   1.544
 6278SOL     OW19732   2.872   0.231   6.290
 6278SOL    HW119733   2.789   0.227   6.235
 6278SOL    HW219734   2.893   0.326   6.313
 6279SOL     OW19735   2.663   6.969   1.477
 6279SOL    HW119736   2.732   6.950   1.408
 6279SOL    HW219737   2.689   6.926   1.564
 6280SOL     OW19738   6.783   1.829   6.870
 6280SOL    HW119739   6.811   1.747   6.921
 6280SOL    HW219740   6.854   1.852   6.803
 6281SOL     OW19741   5.900   4.237   5.282
 6281SOL    HW119742   5.822   4.269   5.336
 6281SOL    HW219743   5.984   4.244   5.337
 6282SOL     OW19744   0.461   3.435   5.808
 6282SOL    HW119745   0.444   3.396   5.899
 6282SOL    HW219746   0.524   3.512   5.817
 6283SOL     OW19747   1.142   6.120   5.389
 6283SOL    HW119748   1.169   6.040   5.336
 6283SOL    HW219749   1.080   6.092   5.462
 6284SOL     OW19750   2.217   4.608   6.571
 6284SOL    HW119751   2.288   4.663   6.527
 6284SOL    HW219752   2.174   4.661   6.644
 6285SOL     OW19753   0.853   3.641   3.783
 6285SOL    HW119754   0.842   3.543   3.768
 6285SOL    HW219755   0.862   3.660   3.880
 6286SOL     OW19756   1.156   2.990   5.421
 6286SOL    HW119757   1.245   2.949   5.400
 6286SOL    HW219758   1.147   3.076   5.370
 6287SOL     OW19759   4.528   4.854   4.979
 6287SOL    HW119760   4.594   4.806   4.921
 6287SOL    HW219761   4.576   4.908   5.048
 6288SOL     OW19762   3.907   3.178   6.760
 6288SOL    HW119763   3.993   3.219   6.791
 6288SOL    HW219764   3.926   3.092   6.713
 6289SOL     OW19765   2.862   4.691   5.894
 6289SOL    HW119766   2.781   4.709   5.838
 6289SOL    HW219767   2.905   4.606   5.864
 6290SOL     OW19768   5.300   5.489   4.963
 6290SOL    HW119769   5.201   5.504   4.970
 6290SOL    HW219770   5.348   5.554   5.021
 6291SOL     OW19771   3.183   3.168   3.023
 6291SOL    HW119772   3.226   3.113   2.951
 6291SOL    HW219773   3.166   3.110   3.103
 6292SOL     OW19774   1.802   3.058   4.643
 6292SOL    HW119775   1.862   3.026   4.717
 6292SOL    HW219776   1.787   3.156   4.652
 6293SOL     OW19777   4.565   1.421   6.233
 6293SOL    HW119778   4.569   1.474   6.317
 6293SOL    HW219779   4.534   1.328   6.254
 6294SOL     OW19780   1.751   1.481   3.011
 6294SOL    HW119781   1.741   1.487   2.911
 6294SOL    HW219782   1.828   1.538   3.040
 6295SOL     OW19783   5.739   4.072   5.699
 6295SOL    HW119784   5.773   4.126   5.622
 6295SOL    HW219785   5.721   4.132   5.777
 6296SOL     OW19786   0.224   2.422   6.384
 6296SOL    HW119787   0.196   2.493   6.448
 6296SOL    HW219788   0.213   2.455   6.290
 6297SOL     OW19789   5.887   0.706   4.247
 6297SOL    HW119790   5.876   0.745   4.156
 6297SOL    HW219791   5.813   0.735   4.307
 6298SOL     OW19792   6.315   5.209   0.792
 6298SOL    HW119793   6.399   5.155   0.787
 6298SOL    HW219794   6.339   5.305   0.804
 6299SOL     OW19795   4.798   1.875   2.494
 6299SOL    HW119796   4.733   1.944   2.528
 6299SOL    HW219797   4.792   1.870   2.395
 6300SOL     OW19798   3.118   0.184   6.660
 6300SOL    HW119799   3.197   0.196   6.600
 6300SOL    HW219800   3.111   0.088   6.687
 6301SOL     OW19801   3.625   6.244   0.563
 6301SOL    HW119802   3.532   6.256   0.597
 6301SOL    HW219803   3.637   6.149   0.532
 6302SOL     OW19804   2.811   1.038   5.839
 6302SOL    HW119805   2.740   1.094   5.882
 6302SOL    HW219806   2.890   1.095   5.818
 6303SOL     OW19807   0.882   5.618   5.624
 6303SOL    HW119808   0.955   5.685   5.635
 6303SOL    HW219809   0.921   5.530   5.597
 6304SOL     OW19810   4.393   1.216   3.339
 6304SOL    HW119811   4.371   1.294   3.281
 6304SOL    HW219812   4.340   1.136   3.310
 6305SOL     OW19813   0.777   6.066   5.901
 6305SOL    HW119814   0.850   5.998   5.893
 6305SOL    HW219815   0.813   6.148   5.943
 6306SOL     OW19816   0.087   4.454   4.013
 6306SOL    HW119817   0.033   4.407   3.944
 6306SOL    HW219818   0.166   4.497   3.970
 6307SOL     OW19819   4.040   3.676   3.306
 6307SOL    HW119820   4.062   3.689   3.403
 6307SOL    HW219821   3.987   3.592   3.295
 6308SOL     OW19822   0.613   2.385   0.061
 6308SOL    HW119823   0.518   2.397   0.089
 6308SOL    HW219824   0.630   2.289   0.038
 6309SOL     OW19825   1.895   6.069   4.110
 6309SOL    HW119826   1.872   6.077   4.207
 6309SOL    HW219827   1.921   6.159   4.074
 6310SOL     OW19828   1.311   6.302   3.261
 6310SOL    HW119829   1.252   6.360   3.317
 6310SOL    HW219830   1.306   6.207   3.294
 6311SOL     OW19831   4.867   0.704   6.096
 6311SOL    HW119832   4.852   0.789   6.147
 6311SOL    HW219833   4.782   0.677   6.051
 6312SOL     OW19834   3.846   6.356   6.664
 6312SOL    HW119835   3.774   6.421   6.640
 6312SOL    HW219836   3.815   6.297   6.738
 6313SOL     OW19837   5.677   6.124   3.769
 6313SOL    HW119838   5.595   6.181   3.777
 6313SOL    HW219839   5.661   6.053   3.701
 6314SOL     OW19840   1.963   6.951   2.068
 6314SOL    HW119841   1.929   0.020   2.053
 6314SOL    HW219842   1.931   6.918   2.157
 6315SOL     OW19843   2.378   2.636   3.925
 6315SOL    HW119844   2.420   2.713   3.878
 6315SOL    HW219845   2.278   2.640   3.912
 6316SOL     OW19846   5.590   1.314   4.765
 6316SOL    HW119847   5.537   1.274   4.839
 6316SOL    HW219848   5.686   1.284   4.773
 6317SOL     OW19849   4.511   5.072   2.033
 6317SOL    HW119850   4.546   5.049   1.942
 6317SOL    HW219851   4.583   5.056   2.101
 6318SOL     OW19852   6.454   7.001   6.150
 6318SOL    HW119853   6.438   0.051   6.216
 6318SOL    HW219854   6.436   0.011   6.057
 6319SOL     OW19855   5.855   1.820   4.663
 6319SOL    HW119856   5.805   1.761   4.727
 6319SOL    HW219857   5.805   1.824   4.576
 6320SOL     OW19858   6.607   0.470   4.806
 6320SOL    HW119859   6.685   0.415   4.834
 6320SOL    HW219860   6.617   0.497   4.710
 6321SOL     OW19861   5.630   2.152   0.314
 6321SOL    HW119862   5.676   2.134   0.228
 6321SOL    HW219863   5.555   2.217   0.300
 6322SOL     OW19864   1.533   0.933   1.343
 6322SOL    HW119865   1.614   0.922   1.399
 6322SOL    HW219866   1.552   0.899   1.250
 6323SOL     OW19867   2.881   3.158   1.634
 6323SOL    HW119868   2.881   3.201   1.544
 6323SOL    HW219869   2.965   3.105   1.646
 6324SOL     OW19870   4.464   1.570   0.871
 6324SOL    HW119871   4.411   1.552   0.788
 6324SOL    HW219872   4.403   1.576   0.949
 6325SOL     OW19873   1.875   2.613   3.370
 6325SOL    HW119874   1.789   2.664   3.360
 6325SOL    HW219875   1.894   2.598   3.467
 6326SOL     OW19876   5.383   4.504   5.724
 6326SOL    HW119877   5.309   4.481   5.788
 6326SOL    HW219878   5.421   4.593   5.748
 6327SOL     OW19879   0.046   0.221   3.102
 6327SOL    HW119880   0.104   0.213   3.021
 6327SOL    HW219881   7.022   0.309   3.101
 6328SOL     OW19882   4.657   3.831   5.731
 6328SOL    HW119883   4.708   3.745   5.725
 6328SOL    HW219884   4.691   3.895   5.663
 6329SOL     OW19885   1.498   2.992   5.535
 6329SOL    HW119886   1.584   2.980   5.585
 6329SOL    HW219887   1.480   2.909   5.481
 6330SOL     OW19888   5.317   1.307   3.332
 6330SOL    HW119889   5.335   1.405   3.327
 6330SOL    HW219890   5.218   1.291   3.329
 6331SOL     OW19891   0.324   3.195   2.980
 6331SOL    HW119892   0.308   3.242   3.066
 6331SOL    HW219893   0.378   3.254   2.919
 6332SOL     OW19894   2.590   1.273   0.514
 6332SOL    HW119895   2.581   1.327   0.598
 6332SOL    HW219896   2.516   1.298   0.451
 6333SOL     OW19897   4.785   1.168   0.711
 6333SOL    HW119898   4.833   1.249   0.746
 6333SOL    HW219899   4.773   1.177   0.612
 6334SOL     OW19900   1.854   1.254   1.734
 6334SOL    HW119901   1.872   1.339   1.784
 6334SOL    HW219902   1.859   1.272   1.636
 6335SOL     OW19903   6.091   1.373   0.883
 6335SOL    HW119904   6.014   1.346   0.941
 6335SOL    HW219905   6.176   1.364   0.936
 6336SOL     OW19906   0.780   3.025   6.002
 6336SOL    HW119907   0.770   3.037   5.903
 6336SOL    HW219908   0.852   2.957   6.019
 6337SOL     OW19909   4.438   5.698   4.760
 6337SOL    HW119910   4.537   5.684   4.750
 6337SOL    HW219911   4.406   5.651   4.842
 6338SOL     OW19912   2.842   1.565   3.970
 6338SOL    HW119913   2.762   1.618   3.998
 6338SOL    HW219914   2.899   1.546   4.051
 6339SOL     OW19915   0.894   4.461   3.292
 6339SOL    HW119916   0.978   4.437   3.244
 6339SOL    HW219917   0.845   4.531   3.240
 6340SOL     OW19918   1.878   4.459   1.715
 6340SOL    HW119919   1.812   4.387   1.733
 6340SOL    HW219920   1.847   4.545   1.756
 6341SOL     OW19921   0.890   4.223   3.665
 6341SOL    HW119922   0.854   4.198   3.755
 6341SOL    HW219923   0.963   4.159   3.639
 6342SOL     OW19924   1.892   1.851   1.813
 6342SOL    HW119925   1.892   1.927   1.748
 6342SOL    HW219926   1.982   1.843   1.856
 6343SOL     OW19927   2.349   5.621   1.182
 6343SOL    HW119928   2.360   5.523   1.167
 6343SOL    HW219929   2.438   5.667   1.173
 6344SOL     OW19930   6.554   1.607   4.009
 6344SOL    HW119931   6.607   1.555   3.943
 6344SOL    HW219932   6.551   1.558   4.096
 6345SOL     OW19933   5.719   3.493   1.630
 6345SOL    HW119934   5.794   3.528   1.573
 6345SOL    HW219935   5.631   3.522   1.592
 6346SOL     OW19936   6.705   4.615   5.394
 6346SOL    HW119937   6.773   4.601   5.467
 6346SOL    HW219938   6.613   4.604   5.432
 6347SOL     OW19939   2.143   1.769   2.803
 6347SOL    HW119940   2.113   1.831   2.875
 6347SOL    HW219941   2.078   1.770   2.728
 6348SOL     OW19942   6.681   2.385   5.974
 6348SOL    HW119943   6.641   2.294   5.962
 6348SOL    HW219944   6.777   2.376   5.998
 6349SOL     OW19945   6.915   1.385   6.860
 6349SOL    HW119946   6.956   1.304   6.901
 6349SOL    HW219947   6.956   1.401   6.769
 6350SOL     OW19948   1.698   5.431   1.845
 6350SOL    HW119949   1.780   5.459   1.796
 6350SOL    HW219950   1.673   5.502   1.911
 6351SOL     OW19951   5.681   3.247   2.452
 6351SOL    HW119952   5.734   3.173   2.412
 6351SOL    HW219953   5.609   3.209   2.511
 6352SOL     OW19954   2.621   0.684   4.758
 6352SOL    HW119955   2.667   0.629   4.689
 6352SOL    HW219956   2.546   0.632   4.799
 6353SOL     OW19957   3.634   6.087   6.536
 6353SOL    HW119958   3.579   6.170   6.544
 6353SOL    HW219959   3.657   6.072   6.440
 6354SOL     OW19960   4.357   4.946   2.437
 6354SOL    HW119961   4.401   4.941   2.348
 6354SOL    HW219962   4.293   4.869   2.446
 6355SOL     OW19963   2.627   5.239   1.030
 6355SOL    HW119964   2.593   5.290   1.108
 6355SOL    HW219965   2.609   5.290   0.946
 6356SOL     OW19966   6.050   4.221   6.818
 6356SOL    HW119967   6.083   4.139   6.770
 6356SOL    HW219968   5.956   4.205   6.849
 6357SOL     OW19969   5.449   1.465   1.216
 6357SOL    HW119970   5.354   1.448   1.192
 6357SOL    HW219971   5.470   1.423   1.304
 6358SOL     OW19972   1.189   2.144   6.876
 6358SOL    HW119973   1.090   2.155   6.881
 6358SOL    HW219974   1.220   2.169   6.784
 6359SOL     OW19975   5.614   6.136   0.701
 6359SOL    HW119976   5.625   6.176   0.611
 6359SOL    HW219977   5.517   6.123   0.721
 6360SOL     OW19978   0.979   2.708   1.934
 6360SOL    HW119979   0.917   2.748   1.865
 6360SOL    HW219980   1.021   2.625   1.897
 6361SOL     OW19981   0.776   0.621   6.587
 6361SOL    HW119982   0.720   0.690   6.541
 6361SOL    HW219983   0.834   0.575   6.520
 6362SOL     OW19984   1.181   5.427   0.093
 6362SOL    HW119985   1.082   5.437   0.093
 6362SOL    HW219986   1.221   5.489   0.161
 6363SOL     OW19987   2.622   4.722   3.657
 6363SOL    HW119988   2.549   4.678   3.710
 6363SOL    HW219989   2.620   4.688   3.563
 6364SOL     OW19990   2.454   2.642   4.728
 6364SOL    HW119991   2.392   2.689   4.791
 6364SOL    HW219992   2.405   2.569   4.681
 6365SOL     OW19993   5.760   5.244   3.362
 6365SOL    HW119994   5.822   5.317   3.332
 6365SOL    HW219995   5.666   5.270   3.341
 6366SOL     OW19996   5.844   6.881   4.784
 6366SOL    HW119997   5.834   6.946   4.859
 6366SOL    HW219998   5.915   6.814   4.807
 6367SOL     OW19999   1.946   2.159   2.730
 6367SOL    HW120000   1.864   2.191   2.778
 6367SOL    HW220001   2.008   2.115   2.795
 6368SOL     OW20002   4.854   3.010   4.786
 6368SOL    HW120003   4.857   3.076   4.710
 6368SOL    HW220004   4.865   3.059   4.872
 6369SOL     OW20005   2.847   5.714   6.612
 6369SOL    HW120006   2.941   5.732   6.584
 6369SOL    HW220007   2.784   5.766   6.554
 6370SOL     OW20008   5.734   3.216   4.464
 6370SOL    HW120009   5.641   3.247   4.444
 6370SOL    HW220010   5.739   3.117   4.455
 6371SOL     OW20011   5.405   3.951   2.277
 6371SOL    HW120012   5.349   4.033   2.287
 6371SOL    HW220013   5.407   3.924   2.181
 6372SOL     OW20014   6.672   1.408   2.946
 6372SOL    HW120015   6.703   1.407   2.850
 6372SOL    HW220016   6.613   1.487   2.961
 6373SOL     OW20017   4.944   4.264   1.707
 6373SOL    HW120018   4.920   4.176   1.748
 6373SOL    HW220019   4.879   4.334   1.736
 6374SOL     OW20020   4.473   2.978   0.367
 6374SOL    HW120021   4.552   2.918   0.381
 6374SOL    HW220022   4.395   2.942   0.419
 6375SOL     OW20023   6.355   2.971   1.788
 6375SOL    HW120024   6.439   2.957   1.839
 6375SOL    HW220025   6.351   3.066   1.756
 6376SOL     OW20026   3.385   0.977   6.687
 6376SOL    HW120027   3.456   0.908   6.699
 6376SOL    HW220028   3.318   0.971   6.761
 6377SOL     OW20029   6.879   0.687   0.152
 6377SOL    HW120030   6.894   0.589   0.141
 6377SOL    HW220031   6.832   0.704   0.238
 6378SOL     OW20032   5.400   5.583   3.227
 6378SOL    HW120033   5.437   5.587   3.134
 6378SOL    HW220034   5.347   5.666   3.246
 6379SOL     OW20035   2.470   5.999   0.128
 6379SOL    HW120036   2.396   5.992   0.062
 6379SOL    HW220037   2.454   5.935   0.203
 6380SOL     OW20038   1.385   3.810   4.940
 6380SOL    HW120039   1.444   3.739   4.903
 6380SOL    HW220040   1.442   3.880   4.986
 6381SOL     OW20041   4.283   2.702   0.131
 6381SOL    HW120042   4.216   2.635   0.161
 6381SOL    HW220043   4.236   2.781   0.093
 6382SOL     OW20044   1.990   1.630   1.606
 6382SOL    HW120045   1.976   1.716   1.656
 6382SOL    HW220046   2.081   1.631   1.565
 6383SOL     OW20047   1.917   2.499   2.479
 6383SOL    HW120048   2.015   2.503   2.456
 6383SOL    HW220049   1.893   2.578   2.535
 6384SOL     OW20050   6.244   2.726   2.216
 6384SOL    HW120051   6.237   2.745   2.314
 6384SOL    HW220052   6.175   2.659   2.189
 6385SOL     OW20053   6.816   3.133   1.264
 6385SOL    HW120054   6.852   3.127   1.357
 6385SOL    HW220055   6.890   3.116   1.199
 6386SOL     OW20056   2.455   3.752   0.226
 6386SOL    HW120057   2.513   3.783   0.151
 6386SOL    HW220058   2.366   3.797   0.220
 6387SOL     OW20059   6.929   0.639   6.423
 6387SOL    HW120060   6.987   0.677   6.351
 6387SOL    HW220061   6.842   0.610   6.385
 6388SOL     OW20062   6.387   5.355   2.081
 6388SOL    HW120063   6.319   5.427   2.089
 6388SOL    HW220064   6.472   5.393   2.044
 6389SOL     OW20065   1.260   0.968   6.611
 6389SOL    HW120066   1.277   0.875   6.579
 6389SOL    HW220067   1.249   1.028   6.532
 6390SOL     OW20068   6.663   1.358   6.183
 6390SOL    HW120069   6.615   1.282   6.226
 6390SOL    HW220070   6.681   1.430   6.250
 6391SOL     OW20071   0.743   1.517   5.239
 6391SOL    HW120072   0.685   1.581   5.289
 6391SOL    HW220073   0.757   1.435   5.295
 6392SOL     OW20074   4.243   6.685   3.405
 6392SOL    HW120075   4.216   6.774   3.442
 6392SOL    HW220076   4.282   6.629   3.478
 6393SOL     OW20077   6.870   5.608   0.607
 6393SOL    HW120078   6.958   5.575   0.642
 6393SOL    HW220079   6.796   5.550   0.641
 6394SOL     OW20080   1.162   5.601   1.365
 6394SOL    HW120081   1.152   5.529   1.434
 6394SOL    HW220082   1.228   5.669   1.397
 6395SOL     OW20083   2.003   4.736   3.274
 6395SOL    HW120084   2.102   4.748   3.276
 6395SOL    HW220085   1.980   4.659   3.215
 6396SOL     OW20086   0.797   3.736   0.498
 6396SOL    HW120087   0.835   3.689   0.577
 6396SOL    HW220088   0.697   3.728   0.500
 6397SOL     OW20089   5.933   2.947   3.561
 6397SOL    HW120090   5.910   2.900   3.476
 6397SOL    HW220091   5.890   2.899   3.638
 6398SOL     OW20092   1.556   7.004   1.067
 6398SOL    HW120093   1.600   6.953   0.993
 6398SOL    HW220094   1.595   0.072   1.072
 6399SOL     OW20095   3.031   0.937   6.100
 6399SOL    HW120096   2.965   0.971   6.166
 6399SOL    HW220097   2.986   0.871   6.039
 6400SOL     OW20098   1.086   6.017   2.943
 6400SOL    HW120099   1.103   6.066   2.857
 6400SOL    HW220100   1.009   6.058   2.991
 6401SOL     OW20101   3.709   6.351   3.664
 6401SOL    HW120102   3.741   6.292   3.590
 6401SOL    HW220103   3.660   6.429   3.626
 6402SOL     OW20104   1.978   5.216   4.793
 6402SOL    HW120105   2.066   5.174   4.772
 6402SOL    HW220106   1.986   5.274   4.874
 6403SOL     OW20107   4.884   5.990   5.008
 6403SOL    HW120108   4.881   6.089   5.012
 6403SOL    HW220109   4.862   5.959   4.915
 6404SOL     OW20110   4.077   0.101   2.021
 6404SOL    HW120111   4.013   0.037   2.063
 6404SOL    HW220112   4.157   0.052   1.988
 6405SOL     OW20113   5.352   1.811   2.198
 6405SOL    HW120114   5.309   1.844   2.282
 6405SOL    HW220115   5.359   1.887   2.133
 6406SOL     OW20116   0.956   2.221   2.930
 6406SOL    HW120117   0.872   2.180   2.894
 6406SOL    HW220118   0.994   2.163   3.002
 6407SOL     OW20119   2.004   6.139   2.730
 6407SOL    HW120120   2.088   6.126   2.783
 6407SOL    HW220121   2.027   6.176   2.640
 6408SOL     OW20122   6.549   0.731   0.763
 6408SOL    HW120123   6.535   0.826   0.739
 6408SOL    HW220124   6.634   0.722   0.816
 6409SOL     OW20125   6.052   5.024   3.205
 6409SOL    HW120126   6.004   4.936   3.211
 6409SOL    HW220127   6.144   5.009   3.170
 6410SOL     OW20128   2.180   1.355   5.580
 6410SOL    HW120129   2.199   1.445   5.618
 6410SOL    HW220130   2.178   1.360   5.480
 6411SOL     OW20131   0.511   2.374   2.069
 6411SOL    HW120132   0.462   2.425   1.999
 6411SOL    HW220133   0.601   2.347   2.035
 6412SOL     OW20134   3.284   0.066   0.307
 6412SOL    HW120135   3.364   0.005   0.313
 6412SOL    HW220136   3.208   0.017   0.265
 6413SOL     OW20137   5.063   5.636   3.901
 6413SOL    HW120138   5.095   5.637   3.806
 6413SOL    HW220139   4.970   5.672   3.905
 6414SOL     OW20140   1.599   0.047   0.072
 6414SOL    HW120141   1.511   0.081   0.104
 6414SOL    HW220142   1.660   0.124   0.052
 6415SOL     OW20143   0.568   2.394   3.112
 6415SOL    HW120144   0.520   2.344   3.185
 6415SOL    HW220145   0.575   2.335   3.031
 6416SOL     OW20146   2.490   6.939   0.329
 6416SOL    HW120147   2.407   6.976   0.370
 6416SOL    HW220148   2.468   6.893   0.243
 6417SOL     OW20149   3.692   1.810   6.993
 6417SOL    HW120150   3.658   1.856   6.910
 6417SOL    HW220151   3.643   1.846   0.049
 6418SOL     OW20152   4.634   5.077   0.713
 6418SOL    HW120153   4.591   5.016   0.779
 6418SOL    HW220154   4.731   5.052   0.703
 6419SOL     OW20155   0.905   6.781   0.067
 6419SOL    HW120156   0.848   6.784   0.150
 6419SOL    HW220157   0.847   6.795   7.010
 6420SOL     OW20158   1.867   4.286   4.025
 6420SOL    HW120159   1.864   4.193   4.061
 6420SOL    HW220160   1.878   4.283   3.926
 6421SOL     OW20161   5.036   0.520   1.560
 6421SOL    HW120162   4.945   0.559   1.566
 6421SOL    HW220163   5.102   0.581   1.604
 6422SOL     OW20164   6.392   2.099   4.796
 6422SOL    HW120165   6.420   2.195   4.789
 6422SOL    HW220166   6.296   2.091   4.770
 6423SOL     OW20167   2.383   4.294   4.188
 6423SOL    HW120168   2.391   4.367   4.119
 6423SOL    HW220169   2.411   4.207   4.147
 6424SOL     OW20170   6.769   4.858   4.396
 6424SOL    HW120171   6.864   4.866   4.367
 6424SOL    HW220172   6.763   4.871   4.495
 6425SOL     OW20173   6.811   5.906   3.453
 6425SOL    HW120174   6.848   5.998   3.469
 6425SOL    HW220175   6.828   5.879   3.359
 6426SOL     OW20176   4.470   4.497   4.700
 6426SOL    HW120177   4.408   4.556   4.649
 6426SOL    HW220178   4.452   4.507   4.798
 6427SOL     OW20179   3.563   2.902   3.396
 6427SOL    HW120180   3.592   2.995   3.371
 6427SOL    HW220181   3.592   2.838   3.325
 6428SOL     OW20182   4.836   2.325   0.193
 6428SOL    HW120183   4.934   2.340   0.204
 6428SOL    HW220184   4.800   2.388   0.124
 6429SOL     OW20185   2.316   0.758   5.331
 6429SOL    HW120186   2.396   0.777   5.388
 6429SOL    HW220187   2.240   0.816   5.360
 6430SOL     OW20188   6.787   0.257   4.981
 6430SOL    HW120189   6.826   0.241   5.072
 6430SOL    HW220190   6.723   0.184   4.960
 6431SOL     OW20191   3.785   5.025   1.751
 6431SOL    HW120192   3.788   4.999   1.655
 6431SOL    HW220193   3.695   5.003   1.789
 6432SOL     OW20194   4.705   4.164   5.903
 6432SOL    HW120195   4.654   4.229   5.960
 6432SOL    HW220196   4.707   4.075   5.948
 6433SOL     OW20197   2.491   5.718   6.712
 6433SOL    HW120198   2.513   5.622   6.694
 6433SOL    HW220199   2.481   5.767   6.626
 6434SOL     OW20200   3.383   5.616   5.789
 6434SOL    HW120201   3.425   5.556   5.858
 6434SOL    HW220202   3.453   5.647   5.725
 6435SOL     OW20203   4.879   0.731   0.859
 6435SOL    HW120204   4.941   0.752   0.934
 6435SOL    HW220205   4.918   0.765   0.773
 6436SOL     OW20206   0.064   4.078   4.191
 6436SOL    HW120207   0.034   4.046   4.281
 6436SOL    HW220208   0.152   4.124   4.199
 6437SOL     OW20209   0.559   1.716   5.341
 6437SOL    HW120210   0.512   1.638   5.300
 6437SOL    HW220211   0.528   1.728   5.436
 6438SOL     OW20212   0.313   6.073   0.379
 6438SOL    HW120213   0.307   6.014   0.459
 6438SOL    HW220214   0.382   6.036   0.316
 6439SOL     OW20215   5.826   0.325   2.559
 6439SOL    HW120216   5.864   0.312   2.467
 6439SOL    HW220217   5.841   0.420   2.588
 6440SOL     OW20218   2.482   1.304   6.433
 6440SOL    HW120219   2.503   1.297   6.531
 6440SOL    HW220220   2.512   1.393   6.399
 6441SOL     OW20221   0.752   1.218   2.752
 6441SOL    HW120222   0.681   1.275   2.793
 6441SOL    HW220223   0.717   1.173   2.671
 6442SOL     OW20224   3.156   2.893   5.223
 6442SOL    HW120225   3.077   2.953   5.207
 6442SOL    HW220226   3.126   2.809   5.267
 6443SOL     OW20227   4.950   2.650   0.828
 6443SOL    HW120228   4.955   2.584   0.903
 6443SOL    HW220229   5.040   2.691   0.815
 6444SOL     OW20230   6.739   3.405   4.851
 6444SOL    HW120231   6.653   3.383   4.896
 6444SOL    HW220232   6.724   3.412   4.752
 6445SOL     OW20233   2.902   3.487   3.421
 6445SOL    HW120234   2.877   3.558   3.487
 6445SOL    HW220235   2.854   3.503   3.335
 6446SOL     OW20236   2.440   0.851   6.533
 6446SOL    HW120237   2.379   0.922   6.497
 6446SOL    HW220238   2.521   0.894   6.573
 6447SOL     OW20239   6.332   3.599   1.550
 6447SOL    HW120240   6.396   3.553   1.489
 6447SOL    HW220241   6.245   3.549   1.552
 6448SOL     OW20242   4.037   5.472   1.494
 6448SOL    HW120243   4.004   5.378   1.487
 6448SOL    HW220244   4.120   5.475   1.549
 6449SOL     OW20245   2.631   5.649   1.089
 6449SOL    HW120246   2.645   5.716   1.016
 6449SOL    HW220247   2.715   5.639   1.141
 6450SOL     OW20248   0.390   4.135   1.236
 6450SOL    HW120249   0.457   4.096   1.174
 6450SOL    HW220250   0.403   4.235   1.240
 6451SOL     OW20251   3.648   2.186   1.406
 6451SOL    HW120252   3.736   2.210   1.364
 6451SOL    HW220253   3.606   2.112   1.354
 6452SOL     OW20254   5.084   2.406   3.309
 6452SOL    HW120255   5.119   2.463   3.234
 6452SOL    HW220256   5.105   2.449   3.396
 6453SOL     OW20257   3.402   0.308   1.091
 6453SOL    HW120258   3.401   0.364   1.174
 6453SOL    HW220259   3.476   0.241   1.097
 6454SOL     OW20260   5.604   2.434   3.061
 6454SOL    HW120261   5.567   2.519   3.098
 6454SOL    HW220262   5.584   2.429   2.963
 6455SOL     OW20263   6.328   3.661   3.295
 6455SOL    HW120264   6.264   3.634   3.223
 6455SOL    HW220265   6.389   3.732   3.261
 6456SOL     OW20266   6.137   1.265   3.418
 6456SOL    HW120267   6.236   1.259   3.405
 6456SOL    HW220268   6.113   1.359   3.443
 6457SOL     OW20269   4.661   0.468   2.060
 6457SOL    HW120270   4.708   0.504   1.980
 6457SOL    HW220271   4.575   0.425   2.031
 6458SOL     OW20272   0.615   4.739   3.774
 6458SOL    HW120273   0.686   4.737   3.704
 6458SOL    HW220274   0.592   4.833   3.796
 6459SOL     OW20275   6.641   2.881   2.381
 6459SOL    HW120276   6.603   2.911   2.468
 6459SOL    HW220277   6.612   2.942   2.308
 6460SOL     OW20278   0.805   5.567   6.869
 6460SOL    HW120279   0.808   5.663   6.840
 6460SOL    HW220280   0.715   5.530   6.850
 6461SOL     OW20281   3.003   5.310   0.808
 6461SOL    HW120282   2.939   5.260   0.749
 6461SOL    HW220283   3.096   5.283   0.787
 6462SOL     OW20284   1.662   3.550   5.481
 6462SOL    HW120285   1.694   3.513   5.394
 6462SOL    HW220286   1.669   3.479   5.551
 6463SOL     OW20287   4.621   1.950   1.413
 6463SOL    HW120288   4.666   1.869   1.449
 6463SOL    HW220289   4.546   1.976   1.474
 6464SOL     OW20290   0.703   5.766   4.478
 6464SOL    HW120291   0.777   5.834   4.481
 6464SOL    HW220292   0.741   5.678   4.447
 6465SOL     OW20293   3.903   1.387   3.118
 6465SOL    HW120294   3.905   1.438   3.204
 6465SOL    HW220295   3.821   1.412   3.067
 6466SOL     OW20296   0.368   2.898   6.945
 6466SOL    HW120297   0.464   2.925   6.950
 6466SOL    HW220298   0.358   2.804   6.979
 6467SOL     OW20299   3.226   1.634   0.736
 6467SOL    HW120300   3.240   1.664   0.831
 6467SOL    HW220301   3.132   1.601   0.725
 6468SOL     OW20302   2.886   0.706   0.717
 6468SOL    HW120303   2.810   0.660   0.672
 6468SOL    HW220304   2.887   0.803   0.691
 6469SOL     OW20305   3.459   1.776   3.514
 6469SOL    HW120306   3.536   1.715   3.531
 6469SOL    HW220307   3.378   1.721   3.491
 6470SOL     OW20308   6.100   1.872   7.010
 6470SOL    HW120309   6.187   1.899   0.026
 6470SOL    HW220310   6.073   1.938   6.940
 6471SOL     OW20311   6.857   5.963   5.503
 6471SOL    HW120312   6.867   6.005   5.413
 6471SOL    HW220313   6.923   6.003   5.566
 6472SOL     OW20314   6.674   6.009   2.889
 6472SOL    HW120315   6.761   6.055   2.906
 6472SOL    HW220316   6.649   5.953   2.968
 6473SOL     OW20317   2.171   0.982   3.910
 6473SOL    HW120318   2.138   1.076   3.900
 6473SOL    HW220319   2.221   0.974   3.997
 6474SOL     OW20320   3.635   5.683   5.535
 6474SOL    HW120321   3.729   5.653   5.519
 6474SOL    HW220322   3.598   5.723   5.451
 6475SOL     OW20323   5.639   4.364   2.800
 6475SOL    HW120324   5.664   4.405   2.888
 6475SOL    HW220325   5.637   4.435   2.730
 6476SOL     OW20326   3.487   1.400   6.243
 6476SOL    HW120327   3.423   1.471   6.216
 6476SOL    HW220328   3.440   1.331   6.298
 6477SOL     OW20329   6.223   6.420   1.460
 6477SOL    HW120330   6.291   6.418   1.387
 6477SOL    HW220331   6.256   6.367   1.539
 6478SOL     OW20332   3.528   5.693   1.812
 6478SOL    HW120333   3.519   5.790   1.788
 6478SOL    HW220334   3.465   5.639   1.757
 6479SOL     OW20335   3.591   6.303   4.206
 6479SOL    HW120336   3.666   6.368   4.216
 6479SOL    HW220337   3.629   6.212   4.188
 6480SOL     OW20338   3.118   1.481   6.810
 6480SOL    HW120339   3.200   1.531   6.783
 6480SOL    HW220340   3.111   1.478   6.909
 6481SOL     OW20341   3.335   2.520   1.731
 6481SOL    HW120342   3.281   2.439   1.708
 6481SOL    HW220343   3.431   2.495   1.740
 6482SOL     OW20344   6.564   3.971   4.894
 6482SOL    HW120345   6.471   3.989   4.861
 6482SOL    HW220346   6.579   3.872   4.896
 6483SOL     OW20347   1.201   5.748   5.409
 6483SOL    HW120348   1.121   5.797   5.374
 6483SOL    HW220349   1.224   5.782   5.500
 6484SOL     OW20350   2.817   0.767   4.224
 6484SOL    HW120351   2.725   0.739   4.253
 6484SOL    HW220352   2.817   0.784   4.125
 6485SOL     OW20353   2.361   6.968   4.228
 6485SOL    HW120354   2.376   0.002   4.147
 6485SOL    HW220355   2.401   7.012   4.308
 6486SOL     OW20356   1.657   5.001   3.273
 6486SOL    HW120357   1.662   5.100   3.266
 6486SOL    HW220358   1.735   4.967   3.326
 6487SOL     OW20359   6.407   4.581   3.585
 6487SOL    HW120360   6.432   4.593   3.681
 6487SOL    HW220361   6.326   4.636   3.564
 6488SOL     OW20362   4.461   5.534   4.511
 6488SOL    HW120363   4.459   5.572   4.603
 6488SOL    HW220364   4.393   5.580   4.454
 6489SOL     OW20365   4.198   3.341   5.832
 6489SOL    HW120366   4.184   3.412   5.901
 6489SOL    HW220367   4.290   3.304   5.840
 6490SOL     OW20368   1.932   1.958   0.056
 6490SOL    HW120369   2.006   1.959   0.124
 6490SOL    HW220370   1.853   1.910   0.094
 6491SOL     OW20371   2.445   0.281   0.620
 6491SOL    HW120372   2.427   0.335   0.538
 6491SOL    HW220373   2.541   0.252   0.620
 6492SOL     OW20374   3.492   3.782   4.992
 6492SOL    HW120375   3.583   3.745   4.978
 6492SOL    HW220376   3.491   3.838   5.075
 6493SOL     OW20377   1.277   4.037   5.840
 6493SOL    HW120378   1.372   4.011   5.857
 6493SOL    HW220379   1.262   4.048   5.742
 6494SOL     OW20380   6.113   0.113   2.116
 6494SOL    HW120381   6.032   0.163   2.087
 6494SOL    HW220382   6.173   0.097   2.038
 6495SOL     OW20383   6.375   0.129   4.348
 6495SOL    HW120384   6.341   0.221   4.371
 6495SOL    HW220385   6.406   0.128   4.253
 6496SOL     OW20386   4.330   0.967   1.521
 6496SOL    HW120387   4.367   1.002   1.607
 6496SOL    HW220388   4.299   0.873   1.534
 6497SOL     OW20389   6.995   1.581   1.233
 6497SOL    HW120390   7.010   1.605   1.138
 6497SOL    HW220391   0.002   1.657   1.292
 6498SOL     OW20392   1.417   4.582   4.698
 6498SOL    HW120393   1.369   4.530   4.628
 6498SOL    HW220394   1.358   4.656   4.732
 6499SOL     OW20395   5.609   3.281   3.718
 6499SOL    HW120396   5.539   3.332   3.669
 6499SOL    HW220397   5.693   3.334   3.722
 6500SOL     OW20398   1.657   3.972   3.218
 6500SOL    HW120399   1.740   3.933   3.258
 6500SOL    HW220400   1.617   4.037   3.282
 6501SOL     OW20401   6.249   1.823   1.001
 6501SOL    HW120402   6.288   1.915   1.010
 6501SOL    HW220403   6.216   1.810   0.907
 6502SOL     OW20404   6.376   3.869   1.599
 6502SOL    HW120405   6.364   3.773   1.574
 6502SOL    HW220406   6.359   3.880   1.697
 6503SOL     OW20407   6.465   3.212   5.578
 6503SOL    HW120408   6.505   3.257   5.658
 6503SOL    HW220409   6.538   3.190   5.513
 6504SOL     OW20410   4.689   5.968   6.785
 6504SOL    HW120411   4.637   6.039   6.739
 6504SOL    HW220412   4.787   5.989   6.779
 6505SOL     OW20413   6.157   5.775   0.444
 6505SOL    HW120414   6.102   5.720   0.506
 6505SOL    HW220415   6.223   5.717   0.397
 6506SOL     OW20416   0.319   3.397   2.250
 6506SOL    HW120417   0.366   3.398   2.339
 6506SOL    HW220418   0.384   3.420   2.178
 6507SOL     OW20419   4.201   4.628   6.845
 6507SOL    HW120420   4.278   4.623   6.781
 6507SOL    HW220421   4.121   4.584   6.805
 6508SOL     OW20422   0.826   6.080   2.104
 6508SOL    HW120423   0.749   6.084   2.040
 6508SOL    HW220424   0.908   6.116   2.059
 6509SOL     OW20425   3.006   1.331   5.892
 6509SOL    HW120426   2.944   1.356   5.965
 6509SOL    HW220427   2.995   1.394   5.815
 6510SOL     OW20428   4.447   5.972   5.691
 6510SOL    HW120429   4.545   5.991   5.699
 6510SOL    HW220430   4.401   6.050   5.647
 6511SOL     OW20431   2.985   0.833   6.969
 6511SOL    HW120432   2.958   0.771   6.895
 6511SOL    HW220433   2.977   0.787   0.033
 6512SOL     OW20434   3.913   0.874   0.864
 6512SOL    HW120435   3.885   0.946   0.927
 6512SOL    HW220436   3.886   0.785   0.900
 6513SOL     OW20437   2.429   5.470   3.867
 6513SOL    HW120438   2.522   5.436   3.883
 6513SOL    HW220439   2.365   5.420   3.925
 6514SOL     OW20440   5.731   0.036   5.958
 6514SOL    HW120441   5.750   6.992   6.029
 6514SOL    HW220442   5.640   0.022   5.921
 6515SOL     OW20443   2.265   4.948   2.584
 6515SOL    HW120444   2.270   5.047   2.591
 6515SOL    HW220445   2.242   4.923   2.490
 6516SOL     OW20446   0.134   3.417   1.222
 6516SOL    HW120447   0.128   3.506   1.268
 6516SOL    HW220448   0.205   3.362   1.266
 6517SOL     OW20449   0.057   2.576   0.235
 6517SOL    HW120450   0.046   2.497   0.295
 6517SOL    HW220451   7.008   2.575   0.166
 6518SOL     OW20452   1.173   1.201   3.344
 6518SOL    HW120453   1.125   1.216   3.258
 6518SOL    HW220454   1.272   1.209   3.329
 6519SOL     OW20455   0.865   1.561   3.004
 6519SOL    HW120456   0.879   1.467   3.034
 6519SOL    HW220457   0.946   1.592   2.954
 6520SOL     OW20458   0.185   5.780   0.356
 6520SOL    HW120459   0.143   5.705   0.407
 6520SOL    HW220460   0.115   5.825   0.301
 6521SOL     OW20461   1.547   3.349   4.465
 6521SOL    HW120462   1.624   3.348   4.529
 6521SOL    HW220463   1.555   3.427   4.403
 6522SOL     OW20464   2.609   3.524   5.476
 6522SOL    HW120465   2.694   3.513   5.426
 6522SOL    HW220466   2.552   3.442   5.465
 6523SOL     OW20467   5.910   0.288   6.729
 6523SOL    HW120468   5.849   0.210   6.715
 6523SOL    HW220469   5.860   0.361   6.777
 6524SOL     OW20470   2.254   2.489   1.875
 6524SOL    HW120471   2.192   2.548   1.823
 6524SOL    HW220472   2.200   2.429   1.934
 6525SOL     OW20473   0.931   5.055   3.318
 6525SOL    HW120474   1.018   5.056   3.368
 6525SOL    HW220475   0.856   5.035   3.382
 6526SOL     OW20476   0.195   6.814   0.521
 6526SOL    HW120477   0.127   6.883   0.546
 6526SOL    HW220478   0.286   6.856   0.524
 6527SOL     OW20479   0.506   2.174   0.437
 6527SOL    HW120480   0.417   2.130   0.445
 6527SOL    HW220481   0.494   2.269   0.408
 6528SOL     OW20482   5.353   0.808   6.117
 6528SOL    HW120483   5.285   0.770   6.179
 6528SOL    HW220484   5.329   0.902   6.095
 6529SOL     OW20485   0.113   1.144   1.997
 6529SOL    HW120486   0.061   1.068   1.958
 6529SOL    HW220487   0.199   1.110   2.033
 6530SOL     OW20488   0.823   2.445   2.342
 6530SOL    HW120489   0.743   2.488   2.384
 6530SOL    HW220490   0.805   2.348   2.329
 6531SOL     OW20491   4.247   3.817   5.300
 6531SOL    HW120492   4.329   3.769   5.332
 6531SOL    HW220493   4.199   3.761   5.234
 6532SOL     OW20494   1.313   0.732   0.506
 6532SOL    HW120495   1.280   0.750   0.599
 6532SOL    HW220496   1.255   0.782   0.441
 6533SOL     OW20497   4.759   3.833   0.309
 6533SOL    HW120498   4.708   3.913   0.342
 6533SOL    HW220499   4.793   3.851   0.217
 6534SOL     OW20500   6.864   4.428   2.913
 6534SOL    HW120501   6.921   4.509   2.900
 6534SOL    HW220502   6.769   4.456   2.929
 6535SOL     OW20503   6.306   3.476   5.421
 6535SOL    HW120504   6.279   3.558   5.471
 6535SOL    HW220505   6.406   3.470   5.419
 6536SOL     OW20506   1.117   3.987   4.700
 6536SOL    HW120507   1.192   4.002   4.765
 6536SOL    HW220508   1.137   3.907   4.644
 6537SOL     OW20509   6.034   5.485   3.970
 6537SOL    HW120510   6.116   5.543   3.968
 6537SOL    HW220511   6.028   5.433   3.885
 6538SOL     OW20512   2.430   3.291   5.549
 6538SOL    HW120513   2.515   3.241   5.568
 6538SOL    HW220514   2.400   3.336   5.633
 6539SOL     OW20515   6.391   0.728   5.750
 6539SOL    HW120516   6.345   0.655   5.699
 6539SOL    HW220517   6.411   0.696   5.843
 6540SOL     OW20518   4.990   2.722   6.285
 6540SOL    HW120519   4.903   2.691   6.248
 6540SOL    HW220520   5.027   2.795   6.227
 6541SOL     OW20521   5.915   0.983   4.788
 6541SOL    HW120522   5.853   0.962   4.712
 6541SOL    HW220523   6.006   1.002   4.752
 6542SOL     OW20524   1.525   4.158   4.171
 6542SOL    HW120525   1.542   4.198   4.081
 6542SOL    HW220526   1.587   4.199   4.238
 6543SOL     OW20527   3.840   2.162   5.034
 6543SOL    HW120528   3.799   2.091   4.977
 6543SOL    HW220529   3.892   2.226   4.976
 6544SOL     OW20530   0.865   6.496   2.126
 6544SOL    HW120531   0.813   6.478   2.209
 6544SOL    HW220532   0.808   6.475   2.046
 6545SOL     OW20533   4.442   0.241   1.109
 6545SOL    HW120534   4.500   0.236   1.028
 6545SOL    HW220535   4.484   0.188   1.183
 6546SOL     OW20536   5.162   3.482   6.149
 6546SOL    HW120537   5.168   3.382   6.145
 6546SOL    HW220538   5.252   3.521   6.164
 6547SOL     OW20539   6.032   5.507   6.738
 6547SOL    HW120540   6.016   5.556   6.652
 6547SOL    HW220541   6.064   5.415   6.719
 6548SOL     OW20542   0.486   2.150   5.352
 6548SOL    HW120543   0.414   2.136   5.284
 6548SOL    HW220544   0.553   2.076   5.344
 6549SOL     OW20545   5.022   0.215   1.592
 6549SOL    HW120546   4.967   0.297   1.608
 6549SOL    HW220547   5.119   0.238   1.600
 6550SOL     OW20548   6.208   0.044   3.052
 6550SOL    HW120549   6.125   0.049   3.107
 6550SOL    HW220550   6.196   0.097   2.968
 6551SOL     OW20551   2.968   3.698   1.240
 6551SOL    HW120552   3.060   3.659   1.232
 6551SOL    HW220553   2.938   3.730   1.150
 6552SOL     OW20554   2.372   6.627   0.482
 6552SOL    HW120555   2.389   6.637   0.580
 6552SOL    HW220556   2.458   6.636   0.432
 6553SOL     OW20557   6.988   1.173   3.098
 6553SOL    HW120558   6.937   1.159   3.183
 6553SOL    HW220559   0.000   1.085   3.065
 6554SOL     OW20560   3.014   1.467   4.442
 6554SOL    HW120561   2.919   1.485   4.465
 6554SOL    HW220562   3.045   1.386   4.492
 6555SOL     OW20563   0.026   2.832   4.226
 6555SOL    HW120564   0.010   2.861   4.132
 6555SOL    HW220565   6.961   2.826   4.274
 6556SOL     OW20566   4.987   2.795   3.218
 6556SOL    HW120567   4.894   2.792   3.255
 6556SOL    HW220568   4.990   2.745   3.132
 6557SOL     OW20569   2.074   0.534   2.146
 6557SOL    HW120570   2.086   0.473   2.067
 6557SOL    HW220571   2.153   0.595   2.152
 6558SOL     OW20572   5.233   4.976   0.438
 6558SOL    HW120573   5.268   4.971   0.531
 6558SOL    HW220574   5.304   5.013   0.378
 6559SOL     OW20575   6.808   2.729   6.051
 6559SOL    HW120576   6.838   2.796   5.983
 6559SOL    HW220577   6.882   2.664   6.069
 6560SOL     OW20578   5.699   4.894   0.295
 6560SOL    HW120579   5.647   4.809   0.286
 6560SOL    HW220580   5.640   4.966   0.332
 6561SOL     OW20581   3.914   4.463   0.944
 6561SOL    HW120582   4.000   4.420   0.970
 6561SOL    HW220583   3.874   4.414   0.867
 6562SOL     OW20584   5.764   3.169   1.362
 6562SOL    HW120585   5.708   3.242   1.323
 6562SOL    HW220586   5.726   3.142   1.451
 6563SOL     OW20587   5.185   5.618   5.264
 6563SOL    HW120588   5.158   5.698   5.209
 6563SOL    HW220589   5.284   5.620   5.278
 6564SOL     OW20590   0.079   3.724   2.917
 6564SOL    HW120591   0.144   3.765   2.854
 6564SOL    HW220592   7.009   3.740   2.884
 6565SOL     OW20593   5.684   0.297   3.277
 6565SOL    HW120594   5.605   0.298   3.216
 6565SOL    HW220595   5.724   0.206   3.280
 6566SOL     OW20596   4.212   5.969   2.477
 6566SOL    HW120597   4.291   5.992   2.535
 6566SOL    HW220598   4.241   5.964   2.382
 6567SOL     OW20599   4.082   0.513   0.910
 6567SOL    HW120600   4.112   0.437   0.968
 6567SOL    HW220601   4.133   0.595   0.934
 6568SOL     OW20602   3.807   1.163   1.417
 6568SOL    HW120603   3.852   1.207   1.495
 6568SOL    HW220604   3.805   1.064   1.431
 6569SOL     OW20605   0.358   4.002   5.814
 6569SOL    HW120606   0.299   4.006   5.733
 6569SOL    HW220607   0.427   4.074   5.809
 6570SOL     OW20608   3.956   6.357   1.839
 6570SOL    HW120609   3.889   6.420   1.800
 6570SOL    HW220610   3.911   6.273   1.867
 6571SOL     OW20611   2.834   5.713   2.928
 6571SOL    HW120612   2.736   5.718   2.911
 6571SOL    HW220613   2.851   5.657   3.009
 6572SOL     OW20614   0.697   5.995   3.887
 6572SOL    HW120615   0.750   5.977   3.805
 6572SOL    HW220616   0.603   5.962   3.874
 6573SOL     OW20617   1.248   1.042   3.082
 6573SOL    HW120618   1.217   1.054   2.988
 6573SOL    HW220619   1.319   1.110   3.102
 6574SOL     OW20620   1.614   5.916   2.291
 6574SOL    HW120621   1.599   5.929   2.389
 6574SOL    HW220622   1.562   5.984   2.240
 6575SOL     OW20623   6.696   0.394   2.753
 6575SOL    HW120624   6.662   0.302   2.773
 6575SOL    HW220625   6.783   0.409   2.800
 6576SOL     OW20626   4.032   5.674   0.686
 6576SOL    HW120627   4.125   5.691   0.720
 6576SOL    HW220628   4.038   5.624   0.599
 6577SOL     OW20629   1.939   2.214   3.427
 6577SOL    HW120630   2.036   2.235   3.438
 6577SOL    HW220631   1.928   2.117   3.406
 6578SOL     OW20632   1.599   4.969   1.987
 6578SOL    HW120633   1.520   4.910   2.004
 6578SOL    HW220634   1.679   4.932   2.035
 6579SOL     OW20635   6.667   1.453   4.251
 6579SOL    HW120636   6.757   1.485   4.220
 6579SOL    HW220637   6.631   1.518   4.318
 6580SOL     OW20638   1.018   0.098   6.994
 6580SOL    HW120639   0.983   0.161   6.924
 6580SOL    HW220640   0.978   0.007   6.980
 6581SOL     OW20641   1.259   1.926   7.012
 6581SOL    HW120642   1.177   1.881   0.024
 6581SOL    HW220643   1.233   2.009   6.963
 6582SOL     OW20644   6.671   1.142   2.890
 6582SOL    HW120645   6.728   1.115   2.812
 6582SOL    HW220646   6.712   1.222   2.934
 6583SOL     OW20647   4.688   6.433   0.064
 6583SOL    HW120648   4.718   6.510   0.121
 6583SOL    HW220649   4.711   6.452   6.992
 6584SOL     OW20650   3.041   2.226   1.010
 6584SOL    HW120651   3.048   2.289   1.088
 6584SOL    HW220652   3.122   2.169   1.006
 6585SOL     OW20653   5.662   0.039   1.137
 6585SOL    HW120654   5.714   6.980   1.116
 6585SOL    HW220655   5.565   0.015   1.146
 6586SOL     OW20656   6.187   2.322   6.461
 6586SOL    HW120657   6.110   2.384   6.473
 6586SOL    HW220658   6.271   2.367   6.494
 6587SOL     OW20659   1.696   4.182   5.362
 6587SOL    HW120660   1.688   4.192   5.461
 6587SOL    HW220661   1.627   4.238   5.316
 6588SOL     OW20662   0.648   3.433   0.778
 6588SOL    HW120663   0.681   3.394   0.692
 6588SOL    HW220664   0.710   3.407   0.852
 6589SOL     OW20665   0.054   0.825   1.981
 6589SOL    HW120666   0.139   0.877   1.995
 6589SOL    HW220667   0.073   0.727   1.996
 6590SOL     OW20668   1.326   0.173   4.199
 6590SOL    HW120669   1.340   0.161   4.297
 6590SOL    HW220670   1.246   0.122   4.170
 6591SOL     OW20671   5.489   4.237   4.255
 6591SOL    HW120672   5.403   4.199   4.292
 6591SOL    HW220673   5.507   4.325   4.299
 6592SOL     OW20674   5.345   5.939   2.888
 6592SOL    HW120675   5.395   5.996   2.822
 6592SOL    HW220676   5.379   5.956   2.980
 6593SOL     OW20677   2.609   2.069   2.799
 6593SOL    HW120678   2.574   2.159   2.824
 6593SOL    HW220679   2.586   2.050   2.703
 6594SOL     OW20680   4.379   1.634   6.704
 6594SOL    HW120681   4.400   1.537   6.719
 6594SOL    HW220682   4.283   1.650   6.723
 6595SOL     OW20683   1.967   2.551   5.046
 6595SOL    HW120684   1.912   2.503   5.115
 6595SOL    HW220685   1.908   2.580   4.971
 6596SOL     OW20686   5.625   5.924   2.631
 6596SOL    HW120687   5.703   5.985   2.617
 6596SOL    HW220688   5.550   5.951   2.571
 6597SOL     OW20689   1.747   5.066   2.311
 6597SOL    HW120690   1.783   5.035   2.399
 6597SOL    HW220691   1.777   5.003   2.239
 6598SOL     OW20692   1.717   4.750   4.195
 6598SOL    HW120693   1.804   4.795   4.177
 6598SOL    HW220694   1.715   4.662   4.148
 6599SOL     OW20695   5.735   5.411   6.149
 6599SOL    HW120696   5.827   5.396   6.183
 6599SOL    HW220697   5.735   5.486   6.083
 6600SOL     OW20698   4.182   6.914   5.389
 6600SOL    HW120699   4.120   6.887   5.463
 6600SOL    HW220700   4.271   6.868   5.402
 6601SOL     OW20701   1.492   2.476   1.923
 6601SOL    HW120702   1.476   2.509   1.830
 6601SOL    HW220703   1.574   2.418   1.924
 6602SOL     OW20704   2.310   6.365   1.502
 6602SOL    HW120705   2.378   6.292   1.509
 6602SOL    HW220706   2.225   6.336   1.547
 6603SOL     OW20707   0.459   3.104   3.363
 6603SOL    HW120708   0.506   3.189   3.388
 6603SOL    HW220709   0.504   3.064   3.283
 6604SOL     OW20710   1.580   6.682   2.339
 6604SOL    HW120711   1.495   6.641   2.305
 6604SOL    HW220712   1.564   6.777   2.364
 6605SOL     OW20713   6.505   5.549   1.414
 6605SOL    HW120714   6.417   5.524   1.455
 6605SOL    HW220715   6.546   5.469   1.372
 6606SOL     OW20716   1.820   3.618   3.861
 6606SOL    HW120717   1.916   3.627   3.834
 6606SOL    HW220718   1.764   3.606   3.779
 6607SOL     OW20719   5.715   3.801   3.635
 6607SOL    HW120720   5.815   3.802   3.641
 6607SOL    HW220721   5.677   3.754   3.714
 6608SOL     OW20722   0.302   6.694   5.944
 6608SOL    HW120723   0.241   6.658   6.014
 6608SOL    HW220724   0.322   6.623   5.877
 6609SOL     OW20725   4.513   1.964   5.805
 6609SOL    HW120726   4.571   1.939   5.728
 6609SOL    HW220727   4.432   2.012   5.771
 6610SOL     OW20728   3.172   5.104   1.033
 6610SOL    HW120729   3.242   5.114   0.963
 6610SOL    HW220730   3.130   5.193   1.051
 6611SOL     OW20731   4.565   1.874   4.206
 6611SOL    HW120732   4.620   1.914   4.280
 6611SOL    HW220733   4.484   1.930   4.191
 6612SOL     OW20734   5.858   1.922   6.159
 6612SOL    HW120735   5.877   1.911   6.061
 6612SOL    HW220736   5.925   1.986   6.198
 6613SOL     OW20737   5.456   0.333   6.848
 6613SOL    HW120738   5.391   0.276   6.900
 6613SOL    HW220739   5.405   0.399   6.793
 6614SOL     OW20740   4.398   5.967   1.647
 6614SOL    HW120741   4.411   6.058   1.606
 6614SOL    HW220742   4.361   5.905   1.578
 6615SOL     OW20743   3.205   5.310   0.468
 6615SOL    HW120744   3.287   5.271   0.427
 6615SOL    HW220745   3.125   5.262   0.434
 6616SOL     OW20746   5.053   1.259   5.457
 6616SOL    HW120747   4.998   1.224   5.381
 6616SOL    HW220748   5.116   1.329   5.423
 6617SOL     OW20749   4.283   0.642   3.935
 6617SOL    HW120750   4.314   0.575   3.868
 6617SOL    HW220751   4.361   0.697   3.967
 6618SOL     OW20752   6.873   2.266   2.418
 6618SOL    HW120753   6.919   2.348   2.452
 6618SOL    HW220754   6.775   2.273   2.436
 6619SOL     OW20755   5.134   6.427   3.959
 6619SOL    HW120756   5.170   6.495   4.022
 6619SOL    HW220757   5.040   6.404   3.984
 6620SOL     OW20758   0.750   3.339   3.778
 6620SOL    HW120759   0.829   3.312   3.722
 6620SOL    HW220760   0.733   3.268   3.847
 6621SOL     OW20761   3.820   3.057   5.067
 6621SOL    HW120762   3.837   3.129   5.000
 6621SOL    HW220763   3.721   3.043   5.076
 6622SOL     OW20764   0.243   5.906   0.605
 6622SOL    HW120765   0.153   5.934   0.639
 6622SOL    HW220766   0.231   5.847   0.525
 6623SOL     OW20767   3.546   4.188   5.571
 6623SOL    HW120768   3.482   4.195   5.494
 6623SOL    HW220769   3.537   4.097   5.613
 6624SOL     OW20770   1.275   2.214   4.300
 6624SOL    HW120771   1.339   2.158   4.247
 6624SOL    HW220772   1.237   2.285   4.241
 6625SOL     OW20773   6.024   2.674   5.613
 6625SOL    HW120774   5.946   2.642   5.666
 6625SOL    HW220775   6.100   2.695   5.674
 6626SOL     OW20776   2.626   6.252   5.338
 6626SOL    HW120777   2.633   6.351   5.335
 6626SOL    HW220778   2.708   6.213   5.380
 6627SOL     OW20779   1.254   6.058   4.786
 6627SOL    HW120780   1.169   6.094   4.748
 6627SOL    HW220781   1.246   5.960   4.801
 6628SOL     OW20782   4.854   5.586   4.248
 6628SOL    HW120783   4.922   5.521   4.281
 6628SOL    HW220784   4.833   5.566   4.152
 6629SOL     OW20785   5.386   6.192   0.034
 6629SOL    HW120786   5.412   6.186   6.961
 6629SOL    HW220787   5.455   6.244   0.085
 6630SOL     OW20788   2.262   1.688   1.423
 6630SOL    HW120789   2.348   1.735   1.404
 6630SOL    HW220790   2.232   1.638   1.341
 6631SOL     OW20791   2.195   4.776   6.130
 6631SOL    HW120792   2.097   4.798   6.134
 6631SOL    HW220793   2.223   4.767   6.035
 6632SOL     OW20794   1.148   0.803   0.309
 6632SOL    HW120795   1.127   0.733   0.241
 6632SOL    HW220796   1.116   0.892   0.275
 6633SOL     OW20797   3.317   5.574   6.489
 6633SOL    HW120798   3.245   5.643   6.479
 6633SOL    HW220799   3.361   5.585   6.578
 6634SOL     OW20800   4.993   2.038   4.817
 6634SOL    HW120801   5.062   1.987   4.764
 6634SOL    HW220802   4.908   1.987   4.819
 6635SOL     OW20803   5.294   4.824   2.451
 6635SOL    HW120804   5.306   4.725   2.454
 6635SOL    HW220805   5.311   4.862   2.542
 6636SOL     OW20806   3.403   6.581   1.354
 6636SOL    HW120807   3.449   6.641   1.420
 6636SOL    HW220808   3.471   6.524   1.308
 6637SOL     OW20809   1.135   1.150   0.496
 6637SOL    HW120810   1.212   1.212   0.512
 6637SOL    HW220811   1.134   1.122   0.400
 6638SOL     OW20812   3.180   3.539   3.814
 6638SOL    HW120813   3.195   3.516   3.718
 6638SOL    HW220814   3.112   3.612   3.821
 6639SOL     OW20815   5.150   3.011   1.435
 6639SOL    HW120816   5.151   3.092   1.378
 6639SOL    HW220817   5.130   2.930   1.380
 6640SOL     OW20818   1.403   2.757   4.994
 6640SOL    HW120819   1.368   2.850   4.990
 6640SOL    HW220820   1.343   2.696   4.942
 6641SOL     OW20821   4.088   2.052   1.050
 6641SOL    HW120822   4.103   2.150   1.035
 6641SOL    HW220823   4.113   2.029   1.144
 6642SOL     OW20824   1.477   5.710   0.348
 6642SOL    HW120825   1.487   5.735   0.445
 6642SOL    HW220826   1.484   5.610   0.338
 6643SOL     OW20827   4.449   0.115   0.440
 6643SOL    HW120828   4.380   0.151   0.378
 6643SOL    HW220829   4.516   0.186   0.461
 6644SOL     OW20830   1.619   6.406   3.382
 6644SOL    HW120831   1.627   6.368   3.290
 6644SOL    HW220832   1.631   6.505   3.378
 6645SOL     OW20833   6.260   2.599   0.869
 6645SOL    HW120834   6.251   2.586   0.771
 6645SOL    HW220835   6.185   2.553   0.916
 6646SOL     OW20836   4.523   0.453   6.653
 6646SOL    HW120837   4.437   0.460   6.601
 6646SOL    HW220838   4.513   0.500   6.740
 6647SOL     OW20839   4.458   5.126   1.148
 6647SOL    HW120840   4.479   5.041   1.101
 6647SOL    HW220841   4.372   5.116   1.198
 6648SOL     OW20842   2.232   6.197   5.581
 6648SOL    HW120843   2.235   6.295   5.602
 6648SOL    HW220844   2.290   6.178   5.502
 6649SOL     OW20845   6.143   2.140   6.881
 6649SOL    HW120846   6.160   2.084   6.800
 6649SOL    HW220847   6.213   2.122   6.949
 6650SOL     OW20848   2.790   1.350   5.151
 6650SOL    HW120849   2.865   1.405   5.187
 6650SOL    HW220850   2.782   1.265   5.203
 6651SOL     OW20851   0.151   1.712   6.772
 6651SOL    HW120852   0.128   1.653   6.850
 6651SOL    HW220853   0.235   1.680   6.730
 6652SOL     OW20854   0.783   4.565   0.259
 6652SOL    HW120855   0.854   4.602   0.319
 6652SOL    HW220856   0.723   4.505   0.312
 6653SOL     OW20857   5.596   3.475   0.530
 6653SOL    HW120858   5.507   3.461   0.487
 6653SOL    HW220859   5.599   3.427   0.617
 6654SOL     OW20860   0.572   4.366   3.198
 6654SOL    HW120861   0.605   4.274   3.219
 6654SOL    HW220862   0.472   4.366   3.193
 6655SOL     OW20863   6.941   5.064   1.699
 6655SOL    HW120864   6.875   5.096   1.767
 6655SOL    HW220865   6.962   5.138   1.635
 6656SOL     OW20866   4.316   1.231   2.619
 6656SOL    HW120867   4.223   1.211   2.589
 6656SOL    HW220868   4.316   1.314   2.675
 6657SOL     OW20869   5.929   2.235   4.429
 6657SOL    HW120870   5.836   2.260   4.455
 6657SOL    HW220871   5.988   2.316   4.431
 6658SOL     OW20872   6.095   6.062   4.949
 6658SOL    HW120873   6.004   6.096   4.974
 6658SOL    HW220874   6.099   6.047   4.850
 6659SOL     OW20875   1.165   5.080   1.576
 6659SOL    HW120876   1.110   5.003   1.544
 6659SOL    HW220877   1.210   5.056   1.662
 6660SOL     OW20878   0.236   6.489   3.376
 6660SOL    HW120879   0.333   6.468   3.371
 6660SOL    HW220880   0.192   6.431   3.444
 6661SOL     OW20881   3.450   6.518   4.143
 6661SOL    HW120882   3.496   6.433   4.171
 6661SOL    HW220883   3.485   6.548   4.055
 6662SOL     OW20884   2.973   0.114   2.363
 6662SOL    HW120885   2.900   0.145   2.303
 6662SOL    HW220886   2.969   0.015   2.372
 6663SOL     OW20887   1.466   4.330   5.811
 6663SOL    HW120888   1.445   4.422   5.779
 6663SOL    HW220889   1.388   4.294   5.863
 6664SOL     OW20890   3.155   0.785   1.276
 6664SOL    HW120891   3.228   0.841   1.238
 6664SOL    HW220892   3.148   0.699   1.225
 6665SOL     OW20893   2.685   0.584   5.831
 6665SOL    HW120894   2.738   0.500   5.819
 6665SOL    HW220895   2.729   0.659   5.782
 6666SOL     OW20896   4.993   6.371   5.323
 6666SOL    HW120897   4.913   6.423   5.290
 6666SOL    HW220898   4.993   6.369   5.423
 6667SOL     OW20899   0.013   6.305   6.310
 6667SOL    HW120900   0.093   6.257   6.274
 6667SOL    HW220901   6.967   6.311   6.239
 6668SOL     OW20902   6.799   6.209   0.746
 6668SOL    HW120903   6.758   6.241   0.661
 6668SOL    HW220904   6.816   6.287   0.806
 6669SOL     OW20905   1.379   1.683   2.272
 6669SOL    HW120906   1.341   1.755   2.330
 6669SOL    HW220907   1.328   1.679   2.186
 6670SOL     OW20908   3.648   2.724   0.932
 6670SOL    HW120909   3.709   2.674   0.992
 6670SOL    HW220910   3.688   2.813   0.909
 6671SOL     OW20911   5.373   5.892   0.047
 6671SOL    HW120912   5.324   5.975   0.071
 6671SOL    HW220913   5.470   5.903   0.069
 6672SOL     OW20914   0.882   1.828   0.681
 6672SOL    HW120915   0.846   1.898   0.618
 6672SOL    HW220916   0.850   1.847   0.773
 6673SOL     OW20917   5.869   3.896   4.341
 6673SOL    HW120918   5.829   3.841   4.414
 6673SOL    HW220919   5.827   3.986   4.340
 6674SOL     OW20920   0.264   2.644   0.007
 6674SOL    HW120921   0.258   2.651   0.107
 6674SOL    HW220922   0.173   2.646   6.991
 6675SOL     OW20923   4.302   2.573   6.893
 6675SOL    HW120924   4.361   2.492   6.899
 6675SOL    HW220925   4.262   2.591   6.983
 6676SOL     OW20926   1.424   3.765   3.821
 6676SOL    HW120927   1.476   3.847   3.847
 6676SOL    HW220928   1.332   3.792   3.792
 6677SOL     OW20929   0.629   1.650   0.399
 6677SOL    HW120930   0.677   1.563   0.410
 6677SOL    HW220931   0.688   1.725   0.428
 6678SOL     OW20932   1.603   5.128   0.358
 6678SOL    HW120933   1.580   5.136   0.455
 6678SOL    HW220934   1.651   5.210   0.327
 6679SOL     OW20935   2.152   1.261   3.938
 6679SOL    HW120936   2.227   1.319   3.906
 6679SOL    HW220937   2.066   1.291   3.896
 6680SOL     OW20938   5.344   6.371   0.385
 6680SOL    HW120939   5.341   6.450   0.446
 6680SOL    HW220940   5.280   6.386   0.309
 6681SOL     OW20941   4.074   5.734   1.580
 6681SOL    HW120942   4.023   5.658   1.539
 6681SOL    HW220943   4.043   5.748   1.674
 6682SOL     OW20944   3.283   5.354   6.700
 6682SOL    HW120945   3.352   5.426   6.705
 6682SOL    HW220946   3.234   5.361   6.613
 6683SOL     OW20947   6.442   3.202   6.805
 6683SOL    HW120948   6.496   3.162   6.731
 6683SOL    HW220949   6.353   3.156   6.808
 6684SOL     OW20950   3.423   6.806   1.507
 6684SOL    HW120951   3.421   6.791   1.605
 6684SOL    HW220952   3.369   6.886   1.483
 6685SOL     OW20953   4.131   3.291   6.859
 6685SOL    HW120954   4.133   3.277   6.958
 6685SOL    HW220955   4.220   3.321   6.827
 6686SOL     OW20956   5.472   5.423   3.960
 6686SOL    HW120957   5.507   5.405   3.868
 6686SOL    HW220958   5.549   5.437   4.023
 6687SOL     OW20959   6.422   2.073   1.732
 6687SOL    HW120960   6.516   2.095   1.756
 6687SOL    HW220961   6.392   2.129   1.655
 6688SOL     OW20962   4.014   5.385   0.697
 6688SOL    HW120963   4.071   5.304   0.683
 6688SOL    HW220964   4.045   5.435   0.777
 6689SOL     OW20965   2.864   5.122   6.027
 6689SOL    HW120966   2.913   5.206   6.007
 6689SOL    HW220967   2.927   5.044   6.021
 6690SOL     OW20968   1.003   0.166   5.580
 6690SOL    HW120969   1.042   0.099   5.643
 6690SOL    HW220970   0.930   0.217   5.627
 6691SOL     OW20971   2.661   2.370   2.535
 6691SOL    HW120972   2.723   2.325   2.472
 6691SOL    HW220973   2.592   2.305   2.567
 6692SOL     OW20974   4.592   5.057   1.378
 6692SOL    HW120975   4.659   4.983   1.368
 6692SOL    HW220976   4.558   5.084   1.288
 6693SOL     OW20977   4.368   1.848   4.503
 6693SOL    HW120978   4.286   1.807   4.543
 6693SOL    HW220979   4.370   1.829   4.404
 6694SOL     OW20980   3.827   5.585   0.854
 6694SOL    HW120981   3.895   5.601   0.783
 6694SOL    HW220982   3.791   5.492   0.846
 6695SOL     OW20983   2.669   2.248   6.714
 6695SOL    HW120984   2.707   2.325   6.765
 6695SOL    HW220985   2.611   2.283   6.640
 6696SOL     OW20986   4.093   3.803   4.595
 6696SOL    HW120987   4.130   3.843   4.512
 6696SOL    HW220988   4.049   3.715   4.574
 6697SOL     OW20989   4.581   2.449   2.208
 6697SOL    HW120990   4.548   2.386   2.137
 6697SOL    HW220991   4.518   2.447   2.285
 6698SOL     OW20992   3.597   4.336   1.581
 6698SOL    HW120993   3.509   4.384   1.582
 6698SOL    HW220994   3.670   4.400   1.603
 6699SOL     OW20995   1.067   4.567   5.356
 6699SOL    HW120996   1.016   4.518   5.286
 6699SOL    HW220997   1.070   4.513   5.440
 6700SOL     OW20998   6.130   0.566   0.382
 6700SOL    HW120999   6.097   0.599   0.470
 6700SOL    HW221000   6.228   0.581   0.375
 6701SOL     OW21001   5.855   6.774   1.402
 6701SOL    HW121002   5.777   6.824   1.439
 6701SOL    HW221003   5.874   6.805   1.309
 6702SOL     OW21004   2.767   2.203   0.954
 6702SOL    HW121005   2.859   2.235   0.979
 6702SOL    HW221006   2.762   2.190   0.855
 6703SOL     OW21007   1.638   1.904   6.035
 6703SOL    HW121008   1.560   1.898   5.973
 6703SOL    HW221009   1.711   1.957   5.993
 6704SOL     OW21010   3.769   1.547   5.230
 6704SOL    HW121011   3.699   1.616   5.212
 6704SOL    HW221012   3.847   1.562   5.170
 6705SOL     OW21013   6.362   3.242   1.781
 6705SOL    HW121014   6.294   3.263   1.852
 6705SOL    HW221015   6.452   3.275   1.810
 6706SOL     OW21016   0.466   6.643   1.600
 6706SOL    HW121017   0.466   6.713   1.673
 6706SOL    HW221018   0.556   6.600   1.597
 6707SOL     OW21019   5.520   0.534   2.405
 6707SOL    HW121020   5.516   0.450   2.350
 6707SOL    HW221021   5.481   0.515   2.496
 6708SOL     OW21022   0.478   4.081   1.492
 6708SOL    HW121023   0.502   3.985   1.504
 6708SOL    HW221024   0.461   4.100   1.395
 6709SOL     OW21025   1.323   4.697   2.243
 6709SOL    HW121026   1.370   4.617   2.280
 6709SOL    HW221027   1.226   4.676   2.232
 6710SOL     OW21028   4.689   1.267   1.679
 6710SOL    HW121029   4.724   1.185   1.633
 6710SOL    HW221030   4.608   1.300   1.632
 6711SOL     OW21031   4.771   6.338   6.255
 6711SOL    HW121032   4.861   6.296   6.262
 6711SOL    HW221033   4.744   6.374   6.344
 6712SOL     OW21034   6.056   3.545   0.654
 6712SOL    HW121035   6.067   3.489   0.736
 6712SOL    HW221036   6.133   3.608   0.645
 6713SOL     OW21037   1.550   7.012   4.361
 6713SOL    HW121038   1.499   7.022   4.276
 6713SOL    HW221039   1.509   0.047   4.432
 6714SOL     OW21040   5.841   1.232   0.182
 6714SOL    HW121041   5.885   1.208   0.269
 6714SOL    HW221042   5.748   1.195   0.180
 6715SOL     OW21043   1.325   0.448   0.482
 6715SOL    HW121044   1.293   0.540   0.501
 6715SOL    HW221045   1.262   0.381   0.521
 6716SOL     OW21046   6.791   5.295   2.406
 6716SOL    HW121047   6.825   5.387   2.384
 6716SOL    HW221048   6.699   5.302   2.443
 6717SOL     OW21049   3.981   2.715   6.243
 6717SOL    HW121050   4.037   2.687   6.165
 6717SOL    HW221051   3.884   2.697   6.223
 6718SOL     OW21052   3.353   0.156   2.365
 6718SOL    HW121053   3.377   0.122   2.456
 6718SOL    HW221054   3.323   0.251   2.372
 6719SOL     OW21055   1.945   0.082   6.782
 6719SOL    HW121056   1.891   0.166   6.773
 6719SOL    HW221057   1.891   0.004   6.750
 6720SOL     OW21058   2.170   0.657   5.990
 6720SOL    HW121059   2.255   0.631   5.945
 6720SOL    HW221060   2.190   0.713   6.071
 6721SOL     OW21061   0.430   1.208   0.653
 6721SOL    HW121062   0.476   1.240   0.736
 6721SOL    HW221063   0.470   1.256   0.574
 6722SOL     OW21064   6.168   3.157   0.208
 6722SOL    HW121065   6.144   3.077   0.262
 6722SOL    HW221066   6.096   3.226   0.215
 6723SOL     OW21067   1.606   2.097   6.245
 6723SOL    HW121068   1.633   2.031   6.175
 6723SOL    HW221069   1.602   2.051   6.334
 6724SOL     OW21070   1.888   3.377   5.932
 6724SOL    HW121071   1.808   3.413   5.885
 6724SOL    HW221072   1.946   3.329   5.866
 6725SOL     OW21073   6.272   3.210   3.403
 6725SOL    HW121074   6.323   3.296   3.412
 6725SOL    HW221075   6.255   3.192   3.306
 6726SOL     OW21076   0.290   1.144   5.531
 6726SOL    HW121077   0.286   1.241   5.508
 6726SOL    HW221078   0.348   1.096   5.466
 6727SOL     OW21079   1.134   4.510   6.119
 6727SOL    HW121080   1.201   4.464   6.061
 6727SOL    HW221081   1.169   4.517   6.212
 6728SOL     OW21082   3.589   2.030   3.525
 6728SOL    HW121083   3.555   1.936   3.524
 6728SOL    HW221084   3.635   2.048   3.613
 6729SOL     OW21085   4.962   1.682   0.846
 6729SOL    HW121086   4.882   1.646   0.797
 6729SOL    HW221087   4.989   1.769   0.805
 6730SOL     OW21088   1.080   0.759   1.240
 6730SOL    HW121089   1.042   0.706   1.164
 6730SOL    HW221090   1.076   0.705   1.324
 6731SOL     OW21091   3.226   6.416   0.711
 6731SOL    HW121092   3.194   6.373   0.627
 6731SOL    HW221093   3.326   6.424   0.708
 6732SOL     OW21094   5.600   5.064   4.239
 6732SOL    HW121095   5.598   5.037   4.143
 6732SOL    HW221096   5.687   5.108   4.260
 6733SOL     OW21097   3.528   5.425   6.445
 6733SOL    HW121098   3.603   5.475   6.401
 6733SOL    HW221099   3.448   5.485   6.454
 6734SOL     OW21100   5.299   1.401   5.048
 6734SOL    HW121101   5.227   1.380   4.982
 6734SOL    HW221102   5.337   1.315   5.083
 6735SOL     OW21103   6.053   3.471   3.549
 6735SOL    HW121104   5.997   3.542   3.506
 6735SOL    HW221105   6.132   3.452   3.491
 6736SOL     OW21106   3.152   4.121   1.034
 6736SOL    HW121107   3.070   4.108   1.089
 6736SOL    HW221108   3.147   4.062   0.953
 6737SOL     OW21109   1.366   2.774   1.684
 6737SOL    HW121110   1.377   2.803   1.779
 6737SOL    HW221111   1.455   2.778   1.638
 6738SOL     OW21112   1.751   5.903   3.289
 6738SOL    HW121113   1.769   5.807   3.312
 6738SOL    HW221114   1.836   5.955   3.295
 6739SOL     OW21115   6.514   6.933   4.019
 6739SOL    HW121116   6.574   6.920   4.098
 6739SOL    HW221117   6.540   6.868   3.948
 6740SOL     OW21118   6.374   6.375   4.575
 6740SOL    HW121119   6.401   6.471   4.581
 6740SOL    HW221120   6.317   6.351   4.653
 6741SOL     OW21121   4.591   2.144   5.540
 6741SOL    HW121122   4.629   2.236   5.547
 6741SOL    HW221123   4.644   2.081   5.596
 6742SOL     OW21124   5.330   4.550   3.461
 6742SOL    HW121125   5.417   4.501   3.451
 6742SOL    HW221126   5.255   4.485   3.466
 6743SOL     OW21127   4.279   4.329   0.165
 6743SOL    HW121128   4.263   4.231   0.149
 6743SOL    HW221129   4.368   4.355   0.126
 6744SOL     OW21130   6.530   5.193   6.076
 6744SOL    HW121131   6.595   5.124   6.110
 6744SOL    HW221132   6.438   5.156   6.080
 6745SOL     OW21133   6.872   6.086   3.878
 6745SOL    HW121134   6.789   6.031   3.872
 6745SOL    HW221135   6.902   6.091   3.973
 6746SOL     OW21136   1.702   1.217   2.698
 6746SOL    HW121137   1.732   1.188   2.607
 6746SOL    HW221138   1.735   1.310   2.716
 6747SOL     OW21139   0.717   6.809   6.449
 6747SOL    HW121140   0.774   6.760   6.516
 6747SOL    HW221141   0.622   6.780   6.459
 6748SOL     OW21142   2.357   1.810   3.953
 6748SOL    HW121143   2.407   1.888   3.914
 6748SOL    HW221144   2.360   1.733   3.888
 6749SOL     OW21145   3.525   4.163   0.969
 6749SOL    HW121146   3.527   4.213   0.882
 6749SOL    HW221147   3.577   4.079   0.960
 6750SOL     OW21148   2.920   1.783   4.586
 6750SOL    HW121149   2.921   1.811   4.490
 6750SOL    HW221150   3.004   1.814   4.631
 6751SOL     OW21151   4.563   6.894   3.402
 6751SOL    HW121152   4.560   6.829   3.478
 6751SOL    HW221153   4.638   6.959   3.416
 6752SOL     OW21154   1.669   6.283   3.134
 6752SOL    HW121155   1.686   6.267   3.037
 6752SOL    HW221156   1.616   6.206   3.171
 6753SOL     OW21157   3.694   2.567   5.392
 6753SOL    HW121158   3.716   2.645   5.334
 6753SOL    HW221159   3.606   2.584   5.438
 6754SOL     OW21160   6.125   1.073   1.313
 6754SOL    HW121161   6.215   1.037   1.338
 6754SOL    HW221162   6.083   1.116   1.393
 6755SOL     OW21163   2.877   5.032   0.707
 6755SOL    HW121164   2.858   5.036   0.805
 6755SOL    HW221165   2.973   5.005   0.693
 6756SOL     OW21166   2.274   2.121   5.653
 6756SOL    HW121167   2.364   2.161   5.667
 6756SOL    HW221168   2.238   2.088   5.740
 6757SOL     OW21169   3.292   0.723   0.421
 6757SOL    HW121170   3.296   0.642   0.479
 6757SOL    HW221171   3.384   0.745   0.388
 6758SOL     OW21172   5.700   2.871   1.151
 6758SOL    HW121173   5.711   2.772   1.156
 6758SOL    HW221174   5.669   2.906   1.239
 6759SOL     OW21175   0.026   3.365   3.292
 6759SOL    HW121176   6.971   3.335   3.347
 6759SOL    HW221177   0.037   3.464   3.300
 6760SOL     OW21178   5.412   2.978   3.002
 6760SOL    HW121179   5.444   3.072   3.014
 6760SOL    HW221180   5.314   2.980   2.982
 6761SOL     OW21181   5.010   2.070   4.437
 6761SOL    HW121182   5.075   2.108   4.503
 6761SOL    HW221183   5.023   2.113   4.348
 6762SOL     OW21184   6.584   5.464   3.384
 6762SOL    HW121185   6.626   5.403   3.452
 6762SOL    HW221186   6.600   5.427   3.293
 6763SOL     OW21187   4.571   5.605   5.051
 6763SOL    HW121188   4.657   5.655   5.038
 6763SOL    HW221189   4.549   5.602   5.149
 6764SOL     OW21190   1.429   5.963   2.015
 6764SOL    HW121191   1.508   5.902   2.020
 6764SOL    HW221192   1.345   5.909   2.019
 6765SOL     OW21193   5.968   5.103   3.440
 6765SOL    HW121194   6.007   5.071   3.354
 6765SOL    HW221195   5.886   5.158   3.422
 6766SOL     OW21196   4.648   6.304   0.449
 6766SOL    HW121197   4.590   6.381   0.420
 6766SOL    HW221198   4.723   6.292   0.383
 6767SOL     OW21199   2.682   0.763   0.358
 6767SOL    HW121200   2.599   0.783   0.411
 6767SOL    HW221201   2.752   0.831   0.380
 6768SOL     OW21202   1.758   0.784   6.570
 6768SOL    HW121203   1.809   0.765   6.486
 6768SOL    HW221204   1.809   0.749   6.649
 6769SOL     OW21205   3.518   2.695   0.700
 6769SOL    HW121206   3.590   2.720   0.635
 6769SOL    HW221207   3.556   2.690   0.792
 6770SOL     OW21208   6.736   0.600   2.035
 6770SOL    HW121209   6.642   0.566   2.035
 6770SOL    HW221210   6.754   0.648   1.950
 6771SOL     OW21211   4.369   2.078   2.938
 6771SOL    HW121212   4.271   2.063   2.927
 6771SOL    HW221213   4.416   2.051   2.854
 6772SOL     OW21214   3.225   1.071   2.538
 6772SOL    HW121215   3.168   1.146   2.505
 6772SOL    HW221216   3.166   0.995   2.567
 6773SOL     OW21217   6.631   3.935   1.732
 6773SOL    HW121218   6.571   3.857   1.713
 6773SOL    HW221219   6.707   3.935   1.667
 6774SOL     OW21220   0.040   2.650   6.149
 6774SOL    HW121221   0.026   2.746   6.171
 6774SOL    HW221222   0.136   2.635   6.123
 6775SOL     OW21223   2.811   3.763   1.027
 6775SOL    HW121224   2.804   3.851   0.980
 6775SOL    HW221225   2.725   3.745   1.076
 6776SOL     OW21226   4.674   4.673   0.353
 6776SOL    HW121227   4.591   4.720   0.386
 6776SOL    HW221228   4.745   4.680   0.423
 6777SOL     OW21229   4.426   4.704   6.059
 6777SOL    HW121230   4.380   4.624   6.020
 6777SOL    HW221231   4.423   4.698   6.159
 6778SOL     OW21232   0.608   3.962   2.364
 6778SOL    HW121233   0.598   4.061   2.349
 6778SOL    HW221234   0.673   3.947   2.439
 6779SOL     OW21235   6.748   4.171   0.035
 6779SOL    HW121236   6.839   4.158   0.075
 6779SOL    HW221237   6.755   4.163   6.959
 6780SOL     OW21238   1.113   2.160   2.464
 6780SOL    HW121239   1.154   2.249   2.447
 6780SOL    HW221240   1.026   2.153   2.414
 6781SOL     OW21241   5.460   6.200   5.443
 6781SOL    HW121242   5.480   6.280   5.501
 6781SOL    HW221243   5.535   6.134   5.452
 6782SOL     OW21244   0.198   0.995   2.706
 6782SOL    HW121245   0.216   0.900   2.681
 6782SOL    HW221246   0.133   1.035   2.642
 6783SOL     OW21247   0.224   6.511   6.149
 6783SOL    HW121248   0.281   6.431   6.133
 6783SOL    HW221249   0.131   6.493   6.116
 6784SOL     OW21250   3.783   4.378   0.330
 6784SOL    HW121251   3.849   4.402   0.260
 6784SOL    HW221252   3.803   4.286   0.365
 6785SOL     OW21253   5.955   4.791   1.906
 6785SOL    HW121254   5.899   4.874   1.902
 6785SOL    HW221255   5.922   4.725   1.839
 6786SOL     OW21256   1.278   2.213   6.633
 6786SOL    HW121257   1.291   2.311   6.619
 6786SOL    HW221258   1.220   2.176   6.560
 6787SOL     OW21259   1.902   3.932   1.115
 6787SOL    HW121260   1.820   3.931   1.172
 6787SOL    HW221261   1.880   3.898   1.024
 6788SOL     OW21262   2.759   3.974   1.623
 6788SOL    HW121263   2.802   3.916   1.691
 6788SOL    HW221264   2.737   3.920   1.542
 6789SOL     OW21265   0.245   6.768   2.173
 6789SOL    HW121266   0.333   6.722   2.160
 6789SOL    HW221267   0.171   6.711   2.137
 6790SOL     OW21268   1.495   4.077   7.014
 6790SOL    HW121269   1.441   4.038   0.065
 6790SOL    HW221270   1.583   4.110   0.026
 6791SOL     OW21271   3.949   2.468   0.989
 6791SOL    HW121272   3.923   2.547   1.044
 6791SOL    HW221273   3.899   2.387   1.020
 6792SOL     OW21274   6.737   5.933   5.867
 6792SOL    HW121275   6.664   5.900   5.808
 6792SOL    HW221276   6.713   5.917   5.963
 6793SOL     OW21277   0.801   2.327   0.775
 6793SOL    HW121278   0.786   2.288   0.685
 6793SOL    HW221279   0.863   2.268   0.827
 6794SOL     OW21280   5.276   1.185   4.792
 6794SOL    HW121281   5.263   1.137   4.706
 6794SOL    HW221282   5.356   1.149   4.839
 6795SOL     OW21283   2.636   5.800   0.835
 6795SOL    HW121284   2.695   5.723   0.809
 6795SOL    HW221285   2.563   5.810   0.768
 6796SOL     OW21286   6.150   1.073   2.248
 6796SOL    HW121287   6.239   1.095   2.287
 6796SOL    HW221288   6.091   1.153   2.252
 6797SOL     OW21289   4.936   3.822   1.908
 6797SOL    HW121290   4.987   3.765   1.843
 6797SOL    HW221291   4.914   3.768   1.989
 6798SOL     OW21292   5.613   4.873   2.584
 6798SOL    HW121293   5.587   4.969   2.577
 6798SOL    HW221294   5.545   4.824   2.638
 6799SOL     OW21295   5.477   5.650   0.373
 6799SOL    HW121296   5.512   5.743   0.361
 6799SOL    HW221297   5.404   5.651   0.442
 6800SOL     OW21298   2.214   4.497   0.615
 6800SOL    HW121299   2.294   4.548   0.648
 6800SOL    HW221300   2.242   4.406   0.586
 6801SOL     OW21301   1.512   1.285   2.296
 6801SOL    HW121302   1.574   1.312   2.369
 6801SOL    HW221303   1.447   1.217   2.330
 6802SOL     OW21304   2.256   5.856   0.407
 6802SOL    HW121305   2.306   5.817   0.484
 6802SOL    HW221306   2.289   5.815   0.322
 6803SOL     OW21307   4.662   2.685   6.535
 6803SOL    HW121308   4.567   2.679   6.505
 6803SOL    HW221309   4.711   2.601   6.511
 6804SOL     OW21310   2.445   5.531   3.304
 6804SOL    HW121311   2.506   5.589   3.359
 6804SOL    HW221312   2.354   5.530   3.345
 6805SOL     OW21313   5.668   6.599   4.510
 6805SOL    HW121314   5.632   6.660   4.581
 6805SOL    HW221315   5.767   6.587   4.524
 6806SOL     OW21316   4.866   1.426   3.846
 6806SOL    HW121317   4.785   1.398   3.796
 6806SOL    HW221318   4.854   1.521   3.877
 6807SOL     OW21319   2.427   3.113   0.155
 6807SOL    HW121320   2.442   3.020   0.187
 6807SOL    HW221321   2.424   3.175   0.234
 6808SOL     OW21322   0.452   3.186   5.302
 6808SOL    HW121323   0.403   3.147   5.380
 6808SOL    HW221324   0.472   3.115   5.236
 6809SOL     OW21325   1.709   4.382   7.007
 6809SOL    HW121326   1.643   4.443   6.964
 6809SOL    HW221327   1.736   4.419   0.073
 6810SOL     OW21328   1.284   0.834   1.917
 6810SOL    HW121329   1.317   0.754   1.968
 6810SOL    HW221330   1.243   0.805   1.831
 6811SOL     OW21331   5.243   4.186   0.079
 6811SOL    HW121332   5.317   4.213   0.017
 6811SOL    HW221333   5.162   4.242   0.059
 6812SOL     OW21334   4.089   3.239   3.314
 6812SOL    HW121335   4.014   3.177   3.338
 6812SOL    HW221336   4.131   3.273   3.398
 6813SOL     OW21337   4.779   1.602   1.139
 6813SOL    HW121338   4.733   1.689   1.122
 6813SOL    HW221339   4.868   1.619   1.180
 6814SOL     OW21340   3.382   2.621   1.036
 6814SOL    HW121341   3.333   2.593   0.953
 6814SOL    HW221342   3.479   2.632   1.014
 6815SOL     OW21343   2.851   6.956   1.237
 6815SOL    HW121344   2.777   6.928   1.176
 6815SOL    HW221345   2.909   6.877   1.257
 6816SOL     OW21346   6.282   5.073   6.880
 6816SOL    HW121347   6.213   5.019   6.833
 6816SOL    HW221348   6.364   5.018   6.895
 6817SOL     OW21349   6.580   1.648   5.476
 6817SOL    HW121350   6.657   1.654   5.413
 6817SOL    HW221351   6.607   1.592   5.555
 6818SOL     OW21352   2.880   6.297   1.963
 6818SOL    HW121353   2.894   6.303   1.864
 6818SOL    HW221354   2.794   6.249   1.982
 6819SOL     OW21355   3.458   0.831   3.627
 6819SOL    HW121356   3.367   0.851   3.665
 6819SOL    HW221357   3.522   0.903   3.654
 6820SOL     OW21358   0.866   4.753   3.649
 6820SOL    HW121359   0.888   4.667   3.604
 6820SOL    HW221360   0.943   4.816   3.640
 6821SOL     OW21361   2.512   2.208   5.333
 6821SOL    HW121362   2.585   2.218   5.401
 6821SOL    HW221363   2.496   2.110   5.315
 6822SOL     OW21364   5.618   1.781   6.189
 6822SOL    HW121365   5.710   1.812   6.166
 6822SOL    HW221366   5.596   1.807   6.283
 6823SOL     OW21367   3.808   3.713   4.152
 6823SOL    HW121368   3.843   3.713   4.058
 6823SOL    HW221369   3.709   3.726   4.151
 6824SOL     OW21370   0.241   3.077   6.175
 6824SOL    HW121371   0.268   3.143   6.245
 6824SOL    HW221372   0.314   3.009   6.164
 6825SOL     OW21373   4.711   6.866   2.513
 6825SOL    HW121374   4.769   6.946   2.527
 6825SOL    HW221375   4.616   6.895   2.500
 6826SOL     OW21376   2.131   3.335   2.826
 6826SOL    HW121377   2.058   3.401   2.806
 6826SOL    HW221378   2.154   3.285   2.742
 6827SOL     OW21379   5.046   5.700   0.423
 6827SOL    HW121380   5.130   5.662   0.461
 6827SOL    HW221381   4.982   5.720   0.497
 6828SOL     OW21382   1.605   2.182   1.546
 6828SOL    HW121383   1.658   2.264   1.571
 6828SOL    HW221384   1.532   2.169   1.613
 6829SOL     OW21385   5.157   6.624   3.692
 6829SOL    HW121386   5.183   6.599   3.786
 6829SOL    HW221387   5.157   6.542   3.635
 6830SOL     OW21388   5.626   1.406   3.082
 6830SOL    HW121389   5.530   1.399   3.054
 6830SOL    HW221390   5.651   1.503   3.088
 6831SOL     OW21391   0.930   0.397   6.160
 6831SOL    HW121392   0.906   0.302   6.180
 6831SOL    HW221393   0.877   0.430   6.082
 6832SOL     OW21394   2.835   4.434   1.569
 6832SOL    HW121395   2.833   4.444   1.669
 6832SOL    HW221396   2.830   4.337   1.545
 6833SOL     OW21397   4.133   5.189   6.962
 6833SOL    HW121398   4.131   5.090   6.960
 6833SOL    HW221399   4.101   5.225   6.874
 6834SOL     OW21400   4.241   6.638   1.629
 6834SOL    HW121401   4.288   6.726   1.643
 6834SOL    HW221402   4.187   6.616   1.711
 6835SOL     OW21403   4.013   6.960   4.909
 6835SOL    HW121404   3.959   6.905   4.844
 6835SOL    HW221405   4.006   6.920   5.000
 6836SOL     OW21406   3.381   6.082   0.438
 6836SOL    HW121407   3.470   6.043   0.461
 6836SOL    HW221408   3.311   6.011   0.441
 6837SOL     OW21409   1.877   3.373   2.076
 6837SOL    HW121410   1.925   3.285   2.081
 6837SOL    HW221411   1.923   3.433   2.011
 6838SOL     OW21412   2.003   0.935   0.664
 6838SOL    HW121413   2.085   0.897   0.621
 6838SOL    HW221414   1.934   0.955   0.594
 6839SOL     OW21415   4.513   1.063   0.861
 6839SOL    HW121416   4.454   1.129   0.908
 6839SOL    HW221417   4.582   1.112   0.809
 6840SOL     OW21418   2.357   1.772   5.860
 6840SOL    HW121419   2.421   1.760   5.936
 6840SOL    HW221420   2.273   1.813   5.894
 6841SOL     OW21421   6.335   3.244   6.078
 6841SOL    HW121422   6.354   3.242   5.980
 6841SOL    HW221423   6.268   3.173   6.101
 6842SOL     OW21424   2.150   5.197   1.726
 6842SOL    HW121425   2.243   5.175   1.756
 6842SOL    HW221426   2.137   5.168   1.632
 6843SOL     OW21427   5.114   0.148   6.614
 6843SOL    HW121428   5.095   0.146   6.712
 6843SOL    HW221429   5.159   0.062   6.588
 6844SOL     OW21430   5.187   0.922   4.016
 6844SOL    HW121431   5.136   1.003   3.988
 6844SOL    HW221432   5.276   0.921   3.969
 6845SOL     OW21433   5.499   2.731   2.893
 6845SOL    HW121434   5.598   2.734   2.888
 6845SOL    HW221435   5.467   2.799   2.960
 6846SOL     OW21436   3.049   4.180   0.094
 6846SOL    HW121437   3.012   4.091   0.120
 6846SOL    HW221438   2.975   4.247   0.091
 6847SOL     OW21439   6.521   4.346   4.656
 6847SOL    HW121440   6.606   4.324   4.607
 6847SOL    HW221441   6.521   4.299   4.744
 6848SOL     OW21442   5.290   3.893   4.174
 6848SOL    HW121443   5.235   3.958   4.123
 6848SOL    HW221444   5.248   3.802   4.169
 6849SOL     OW21445   3.545   4.338   5.838
 6849SOL    HW121446   3.484   4.276   5.887
 6849SOL    HW221447   3.524   4.334   5.740
 6850SOL     OW21448   4.332   2.310   3.241
 6850SOL    HW121449   4.272   2.305   3.321
 6850SOL    HW221450   4.381   2.224   3.231
 6851SOL     OW21451   2.001   2.848   2.851
 6851SOL    HW121452   2.080   2.873   2.797
 6851SOL    HW221453   2.025   2.848   2.948
 6852SOL     OW21454   2.872   5.640   1.209
 6852SOL    HW121455   2.835   5.612   1.297
 6852SOL    HW221456   2.968   5.665   1.219
 6853SOL     OW21457   5.328   3.337   6.414
 6853SOL    HW121458   5.379   3.349   6.499
 6853SOL    HW221459   5.303   3.241   6.403
 6854SOL     OW21460   5.005   6.667   6.052
 6854SOL    HW121461   5.023   6.753   6.005
 6854SOL    HW221462   5.001   6.684   6.151
 6855SOL     OW21463   3.934   5.531   3.461
 6855SOL    HW121464   3.987   5.446   3.451
 6855SOL    HW221465   3.837   5.510   3.455
 6856SOL     OW21466   0.464   2.716   6.127
 6856SOL    HW121467   0.388   2.690   6.068
 6856SOL    HW221468   0.514   2.634   6.154
 6857SOL     OW21469   1.264   3.206   6.808
 6857SOL    HW121470   1.246   3.115   6.769
 6857SOL    HW221471   1.357   3.209   6.844
 6858SOL     OW21472   3.288   4.273   1.615
 6858SOL    HW121473   3.196   4.260   1.652
 6858SOL    HW221474   3.325   4.360   1.647
 6859SOL     OW21475   0.705   1.233   1.920
 6859SOL    HW121476   0.754   1.238   2.007
 6859SOL    HW221477   0.643   1.155   1.921
 6860SOL     OW21478   6.682   5.234   2.181
 6860SOL    HW121479   6.678   5.136   2.161
 6860SOL    HW221480   6.732   5.249   2.266
 6861SOL     OW21481   4.716   3.147   5.519
 6861SOL    HW121482   4.633   3.125   5.569
 6861SOL    HW221483   4.719   3.245   5.499
 6862SOL     OW21484   0.756   4.772   6.227
 6862SOL    HW121485   0.834   4.778   6.164
 6862SOL    HW221486   0.761   4.685   6.276
 6863SOL     OW21487   6.764   6.249   4.673
 6863SOL    HW121488   6.793   6.325   4.732
 6863SOL    HW221489   6.842   6.215   4.621
 6864SOL     OW21490   1.549   3.968   5.889
 6864SOL    HW121491   1.560   3.869   5.896
 6864SOL    HW221492   1.638   4.011   5.875
 6865SOL     OW21493   1.763   0.703   4.857
 6865SOL    HW121494   1.757   0.774   4.926
 6865SOL    HW221495   1.857   0.700   4.821
 6866SOL     OW21496   6.550   4.546   2.026
 6866SOL    HW121497   6.467   4.529   1.974
 6866SOL    HW221498   6.621   4.480   1.998
 6867SOL     OW21499   1.504   3.894   0.633
 6867SOL    HW121500   1.554   3.808   0.638
 6867SOL    HW221501   1.422   3.889   0.691
 6868SOL     OW21502   1.804   5.719   5.733
 6868SOL    HW121503   1.897   5.737   5.701
 6868SOL    HW221504   1.766   5.641   5.683
 6869SOL     OW21505   3.624   6.974   5.780
 6869SOL    HW121506   3.593   0.043   5.801
 6869SOL    HW221507   3.562   6.908   5.822
 6870SOL     OW21508   0.669   2.975   0.186
 6870SOL    HW121509   0.726   2.894   0.173
 6870SOL    HW221510   0.580   2.947   0.222
 6871SOL     OW21511   6.458   3.512   2.210
 6871SOL    HW121512   6.488   3.568   2.133
 6871SOL    HW221513   6.362   3.532   2.230
 6872SOL     OW21514   1.247   2.632   2.256
 6872SOL    HW121515   1.242   2.542   2.214
 6872SOL    HW221516   1.336   2.643   2.301
 6873SOL     OW21517   1.268   4.326   4.255
 6873SOL    HW121518   1.198   4.254   4.251
 6873SOL    HW221519   1.357   4.286   4.231
 6874SOL     OW21520   5.876   5.618   2.684
 6874SOL    HW121521   5.809   5.614   2.609
 6874SOL    HW221522   5.850   5.691   2.747
 6875SOL     OW21523   1.670   2.704   1.351
 6875SOL    HW121524   1.648   2.755   1.435
 6875SOL    HW221525   1.588   2.659   1.317
 6876SOL     OW21526   3.528   0.199   3.539
 6876SOL    HW121527   3.618   0.233   3.563
 6876SOL    HW221528   3.535   0.103   3.511
 6877SOL     OW21529   2.568   4.441   1.852
 6877SOL    HW121530   2.503   4.515   1.832
 6877SOL    HW221531   2.651   4.480   1.892
 6878SOL     OW21532   1.917   0.757   3.703
 6878SOL    HW121533   1.922   0.840   3.759
 6878SOL    HW221534   1.915   0.783   3.607
 6879SOL     OW21535   2.460   2.276   0.243
 6879SOL    HW121536   2.438   2.209   0.173
 6879SOL    HW221537   2.538   2.244   0.296
 6880SOL     OW21538   1.238   5.674   6.267
 6880SOL    HW121539   1.246   5.673   6.367
 6880SOL    HW221540   1.329   5.664   6.227
 6881SOL     OW21541   1.815   3.719   0.366
 6881SOL    HW121542   1.720   3.705   0.340
 6881SOL    HW221543   1.850   3.801   0.320
 6882SOL     OW21544   2.607   6.892   0.731
 6882SOL    HW121545   2.529   6.849   0.777
 6882SOL    HW221546   2.648   6.960   0.791
 6883SOL     OW21547   5.138   0.760   6.295
 6883SOL    HW121548   5.188   0.740   6.379
 6883SOL    HW221549   5.049   0.714   6.298
 6884SOL     OW21550   1.957   4.065   2.933
 6884SOL    HW121551   1.997   3.994   2.990
 6884SOL    HW221552   1.904   4.023   2.859
 6885SOL     OW21553   4.839   4.780   4.125
 6885SOL    HW121554   4.881   4.826   4.202
 6885SOL    HW221555   4.808   4.689   4.152
 6886SOL     OW21556   5.693   1.362   5.653
 6886SOL    HW121557   5.603   1.338   5.616
 6886SOL    HW221558   5.697   1.338   5.750
 6887SOL     OW21559   4.995   5.882   6.218
 6887SOL    HW121560   4.912   5.938   6.227
 6887SOL    HW221561   4.978   5.807   6.154
 6888SOL     OW21562   5.480   4.295   6.489
 6888SOL    HW121563   5.492   4.365   6.418
 6888SOL    HW221564   5.570   4.261   6.517
 6889SOL     OW21565   1.371   3.238   5.491
 6889SOL    HW121566   1.296   3.262   5.553
 6889SOL    HW221567   1.392   3.141   5.500
 6890SOL     OW21568   3.783   5.521   2.910
 6890SOL    HW121569   3.784   5.509   2.811
 6890SOL    HW221570   3.691   5.502   2.945
 6891SOL     OW21571   2.155   2.608   1.120
 6891SOL    HW121572   2.151   2.707   1.102
 6891SOL    HW221573   2.065   2.576   1.149
 6892SOL     OW21574   2.999   1.534   4.178
 6892SOL    HW121575   2.984   1.523   4.276
 6892SOL    HW221576   3.059   1.461   4.145
 6893SOL     OW21577   6.206   3.014   6.735
 6893SOL    HW121578   6.231   3.012   6.832
 6893SOL    HW221579   6.126   3.072   6.723
 6894SOL     OW21580   5.520   4.241   1.225
 6894SOL    HW121581   5.486   4.152   1.193
 6894SOL    HW221582   5.450   4.311   1.207
 6895SOL     OW21583   1.417   6.070   0.977
 6895SOL    HW121584   1.335   6.025   1.012
 6895SOL    HW221585   1.430   6.157   1.025
 6896SOL     OW21586   3.703   2.149   4.275
 6896SOL    HW121587   3.614   2.158   4.230
 6896SOL    HW221588   3.745   2.239   4.286
 6897SOL     OW21589   4.960   3.810   5.025
 6897SOL    HW121590   4.914   3.724   5.045
 6897SOL    HW221591   5.051   3.811   5.066
 6898SOL     OW21592   2.360   1.371   1.277
 6898SOL    HW121593   2.334   1.458   1.235
 6898SOL    HW221594   2.300   1.353   1.355
 6899SOL     OW21595   6.016   5.732   2.462
 6899SOL    HW121596   6.000   5.718   2.364
 6899SOL    HW221597   5.954   5.674   2.515
 6900SOL     OW21598   6.736   4.375   6.421
 6900SOL    HW121599   6.750   4.374   6.520
 6900SOL    HW221600   6.758   4.285   6.383
 6901SOL     OW21601   4.184   4.998   6.568
 6901SOL    HW121602   4.202   5.045   6.482
 6901SOL    HW221603   4.258   4.934   6.587
 6902SOL     OW21604   6.589   5.948   6.128
 6902SOL    HW121605   6.654   5.972   6.200
 6902SOL    HW221606   6.530   6.027   6.110
 6903SOL     OW21607   2.614   4.885   5.280
 6903SOL    HW121608   2.522   4.879   5.241
 6903SOL    HW221609   2.650   4.793   5.294
 6904SOL     OW21610   0.334   5.875   5.102
 6904SOL    HW121611   0.324   5.888   5.201
 6904SOL    HW221612   0.416   5.922   5.070
 6905SOL     OW21613   5.236   5.336   6.960
 6905SOL    HW121614   5.207   5.325   0.032
 6905SOL    HW221615   5.334   5.354   6.957
 6906SOL     OW21616   3.957   1.513   3.487
 6906SOL    HW121617   3.935   1.507   3.585
 6906SOL    HW221618   3.874   1.538   3.437
 6907SOL     OW21619   6.222   1.788   1.517
 6907SOL    HW121620   6.281   1.862   1.486
 6907SOL    HW221621   6.228   1.780   1.616
 6908SOL     OW21622   2.568   4.487   6.770
 6908SOL    HW121623   2.651   4.486   6.827
 6908SOL    HW221624   2.594   4.489   6.674
 6909SOL     OW21625   5.205   4.689   2.011
 6909SOL    HW121626   5.236   4.676   1.917
 6909SOL    HW221627   5.232   4.611   2.067
 6910SOL     OW21628   1.462   3.141   2.438
 6910SOL    HW121629   1.383   3.090   2.472
 6910SOL    HW221630   1.545   3.103   2.478
 6911SOL     OW21631   3.501   6.862   5.411
 6911SOL    HW121632   3.411   6.873   5.453
 6911SOL    HW221633   3.510   6.926   5.334
 6912SOL     OW21634   1.873   3.389   6.374
 6912SOL    HW121635   1.795   3.430   6.326
 6912SOL    HW221636   1.951   3.385   6.313
 6913SOL     OW21637   4.991   6.050   5.413
 6913SOL    HW121638   4.928   6.112   5.460
 6913SOL    HW221639   4.939   5.979   5.364
 6914SOL     OW21640   6.186   3.550   2.206
 6914SOL    HW121641   6.123   3.627   2.199
 6914SOL    HW221642   6.166   3.483   2.134
 6915SOL     OW21643   0.764   3.335   1.868
 6915SOL    HW121644   0.804   3.413   1.916
 6915SOL    HW221645   0.802   3.250   1.907
 6916SOL     OW21646   4.998   0.551   5.898
 6916SOL    HW121647   4.981   0.638   5.944
 6916SOL    HW221648   4.964   0.476   5.955
 6917SOL     OW21649   4.994   5.640   1.752
 6917SOL    HW121650   5.079   5.587   1.756
 6917SOL    HW221651   4.992   5.693   1.667
 6918SOL     OW21652   0.561   3.156   2.215
 6918SOL    HW121653   0.596   3.198   2.298
 6918SOL    HW221654   0.501   3.080   2.238
 6919SOL     OW21655   6.086   6.984   2.363
 6919SOL    HW121656   6.104   0.013   2.279
 6919SOL    HW221657   6.063   0.024   2.437
 6920SOL     OW21658   4.752   0.712   4.959
 6920SOL    HW121659   4.725   0.621   4.929
 6920SOL    HW221660   4.778   0.709   5.056
 6921SOL     OW21661   4.114   6.769   4.184
 6921SOL    HW121662   4.052   6.773   4.262
 6921SOL    HW221663   4.130   6.862   4.149
 6922SOL     OW21664   2.291   6.133   4.451
 6922SOL    HW121665   2.224   6.183   4.396
 6922SOL    HW221666   2.382   6.171   4.435
 6923SOL     OW21667   6.177   6.523   2.278
 6923SOL    HW121668   6.260   6.528   2.333
 6923SOL    HW221669   6.097   6.535   2.337
 6924SOL     OW21670   3.299   6.321   1.170
 6924SOL    HW121671   3.362   6.261   1.120
 6924SOL    HW221672   3.293   6.289   1.265
 6925SOL     OW21673   5.285   6.398   6.699
 6925SOL    HW121674   5.358   6.351   6.749
 6925SOL    HW221675   5.264   6.348   6.615
 6926SOL     OW21676   2.289   1.540   0.568
 6926SOL    HW121677   2.299   1.489   0.482
 6926SOL    HW221678   2.277   1.476   0.643
 6927SOL     OW21679   3.689   0.684   0.589
 6927SOL    HW121680   3.785   0.712   0.589
 6927SOL    HW221681   3.674   0.615   0.518
 6928SOL     OW21682   5.075   5.212   0.714
 6928SOL    HW121683   5.119   5.242   0.799
 6928SOL    HW221684   5.040   5.292   0.665
 6929SOL     OW21685   5.040   4.847   1.685
 6929SOL    HW121686   4.993   4.914   1.743
 6929SOL    HW221687   5.095   4.894   1.617
 6930SOL     OW21688   0.708   0.820   0.285
 6930SOL    HW121689   0.777   0.797   0.354
 6930SOL    HW221690   0.627   0.856   0.329
 6931SOL     OW21691   2.309   2.341   1.080
 6931SOL    HW121692   2.307   2.284   1.162
 6931SOL    HW221693   2.255   2.424   1.096
 6932SOL     OW21694   4.987   4.842   7.008
 6932SOL    HW121695   4.986   4.839   0.085
 6932SOL    HW221696   4.976   4.936   6.977
 6933SOL     OW21697   3.167   6.096   6.176
 6933SOL    HW121698   3.203   6.137   6.093
 6933SOL    HW221699   3.182   6.158   6.253
 6934SOL     OW21700   4.738   3.970   6.727
 6934SOL    HW121701   4.766   3.910   6.651
 6934SOL    HW221702   4.728   3.916   6.810
 6935SOL     OW21703   4.990   5.431   2.096
 6935SOL    HW121704   4.936   5.414   2.014
 6935SOL    HW221705   5.044   5.349   2.118
 6936SOL     OW21706   0.635   2.263   4.454
 6936SOL    HW121707   0.666   2.168   4.443
 6936SOL    HW221708   0.582   2.271   4.538
 6937SOL     OW21709   5.798   6.526   0.206
 6937SOL    HW121710   5.882   6.537   0.259
 6937SOL    HW221711   5.796   6.593   0.132
 6938SOL     OW21712   0.298   0.994   4.358
 6938SOL    HW121713   0.353   1.020   4.279
 6938SOL    HW221714   0.201   1.000   4.334
 6939SOL     OW21715   6.417   4.381   3.386
 6939SOL    HW121716   6.488   4.319   3.418
 6939SOL    HW221717   6.416   4.463   3.443
 6940SOL     OW21718   4.656   6.815   0.739
 6940SOL    HW121719   4.674   6.882   0.811
 6940SOL    HW221720   4.623   6.730   0.780
 6941SOL     OW21721   2.973   3.771   2.515
 6941SOL    HW121722   3.069   3.761   2.540
 6941SOL    HW221723   2.966   3.825   2.431
 6942SOL     OW21724   6.217   6.451   1.817
 6942SOL    HW121725   6.248   6.389   1.745
 6942SOL    HW221726   6.210   6.544   1.780
 6943SOL     OW21727   3.526   4.604   6.828
 6943SOL    HW121728   3.486   4.693   6.805
 6943SOL    HW221729   3.596   4.616   6.898
 6944SOL     OW21730   1.261   3.995   6.278
 6944SOL    HW121731   1.287   3.905   6.242
 6944SOL    HW221732   1.320   4.065   6.238
 6945SOL     OW21733   6.132   2.296   0.702
 6945SOL    HW121734   6.191   2.217   0.681
 6945SOL    HW221735   6.091   2.283   0.792
 6946SOL     OW21736   3.722   5.749   2.337
 6946SOL    HW121737   3.687   5.692   2.412
 6946SOL    HW221738   3.774   5.826   2.376
 6947SOL     OW21739   4.708   4.986   6.101
 6947SOL    HW121740   4.767   5.064   6.125
 6947SOL    HW221741   4.614   5.005   6.130
 6948SOL     OW21742   0.330   6.190   0.898
 6948SOL    HW121743   0.278   6.224   0.977
 6948SOL    HW221744   0.337   6.263   0.829
 6949SOL     OW21745   2.526   2.551   3.349
 6949SOL    HW121746   2.604   2.504   3.307
 6949SOL    HW221747   2.458   2.572   3.279
 6950SOL     OW21748   0.993   6.607   4.530
 6950SOL    HW121749   1.001   6.686   4.590
 6950SOL    HW221750   0.904   6.608   4.485
 6951SOL     OW21751   6.756   5.082   6.755
 6951SOL    HW121752   6.794   5.077   6.663
 6951SOL    HW221753   6.807   5.149   6.809
 6952SOL     OW21754   3.052   5.104   2.845
 6952SOL    HW121755   2.958   5.131   2.824
 6952SOL    HW221756   3.096   5.070   2.762
 6953SOL     OW21757   5.242   0.050   0.643
 6953SOL    HW121758   5.321   0.011   0.691
 6953SOL    HW221759   5.190   0.108   0.706
 6954SOL     OW21760   0.649   3.573   1.157
 6954SOL    HW121761   0.675   3.531   1.244
 6954SOL    HW221762   0.558   3.613   1.166
 6955SOL     OW21763   5.217   0.181   2.511
 6955SOL    HW121764   5.144   0.113   2.514
 6955SOL    HW221765   5.250   0.197   2.604
 6956SOL     OW21766   5.942   5.805   1.853
 6956SOL    HW121767   5.881   5.729   1.878
 6956SOL    HW221768   5.893   5.891   1.862
 6957SOL     OW21769   5.348   5.776   6.413
 6957SOL    HW121770   5.263   5.727   6.396
 6957SOL    HW221771   5.365   5.779   6.512
 6958SOL     OW21772   3.413   3.526   4.028
 6958SOL    HW121773   3.359   3.561   3.952
 6958SOL    HW221774   3.405   3.426   4.031
 6959SOL     OW21775   1.289   3.917   3.100
 6959SOL    HW121776   1.213   3.944   3.041
 6959SOL    HW221777   1.375   3.921   3.048
 6960SOL     OW21778   1.650   4.950   0.872
 6960SOL    HW121779   1.636   4.967   0.970
 6960SOL    HW221780   1.571   4.903   0.835
 6961SOL     OW21781   4.158   1.512   4.702
 6961SOL    HW121782   4.221   1.469   4.637
 6961SOL    HW221783   4.068   1.470   4.694
 6962SOL     OW21784   3.901   6.790   6.968
 6962SOL    HW121785   3.868   6.754   6.881
 6962SOL    HW221786   3.998   6.816   6.959
 6963SOL     OW21787   5.015   6.397   0.403
 6963SOL    HW121788   4.946   6.469   0.408
 6963SOL    HW221789   5.087   6.415   0.469
 6964SOL     OW21790   2.543   0.291   5.729
 6964SOL    HW121791   2.478   0.356   5.688
 6964SOL    HW221792   2.635   0.330   5.726
 6965SOL     OW21793   1.068   2.153   0.495
 6965SOL    HW121794   0.972   2.182   0.496
 6965SOL    HW221795   1.088   2.109   0.407
 6966SOL     OW21796   1.137   0.299   2.035
 6966SOL    HW121797   1.189   0.365   2.089
 6966SOL    HW221798   1.153   0.316   1.938
 6967SOL     OW21799   4.116   1.885   5.964
 6967SOL    HW121800   4.106   1.829   5.882
 6967SOL    HW221801   4.029   1.929   5.984
 6968SOL     OW21802   3.491   6.816   3.280
 6968SOL    HW121803   3.437   6.891   3.318
 6968SOL    HW221804   3.443   6.730   3.292
 6969SOL     OW21805   2.523   1.785   1.386
 6969SOL    HW121806   2.557   1.748   1.472
 6969SOL    HW221807   2.540   1.883   1.382
 6970SOL     OW21808   3.037   4.804   6.276
 6970SOL    HW121809   3.025   4.828   6.180
 6970SOL    HW221810   3.033   4.888   6.332
 6971SOL     OW21811   5.314   4.321   1.052
 6971SOL    HW121812   5.409   4.309   1.023
 6971SOL    HW221813   5.306   4.404   1.107
 6972SOL     OW21814   5.035   3.509   3.216
 6972SOL    HW121815   5.134   3.502   3.199
 6972SOL    HW221816   5.014   3.470   3.305
 6973SOL     OW21817   1.086   1.633   2.578
 6973SOL    HW121818   1.178   1.595   2.572
 6973SOL    HW221819   1.055   1.660   2.487
 6974SOL     OW21820   2.939   3.833   2.812
 6974SOL    HW121821   2.862   3.852   2.752
 6974SOL    HW221822   3.020   3.811   2.757
 6975SOL     OW21823   2.820   5.709   5.117
 6975SOL    HW121824   2.838   5.636   5.051
 6975SOL    HW221825   2.726   5.701   5.150
 6976SOL     OW21826   4.948   4.254   5.053
 6976SOL    HW121827   4.910   4.271   5.144
 6976SOL    HW221828   5.036   4.206   5.062
 6977SOL     OW21829   4.113   4.511   1.638
 6977SOL    HW121830   4.027   4.478   1.677
 6977SOL    HW221831   4.156   4.438   1.586
 6978SOL     OW21832   5.959   3.348   1.431
 6978SOL    HW121833   6.014   3.350   1.348
 6978SOL    HW221834   5.883   3.284   1.420
 6979SOL     OW21835   1.113   3.948   1.553
 6979SOL    HW121836   1.073   4.030   1.511
 6979SOL    HW221837   1.197   3.924   1.504
 6980SOL     OW21838   1.435   0.205   2.893
 6980SOL    HW121839   1.440   0.127   2.955
 6980SOL    HW221840   1.356   0.261   2.917
 6981SOL     OW21841   3.762   3.478   6.613
 6981SOL    HW121842   3.682   3.531   6.641
 6981SOL    HW221843   3.843   3.536   6.616
 6982SOL     OW21844   0.913   1.257   4.044
 6982SOL    HW121845   0.910   1.357   4.053
 6982SOL    HW221846   0.975   1.219   4.112
 6983SOL     OW21847   4.792   1.072   4.484
 6983SOL    HW121848   4.766   1.057   4.579
 6983SOL    HW221849   4.732   1.019   4.424
 6984SOL     OW21850   0.806   2.549   2.750
 6984SOL    HW121851   0.905   2.536   2.737
 6984SOL    HW221852   0.791   2.618   2.820
 6985SOL     OW21853   0.202   4.323   6.946
 6985SOL    HW121854   0.224   4.397   6.883
 6985SOL    HW221855   0.105   4.299   6.938
 6986SOL     OW21856   4.380   5.593   6.062
 6986SOL    HW121857   4.392   5.505   6.109
 6986SOL    HW221858   4.439   5.597   5.982
 6987SOL     OW21859   0.104   1.653   5.800
 6987SOL    HW121860   0.135   1.668   5.706
 6987SOL    HW221861   0.064   1.561   5.807
 6988SOL     OW21862   2.983   0.607   6.105
 6988SOL    HW121863   2.968   0.681   6.040
 6988SOL    HW221864   3.032   0.532   6.061
 6989SOL     OW21865   6.991   4.416   2.287
 6989SOL    HW121866   6.932   4.494   2.264
 6989SOL    HW221867   7.006   4.414   2.386
 6990SOL     OW21868   3.737   2.934   2.314
 6990SOL    HW121869   3.655   2.970   2.270
 6990SOL    HW221870   3.803   2.907   2.245
 6991SOL     OW21871   5.234   4.537   2.761
 6991SOL    HW121872   5.262   4.451   2.804
 6991SOL    HW221873   5.200   4.599   2.831
 6992SOL     OW21874   0.641   0.039   6.808
 6992SOL    HW121875   0.589   0.064   6.726
 6992SOL    HW221876   0.699   6.984   6.789
 6993SOL     OW21877   5.895   1.119   1.977
 6993SOL    HW121878   5.839   1.189   1.933
 6993SOL    HW221879   5.989   1.125   1.943
 6994SOL     OW21880   1.641   0.113   3.596
 6994SOL    HW121881   1.636   0.095   3.695
 6994SOL    HW221882   1.667   0.208   3.581
 6995SOL     OW21883   0.737   3.417   0.340
 6995SOL    HW121884   0.826   3.426   0.296
 6995SOL    HW221885   0.750   3.384   0.434
 6996SOL     OW21886   1.785   0.309   6.716
 6996SOL    HW121887   1.734   0.318   6.630
 6996SOL    HW221888   1.724   0.328   6.793
 6997SOL     OW21889   6.980   5.167   5.094
 6997SOL    HW121890   6.935   5.254   5.114
 6997SOL    HW221891   7.005   5.122   5.180
 6998SOL     OW21892   1.122   1.439   1.587
 6998SOL    HW121893   1.116   1.357   1.643
 6998SOL    HW221894   1.201   1.433   1.526
 6999SOL     OW21895   0.518   2.662   6.716
 6999SOL    HW121896   0.443   2.602   6.745
 6999SOL    HW221897   0.590   2.661   6.785
 7000SOL     OW21898   6.143   0.222   2.823
 7000SOL    HW121899   6.043   0.225   2.830
 7000SOL    HW221900   6.172   0.280   2.746
 7001SOL     OW21901   0.948   1.558   4.703
 7001SOL    HW121902   0.924   1.473   4.751
 7001SOL    HW221903   0.866   1.615   4.693
 7002SOL     OW21904   0.494   5.788   3.663
 7002SOL    HW121905   0.456   5.875   3.631
 7002SOL    HW221906   0.593   5.795   3.666
 7003SOL     OW21907   6.096   4.052   0.927
 7003SOL    HW121908   6.155   3.980   0.961
 7003SOL    HW221909   6.016   4.011   0.882
 7004SOL     OW21910   1.571   6.246   0.476
 7004SOL    HW121911   1.574   6.206   0.385
 7004SOL    HW221912   1.620   6.186   0.540
 7005SOL     OW21913   1.488   6.993   6.835
 7005SOL    HW121914   1.501   0.007   6.927
 7005SOL    HW221915   1.391   6.982   6.816
 7006SOL     OW21916   0.048   6.816   3.554
 7006SOL    HW121917   7.018   6.761   3.490
 7006SOL    HW221918   7.015   6.891   3.589
 7007SOL     OW21919   4.276   0.897   5.855
 7007SOL    HW121920   4.209   0.828   5.881
 7007SOL    HW221921   4.312   0.876   5.764
 7008SOL     OW21922   6.795   4.121   3.261
 7008SOL    HW121923   6.825   4.211   3.229
 7008SOL    HW221924   6.875   4.064   3.279
 7009SOL     OW21925   4.272   5.996   2.196
 7009SOL    HW121926   4.180   5.956   2.188
 7009SOL    HW221927   4.316   5.995   2.106
 7010SOL     OW21928   5.226   3.855   2.522
 7010SOL    HW121929   5.240   3.803   2.439
 7010SOL    HW221930   5.206   3.951   2.499
 7011SOL     OW21931   3.595   6.393   0.322
 7011SOL    HW121932   3.684   6.385   0.276
 7011SOL    HW221933   3.604   6.364   0.417
 7012SOL     OW21934   1.242   2.867   1.092
 7012SOL    HW121935   1.253   2.953   1.042
 7012SOL    HW221936   1.204   2.797   1.031
 7013SOL     OW21937   2.471   1.284   6.778
 7013SOL    HW121938   2.407   1.361   6.774
 7013SOL    HW221939   2.439   1.217   6.844
 7014SOL     OW21940   6.083   3.599   1.848
 7014SOL    HW121941   6.158   3.606   1.782
 7014SOL    HW221942   6.023   3.679   1.838
 7015SOL     OW21943   5.579   4.361   2.307
 7015SOL    HW121944   5.666   4.405   2.281
 7015SOL    HW221945   5.531   4.332   2.225
 7016SOL     OW21946   3.129   4.860   1.096
 7016SOL    HW121947   3.031   4.854   1.114
 7016SOL    HW221948   3.154   4.954   1.073
 7017SOL     OW21949   3.994   4.840   3.944
 7017SOL    HW121950   3.947   4.858   3.858
 7017SOL    HW221951   3.956   4.899   4.016
 7018SOL     OW21952   4.848   2.957   4.318
 7018SOL    HW121953   4.872   3.053   4.332
 7018SOL    HW221954   4.924   2.899   4.347
 7019SOL     OW21955   5.105   5.192   2.195
 7019SOL    HW121956   5.096   5.137   2.113
 7019SOL    HW221957   5.189   5.168   2.243
 7020SOL     OW21958   0.754   3.144   7.007
 7020SOL    HW121959   0.697   3.226   7.017
 7020SOL    HW221960   0.733   3.081   0.059
 7021SOL     OW21961   1.223   2.659   4.823
 7021SOL    HW121962   1.129   2.682   4.799
 7021SOL    HW221963   1.281   2.666   4.742
 7022SOL     OW21964   3.770   0.933   0.294
 7022SOL    HW121965   3.849   0.933   0.356
 7022SOL    HW221966   3.746   1.027   0.270
 7023SOL     OW21967   0.923   1.589   1.725
 7023SOL    HW121968   0.963   1.523   1.662
 7023SOL    HW221969   0.835   1.555   1.758
 7024SOL     OW21970   3.940   3.077   3.608
 7024SOL    HW121971   3.895   3.012   3.670
 7024SOL    HW221972   3.916   3.055   3.514
 7025SOL     OW21973   3.027   0.361   0.035
 7025SOL    HW121974   3.114   0.399   0.066
 7025SOL    HW221975   3.002   0.284   0.094
 7026SOL     OW21976   3.221   1.696   1.038
 7026SOL    HW121977   3.318   1.673   1.042
 7026SOL    HW221978   3.211   1.792   1.009
 7027SOL     OW21979   2.332   5.407   2.747
 7027SOL    HW121980   2.321   5.397   2.846
 7027SOL    HW221981   2.277   5.485   2.716
 7028SOL     OW21982   2.916   0.600   3.656
 7028SOL    HW121983   2.923   0.699   3.670
 7028SOL    HW221984   2.971   0.553   3.726
 7029SOL     OW21985   3.001   3.325   5.673
 7029SOL    HW121986   2.935   3.386   5.628
 7029SOL    HW221987   3.067   3.293   5.606
 7030SOL     OW21988   0.170   1.548   4.677
 7030SOL    HW121989   0.198   1.459   4.641
 7030SOL    HW221990   0.084   1.576   4.634
 7031SOL     OW21991   4.674   5.939   1.118
 7031SOL    HW121992   4.645   5.908   1.027
 7031SOL    HW221993   4.738   6.016   1.108
 7032SOL     OW21994   4.019   0.080   3.866
 7032SOL    HW121995   3.980   0.128   3.788
 7032SOL    HW221996   4.030   7.007   3.844
 7033SOL     OW21997   1.814   2.621   5.284
 7033SOL    HW121998   1.817   2.539   5.342
 7033SOL    HW221999   1.765   2.693   5.333
 7034SOL     OW22000   6.662   1.516   3.769
 7034SOL    HW122001   6.719   1.444   3.731
 7034SOL    HW222002   6.588   1.537   3.704
 7035SOL     OW22003   2.176   0.269   1.564
 7035SOL    HW122004   2.134   0.360   1.569
 7035SOL    HW222005   2.118   0.202   1.610
 7036SOL     OW22006   0.374   1.433   2.072
 7036SOL    HW122007   0.293   1.383   2.105
 7036SOL    HW222008   0.417   1.480   2.149
 7037SOL     OW22009   0.372   0.166   5.898
 7037SOL    HW122010   0.389   0.232   5.972
 7037SOL    HW222011   0.280   0.181   5.862
 7038SOL     OW22012   2.111   3.843   6.241
 7038SOL    HW122013   2.052   3.902   6.295
 7038SOL    HW222014   2.082   3.846   6.145
 7039SOL     OW22015   0.748   5.355   2.799
 7039SOL    HW122016   0.807   5.332   2.722
 7039SOL    HW222017   0.659   5.309   2.787
 7040SOL     OW22018   4.366   1.996   5.516
 7040SOL    HW122019   4.437   2.066   5.509
 7040SOL    HW222020   4.372   1.934   5.438
 7041SOL     OW22021   1.271   1.061   3.856
 7041SOL    HW122022   1.178   1.028   3.844
 7041SOL    HW222023   1.336   0.994   3.819
 7042SOL     OW22024   3.969   5.896   4.976
 7042SOL    HW122025   4.005   5.909   4.884
 7042SOL    HW222026   3.990   5.977   5.031
 7043SOL     OW22027   2.679   4.702   3.370
 7043SOL    HW122028   2.768   4.716   3.414
 7043SOL    HW222029   2.673   4.761   3.289
 7044SOL     OW22030   5.464   6.362   4.023
 7044SOL    HW122031   5.417   6.281   4.056
 7044SOL    HW222032   5.461   6.364   3.923
 7045SOL     OW22033   6.283   5.631   2.118
 7045SOL    HW122034   6.249   5.680   2.038
 7045SOL    HW222035   6.280   5.691   2.198
 7046SOL     OW22036   3.231   2.160   4.287
 7046SOL    HW122037   3.220   2.063   4.263
 7046SOL    HW222038   3.151   2.211   4.257
 7047SOL     OW22039   0.424   0.045   1.015
 7047SOL    HW122040   0.351   7.015   0.972
 7047SOL    HW222041   0.499   7.008   1.039
 7048SOL     OW22042   6.690   5.617   4.873
 7048SOL    HW122043   6.613   5.677   4.895
 7048SOL    HW222044   6.745   5.603   4.955
 7049SOL     OW22045   3.702   1.489   1.716
 7049SOL    HW122046   3.780   1.548   1.735
 7049SOL    HW222047   3.735   1.401   1.679
 7050SOL     OW22048   3.871   4.872   0.853
 7050SOL    HW122049   3.845   4.807   0.925
 7050SOL    HW222050   3.806   4.947   0.850
 7051SOL     OW22051   0.083   0.150   1.857
 7051SOL    HW122052   0.149   0.139   1.783
 7051SOL    HW222053   0.058   0.060   1.893
 7052SOL     OW22054   5.883   6.988   2.833
 7052SOL    HW122055   5.851   6.942   2.750
 7052SOL    HW222056   5.812   6.984   2.903
 7053SOL     OW22057   1.546   3.324   3.476
 7053SOL    HW122058   1.630   3.273   3.494
 7053SOL    HW222059   1.473   3.289   3.535
 7054SOL     OW22060   0.038   0.387   0.977
 7054SOL    HW122061   0.068   0.459   1.040
 7054SOL    HW222062   6.971   0.410   0.942
 7055SOL     OW22063   1.944   0.501   6.600
 7055SOL    HW122064   1.936   0.590   6.644
 7055SOL    HW222065   1.890   0.433   6.650
 7056SOL     OW22066   6.592   5.776   1.286
 7056SOL    HW122067   6.686   5.754   1.260
 7056SOL    HW222068   6.550   5.697   1.331
 7057SOL     OW22069   2.477   4.945   4.712
 7057SOL    HW122070   2.488   5.030   4.764
 7057SOL    HW222071   2.520   4.870   4.762
 7058SOL     OW22072   5.052   2.337   6.897
 7058SOL    HW122073   5.091   2.390   6.822
 7058SOL    HW222074   4.981   2.276   6.861
 7059SOL     OW22075   1.886   1.164   4.552
 7059SOL    HW122076   1.802   1.161   4.497
 7059SOL    HW222077   1.929   1.074   4.552
 7060SOL     OW22078   3.210   6.764   2.535
 7060SOL    HW122079   3.272   6.735   2.463
 7060SOL    HW222080   3.235   6.857   2.565
 7061SOL     OW22081   1.354   1.685   2.825
 7061SOL    HW122082   1.358   1.785   2.820
 7061SOL    HW222083   1.381   1.645   2.738
 7062SOL     OW22084   4.479   1.770   3.863
 7062SOL    HW122085   4.474   1.868   3.844
 7062SOL    HW222086   4.392   1.740   3.902
 7063SOL     OW22087   0.729   0.068   2.196
 7063SOL    HW122088   0.726   0.050   2.294
 7063SOL    HW222089   0.796   0.007   2.153
 7064SOL     OW22090   5.022   1.974   5.138
 7064SOL    HW122091   4.933   1.999   5.175
 7064SOL    HW222092   5.034   2.019   5.049
 7065SOL     OW22093   3.191   4.455   5.342
 7065SOL    HW122094   3.144   4.520   5.282
 7065SOL    HW222095   3.182   4.485   5.437
 7066SOL     OW22096   3.891   0.803   0.003
 7066SOL    HW122097   3.871   0.812   0.101
 7066SOL    HW222098   3.863   0.712   6.995
 7067SOL     OW22099   2.102   3.217   7.021
 7067SOL    HW122100   2.054   3.210   0.085
 7067SOL    HW222101   2.070   3.298   6.972
 7068SOL     OW22102   5.438   3.959   4.417
 7068SOL    HW122103   5.413   3.911   4.333
 7068SOL    HW222104   5.536   3.981   4.415
 7069SOL     OW22105   5.867   0.590   5.954
 7069SOL    HW122106   5.874   0.493   5.973
 7069SOL    HW222107   5.792   0.630   6.007
 7070SOL     OW22108   0.196   6.992   4.852
 7070SOL    HW122109   0.192   6.931   4.773
 7070SOL    HW222110   0.114   0.026   4.854
 7071SOL     OW22111   5.225   6.898   6.488
 7071SOL    HW122112   5.284   6.817   6.491
 7071SOL    HW222113   5.134   6.871   6.457
 7072SOL     OW22114   0.926   4.346   6.648
 7072SOL    HW122115   0.890   4.296   6.726
 7072SOL    HW222116   1.024   4.330   6.640
 7073SOL     OW22117   4.593   0.472   3.413
 7073SOL    HW122118   4.595   0.489   3.314
 7073SOL    HW222119   4.527   0.400   3.433
 7074SOL     OW22120   6.151   3.967   2.981
 7074SOL    HW122121   6.135   4.026   3.060
 7074SOL    HW222122   6.249   3.962   2.961
 7075SOL     OW22123   3.334   5.014   4.812
 7075SOL    HW122124   3.434   5.007   4.813
 7075SOL    HW222125   3.296   4.953   4.881
 7076SOL     OW22126   5.813   3.480   2.533
 7076SOL    HW122127   5.758   3.400   2.507
 7076SOL    HW222128   5.886   3.451   2.595
 7077SOL     OW22129   2.715   4.989   2.186
 7077SOL    HW122130   2.748   4.895   2.172
 7077SOL    HW222131   2.768   5.052   2.130
 7078SOL     OW22132   5.534   6.973   0.370
 7078SOL    HW122133   5.609   6.964   0.304
 7078SOL    HW222134   5.543   0.036   0.420
 7079SOL     OW22135   1.020   6.760   3.958
 7079SOL    HW122136   1.053   6.666   3.963
 7079SOL    HW222137   1.063   6.815   4.030
 7080SOL     OW22138   3.957   1.910   5.208
 7080SOL    HW122139   3.937   1.883   5.114
 7080SOL    HW222140   3.986   1.830   5.260
 7081SOL     OW22141   1.526   0.679   6.729
 7081SOL    HW122142   1.610   0.725   6.699
 7081SOL    HW222143   1.502   0.711   6.821
 7082SOL     OW22144   6.596   3.913   2.150
 7082SOL    HW122145   6.523   3.939   2.213
 7082SOL    HW222146   6.681   3.903   2.201
 7083SOL     OW22147   6.487   2.420   2.132
 7083SOL    HW122148   6.511   2.516   2.146
 7083SOL    HW222149   6.441   2.385   2.213
 7084SOL     OW22150   0.810   5.614   0.284
 7084SOL    HW122151   0.870   5.691   0.260
 7084SOL    HW222152   0.815   5.597   0.382
 7085SOL     OW22153   0.348   2.889   2.498
 7085SOL    HW122154   0.259   2.931   2.481
 7085SOL    HW222155   0.362   2.878   2.596
 7086SOL     OW22156   5.904   0.713   6.406
 7086SOL    HW122157   5.903   0.801   6.359
 7086SOL    HW222158   5.813   0.692   6.439
 7087SOL     OW22159   5.797   2.973   3.044
 7087SOL    HW122160   5.752   3.044   3.098
 7087SOL    HW222161   5.801   2.888   3.097
 7088SOL     OW22162   5.638   1.588   5.313
 7088SOL    HW122163   5.606   1.570   5.406
 7088SOL    HW222164   5.562   1.621   5.257
 7089SOL     OW22165   4.000   5.640   1.849
 7089SOL    HW122166   3.979   5.553   1.893
 7089SOL    HW222167   3.920   5.700   1.852
 7090SOL     OW22168   3.516   1.545   1.245
 7090SOL    HW122169   3.509   1.451   1.279
 7090SOL    HW222170   3.544   1.605   1.320
 7091SOL     OW22171   0.821   6.642   0.513
 7091SOL    HW122172   0.874   6.719   0.478
 7091SOL    HW222173   0.761   6.608   0.441
 7092SOL     OW22174   4.394   2.162   6.439
 7092SOL    HW122175   4.374   2.066   6.463
 7092SOL    HW222176   4.356   2.222   6.510
 7093SOL     OW22177   3.311   3.943   0.453
 7093SOL    HW122178   3.300   3.847   0.478
 7093SOL    HW222179   3.381   3.985   0.511
 7094SOL     OW22180   2.201   6.914   5.639
 7094SOL    HW122181   2.178   6.857   5.718
 7094SOL    HW222182   2.248   6.997   5.670
 7095SOL     OW22183   2.952   4.476   5.748
 7095SOL    HW122184   3.022   4.466   5.678
 7095SOL    HW222185   2.862   4.479   5.706
 7096SOL     OW22186   6.950   0.848   0.774
 7096SOL    HW122187   6.877   0.905   0.736
 7096SOL    HW222188   7.020   0.833   0.704
 7097SOL     OW22189   5.595   0.105   1.840
 7097SOL    HW122190   5.536   0.054   1.776
 7097SOL    HW222191   5.546   0.117   1.927
 7098SOL     OW22192   1.175   6.776   4.366
 7098SOL    HW122193   1.221   6.823   4.290
 7098SOL    HW222194   1.202   6.680   4.365
 7099SOL     OW22195   3.279   2.091   3.923
 7099SOL    HW122196   3.212   2.156   3.886
 7099SOL    HW222197   3.294   2.017   3.857
 7100SOL     OW22198   0.287   3.526   0.951
 7100SOL    HW122199   0.290   3.479   0.863
 7100SOL    HW222200   0.209   3.492   1.004
 7101SOL     OW22201   1.917   6.679   5.414
 7101SOL    HW122202   1.862   6.648   5.491
 7101SOL    HW222203   2.008   6.706   5.446
 7102SOL     OW22204   5.133   0.697   0.693
 7102SOL    HW122205   5.132   0.654   0.783
 7102SOL    HW222206   5.185   0.782   0.697
 7103SOL     OW22207   5.194   5.108   2.559
 7103SOL    HW122208   5.226   5.085   2.467
 7103SOL    HW222209   5.106   5.064   2.575
 7104SOL     OW22210   5.072   2.875   3.611
 7104SOL    HW122211   5.082   2.973   3.627
 7104SOL    HW222212   4.976   2.853   3.597
 7105SOL     OW22213   3.180   4.071   3.978
 7105SOL    HW122214   3.118   4.004   4.020
 7105SOL    HW222215   3.220   4.128   4.050
 7106SOL     OW22216   3.651   2.988   1.396
 7106SOL    HW122217   3.567   3.035   1.368
 7106SOL    HW222218   3.633   2.933   1.477
 7107SOL     OW22219   3.876   0.281   6.854
 7107SOL    HW122220   3.889   0.228   6.939
 7107SOL    HW222221   3.929   0.366   6.860
 7108SOL     OW22222   3.095   6.394   2.804
 7108SOL    HW122223   3.017   6.366   2.748
 7108SOL    HW222224   3.103   6.493   2.802
 7109SOL     OW22225   2.029   0.116   5.744
 7109SOL    HW122226   2.038   0.040   5.808
 7109SOL    HW222227   2.003   0.199   5.793
 7110SOL     OW22228   3.024   6.351   4.784
 7110SOL    HW122229   2.999   6.351   4.881
 7110SOL    HW222230   2.960   6.293   4.733
 7111SOL     OW22231   1.157   0.628   3.733
 7111SOL    HW122232   1.103   0.696   3.684
 7111SOL    HW222233   1.097   0.557   3.770
 7112SOL     OW22234   1.934   4.640   4.472
 7112SOL    HW122235   1.876   4.606   4.547
 7112SOL    HW222236   1.879   4.653   4.390
 7113SOL     OW22237   3.044   4.918   4.941
 7113SOL    HW122238   3.092   4.835   4.969
 7113SOL    HW222239   2.962   4.930   4.997
 7114SOL     OW22240   4.880   4.997   0.654
 7114SOL    HW122241   4.943   5.066   0.689
 7114SOL    HW222242   4.909   4.907   0.687
 7115SOL     OW22243   6.349   4.418   6.945
 7115SOL    HW122244   6.257   4.378   6.935
 7115SOL    HW222245   6.356   4.498   6.886
 7116SOL     OW22246   6.721   3.583   4.178
 7116SOL    HW122247   6.783   3.549   4.249
 7116SOL    HW222248   6.726   3.683   4.176
 7117SOL     OW22249   6.109   0.171   3.715
 7117SOL    HW122250   6.093   0.082   3.758
 7117SOL    HW222251   6.185   0.163   3.649
 7118SOL     OW22252   4.132   4.506   5.343
 7118SOL    HW122253   4.187   4.561   5.407
 7118SOL    HW222254   4.189   4.478   5.266
 7119SOL     OW22255   4.657   0.197   5.023
 7119SOL    HW122256   4.571   0.183   4.973
 7119SOL    HW222257   4.701   0.280   4.991
 7120SOL     OW22258   4.872   1.387   0.940
 7120SOL    HW122259   4.810   1.416   0.868
 7120SOL    HW222260   4.847   1.432   1.026
 7121SOL     OW22261   0.606   6.464   3.587
 7121SOL    HW122262   0.547   6.390   3.620
 7121SOL    HW222263   0.652   6.506   3.665
 7122SOL     OW22264   2.949   6.893   5.915
 7122SOL    HW122265   2.886   6.816   5.906
 7122SOL    HW222266   3.030   6.876   5.859
 7123SOL     OW22267   5.612   5.290   5.436
 7123SOL    HW122268   5.620   5.190   5.430
 7123SOL    HW222269   5.618   5.318   5.532
 7124SOL     OW22270   0.790   2.258   1.270
 7124SOL    HW122271   0.834   2.168   1.268
 7124SOL    HW222272   0.798   2.301   1.180
 7125SOL     OW22273   0.760   0.138   1.463
 7125SOL    HW122274   0.817   0.100   1.536
 7125SOL    HW222275   0.720   0.063   1.410
 7126SOL     OW22276   4.386   6.225   1.522
 7126SOL    HW122277   4.358   6.246   1.429
 7126SOL    HW222278   4.314   6.251   1.587
 7127SOL     OW22279   3.190   6.352   5.163
 7127SOL    HW122280   3.228   6.329   5.252
 7127SOL    HW222281   3.212   6.279   5.098
 7128SOL     OW22282   3.641   4.404   6.225
 7128SOL    HW122283   3.731   4.436   6.195
 7128SOL    HW222284   3.583   4.482   6.247
 7129SOL     OW22285   0.158   0.582   1.125
 7129SOL    HW122286   0.248   0.539   1.136
 7129SOL    HW222287   0.131   0.625   1.211
 7130SOL     OW22288   3.054   6.190   4.033
 7130SOL    HW122289   3.118   6.259   3.998
 7130SOL    HW222290   2.975   6.236   4.073
 7131SOL     OW22291   4.121   0.988   2.294
 7131SOL    HW122292   4.075   1.074   2.316
 7131SOL    HW222293   4.053   0.917   2.278
 7132SOL     OW22294   5.447   3.845   0.023
 7132SOL    HW122295   5.350   3.848   0.047
 7132SOL    HW222296   5.487   3.760   0.056
 7133SOL     OW22297   3.663   5.525   3.589
 7133SOL    HW122298   3.726   5.521   3.667
 7133SOL    HW222299   3.578   5.477   3.612
 7134SOL     OW22300   5.796   5.494   1.322
 7134SOL    HW122301   5.809   5.453   1.413
 7134SOL    HW222302   5.866   5.563   1.307
 7135SOL     OW22303   2.306   2.917   1.843
 7135SOL    HW122304   2.253   2.837   1.814
 7135SOL    HW222305   2.250   2.974   1.904
 7136SOL     OW22306   2.821   1.640   1.791
 7136SOL    HW122307   2.838   1.554   1.743
 7136SOL    HW222308   2.905   1.695   1.792
 7137SOL     OW22309   2.531   1.966   1.750
 7137SOL    HW122310   2.554   2.006   1.662
 7137SOL    HW222311   2.563   2.025   1.824
 7138SOL     OW22312   1.622   1.813   0.427
 7138SOL    HW122313   1.598   1.751   0.501
 7138SOL    HW222314   1.573   1.900   0.438
 7139SOL     OW22315   6.320   5.774   1.568
 7139SOL    HW122316   6.414   5.766   1.535
 7139SOL    HW222317   6.265   5.698   1.531
 7140SOL     OW22318   6.547   3.306   0.528
 7140SOL    HW122319   6.550   3.400   0.494
 7140SOL    HW222320   6.452   3.276   0.534
 7141SOL     OW22321   4.059   6.616   1.219
 7141SOL    HW122322   3.968   6.642   1.186
 7141SOL    HW222323   4.062   6.625   1.319
 7142SOL     OW22324   3.348   0.373   4.859
 7142SOL    HW122325   3.350   0.449   4.794
 7142SOL    HW222326   3.253   0.349   4.878
 7143SOL     OW22327   2.436   4.746   6.488
 7143SOL    HW122328   2.493   4.823   6.462
 7143SOL    HW222329   2.491   4.662   6.488
 7144SOL     OW22330   6.588   1.016   4.165
 7144SOL    HW122331   6.570   1.017   4.263
 7144SOL    HW222332   6.595   1.110   4.131
 7145SOL     OW22333   4.893   2.064   7.009
 7145SOL    HW122334   4.814   2.099   0.035
 7145SOL    HW222335   4.976   2.087   0.036
 7146SOL     OW22336   2.547   1.041   5.248
 7146SOL    HW122337   2.644   1.016   5.253
 7146SOL    HW222338   2.511   1.015   5.158
 7147SOL     OW22339   5.661   5.128   2.140
 7147SOL    HW122340   5.584   5.068   2.118
 7147SOL    HW222341   5.737   5.072   2.176
 7148SOL     OW22342   6.489   6.345   0.796
 7148SOL    HW122343   6.544   6.273   0.753
 7148SOL    HW222344   6.395   6.312   0.808
 7149SOL     OW22345   6.715   5.337   3.966
 7149SOL    HW122346   6.641   5.271   3.956
 7149SOL    HW222347   6.719   5.369   4.060
 7150SOL     OW22348   3.808   3.713   6.953
 7150SOL    HW122349   3.765   3.782   6.894
 7150SOL    HW222350   3.903   3.700   6.925
 7151SOL     OW22351   3.615   0.450   0.900
 7151SOL    HW122352   3.518   0.475   0.901
 7151SOL    HW222353   3.643   0.427   0.807
 7152SOL     OW22354   0.402   1.614   6.641
 7152SOL    HW122355   0.407   1.639   6.544
 7152SOL    HW222356   0.465   1.671   6.694
 7153SOL     OW22357   3.757   6.242   1.098
 7153SOL    HW122358   3.807   6.279   1.176
 7153SOL    HW222359   3.821   6.198   1.035
 7154SOL     OW22360   4.090   1.392   1.988
 7154SOL    HW122361   4.177   1.357   2.021
 7154SOL    HW222362   4.084   1.490   2.006
 7155SOL     OW22363   2.951   1.922   2.608
 7155SOL    HW122364   2.866   1.933   2.556
 7155SOL    HW222365   3.020   1.881   2.549
 7156SOL     OW22366   6.351   3.856   0.184
 7156SOL    HW122367   6.360   3.945   0.138
 7156SOL    HW222368   6.334   3.785   0.116
 7157SOL     OW22369   5.949   4.456   6.512
 7157SOL    HW122370   5.976   4.445   6.416
 7157SOL    HW222371   6.031   4.461   6.569
 7158SOL     OW22372   5.018   6.869   3.758
 7158SOL    HW122373   5.094   6.924   3.722
 7158SOL    HW222374   5.027   6.775   3.726
 7159SOL     OW22375   0.650   5.889   3.418
 7159SOL    HW122376   0.659   5.891   3.318
 7159SOL    HW222377   0.623   5.980   3.451
 7160SOL     OW22378   5.463   6.698   3.024
 7160SOL    HW122379   5.460   6.793   3.054
 7160SOL    HW222380   5.523   6.689   2.944
 7161SOL     OW22381   4.109   3.283   3.595
 7161SOL    HW122382   4.157   3.278   3.682
 7161SOL    HW222383   4.040   3.211   3.592
 7162SOL     OW22384   0.294   4.907   2.144
 7162SOL    HW122385   0.284   4.991   2.197
 7162SOL    HW222386   0.237   4.835   2.184
 7163SOL     OW22387   1.465   1.234   1.936
 7163SOL    HW122388   1.546   1.253   1.992
 7163SOL    HW222389   1.482   1.155   1.878
 7164SOL     OW22390   1.775   1.003   6.125
 7164SOL    HW122391   1.721   0.985   6.043
 7164SOL    HW222392   1.870   1.020   6.098
 7165SOL     OW22393   6.805   0.720   0.448
 7165SOL    HW122394   6.784   0.800   0.505
 7165SOL    HW222395   6.787   0.637   0.500
 7166SOL     OW22396   5.166   6.434   5.960
 7166SOL    HW122397   5.080   6.485   5.964
 7166SOL    HW222398   5.243   6.498   5.961
 7167SOL     OW22399   5.681   2.232   5.149
 7167SOL    HW122400   5.635   2.303   5.095
 7167SOL    HW222401   5.712   2.159   5.088
 7168SOL     OW22402   2.698   1.006   1.923
 7168SOL    HW122403   2.684   1.013   1.824
 7168SOL    HW222404   2.667   1.090   1.967
 7169SOL     OW22405   1.806   4.198   6.120
 7169SOL    HW122406   1.845   4.123   6.067
 7169SOL    HW222407   1.754   4.259   6.060
 7170SOL     OW22408   4.350   1.095   1.810
 7170SOL    HW122409   4.293   1.092   1.892
 7170SOL    HW222410   4.378   1.190   1.792
 7171SOL     OW22411   6.083   4.802   0.676
 7171SOL    HW122412   5.989   4.827   0.697
 7171SOL    HW222413   6.130   4.774   0.760
 7172SOL     OW22414   1.080   1.155   4.242
 7172SOL    HW122415   1.103   1.079   4.303
 7172SOL    HW222416   1.136   1.235   4.266
 7173SOL     OW22417   5.091   6.276   6.854
 7173SOL    HW122418   5.137   6.289   6.942
 7173SOL    HW222419   5.127   6.342   6.788
 7174SOL     OW22420   5.922   4.611   1.692
 7174SOL    HW122421   5.861   4.604   1.613
 7174SOL    HW222422   6.014   4.632   1.661
 7175SOL     OW22423   6.094   3.753   5.854
 7175SOL    HW122424   6.041   3.669   5.843
 7175SOL    HW222425   6.061   3.823   5.790
 7176SOL     OW22426   0.283   1.146   5.066
 7176SOL    HW122427   0.187   1.150   5.096
 7176SOL    HW222428   0.298   1.060   5.016
 7177SOL     OW22429   1.784   5.298   4.615
 7177SOL    HW122430   1.849   5.260   4.681
 7177SOL    HW222431   1.697   5.251   4.623
 7178SOL     OW22432   1.197   1.152   5.383
 7178SOL    HW122433   1.149   1.065   5.370
 7178SOL    HW222434   1.257   1.170   5.306
 7179SOL     OW22435   3.906   5.631   6.508
 7179SOL    HW122436   3.939   5.537   6.510
 7179SOL    HW222437   3.937   5.679   6.590
 7180SOL     OW22438   1.086   4.688   1.318
 7180SOL    HW122439   1.134   4.612   1.363
 7180SOL    HW222440   1.150   4.736   1.258
 7181SOL     OW22441   2.478   1.449   5.916
 7181SOL    HW122442   2.431   1.406   5.839
 7181SOL    HW222443   2.417   1.514   5.960
 7182SOL     OW22444   1.175   3.582   4.143
 7182SOL    HW122445   1.262   3.579   4.095
 7182SOL    HW222446   1.190   3.566   4.241
 7183SOL     OW22447   0.824   6.370   1.874
 7183SOL    HW122448   0.756   6.395   1.805
 7183SOL    HW222449   0.852   6.275   1.861
 7184SOL     OW22450   6.587   0.016   3.404
 7184SOL    HW122451   6.550   7.023   3.496
 7184SOL    HW222452   6.514   0.005   3.337
 7185SOL     OW22453   4.781   0.398   4.923
 7185SOL    HW122454   4.864   0.418   4.870
 7185SOL    HW222455   4.701   0.403   4.863
 7186SOL     OW22456   0.107   6.997   6.538
 7186SOL    HW122457   0.183   6.970   6.598
 7186SOL    HW222458   0.143   0.028   6.462
 7187SOL     OW22459   2.856   3.398   5.021
 7187SOL    HW122460   2.762   3.426   5.002
 7187SOL    HW222461   2.902   3.374   4.936
 7188SOL     OW22462   4.402   5.072   6.944
 7188SOL    HW122463   4.361   5.161   6.964
 7188SOL    HW222464   4.330   5.003   6.938
 7189SOL     OW22465   6.171   2.280   5.160
 7189SOL    HW122466   6.077   2.253   5.177
 7189SOL    HW222467   6.219   2.293   5.247
 7190SOL     OW22468   5.822   5.310   1.125
 7190SOL    HW122469   5.818   5.376   1.200
 7190SOL    HW222470   5.757   5.236   1.141
 7191SOL     OW22471   0.535   4.053   3.184
 7191SOL    HW122472   0.465   4.076   3.252
 7191SOL    HW222473   0.516   3.963   3.146
 7192SOL     OW22474   1.702   4.890   6.633
 7192SOL    HW122475   1.648   4.814   6.596
 7192SOL    HW222476   1.744   4.862   6.719
 7193SOL     OW22477   2.178   2.458   2.371
 7193SOL    HW122478   2.262   2.509   2.388
 7193SOL    HW222479   2.197   2.383   2.307
 7194SOL     OW22480   3.255   2.566   5.901
 7194SOL    HW122481   3.163   2.596   5.876
 7194SOL    HW222482   3.274   2.592   5.996
 7195SOL     OW22483   0.055   3.537   6.252
 7195SOL    HW122484   0.069   3.465   6.184
 7195SOL    HW222485   0.139   3.590   6.262
 7196SOL     OW22486   3.022   3.924   2.242
 7196SOL    HW122487   2.966   3.916   2.160
 7196SOL    HW222488   3.119   3.932   2.216
 7197SOL     OW22489   1.769   3.761   5.653
 7197SOL    HW122490   1.735   3.705   5.578
 7197SOL    HW222491   1.856   3.804   5.626
 7198SOL     OW22492   6.358   1.366   1.005
 7198SOL    HW122493   6.382   1.367   1.102
 7198SOL    HW222494   6.414   1.433   0.957
 7199SOL     OW22495   1.102   0.646   2.210
 7199SOL    HW122496   1.096   0.624   2.113
 7199SOL    HW222497   1.010   0.662   2.246
 7200SOL     OW22498   1.469   2.038   0.507
 7200SOL    HW122499   1.537   2.102   0.544
 7200SOL    HW222500   1.401   2.018   0.577
 7201SOL     OW22501   5.968   5.943   4.021
 7201SOL    HW122502   6.041   5.989   4.071
 7201SOL    HW222503   5.879   5.977   4.052
 7202SOL     OW22504   4.688   0.544   5.798
 7202SOL    HW122505   4.786   0.564   5.792
 7202SOL    HW222506   4.648   0.596   5.873
 7203SOL     OW22507   0.241   2.089   1.943
 7203SOL    HW122508   0.221   2.026   1.868
 7203SOL    HW222509   0.327   2.063   1.987
 7204SOL     OW22510   6.873   1.142   1.448
 7204SOL    HW122511   6.965   1.151   1.484
 7204SOL    HW222512   6.843   1.229   1.409
 7205SOL     OW22513   2.249   2.301   5.291
 7205SOL    HW122514   2.338   2.260   5.268
 7205SOL    HW222515   2.179   2.230   5.289
 7206SOL     OW22516   1.842   2.172   1.249
 7206SOL    HW122517   1.809   2.229   1.173
 7206SOL    HW222518   1.876   2.232   1.322
 7207SOL     OW22519   1.688   2.087   4.179
 7207SOL    HW122520   1.751   2.120   4.108
 7207SOL    HW222521   1.597   2.127   4.163
 7208SOL     OW22522   3.189   0.890   4.452
 7208SOL    HW122523   3.233   0.831   4.385
 7208SOL    HW222524   3.095   0.859   4.467
 7209SOL     OW22525   2.884   1.909   2.010
 7209SOL    HW122526   2.855   1.995   1.967
 7209SOL    HW222527   2.812   1.876   2.070
 7210SOL     OW22528   2.488   1.630   3.411
 7210SOL    HW122529   2.519   1.697   3.479
 7210SOL    HW222530   2.389   1.626   3.412
 7211SOL     OW22531   2.988   5.850   5.911
 7211SOL    HW122532   2.940   5.771   5.874
 7211SOL    HW222533   2.935   5.933   5.891
 7212SOL     OW22534   5.685   4.760   5.867
 7212SOL    HW122535   5.717   4.850   5.897
 7212SOL    HW222536   5.607   4.772   5.806
 7213SOL     OW22537   3.294   0.971   0.718
 7213SOL    HW122538   3.381   0.942   0.679
 7213SOL    HW222539   3.301   1.066   0.749
 7214SOL     OW22540   0.618   1.285   6.535
 7214SOL    HW122541   0.560   1.305   6.456
 7214SOL    HW222542   0.714   1.299   6.510
 7215SOL     OW22543   0.015   2.851   3.086
 7215SOL    HW122544   7.017   2.829   3.182
 7215SOL    HW222545   6.992   2.785   3.026
 7216SOL     OW22546   3.115   6.019   3.157
 7216SOL    HW122547   3.044   5.996   3.090
 7216SOL    HW222548   3.179   6.084   3.118
 7217SOL     OW22549   1.237   4.341   3.621
 7217SOL    HW122550   1.170   4.412   3.644
 7217SOL    HW222551   1.199   4.251   3.644
 7218SOL     OW22552   6.124   3.640   4.757
 7218SOL    HW122553   6.071   3.656   4.674
 7218SOL    HW222554   6.109   3.716   4.821
 7219SOL     OW22555   3.314   6.338   1.878
 7219SOL    HW122556   3.286   6.255   1.831
 7219SOL    HW222557   3.245   6.365   1.945
 7220SOL     OW22558   6.555   4.499   4.195
 7220SOL    HW122559   6.548   4.541   4.286
 7220SOL    HW222560   6.547   4.400   4.204
 7221SOL     OW22561   3.463   5.758   4.952
 7221SOL    HW122562   3.426   5.829   5.012
 7221SOL    HW222563   3.394   5.687   4.937
 7222SOL     OW22564   6.913   6.673   3.369
 7222SOL    HW122565   6.904   6.584   3.413
 7222SOL    HW222566   6.829   6.694   3.319
 7223SOL     OW22567   1.726   2.174   0.522
 7223SOL    HW122568   1.764   2.265   0.505
 7223SOL    HW222569   1.776   2.131   0.597
 7224SOL     OW22570   4.156   2.257   3.450
 7224SOL    HW122571   4.065   2.253   3.409
 7224SOL    HW222572   4.191   2.164   3.465
 7225SOL     OW22573   1.766   6.898   0.876
 7225SOL    HW122574   1.859   6.869   0.901
 7225SOL    HW222575   1.759   6.903   0.776
 7226SOL     OW22576   6.544   0.923   6.770
 7226SOL    HW122577   6.492   0.842   6.744
 7226SOL    HW222578   6.545   0.932   6.870
 7227SOL     OW22579   2.775   0.759   2.017
 7227SOL    HW122580   2.780   0.854   1.988
 7227SOL    HW222581   2.859   0.735   2.067
 7228SOL     OW22582   0.648   2.219   2.291
 7228SOL    HW122583   0.583   2.247   2.222
 7228SOL    HW222584   0.608   2.147   2.347
 7229SOL     OW22585   6.613   0.065   4.506
 7229SOL    HW122586   6.541   0.118   4.549
 7229SOL    HW222587   6.579   0.025   4.421
 7230SOL     OW22588   2.495   4.985   4.444
 7230SOL    HW122589   2.486   4.933   4.529
 7230SOL    HW222590   2.582   5.034   4.444
 7231SOL     OW22591   4.164   1.346   6.761
 7231SOL    HW122592   4.095   1.313   6.696
 7231SOL    HW222593   4.146   1.442   6.782
 7232SOL     OW22594   5.337   0.123   2.750
 7232SOL    HW122595   5.293   0.183   2.817
 7232SOL    HW222596   5.434   0.149   2.741
 7233SOL     OW22597   6.575   0.931   5.450
 7233SOL    HW122598   6.527   1.015   5.427
 7233SOL    HW222599   6.574   0.918   5.549
 7234SOL     OW22600   4.956   3.904   3.622
 7234SOL    HW122601   4.928   3.818   3.579
 7234SOL    HW222602   4.912   3.911   3.712
 7235SOL     OW22603   6.686   5.643   1.671
 7235SOL    HW122604   6.616   5.587   1.715
 7235SOL    HW222605   6.662   5.657   1.575
 7236SOL     OW22606   2.240   2.390   3.132
 7236SOL    HW122607   2.143   2.379   3.113
 7236SOL    HW222608   2.293   2.341   3.063
 7237SOL     OW22609   5.270   0.549   6.699
 7237SOL    HW122610   5.338   0.615   6.668
 7237SOL    HW222611   5.217   0.516   6.621
 7238SOL     OW22612   4.664   2.357   6.893
 7238SOL    HW122613   4.659   2.299   6.974
 7238SOL    HW222614   4.735   2.427   6.906
 7239SOL     OW22615   0.537   3.614   2.536
 7239SOL    HW122616   0.519   3.658   2.624
 7239SOL    HW222617   0.481   3.656   2.465
 7240SOL     OW22618   6.817   1.840   5.951
 7240SOL    HW122619   6.794   1.824   5.855
 7240SOL    HW222620   6.915   1.823   5.964
 7241SOL     OW22621   2.213   0.602   1.222
 7241SOL    HW122622   2.289   0.656   1.186
 7241SOL    HW222623   2.249   0.518   1.263
 7242SOL     OW22624   0.432   5.676   3.951
 7242SOL    HW122625   0.483   5.645   3.871
 7242SOL    HW222626   0.494   5.692   4.028
 7243SOL     OW22627   6.527   4.054   6.423
 7243SOL    HW122628   6.587   4.030   6.347
 7243SOL    HW222629   6.485   3.971   6.460
 7244SOL     OW22630   0.388   6.387   0.093
 7244SOL    HW122631   0.371   6.482   0.067
 7244SOL    HW222632   0.300   6.338   0.100
 7245SOL     OW22633   1.469   3.000   6.856
 7245SOL    HW122634   1.523   3.030   6.778
 7245SOL    HW222635   1.386   2.954   6.824
 7246SOL     OW22636   2.978   0.541   4.308
 7246SOL    HW122637   2.903   0.477   4.323
 7246SOL    HW222638   2.942   0.629   4.279
 7247SOL     OW22639   2.940   2.474   5.523
 7247SOL    HW122640   2.954   2.445   5.428
 7247SOL    HW222641   2.934   2.393   5.582
 7248SOL     OW22642   3.334   0.569   4.648
 7248SOL    HW122643   3.260   0.551   4.583
 7248SOL    HW222644   3.416   0.597   4.598
 7249SOL     OW22645   3.949   4.873   2.232
 7249SOL    HW122646   3.932   4.959   2.183
 7249SOL    HW222647   3.877   4.859   2.300
 7250SOL     OW22648   5.332   5.047   5.345
 7250SOL    HW122649   5.305   4.951   5.354
 7250SOL    HW222650   5.320   5.076   5.250
 7251SOL     OW22651   0.404   6.473   5.406
 7251SOL    HW122652   0.503   6.469   5.396
 7251SOL    HW222653   0.364   6.389   5.367
 7252SOL     OW22654   3.261   4.065   2.183
 7252SOL    HW122655   3.358   4.086   2.199
 7252SOL    HW222656   3.204   4.133   2.231
 7253SOL     OW22657   1.498   5.914   5.961
 7253SOL    HW122658   1.552   5.982   5.910
 7253SOL    HW222659   1.460   5.957   6.043
 7254SOL     OW22660   5.736   4.332   3.581
 7254SOL    HW122661   5.698   4.241   3.599
 7254SOL    HW222662   5.794   4.328   3.499
 7255SOL     OW22663   5.125   3.564   6.697
 7255SOL    HW122664   5.216   3.558   6.657
 7255SOL    HW222665   5.062   3.604   6.631
 7256SOL     OW22666   3.423   6.810   5.951
 7256SOL    HW122667   3.340   6.813   5.895
 7256SOL    HW222668   3.399   6.816   6.047
 7257SOL     OW22669   0.117   1.824   4.520
 7257SOL    HW122670   0.043   1.802   4.584
 7257SOL    HW222671   0.128   1.749   4.455
 7258SOL     OW22672   6.031   2.521   2.179
 7258SOL    HW122673   6.005   2.438   2.228
 7258SOL    HW222674   5.955   2.553   2.124
 7259SOL     OW22675   1.200   3.677   3.212
 7259SOL    HW122676   1.235   3.602   3.155
 7259SOL    HW222677   1.243   3.763   3.185
 7260SOL     OW22678   5.595   2.606   0.965
 7260SOL    HW122679   5.563   2.514   0.942
 7260SOL    HW222680   5.532   2.647   1.032
 7261SOL     OW22681   0.012   4.077   0.425
 7261SOL    HW122682   0.025   4.123   0.513
 7261SOL    HW222683   0.057   3.988   0.427
 7262SOL     OW22684   5.311   1.941   5.827
 7262SOL    HW122685   5.252   2.020   5.845
 7262SOL    HW222686   5.392   1.947   5.885
 7263SOL     OW22687   6.999   6.545   0.392
 7263SOL    HW122688   0.069   6.517   0.415
 7263SOL    HW222689   6.976   6.512   0.301
 7264SOL     OW22690   5.704   1.451   0.317
 7264SOL    HW122691   5.777   1.386   0.296
 7264SOL    HW222692   5.740   1.545   0.311
 7265SOL     OW22693   5.276   5.635   4.710
 7265SOL    HW122694   5.369   5.671   4.710
 7265SOL    HW222695   5.271   5.555   4.769
 7266SOL     OW22696   6.870   0.587   3.902
 7266SOL    HW122697   6.931   0.664   3.884
 7266SOL    HW222698   6.796   0.617   3.963
 7267SOL     OW22699   6.650   5.934   5.044
 7267SOL    HW122700   6.679   6.023   5.078
 7267SOL    HW222701   6.570   5.946   4.984
 7268SOL     OW22702   6.586   5.785   4.191
 7268SOL    HW122703   6.636   5.710   4.147
 7268SOL    HW222704   6.525   5.828   4.124
 7269SOL     OW22705   1.948   5.239   5.660
 7269SOL    HW122706   1.941   5.139   5.664
 7269SOL    HW222707   1.962   5.275   5.752
 7270SOL     OW22708   0.358   1.990   3.944
 7270SOL    HW122709   0.352   2.077   3.992
 7270SOL    HW222710   0.404   2.003   3.856
 7271SOL     OW22711   1.463   5.133   4.036
 7271SOL    HW122712   1.560   5.107   4.045
 7271SOL    HW222713   1.456   5.220   3.987
 7272SOL     OW22714   6.440   6.367   2.076
 7272SOL    HW122715   6.394   6.290   2.121
 7272SOL    HW222716   6.375   6.412   2.015
 7273SOL     OW22717   5.442   2.576   6.321
 7273SOL    HW122718   5.436   2.655   6.382
 7273SOL    HW222719   5.474   2.606   6.231
 7274SOL     OW22720   0.828   4.542   6.399
 7274SOL    HW122721   0.880   4.516   6.480
 7274SOL    HW222722   0.810   4.460   6.343
 7275SOL     OW22723   6.893   6.852   2.500
 7275SOL    HW122724   6.885   6.950   2.483
 7275SOL    HW222725   6.841   6.828   2.582
 7276SOL     OW22726   5.581   0.492   3.556
 7276SOL    HW122727   5.561   0.499   3.458
 7276SOL    HW222728   5.514   0.432   3.600
 7277SOL     OW22729   4.604   0.698   6.032
 7277SOL    HW122730   4.563   0.787   6.014
 7277SOL    HW222731   4.561   0.657   6.112
 7278SOL     OW22732   3.087   4.008   1.897
 7278SOL    HW122733   3.022   4.071   1.855
 7278SOL    HW222734   3.180   4.041   1.879
 7279SOL     OW22735   4.224   6.274   0.163
 7279SOL    HW122736   4.251   6.347   0.101
 7279SOL    HW222737   4.305   6.237   0.208
 7280SOL     OW22738   5.484   6.937   5.081
 7280SOL    HW122739   5.503   6.978   4.992
 7280SOL    HW222740   5.389   6.907   5.085
 7281SOL     OW22741   3.105   1.718   6.578
 7281SOL    HW122742   3.029   1.764   6.624
 7281SOL    HW222743   3.076   1.627   6.549
 7282SOL     OW22744   5.754   4.707   2.379
 7282SOL    HW122745   5.697   4.774   2.426
 7282SOL    HW222746   5.850   4.734   2.386
 7283SOL     OW22747   2.443   1.364   2.984
 7283SOL    HW122748   2.490   1.292   2.933
 7283SOL    HW222749   2.373   1.323   3.043
 7284SOL     OW22750   0.215   4.024   5.541
 7284SOL    HW122751   0.147   4.049   5.472
 7284SOL    HW222752   0.306   4.023   5.500
 7285SOL     OW22753   5.029   4.846   2.351
 7285SOL    HW122754   5.129   4.842   2.348
 7285SOL    HW222755   4.991   4.761   2.316
 7286SOL     OW22756   2.288   2.118   1.281
 7286SOL    HW122757   2.205   2.065   1.293
 7286SOL    HW222758   2.361   2.059   1.246
 7287SOL     OW22759   0.802   1.776   6.586
 7287SOL    HW122760   0.869   1.755   6.516
 7287SOL    HW222761   0.848   1.816   6.666
 7288SOL     OW22762   4.138   0.820   6.308
 7288SOL    HW122763   4.045   0.857   6.315
 7288SOL    HW222764   4.195   0.883   6.256
 7289SOL     OW22765   6.081   1.545   3.430
 7289SOL    HW122766   5.987   1.547   3.465
 7289SOL    HW222767   6.088   1.607   3.352
 7290SOL     OW22768   2.702   5.753   5.593
 7290SOL    HW122769   2.792   5.766   5.635
 7290SOL    HW222770   2.632   5.762   5.663
 7291SOL     OW22771   2.332   0.387   1.366
 7291SOL    HW122772   2.288   0.339   1.443
 7291SOL    HW222773   2.430   0.368   1.366
 7292SOL     OW22774   2.421   0.239   3.764
 7292SOL    HW122775   2.389   0.144   3.758
 7292SOL    HW222776   2.460   0.266   3.676
 7293SOL     OW22777   1.852   1.510   4.971
 7293SOL    HW122778   1.885   1.578   4.904
 7293SOL    HW222779   1.896   1.422   4.953
 7294SOL     OW22780   2.686   4.859   0.648
 7294SOL    HW122781   2.673   4.785   0.713
 7294SOL    HW222782   2.770   4.910   0.670
 7295SOL     OW22783   0.650   1.910   0.546
 7295SOL    HW122784   0.575   1.941   0.605
 7295SOL    HW222785   0.634   1.940   0.452
 7296SOL     OW22786   2.844   4.769   1.182
 7296SOL    HW122787   2.781   4.815   1.245
 7296SOL    HW222788   2.891   4.695   1.231
 7297SOL     OW22789   4.175   5.808   0.395
 7297SOL    HW122790   4.252   5.842   0.448
 7297SOL    HW222791   4.105   5.879   0.388
 7298SOL     OW22792   5.492   4.090   5.449
 7298SOL    HW122793   5.568   4.118   5.391
 7298SOL    HW222794   5.473   4.163   5.515
 7299SOL     OW22795   0.638   2.304   6.533
 7299SOL    HW122796   0.711   2.323   6.599
 7299SOL    HW222797   0.593   2.389   6.507
 7300SOL     OW22798   5.361   5.371   1.585
 7300SOL    HW122799   5.327   5.302   1.522
 7300SOL    HW222800   5.431   5.426   1.540
 7301SOL     OW22801   6.632   0.879   5.174
 7301SOL    HW122802   6.627   0.880   5.274
 7301SOL    HW222803   6.560   0.937   5.137
 7302SOL     OW22804   0.302   1.495   0.376
 7302SOL    HW122805   0.318   1.554   0.296
 7302SOL    HW222806   0.246   1.543   0.443
 7303SOL     OW22807   4.850   0.465   6.684
 7303SOL    HW122808   4.938   0.462   6.730
 7303SOL    HW222809   4.777   0.439   6.748
 7304SOL     OW22810   3.714   4.246   6.749
 7304SOL    HW122811   3.777   4.182   6.707
 7304SOL    HW222812   3.687   4.315   6.681
 7305SOL     OW22813   4.824   1.927   0.805
 7305SOL    HW122814   4.743   1.881   0.843
 7305SOL    HW222815   4.824   1.917   0.706
 7306SOL     OW22816   5.053   3.603   1.763
 7306SOL    HW122817   5.027   3.515   1.802
 7306SOL    HW222818   5.121   3.589   1.691
 7307SOL     OW22819   2.952   6.711   1.363
 7307SOL    HW122820   2.878   6.718   1.430
 7307SOL    HW222821   2.962   6.616   1.334
 7308SOL     OW22822   6.892   3.686   5.556
 7308SOL    HW122823   6.883   3.588   5.573
 7308SOL    HW222824   6.889   3.703   5.458
 7309SOL     OW22825   5.309   6.095   0.399
 7309SOL    HW122826   5.250   6.093   0.317
 7309SOL    HW222827   5.338   6.189   0.416
 7310SOL     OW22828   2.123   4.373   1.351
 7310SOL    HW122829   2.217   4.392   1.379
 7310SOL    HW222830   2.123   4.309   1.275
 7311SOL     OW22831   3.191   1.987   2.153
 7311SOL    HW122832   3.148   2.021   2.069
 7311SOL    HW222833   3.244   1.905   2.132
 7312SOL     OW22834   6.982   2.700   5.684
 7312SOL    HW122835   0.046   2.733   5.649
 7312SOL    HW222836   6.992   2.606   5.717
 7313SOL     OW22837   4.647   2.913   6.198
 7313SOL    HW122838   4.683   2.954   6.281
 7313SOL    HW222839   4.556   2.875   6.216
 7314SOL     OW22840   6.834   4.196   5.244
 7314SOL    HW122841   6.774   4.275   5.231
 7314SOL    HW222842   6.824   4.133   5.167
 7315SOL     OW22843   6.219   0.566   3.446
 7315SOL    HW122844   6.220   0.531   3.352
 7315SOL    HW222845   6.172   0.500   3.505
 7316SOL     OW22846   3.036   3.473   5.946
 7316SOL    HW122847   3.006   3.437   5.858
 7316SOL    HW222848   3.051   3.398   6.010
 7317SOL     OW22849   4.790   0.855   1.875
 7317SOL    HW122850   4.838   0.930   1.830
 7317SOL    HW222851   4.696   0.849   1.839
 7318SOL     OW22852   0.744   1.429   1.077
 7318SOL    HW122853   0.758   1.517   1.123
 7318SOL    HW222854   0.704   1.445   0.987
 7319SOL     OW22855   6.184   4.398   6.651
 7319SOL    HW122856   6.127   4.334   6.703
 7319SOL    HW222857   6.259   4.348   6.607
 7320SOL     OW22858   6.565   3.679   2.010
 7320SOL    HW122859   6.650   3.674   1.958
 7320SOL    HW222860   6.563   3.765   2.062
 7321SOL     OW22861   2.696   0.461   5.416
 7321SOL    HW122862   2.728   0.370   5.388
 7321SOL    HW222863   2.758   0.530   5.378
 7322SOL     OW22864   0.985   2.818   2.443
 7322SOL    HW122865   0.900   2.867   2.424
 7322SOL    HW222866   1.059   2.857   2.388
 7323SOL     OW22867   2.156   2.245   1.991
 7323SOL    HW122868   2.090   2.249   1.917
 7323SOL    HW222869   2.223   2.173   1.972
 7324SOL     OW22870   5.474   6.793   2.563
 7324SOL    HW122871   5.389   6.830   2.599
 7324SOL    HW222872   5.475   6.694   2.573
 7325SOL     OW22873   3.889   0.228   6.042
 7325SOL    HW122874   3.891   0.200   5.946
 7325SOL    HW222875   3.894   0.147   6.100
 7326SOL     OW22876   2.152   6.439   5.027
 7326SOL    HW122877   2.200   6.370   5.082
 7326SOL    HW222878   2.085   6.395   4.968
 7327SOL     OW22879   6.539   2.732   5.159
 7327SOL    HW122880   6.451   2.773   5.183
 7327SOL    HW222881   6.541   2.637   5.190
 7328SOL     OW22882   3.663   0.218   6.496
 7328SOL    HW122883   3.746   0.199   6.444
 7328SOL    HW222884   3.652   0.150   6.569
 7329SOL     OW22885   4.036   3.752   1.630
 7329SOL    HW122886   4.114   3.783   1.684
 7329SOL    HW222887   4.058   3.664   1.588
 7330SOL     OW22888   2.839   2.099   0.097
 7330SOL    HW122889   2.772   2.038   0.137
 7330SOL    HW222890   2.828   2.191   0.136
 7331SOL     OW22891   5.640   0.440   1.398
 7331SOL    HW122892   5.736   0.429   1.374
 7331SOL    HW222893   5.627   0.423   1.495
 7332SOL     OW22894   2.744   5.742   0.468
 7332SOL    HW122895   2.757   5.646   0.495
 7332SOL    HW222896   2.696   5.745   0.380
 7333SOL     OW22897   0.271   3.298   3.556
 7333SOL    HW122898   0.360   3.311   3.513
 7333SOL    HW222899   0.284   3.278   3.653
 7334SOL     OW22900   4.454   6.074   6.682
 7334SOL    HW122901   4.383   6.033   6.625
 7334SOL    HW222902   4.414   6.146   6.739
 7335SOL     OW22903   1.984   2.887   2.396
 7335SOL    HW122904   1.913   2.958   2.399
 7335SOL    HW222905   1.966   2.818   2.466
 7336SOL     OW22906   1.525   6.050   3.240
 7336SOL    HW122907   1.570   5.974   3.286
 7336SOL    HW222908   1.427   6.047   3.259
 7337SOL     OW22909   0.369   2.949   2.231
 7337SOL    HW122910   0.427   2.896   2.169
 7337SOL    HW222911   0.380   2.915   2.325
 7338SOL     OW22912   6.354   2.537   1.295
 7338SOL    HW122913   6.333   2.624   1.252
 7338SOL    HW222914   6.412   2.552   1.375
 7339SOL     OW22915   5.166   6.246   3.755
 7339SOL    HW122916   5.105   6.255   3.676
 7339SOL    HW222917   5.146   6.319   3.820
 7340SOL     OW22918   2.076   0.709   0.490
 7340SOL    HW122919   1.986   0.671   0.472
 7340SOL    HW222920   2.127   0.718   0.404
 7341SOL     OW22921   6.738   2.112   6.868
 7341SOL    HW122922   6.748   2.013   6.882
 7341SOL    HW222923   6.706   2.155   6.953
 7342SOL     OW22924   6.272   0.584   2.197
 7342SOL    HW122925   6.285   0.485   2.201
 7342SOL    HW222926   6.221   0.614   2.278
 7343SOL     OW22927   4.176   2.919   0.038
 7343SOL    HW122928   4.196   3.007   7.018
 7343SOL    HW222929   4.080   2.918   0.069
 7344SOL     OW22930   1.459   7.016   5.706
 7344SOL    HW122931   1.522   0.051   5.757
 7344SOL    HW222932   1.422   0.043   5.628
 7345SOL     OW22933   3.675   3.255   5.506
 7345SOL    HW122934   3.735   3.308   5.566
 7345SOL    HW222935   3.627   3.316   5.443
 7346SOL     OW22936   4.164   6.670   2.828
 7346SOL    HW122937   4.148   6.572   2.835
 7346SOL    HW222938   4.093   6.719   2.880
 7347SOL     OW22939   0.331   2.101   6.925
 7347SOL    HW122940   0.364   2.050   6.846
 7347SOL    HW222941   0.409   2.130   6.981
 7348SOL     OW22942   1.635   3.650   4.079
 7348SOL    HW122943   1.633   3.746   4.107
 7348SOL    HW222944   1.672   3.643   3.986
 7349SOL     OW22945   4.581   0.450   1.326
 7349SOL    HW122946   4.547   0.369   1.278
 7349SOL    HW222947   4.679   0.461   1.306
 7350SOL     OW22948   2.823   0.872   5.455
 7350SOL    HW122949   2.734   0.913   5.477
 7350SOL    HW222950   2.887   0.889   5.530
 7351SOL     OW22951   5.186   4.879   4.081
 7351SOL    HW122952   5.124   4.892   4.159
 7351SOL    HW222953   5.178   4.957   4.019
 7352SOL     OW22954   1.137   1.936   2.990
 7352SOL    HW122955   1.223   1.972   3.027
 7352SOL    HW222956   1.142   1.936   2.890
 7353SOL     OW22957   0.395   0.515   6.691
 7353SOL    HW122958   0.471   0.578   6.675
 7353SOL    HW222959   0.409   0.467   6.777
 7354SOL     OW22960   1.707   0.718   4.169
 7354SOL    HW122961   1.730   0.816   4.170
 7354SOL    HW222962   1.622   0.704   4.119
 7355SOL     OW22963   6.972   1.907   6.377
 7355SOL    HW122964   6.956   1.885   6.473
 7355SOL    HW222965   6.988   2.006   6.369
 7356SOL     OW22966   3.777   4.054   6.384
 7356SOL    HW122967   3.798   4.070   6.287
 7356SOL    HW222968   3.682   4.081   6.403
 7357SOL     OW22969   3.580   5.928   2.205
 7357SOL    HW122970   3.651   5.859   2.221
 7357SOL    HW222971   3.610   5.989   2.131
 7358SOL     OW22972   5.845   2.759   2.316
 7358SOL    HW122973   5.825   2.741   2.219
 7358SOL    HW222974   5.890   2.680   2.356
 7359SOL     OW22975   4.502   2.145   6.001
 7359SOL    HW122976   4.514   2.088   5.920
 7359SOL    HW222977   4.404   2.155   6.020
 7360SOL     OW22978   2.180   3.489   5.184
 7360SOL    HW122979   2.225   3.403   5.205
 7360SOL    HW222980   2.233   3.565   5.220
 7361SOL     OW22981   5.117   0.557   2.789
 7361SOL    HW122982   5.024   0.587   2.810
 7361SOL    HW222983   5.165   0.629   2.738
 7362SOL     OW22984   4.040   5.330   6.108
 7362SOL    HW122985   4.057   5.415   6.058
 7362SOL    HW222986   3.945   5.329   6.140
 7363SOL     OW22987   4.064   1.087   1.623
 7363SOL    HW122988   4.155   1.085   1.665
 7363SOL    HW222989   4.032   0.993   1.607
 7364SOL     OW22990   4.318   6.944   1.651
 7364SOL    HW122991   4.249   6.985   1.593
 7364SOL    HW222992   4.375   7.016   1.691
 7365SOL     OW22993   6.381   5.929   2.503
 7365SOL    HW122994   6.318   6.007   2.492
 7365SOL    HW222995   6.440   5.945   2.582
 7366SOL     OW22996   2.300   0.406   4.478
 7366SOL    HW122997   2.204   0.423   4.501
 7366SOL    HW222998   2.313   0.309   4.458
 7367SOL     OW22999   4.617   2.077   0.537
 7367SOL    HW123000   4.585   2.147   0.472
 7367SOL    HW223001   4.569   1.991   0.519
 7368SOL     OW23002   3.543   3.290   2.685
 7368SOL    HW123003   3.452   3.328   2.674
 7368SOL    HW223004   3.596   3.305   2.601
 7369SOL     OW23005   3.785   2.272   1.147
 7369SOL    HW123006   3.845   2.283   1.226
 7369SOL    HW223007   3.704   2.329   1.157
 7370SOL     OW23008   2.534   2.494   5.407
 7370SOL    HW123009   2.537   2.555   5.329
 7370SOL    HW223010   2.502   2.404   5.378
 7371SOL     OW23011   2.978   6.604   4.176
 7371SOL    HW123012   3.017   6.566   4.259
 7371SOL    HW223013   3.037   6.582   4.098
 7372SOL     OW23014   3.909   6.735   4.752
 7372SOL    HW123015   3.831   6.748   4.690
 7372SOL    HW223016   3.882   6.675   4.828
 7373SOL     OW23017   4.938   1.811   4.608
 7373SOL    HW123018   4.865   1.855   4.659
 7373SOL    HW223019   4.975   1.875   4.540
 7374SOL     OW23020   1.403   1.698   5.354
 7374SOL    HW123021   1.337   1.768   5.327
 7374SOL    HW223022   1.359   1.609   5.352
 7375SOL     OW23023   2.255   2.886   2.449
 7375SOL    HW123024   2.155   2.881   2.442
 7375SOL    HW223025   2.295   2.870   2.359
 7376SOL     OW23026   1.424   3.578   1.139
 7376SOL    HW123027   1.390   3.485   1.148
 7376SOL    HW223028   1.506   3.577   1.081
 7377SOL     OW23029   3.435   5.219   0.361
 7377SOL    HW123030   3.512   5.277   0.387
 7377SOL    HW223031   3.470   5.137   0.315
 7378SOL     OW23032   1.680   6.846   4.067
 7378SOL    HW123033   1.739   6.924   4.088
 7378SOL    HW223034   1.653   6.849   3.971
 7379SOL     OW23035   3.252   7.022   1.438
 7379SOL    HW123036   3.254   0.096   1.417
 7379SOL    HW223037   3.243   6.969   1.353
 7380SOL     OW23038   6.627   4.316   3.607
 7380SOL    HW123039   6.582   4.361   3.683
 7380SOL    HW223040   6.581   4.230   3.586
 7381SOL     OW23041   4.214   2.568   1.065
 7381SOL    HW123042   4.138   2.507   1.045
 7381SOL    HW223043   4.264   2.587   0.981
 7382SOL     OW23044   6.155   1.931   5.803
 7382SOL    HW123045   6.207   1.948   5.720
 7382SOL    HW223046   6.207   1.964   5.882
 7383SOL     OW23047   1.420   6.174   2.185
 7383SOL    HW123048   1.364   6.249   2.150
 7383SOL    HW223049   1.433   6.105   2.114
 7384SOL     OW23050   6.807   6.706   1.209
 7384SOL    HW123051   6.749   6.633   1.244
 7384SOL    HW223052   6.780   6.729   1.115
 7385SOL     OW23053   3.232   4.970   2.652
 7385SOL    HW123054   3.265   4.994   2.561
 7385SOL    HW223055   3.308   4.971   2.717
 7386SOL     OW23056   0.090   3.303   6.580
 7386SOL    HW123057   0.112   3.392   6.620
 7386SOL    HW223058   7.021   3.306   6.540
 7387SOL     OW23059   5.815   4.545   5.753
 7387SOL    HW123060   5.770   4.626   5.793
 7387SOL    HW223061   5.838   4.480   5.825
 7388SOL     OW23062   1.307   5.647   2.497
 7388SOL    HW123063   1.332   5.649   2.594
 7388SOL    HW223064   1.210   5.671   2.487
 7389SOL     OW23065   0.133   3.221   0.162
 7389SOL    HW123066   0.060   3.263   0.216
 7389SOL    HW223067   0.129   3.121   0.172
 7390SOL     OW23068   3.257   2.109   2.402
 7390SOL    HW123069   3.227   2.029   2.350
 7390SOL    HW223070   3.299   2.175   2.340
 7391SOL     OW23071   4.034   3.733   2.424
 7391SOL    HW123072   4.029   3.783   2.510
 7391SOL    HW223073   4.002   3.640   2.436
 7392SOL     OW23074   4.253   6.329   6.568
 7392SOL    HW123075   4.272   6.315   6.665
 7392SOL    HW223076   4.310   6.267   6.514
 7393SOL     OW23077   6.401   4.863   3.647
 7393SOL    HW123078   6.453   4.923   3.587
 7393SOL    HW223079   6.421   4.884   3.742
 7394SOL     OW23080   2.335   3.040   6.460
 7394SOL    HW123081   2.347   2.994   6.548
 7394SOL    HW223082   2.237   3.044   6.438
 7395SOL     OW23083   2.174   3.128   1.184
 7395SOL    HW123084   2.155   3.107   1.280
 7395SOL    HW223085   2.242   3.202   1.179
 7396SOL     OW23086   2.550   5.974   1.692
 7396SOL    HW123087   2.549   5.981   1.792
 7396SOL    HW223088   2.471   5.920   1.662
 7397SOL     OW23089   5.105   3.997   4.797
 7397SOL    HW123090   5.040   3.922   4.803
 7397SOL    HW223091   5.184   3.977   4.856
 7398SOL     OW23092   1.422   4.865   3.309
 7398SOL    HW123093   1.505   4.915   3.285
 7398SOL    HW223094   1.412   4.865   3.409
 7399SOL     OW23095   6.294   2.978   4.429
 7399SOL    HW123096   6.239   2.925   4.365
 7399SOL    HW223097   6.234   3.032   4.489
 7400SOL     OW23098   5.443   1.913   5.209
 7400SOL    HW123099   5.417   1.816   5.208
 7400SOL    HW223100   5.540   1.922   5.232
 7401SOL     OW23101   1.554   2.833   3.064
 7401SOL    HW123102   1.597   2.923   3.063
 7401SOL    HW223103   1.491   2.825   2.987
 7402SOL     OW23104   2.668   5.351   5.148
 7402SOL    HW123105   2.746   5.392   5.102
 7402SOL    HW223106   2.695   5.265   5.191
 7403SOL     OW23107   2.201   3.111   3.346
 7403SOL    HW123108   2.210   3.013   3.332
 7403SOL    HW223109   2.174   3.155   3.261
 7404SOL     OW23110   3.256   4.072   1.336
 7404SOL    HW123111   3.265   4.112   1.427
 7404SOL    HW223112   3.173   4.017   1.331
 7405SOL     OW23113   3.067   5.462   5.266
 7405SOL    HW123114   2.999   5.427   5.201
 7405SOL    HW223115   3.033   5.545   5.309
 7406SOL     OW23116   0.144   1.564   5.299
 7406SOL    HW123117   0.080   1.496   5.263
 7406SOL    HW223118   0.190   1.526   5.379
 7407SOL     OW23119   0.680   6.394   6.798
 7407SOL    HW123120   0.758   6.425   6.743
 7407SOL    HW223121   0.596   6.432   6.760
 7408SOL     OW23122   3.339   4.232   5.384
 7408SOL    HW123123   3.277   4.309   5.372
 7408SOL    HW223124   3.378   4.207   5.295
 7409SOL     OW23125   5.458   4.226   6.958
 7409SOL    HW123126   5.461   4.224   6.859
 7409SOL    HW223127   5.526   4.165   6.996
 7410SOL     OW23128   0.169   0.801   0.634
 7410SOL    HW123129   0.242   0.867   0.647
 7410SOL    HW223130   0.198   0.711   0.667
 7411SOL     OW23131   1.070   1.968   5.922
 7411SOL    HW123132   1.038   2.040   5.984
 7411SOL    HW223133   1.153   1.926   5.960
 7412SOL     OW23134   3.741   6.973   0.404
 7412SOL    HW123135   3.754   6.973   0.305
 7412SOL    HW223136   3.823   7.008   0.449
 7413SOL     OW23137   4.684   4.991   3.526
 7413SOL    HW123138   4.761   5.018   3.467
 7413SOL    HW223139   4.599   4.997   3.474
 7414SOL     OW23140   2.319   1.910   4.268
 7414SOL    HW123141   2.303   1.822   4.311
 7414SOL    HW223142   2.340   1.897   4.171
 7415SOL     OW23143   3.752   6.605   6.433
 7415SOL    HW123144   3.679   6.538   6.445
 7415SOL    HW223145   3.808   6.581   6.354
 7416SOL     OW23146   1.021   1.265   2.415
 7416SOL    HW123147   1.006   1.306   2.505
 7416SOL    HW223148   1.085   1.322   2.363
 7417SOL     OW23149   1.232   2.698   3.369
 7417SOL    HW123150   1.210   2.664   3.277
 7417SOL    HW223151   1.217   2.626   3.436
 7418SOL     OW23152   1.920   4.587   6.288
 7418SOL    HW123153   1.845   4.544   6.339
 7418SOL    HW223154   2.008   4.555   6.325
 7419SOL     OW23155   6.296   3.759   3.567
 7419SOL    HW123156   6.308   3.714   3.479
 7419SOL    HW223157   6.364   3.722   3.632
 7420SOL     OW23158   6.992   6.135   1.922
 7420SOL    HW123159   6.946   6.193   1.989
 7420SOL    HW223160   0.021   6.191   1.859
 7421SOL     OW23161   4.535   3.354   1.590
 7421SOL    HW123162   4.481   3.272   1.601
 7421SOL    HW223163   4.481   3.424   1.542
 7422SOL     OW23164   5.905   3.088   2.021
 7422SOL    HW123165   5.938   3.159   1.959
 7422SOL    HW223166   5.964   3.007   2.012
 7423SOL     OW23167   5.894   1.989   5.889
 7423SOL    HW123168   5.836   1.999   5.807
 7423SOL    HW223169   5.990   1.999   5.863
 7424SOL     OW23170   6.754   1.139   5.223
 7424SOL    HW123171   6.726   1.187   5.139
 7424SOL    HW223172   6.708   1.051   5.228
 7425SOL     OW23173   5.211   0.358   0.284
 7425SOL    HW123174   5.303   0.398   0.286
 7425SOL    HW223175   5.210   0.274   0.339
 7426SOL     OW23176   3.644   2.727   6.099
 7426SOL    HW123177   3.598   2.767   6.019
 7426SOL    HW223178   3.683   2.638   6.074
 7427SOL     OW23179   3.695   1.109   3.916
 7427SOL    HW123180   3.612   1.090   3.968
 7427SOL    HW223181   3.748   1.024   3.905
 7428SOL     OW23182   3.705   6.284   5.972
 7428SOL    HW123183   3.606   6.276   5.962
 7428SOL    HW223184   3.738   6.364   5.923
 7429SOL     OW23185   1.119   6.901   2.947
 7429SOL    HW123186   1.061   6.966   2.899
 7429SOL    HW223187   1.099   6.808   2.915
 7430SOL     OW23188   6.893   4.598   2.531
 7430SOL    HW123189   6.940   4.513   2.553
 7430SOL    HW223190   6.808   4.604   2.582
 7431SOL     OW23191   2.292   2.443   4.595
 7431SOL    HW123192   2.197   2.436   4.565
 7431SOL    HW223193   2.323   2.355   4.629
 7432SOL     OW23194   1.966   0.455   3.300
 7432SOL    HW123195   1.964   0.426   3.204
 7432SOL    HW223196   2.012   0.544   3.306
 7433SOL     OW23197   3.250   6.519   6.908
 7433SOL    HW123198   3.246   6.567   6.995
 7433SOL    HW223199   3.185   6.443   6.908
 7434SOL     OW23200   4.869   6.465   5.939
 7434SOL    HW123201   4.771   6.462   5.923
 7434SOL    HW223202   4.893   6.550   5.984
 7435SOL     OW23203   4.799   6.357   1.998
 7435SOL    HW123204   4.838   6.445   1.970
 7435SOL    HW223205   4.836   6.331   2.087
 7436SOL     OW23206   5.121   4.063   6.390
 7436SOL    HW123207   5.120   4.159   6.418
 7436SOL    HW223208   5.103   4.005   6.469
 7437SOL     OW23209   3.217   5.595   1.096
 7437SOL    HW123210   3.173   5.678   1.061
 7437SOL    HW223211   3.279   5.619   1.170
 7438SOL     OW23212   2.092   1.072   0.299
 7438SOL    HW123213   2.080   1.058   0.200
 7438SOL    HW223214   2.015   1.030   0.348
 7439SOL     OW23215   1.910   5.241   6.245
 7439SOL    HW123216   1.855   5.172   6.198
 7439SOL    HW223217   2.006   5.216   6.240
 7440SOL     OW23218   5.130   3.165   4.010
 7440SOL    HW123219   5.154   3.210   4.096
 7440SOL    HW223220   5.198   3.095   3.989
 7441SOL     OW23221   5.572   6.434   2.153
 7441SOL    HW123222   5.613   6.470   2.237
 7441SOL    HW223223   5.636   6.447   2.077
 7442SOL     OW23224   5.642   0.666   6.085
 7442SOL    HW123225   5.597   0.748   6.050
 7442SOL    HW223226   5.593   0.632   6.165
 7443SOL     OW23227   0.191   5.730   2.045
 7443SOL    HW123228   0.167   5.683   1.960
 7443SOL    HW223229   0.272   5.787   2.029
 7444SOL     OW23230   0.252   0.567   6.007
 7444SOL    HW123231   0.153   0.550   6.017
 7444SOL    HW223232   0.278   0.554   5.911
 7445SOL     OW23233   3.941   6.898   2.146
 7445SOL    HW123234   3.915   6.801   2.155
 7445SOL    HW223235   3.901   6.949   2.222
 7446SOL     OW23236   4.796   2.856   0.509
 7446SOL    HW123237   4.894   2.836   0.509
 7446SOL    HW223238   4.757   2.829   0.421
 7447SOL     OW23239   0.923   4.215   0.278
 7447SOL    HW123240   0.851   4.214   0.209
 7447SOL    HW223241   0.900   4.151   0.351
 7448SOL     OW23242   5.259   6.062   6.610
 7448SOL    HW123243   5.226   6.050   6.516
 7448SOL    HW223244   5.251   5.975   6.658
 7449SOL     OW23245   0.594   4.385   0.371
 7449SOL    HW123246   0.584   4.335   0.457
 7449SOL    HW223247   0.543   4.338   0.299
 7450SOL     OW23248   5.380   2.221   5.725
 7450SOL    HW123249   5.349   2.238   5.818
 7450SOL    HW223250   5.302   2.194   5.668
 7451SOL     OW23251   5.712   5.308   2.341
 7451SOL    HW123252   5.807   5.309   2.373
 7451SOL    HW223253   5.709   5.275   2.247
 7452SOL     OW23254   5.690   6.524   5.123
 7452SOL    HW123255   5.777   6.498   5.080
 7452SOL    HW223256   5.635   6.575   5.057
 7453SOL     OW23257   5.104   5.558   6.535
 7453SOL    HW123258   5.114   5.481   6.597
 7453SOL    HW223259   5.006   5.577   6.521
 7454SOL     OW23260   3.244   1.823   0.540
 7454SOL    HW123261   3.329   1.856   0.583
 7454SOL    HW223262   3.211   1.743   0.589
 7455SOL     OW23263   6.593   2.968   2.682
 7455SOL    HW123264   6.662   3.023   2.634
 7455SOL    HW223265   6.632   2.933   2.767
 7456SOL     OW23266   2.557   2.469   4.909
 7456SOL    HW123267   2.541   2.542   4.843
 7456SOL    HW223268   2.613   2.504   4.984
 7457SOL     OW23269   2.213   6.895   3.703
 7457SOL    HW123270   2.220   6.801   3.670
 7457SOL    HW223271   2.251   6.957   3.634
 7458SOL     OW23272   0.762   6.512   4.374
 7458SOL    HW123273   0.760   6.587   4.308
 7458SOL    HW223274   0.682   6.455   4.362
 7459SOL     OW23275   6.786   1.416   2.686
 7459SOL    HW123276   6.862   1.471   2.649
 7459SOL    HW223277   6.713   1.411   2.619
 7460SOL     OW23278   1.514   6.736   0.245
 7460SOL    HW123279   1.533   6.654   0.298
 7460SOL    HW223280   1.416   6.756   0.250
 7461SOL     OW23281   0.498   5.792   6.211
 7461SOL    HW123282   0.546   5.807   6.125
 7461SOL    HW223283   0.562   5.760   6.280
 7462SOL     OW23284   1.150   5.647   1.092
 7462SOL    HW123285   1.242   5.628   1.055
 7462SOL    HW223286   1.146   5.618   1.187
 7463SOL     OW23287   3.892   4.834   0.024
 7463SOL    HW123288   3.840   4.748   0.027
 7463SOL    HW223289   3.904   4.862   6.952
 7464SOL     OW23290   6.923   5.354   4.676
 7464SOL    HW123291   6.977   5.391   4.601
 7464SOL    HW223292   6.968   5.273   4.714
 7465SOL     OW23293   2.337   4.972   0.105
 7465SOL    HW123294   2.401   4.937   0.037
 7465SOL    HW223295   2.365   5.063   0.133
 7466SOL     OW23296   0.586   0.637   5.251
 7466SOL    HW123297   0.616   0.668   5.341
 7466SOL    HW223298   0.652   0.570   5.216
 7467SOL     OW23299   0.147   2.945   5.873
 7467SOL    HW123300   0.058   2.923   5.914
 7467SOL    HW223301   0.157   3.045   5.869
 7468SOL     OW23302   5.817   2.583   5.242
 7468SOL    HW123303   5.902   2.630   5.266
 7468SOL    HW223304   5.739   2.637   5.275
 7469SOL     OW23305   6.539   2.036   0.518
 7469SOL    HW123306   6.630   1.995   0.529
 7469SOL    HW223307   6.541   2.130   0.551
 7470SOL     OW23308   6.003   3.819   3.661
 7470SOL    HW123309   6.091   3.791   3.625
 7470SOL    HW223310   6.008   3.826   3.761
 7471SOL     OW23311   5.525   5.842   6.169
 7471SOL    HW123312   5.494   5.778   6.099
 7471SOL    HW223313   5.465   5.836   6.249
 7472SOL     OW23314   6.630   0.026   4.960
 7472SOL    HW123315   6.707   6.986   4.956
 7472SOL    HW223316   6.556   7.010   5.014
 7473SOL     OW23317   4.355   0.016   3.822
 7473SOL    HW123318   4.440   0.053   3.785
 7473SOL    HW223319   4.320   0.076   3.893
 7474SOL     OW23320   5.812   2.558   6.290
 7474SOL    HW123321   5.888   2.510   6.246
 7474SOL    HW223322   5.745   2.492   6.321
 7475SOL     OW23323   4.506   1.859   1.841
 7475SOL    HW123324   4.490   1.917   1.920
 7475SOL    HW223325   4.526   1.916   1.761
 7476SOL     OW23326   2.092   2.026   2.930
 7476SOL    HW123327   2.011   2.027   2.989
 7476SOL    HW223328   2.172   1.995   2.983
 7477SOL     OW23329   0.466   4.026   4.978
 7477SOL    HW123330   0.409   4.104   4.954
 7477SOL    HW223331   0.474   3.965   4.898
 7478SOL     OW23332   6.375   1.992   5.185
 7478SOL    HW123333   6.318   2.075   5.187
 7478SOL    HW223334   6.409   1.973   5.277
 7479SOL     OW23335   5.468   3.166   6.770
 7479SOL    HW123336   5.538   3.100   6.799
 7479SOL    HW223337   5.407   3.123   6.704
 7480SOL     OW23338   3.056   5.282   2.219
 7480SOL    HW123339   3.136   5.251   2.270
 7480SOL    HW223340   3.027   5.371   2.254
 7481SOL     OW23341   6.369   4.275   6.494
 7481SOL    HW123342   6.442   4.209   6.475
 7481SOL    HW223343   6.398   4.366   6.463
 7482SOL     OW23344   4.167   2.201   2.687
 7482SOL    HW123345   4.114   2.164   2.610
 7482SOL    HW223346   4.148   2.299   2.696
 7483SOL     OW23347   4.640   2.324   5.170
 7483SOL    HW123348   4.689   2.385   5.108
 7483SOL    HW223349   4.586   2.259   5.116
 7484SOL     OW23350   2.540   6.210   4.725
 7484SOL    HW123351   2.511   6.305   4.737
 7484SOL    HW223352   2.640   6.205   4.730
 7485SOL     OW23353   2.853   6.996   3.856
 7485SOL    HW123354   2.836   0.043   3.787
 7485SOL    HW223355   2.858   0.015   3.946
 7486SOL     OW23356   0.820   6.247   0.503
 7486SOL    HW123357   0.839   6.271   0.408
 7486SOL    HW223358   0.881   6.173   0.532
 7487SOL     OW23359   4.813   7.008   3.450
 7487SOL    HW123360   4.898   7.008   3.396
 7487SOL    HW223361   4.835   7.020   3.547
 7488SOL     OW23362   0.707   5.982   4.159
 7488SOL    HW123363   0.693   5.997   4.061
 7488SOL    HW223364   0.711   6.071   4.206
 7489SOL     OW23365   6.258   4.065   0.010
 7489SOL    HW123366   6.342   4.118   0.024
 7489SOL    HW223367   6.231   4.070   6.937
 7490SOL     OW23368   1.126   2.300   2.734
 7490SOL    HW123369   1.073   2.269   2.813
 7490SOL    HW223370   1.108   2.239   2.656
 7491SOL     OW23371   4.469   2.924   0.781
 7491SOL    HW123372   4.434   2.962   0.695
 7491SOL    HW223373   4.560   2.886   0.765
 7492SOL     OW23374   1.456   0.637   4.087
 7492SOL    HW123375   1.470   0.554   4.140
 7492SOL    HW223376   1.421   0.709   4.146
 7493SOL     OW23377   6.583   4.048   5.730
 7493SOL    HW123378   6.609   4.127   5.786
 7493SOL    HW223379   6.646   4.039   5.653
 7494SOL     OW23380   6.381   0.775   3.117
 7494SOL    HW123381   6.450   0.846   3.101
 7494SOL    HW223382   6.326   0.800   3.197
 7495SOL     OW23383   2.273   2.861   4.848
 7495SOL    HW123384   2.320   2.900   4.928
 7495SOL    HW223385   2.176   2.850   4.869
 7496SOL     OW23386   5.956   3.674   3.395
 7496SOL    HW123387   5.965   3.695   3.297
 7496SOL    HW223388   5.996   3.748   3.448
 7497SOL     OW23389   0.960   6.460   0.672
 7497SOL    HW123390   0.911   6.547   0.671
 7497SOL    HW223391   0.918   6.397   0.607
 7498SOL     OW23392   3.337   0.344   3.126
 7498SOL    HW123393   3.285   0.316   3.045
 7498SOL    HW223394   3.344   0.443   3.128
 7499SOL     OW23395   3.683   1.979   3.781
 7499SOL    HW123396   3.731   2.038   3.846
 7499SOL    HW223397   3.611   1.928   3.828
 7500SOL     OW23398   4.198   0.091   3.403
 7500SOL    HW123399   4.178   0.061   3.310
 7500SOL    HW223400   4.182   0.016   3.467
 7501SOL     OW23401   5.794   2.596   4.225
 7501SOL    HW123402   5.864   2.529   4.201
 7501SOL    HW223403   5.801   2.674   4.164
 7502SOL     OW23404   3.123   0.229   4.814
 7502SOL    HW123405   3.190   0.159   4.841
 7502SOL    HW223406   3.090   0.209   4.721
 7503SOL     OW23407   2.197   5.843   1.113
 7503SOL    HW123408   2.264   5.780   1.153
 7503SOL    HW223409   2.175   5.914   1.180
 7504SOL     OW23410   7.004   6.211   2.655
 7504SOL    HW123411   0.076   6.189   2.637
 7504SOL    HW223412   6.979   6.180   2.747
 7505SOL     OW23413   6.823   0.708   5.081
 7505SOL    HW123414   6.908   0.690   5.031
 7505SOL    HW223415   6.788   0.798   5.057
 7506SOL     OW23416   3.341   1.679   2.996
 7506SOL    HW123417   3.249   1.689   2.957
 7506SOL    HW223418   3.339   1.605   3.064
 7507SOL     OW23419   6.576   3.206   4.410
 7507SOL    HW123420   6.562   3.114   4.448
 7507SOL    HW223421   6.648   3.202   4.341
 7508SOL     OW23422   1.641   6.076   0.242
 7508SOL    HW123423   1.733   6.083   0.279
 7508SOL    HW223424   1.639   6.117   0.150
 7509SOL     OW23425   5.184   3.913   0.013
 7509SOL    HW123426   5.206   4.010   0.024
 7509SOL    HW223427   5.092   3.904   6.998
 7510SOL     OW23428   4.072   3.551   4.184
 7510SOL    HW123429   4.045   3.627   4.243
 7510SOL    HW223430   4.067   3.580   4.088
 7511SOL     OW23431   3.351   5.810   2.818
 7511SOL    HW123432   3.420   5.771   2.756
 7511SOL    HW223433   3.294   5.737   2.855
 7512SOL     OW23434   3.108   6.932   0.161
 7512SOL    HW123435   3.151   6.846   0.135
 7512SOL    HW223436   3.036   6.914   0.229
 7513SOL     OW23437   1.900   2.550   3.651
 7513SOL    HW123438   1.926   2.552   3.747
 7513SOL    HW223439   1.801   2.536   3.643
 7514SOL     OW23440   2.433   4.797   3.111
 7514SOL    HW123441   2.527   4.811   3.082
 7514SOL    HW223442   2.395   4.717   3.063
 7515SOL     OW23443   6.960   4.390   4.995
 7515SOL    HW123444   6.945   4.436   5.083
 7515SOL    HW223445   6.878   4.399   4.939
 7516SOL     OW23446   1.226   5.282   5.654
 7516SOL    HW123447   1.208   5.202   5.598
 7516SOL    HW223448   1.228   5.364   5.596
 7517SOL     OW23449   1.022   2.219   0.143
 7517SOL    HW123450   1.109   2.268   0.137
 7517SOL    HW223451   0.974   2.225   0.056
 7518SOL     OW23452   4.788   2.898   4.029
 7518SOL    HW123453   4.802   2.919   4.126
 7518SOL    HW223454   4.784   2.984   3.977
 7519SOL     OW23455   4.243   6.968   4.474
 7519SOL    HW123456   4.252   6.979   4.375
 7519SOL    HW223457   4.308   6.899   4.507
 7520SOL     OW23458   1.627   1.596   2.240
 7520SOL    HW123459   1.651   1.521   2.302
 7520SOL    HW223460   1.536   1.631   2.263
 7521SOL     OW23461   5.340   1.458   4.654
 7521SOL    HW123462   5.336   1.376   4.710
 7521SOL    HW223463   5.257   1.465   4.599
 7522SOL     OW23464   1.370   6.010   3.734
 7522SOL    HW123465   1.445   6.066   3.698
 7522SOL    HW223466   1.399   5.914   3.737
 7523SOL     OW23467   5.629   1.169   6.270
 7523SOL    HW123468   5.723   1.194   6.294
 7523SOL    HW223469   5.585   1.247   6.224
 7524SOL     OW23470   0.132   2.502   4.315
 7524SOL    HW123471   0.104   2.482   4.221
 7524SOL    HW223472   0.225   2.538   4.316
 7525SOL     OW23473   4.641   6.487   6.451
 7525SOL    HW123474   4.704   6.549   6.498
 7525SOL    HW223475   4.572   6.541   6.402
 7526SOL     OW23476   1.988   3.527   1.853
 7526SOL    HW123477   1.994   3.446   1.795
 7526SOL    HW223478   2.067   3.530   1.915
 7527SOL     OW23479   4.406   5.972   3.827
 7527SOL    HW123480   4.322   5.920   3.812
 7527SOL    HW223481   4.465   5.965   3.746
 7528SOL     OW23482   5.812   2.608   7.015
 7528SOL    HW123483   5.815   2.706   0.012
 7528SOL    HW223484   5.905   2.571   7.021
 7529SOL     OW23485   5.942   1.790   3.613
 7529SOL    HW123486   5.873   1.843   3.564
 7529SOL    HW223487   6.027   1.787   3.559
 7530SOL     OW23488   0.118   1.334   2.218
 7530SOL    HW123489   0.033   1.366   2.260
 7530SOL    HW223490   0.099   1.297   2.127
 7531SOL     OW23491   4.235   2.328   3.689
 7531SOL    HW123492   4.199   2.312   3.597
 7531SOL    HW223493   4.191   2.266   3.754
 7532SOL     OW23494   4.937   6.045   6.816
 7532SOL    HW123495   4.989   6.121   6.853
 7532SOL    HW223496   4.954   5.963   6.871
 7533SOL     OW23497   4.436   3.118   1.663
 7533SOL    HW123498   4.470   3.094   1.755
 7533SOL    HW223499   4.481   3.060   1.595
 7534SOL     OW23500   4.972   6.875   4.544
 7534SOL    HW123501   4.959   6.834   4.454
 7534SOL    HW223502   5.034   6.819   4.597
 7535SOL     OW23503   1.266   6.398   4.015
 7535SOL    HW123504   1.206   6.445   3.951
 7535SOL    HW223505   1.353   6.376   3.971
 7536SOL     OW23506   5.332   5.980   4.847
 7536SOL    HW123507   5.314   6.039   4.768
 7536SOL    HW223508   5.363   6.037   4.924
 7537SOL     OW23509   2.403   5.792   2.242
 7537SOL    HW123510   2.325   5.851   2.263
 7537SOL    HW223511   2.388   5.702   2.283
 7538SOL     OW23512   0.851   3.332   1.586
 7538SOL    HW123513   0.782   3.335   1.659
 7538SOL    HW223514   0.929   3.388   1.611
 7539SOL     OW23515   1.273   5.347   3.957
 7539SOL    HW123516   1.253   5.423   4.019
 7539SOL    HW223517   1.261   5.261   4.006
 7540SOL     OW23518   5.520   5.576   4.471
 7540SOL    HW123519   5.610   5.553   4.434
 7540SOL    HW223520   5.476   5.644   4.412
 7541SOL     OW23521   1.196   3.642   6.540
 7541SOL    HW123522   1.153   3.578   6.604
 7541SOL    HW223523   1.130   3.712   6.515
 7542SOL     OW23524   6.071   6.540   6.254
 7542SOL    HW123525   6.137   6.573   6.187
 7542SOL    HW223526   6.054   6.442   6.238
 7543SOL     OW23527   2.908   0.632   5.381
 7543SOL    HW123528   2.936   0.584   5.464
 7543SOL    HW223529   2.879   0.725   5.404
 7544SOL     OW23530   7.013   2.898   3.938
 7544SOL    HW123531   6.946   2.959   3.894
 7544SOL    HW223532   7.023   2.815   3.884
 7545SOL     OW23533   0.807   5.803   6.712
 7545SOL    HW123534   0.891   5.858   6.713
 7545SOL    HW223535   0.732   5.860   6.678
 7546SOL     OW23536   3.276   2.751   1.911
 7546SOL    HW123537   3.335   2.783   1.985
 7546SOL    HW223538   3.331   2.704   1.842
 7547SOL     OW23539   4.755   0.296   1.771
 7547SOL    HW123540   4.783   0.376   1.823
 7547SOL    HW223541   4.742   0.218   1.832
 7548SOL     OW23542   4.676   2.191   6.275
 7548SOL    HW123543   4.630   2.266   6.323
 7548SOL    HW223544   4.616   2.156   6.203
 7549SOL     OW23545   4.512   2.455   5.816
 7549SOL    HW123546   4.422   2.415   5.808
 7549SOL    HW223547   4.582   2.387   5.795
 7550SOL     OW23548   1.518   4.274   3.811
 7550SOL    HW123549   1.539   4.312   3.721
 7550SOL    HW223550   1.472   4.343   3.866
 7551SOL     OW23551   5.375   2.068   4.959
 7551SOL    HW123552   5.450   2.012   4.993
 7551SOL    HW223553   5.339   2.124   5.034
 7552SOL     OW23554   2.087   6.274   4.357
 7552SOL    HW123555   2.090   6.373   4.341
 7552SOL    HW223556   1.992   6.245   4.371
 7553SOL     OW23557   5.745   6.085   6.145
 7553SOL    HW123558   5.665   6.133   6.107
 7553SOL    HW223559   5.714   6.005   6.196
 7554SOL     OW23560   5.300   1.232   0.218
 7554SOL    HW123561   5.336   1.301   0.280
 7554SOL    HW223562   5.215   1.195   0.256
 7555SOL     OW23563   3.207   6.674   6.626
 7555SOL    HW123564   3.154   6.610   6.572
 7555SOL    HW223565   3.224   6.636   6.717
 7556SOL     OW23566   1.121   1.104   0.231
 7556SOL    HW123567   1.199   1.120   0.170
 7556SOL    HW223568   1.047   1.061   0.180
 7557SOL     OW23569   5.027   0.476   0.125
 7557SOL    HW123570   4.961   0.534   0.172
 7557SOL    HW223571   5.094   0.442   0.191
 7558SOL     OW23572   1.475   2.797   4.319
 7558SOL    HW123573   1.490   2.846   4.233
 7558SOL    HW223574   1.414   2.852   4.378
 7559SOL     OW23575   3.697   1.995   4.877
 7559SOL    HW123576   3.615   1.987   4.933
 7559SOL    HW223577   3.712   1.909   4.828
 7560SOL     OW23578   6.782   0.454   6.235
 7560SOL    HW123579   6.696   0.405   6.223
 7560SOL    HW223580   6.841   0.404   6.298
 7561SOL     OW23581   5.199   2.005   5.330
 7561SOL    HW123582   5.283   1.952   5.316
 7561SOL    HW223583   5.138   1.992   5.252
 7562SOL     OW23584   1.176   5.500   5.005
 7562SOL    HW123585   1.129   5.437   5.066
 7562SOL    HW223586   1.263   5.527   5.047
 7563SOL     OW23587   2.833   6.607   2.378
 7563SOL    HW123588   2.874   6.543   2.313
 7563SOL    HW223589   2.733   6.601   2.372
 7564SOL     OW23590   4.638   0.849   4.722
 7564SOL    HW123591   4.552   0.860   4.772
 7564SOL    HW223592   4.713   0.887   4.776
 7565SOL     OW23593   5.509   3.506   6.310
 7565SOL    HW123594   5.602   3.473   6.325
 7565SOL    HW223595   5.443   3.440   6.346
 7566SOL     OW23596   4.642   4.706   1.989
 7566SOL    HW123597   4.726   4.668   1.951
 7566SOL    HW223598   4.656   4.729   2.086
 7567SOL     OW23599   0.259   0.752   4.174
 7567SOL    HW123600   0.228   0.833   4.225
 7567SOL    HW223601   0.261   0.773   4.077
 7568SOL     OW23602   6.155   5.544   1.574
 7568SOL    HW123603   6.132   5.485   1.497
 7568SOL    HW223604   6.091   5.620   1.578
 7569SOL     OW23605   3.918   4.387   6.489
 7569SOL    HW123606   3.908   4.295   6.526
 7569SOL    HW223607   3.828   4.430   6.480
 7570SOL     OW23608   6.851   3.095   3.162
 7570SOL    HW123609   6.941   3.053   3.175
 7570SOL    HW223610   6.831   3.102   3.064
 7571SOL     OW23611   5.358   3.667   2.937
 7571SOL    HW123612   5.422   3.593   2.914
 7571SOL    HW223613   5.383   3.750   2.887
 7572SOL     OW23614   5.011   6.655   2.623
 7572SOL    HW123615   5.050   6.745   2.643
 7572SOL    HW223616   4.978   6.654   2.529
 7573SOL     OW23617   5.575   6.516   5.806
 7573SOL    HW123618   5.529   6.571   5.876
 7573SOL    HW223619   5.650   6.465   5.848
 7574SOL     OW23620   6.329   0.952   4.021
 7574SOL    HW123621   6.411   0.974   4.073
 7574SOL    HW223622   6.256   1.016   4.045
 7575SOL     OW23623   6.228   6.292   0.874
 7575SOL    HW123624   6.189   6.354   0.806
 7575SOL    HW223625   6.222   6.198   0.841
 7576SOL     OW23626   5.428   2.923   0.960
 7576SOL    HW123627   5.390   3.005   1.002
 7576SOL    HW223628   5.522   2.909   0.991
 7577SOL     OW23629   0.582   0.120   0.266
 7577SOL    HW123630   0.486   0.092   0.265
 7577SOL    HW223631   0.595   0.190   0.335
 7578SOL     OW23632   0.409   5.776   3.371
 7578SOL    HW123633   0.355   5.737   3.446
 7578SOL    HW223634   0.490   5.821   3.407
 7579SOL     OW23635   6.735   1.972   1.535
 7579SOL    HW123636   6.723   2.062   1.492
 7579SOL    HW223637   6.817   1.928   1.499
 7580SOL     OW23638   2.095   4.300   3.332
 7580SOL    HW123639   2.130   4.379   3.283
 7580SOL    HW223640   2.007   4.273   3.293
 7581SOL     OW23641   0.615   0.839   1.609
 7581SOL    HW123642   0.534   0.857   1.665
 7581SOL    HW223643   0.675   0.919   1.610
 7582SOL     OW23644   3.788   1.442   4.291
 7582SOL    HW123645   3.702   1.485   4.262
 7582SOL    HW223646   3.769   1.373   4.361
 7583SOL     OW23647   5.010   3.397   3.495
 7583SOL    HW123648   5.109   3.378   3.498
 7583SOL    HW223649   4.962   3.318   3.458
 7584SOL     OW23650   1.187   1.048   2.799
 7584SOL    HW123651   1.097   1.041   2.756
 7584SOL    HW223652   1.246   1.107   2.743
 7585SOL     OW23653   0.942   2.391   6.457
 7585SOL    HW123654   0.957   2.449   6.377
 7585SOL    HW223655   0.984   2.301   6.442
 7586SOL     OW23656   1.294   0.818   2.341
 7586SOL    HW123657   1.214   0.764   2.314
 7586SOL    HW223658   1.360   0.760   2.387
 7587SOL     OW23659   3.555   0.894   0.693
 7587SOL    HW123660   3.592   0.808   0.659
 7587SOL    HW223661   3.569   0.900   0.791
 7588SOL     OW23662   1.319   2.921   4.546
 7588SOL    HW123663   1.333   2.823   4.565
 7588SOL    HW223664   1.407   2.968   4.549
 7589SOL     OW23665   0.645   0.694   3.036
 7589SOL    HW123666   0.700   0.727   3.113
 7589SOL    HW223667   0.587   0.768   3.002
 7590SOL     OW23668   0.421   1.735   0.249
 7590SOL    HW123669   0.426   1.695   0.157
 7590SOL    HW223670   0.486   1.688   0.309
 7591SOL     OW23671   4.646   3.217   6.803
 7591SOL    HW123672   4.661   3.140   6.865
 7591SOL    HW223673   4.622   3.182   6.713
 7592SOL     OW23674   6.103   5.502   5.063
 7592SOL    HW123675   6.130   5.598   5.071
 7592SOL    HW223676   6.057   5.473   5.147
 7593SOL     OW23677   6.953   1.683   5.521
 7593SOL    HW123678   6.991   1.734   5.444
 7593SOL    HW223679   6.986   1.589   5.518
 7594SOL     OW23680   0.436   4.401   1.233
 7594SOL    HW123681   0.521   4.406   1.285
 7594SOL    HW223682   0.389   4.489   1.237
 7595SOL     OW23683   6.208   2.857   6.039
 7595SOL    HW123684   6.178   2.771   5.997
 7595SOL    HW223685   6.263   2.838   6.120
 7596SOL     OW23686   3.297   0.635   5.173
 7596SOL    HW123687   3.387   0.629   5.131
 7596SOL    HW223688   3.254   0.544   5.174
 7597SOL     OW23689   2.184   5.649   2.678
 7597SOL    HW123690   2.096   5.623   2.718
 7597SOL    HW223691   2.182   5.635   2.579
 7598SOL     OW23692   5.890   0.570   2.647
 7598SOL    HW123693   5.863   0.666   2.656
 7598SOL    HW223694   5.949   0.545   2.724
 7599SOL     OW23695   4.102   3.451   0.674
 7599SOL    HW123696   4.159   3.430   0.595
 7599SOL    HW223697   4.150   3.424   0.758
 7600SOL     OW23698   1.413   1.267   3.925
 7600SOL    HW123699   1.365   1.354   3.911
 7600SOL    HW223700   1.356   1.192   3.893
 7601SOL     OW23701   4.142   5.545   2.241
 7601SOL    HW123702   4.180   5.453   2.244
 7601SOL    HW223703   4.136   5.576   2.146
 7602SOL     OW23704   0.267   2.064   0.477
 7602SOL    HW123705   0.228   1.972   0.471
 7602SOL    HW223706   0.219   2.115   0.548
 7603SOL     OW23707   2.539   0.067   5.926
 7603SOL    HW123708   2.442   0.048   5.940
 7603SOL    HW223709   2.550   0.154   5.879
 7604SOL     OW23710   1.217   2.222   5.083
 7604SOL    HW123711   1.226   2.287   5.008
 7604SOL    HW223712   1.259   2.135   5.058
 7605SOL     OW23713   2.346   0.111   7.018
 7605SOL    HW123714   2.298   0.147   6.939
 7605SOL    HW223715   2.439   0.148   7.021
 7606SOL     OW23716   6.297   1.748   4.405
 7606SOL    HW123717   6.259   1.785   4.490
 7606SOL    HW223718   6.242   1.780   4.327
 7607SOL     OW23719   3.481   6.298   6.635
 7607SOL    HW123720   3.383   6.282   6.638
 7607SOL    HW223721   3.510   6.343   6.720
 7608SOL     OW23722   5.291   2.358   6.286
 7608SOL    HW123723   5.293   2.293   6.362
 7608SOL    HW223724   5.342   2.440   6.311
 7609SOL     OW23725   0.628   2.868   3.802
 7609SOL    HW123726   0.666   2.842   3.890
 7609SOL    HW223727   0.658   2.804   3.732
 7610SOL     OW23728   3.489   5.148   6.488
 7610SOL    HW123729   3.579   5.108   6.478
 7610SOL    HW223730   3.493   5.246   6.467
 7611SOL     OW23731   4.833   3.278   1.164
 7611SOL    HW123732   4.829   3.377   1.169
 7611SOL    HW223733   4.750   3.239   1.204
 7612SOL     OW23734   3.116   1.805   3.383
 7612SOL    HW123735   3.075   1.764   3.301
 7612SOL    HW223736   3.167   1.735   3.433
 7613SOL     OW23737   1.155   1.462   2.315
 7613SOL    HW123738   1.215   1.519   2.372
 7613SOL    HW223739   1.160   1.493   2.220
 7614SOL     OW23740   5.165   3.320   0.887
 7614SOL    HW123741   5.122   3.241   0.843
 7614SOL    HW223742   5.206   3.379   0.817
 7615SOL     OW23743   5.344   3.238   5.061
 7615SOL    HW123744   5.297   3.177   5.125
 7615SOL    HW223745   5.443   3.230   5.073
 7616SOL     OW23746   5.855   6.755   3.437
 7616SOL    HW123747   5.951   6.774   3.419
 7616SOL    HW223748   5.813   6.713   3.356
 7617SOL     OW23749   5.004   5.344   3.369
 7617SOL    HW123750   5.037   5.254   3.342
 7617SOL    HW223751   5.067   5.385   3.435
 7618SOL     OW23752   2.680   1.921   0.235
 7618SOL    HW123753   2.714   1.854   0.301
 7618SOL    HW223754   2.635   1.873   0.159
 7619SOL     OW23755   1.047   2.039   4.318
 7619SOL    HW123756   1.126   2.097   4.336
 7619SOL    HW223757   0.968   2.097   4.294
 7620SOL     OW23758   3.503   4.585   1.289
 7620SOL    HW123759   3.519   4.538   1.202
 7620SOL    HW223760   3.444   4.529   1.346
 7621SOL     OW23761   0.355   5.782   0.921
 7621SOL    HW123762   0.420   5.769   0.846
 7621SOL    HW223763   0.275   5.831   0.888
 7622SOL     OW23764   4.415   4.603   0.687
 7622SOL    HW123765   4.347   4.573   0.619
 7622SOL    HW223766   4.447   4.695   0.664
 7623SOL     OW23767   4.411   4.833   1.512
 7623SOL    HW123768   4.405   4.812   1.414
 7623SOL    HW223769   4.415   4.748   1.565
 7624SOL     OW23770   0.298   2.530   1.931
 7624SOL    HW123771   0.232   2.571   1.993
 7624SOL    HW223772   0.256   2.452   1.884
 7625SOL     OW23773   5.108   1.771   0.289
 7625SOL    HW123774   5.046   1.751   0.213
 7625SOL    HW223775   5.116   1.870   0.300
 7626SOL     OW23776   5.545   0.415   5.732
 7626SOL    HW123777   5.510   0.495   5.781
 7626SOL    HW223778   5.482   0.338   5.744
 7627SOL     OW23779   2.951   2.404   0.176
 7627SOL    HW123780   3.038   2.410   0.128
 7627SOL    HW223781   2.923   2.495   0.206
 7628SOL     OW23782   3.279   2.214   0.478
 7628SOL    HW123783   3.181   2.202   0.459
 7628SOL    HW223784   3.300   2.173   0.567
 7629SOL     OW23785   5.709   3.265   3.990
 7629SOL    HW123786   5.760   3.351   3.995
 7629SOL    HW223787   5.643   3.270   3.915
 7630SOL     OW23788   1.494   0.661   4.853
 7630SOL    HW123789   1.463   0.694   4.764
 7630SOL    HW223790   1.590   0.683   4.865
 7631SOL     OW23791   1.894   0.357   5.245
 7631SOL    HW123792   1.953   0.401   5.176
 7631SOL    HW223793   1.836   0.426   5.288
 7632SOL     OW23794   4.857   5.820   0.857
 7632SOL    HW123795   4.889   5.913   0.879
 7632SOL    HW223796   4.759   5.815   0.873
 7633SOL     OW23797   5.675   0.864   0.888
 7633SOL    HW123798   5.665   0.949   0.941
 7633SOL    HW223799   5.665   0.786   0.949
 7634SOL     OW23800   1.373   2.215   0.905
 7634SOL    HW123801   1.449   2.165   0.946
 7634SOL    HW223802   1.316   2.152   0.853
 7635SOL     OW23803   2.593   5.187   4.905
 7635SOL    HW123804   2.520   5.135   4.950
 7635SOL    HW223805   2.649   5.232   4.974
 7636SOL     OW23806   0.681   4.921   4.660
 7636SOL    HW123807   0.694   5.020   4.669
 7636SOL    HW223808   0.770   4.876   4.657
 7637SOL     OW23809   0.491   6.728   4.324
 7637SOL    HW123810   0.510   6.635   4.293
 7637SOL    HW223811   0.478   6.788   4.245
 7638SOL     OW23812   0.792   4.975   1.746
 7638SOL    HW123813   0.698   5.009   1.746
 7638SOL    HW223814   0.841   5.011   1.826
 7639SOL     OW23815   0.928   0.955   0.110
 7639SOL    HW123816   0.848   0.904   0.144
 7639SOL    HW223817   0.897   1.028   0.049
 7640SOL     OW23818   3.077   1.006   6.487
 7640SOL    HW123819   2.985   0.974   6.463
 7640SOL    HW223820   3.079   1.106   6.488
 7641SOL     OW23821   6.761   3.994   2.775
 7641SOL    HW123822   6.834   4.056   2.748
 7641SOL    HW223823   6.704   3.973   2.695
 7642SOL     OW23824   5.703   1.558   3.437
 7642SOL    HW123825   5.603   1.555   3.445
 7642SOL    HW223826   5.729   1.628   3.371
 7643SOL     OW23827   5.036   2.640   2.978
 7643SOL    HW123828   5.077   2.730   2.962
 7643SOL    HW223829   5.095   2.587   3.038
 7644SOL     OW23830   4.795   3.034   1.326
 7644SOL    HW123831   4.799   3.120   1.376
 7644SOL    HW223832   4.825   2.959   1.385
 7645SOL     OW23833   3.446   3.823   6.068
 7645SOL    HW123834   3.389   3.749   6.031
 7645SOL    HW223835   3.426   3.835   6.165
 7646SOL     OW23836   1.236   2.636   2.686
 7646SOL    HW123837   1.236   2.564   2.756
 7646SOL    HW223838   1.189   2.603   2.604
 7647SOL     OW23839   6.976   3.248   4.880
 7647SOL    HW123840   0.008   3.312   4.934
 7647SOL    HW223841   6.886   3.289   4.862
 7648SOL     OW23842   1.901   2.366   3.204
 7648SOL    HW123843   1.906   2.293   3.271
 7648SOL    HW223844   1.899   2.455   3.250
 7649SOL     OW23845   6.502   0.814   4.513
 7649SOL    HW123846   6.518   0.912   4.499
 7649SOL    HW223847   6.506   0.794   4.611
 7650SOL     OW23848   4.067   0.796   1.573
 7650SOL    HW123849   3.997   0.795   1.502
 7650SOL    HW223850   4.067   0.708   1.621
 7651SOL     OW23851   2.247   5.198   4.784
 7651SOL    HW123852   2.273   5.176   4.878
 7651SOL    HW223853   2.326   5.235   4.736
 7652SOL     OW23854   6.175   1.695   4.673
 7652SOL    HW123855   6.190   1.746   4.758
 7652SOL    HW223856   6.163   1.598   4.694
 7653SOL     OW23857   0.502   2.126   6.681
 7653SOL    HW123858   0.553   2.197   6.632
 7653SOL    HW223859   0.410   2.118   6.641
 7654SOL     OW23860   6.235   3.414   5.153
 7654SOL    HW123861   6.198   3.496   5.109
 7654SOL    HW223862   6.270   3.438   5.244
 7655SOL     OW23863   2.931   0.901   3.679
 7655SOL    HW123864   2.945   0.889   3.581
 7655SOL    HW223865   2.855   0.965   3.694
 7656SOL     OW23866   6.692   3.794   6.366
 7656SOL    HW123867   6.671   3.866   6.300
 7656SOL    HW223868   6.788   3.801   6.394
 7657SOL     OW23869   1.363   4.110   4.805
 7657SOL    HW123870   1.404   4.100   4.895
 7657SOL    HW223871   1.433   4.141   4.740
 7658SOL     OW23872   2.395   0.654   0.496
 7658SOL    HW123873   2.343   0.729   0.456
 7658SOL    HW223874   2.349   0.621   0.579
 7659SOL     OW23875   4.916   3.955   5.349
 7659SOL    HW123876   4.901   4.016   5.427
 7659SOL    HW223877   4.863   3.988   5.271
 7660SOL     OW23878   7.017   4.975   4.346
 7660SOL    HW123879   6.985   5.059   4.301
 7660SOL    HW223880   0.027   4.997   4.437
 7661SOL     OW23881   4.719   2.390   5.605
 7661SOL    HW123882   4.797   2.412   5.546
 7661SOL    HW223883   4.750   2.380   5.699
 7662SOL     OW23884   0.990   1.798   2.366
 7662SOL    HW123885   0.986   1.814   2.268
 7662SOL    HW223886   0.908   1.836   2.410
 7663SOL     OW23887   6.098   4.980   5.774
 7663SOL    HW123888   6.026   5.012   5.712
 7663SOL    HW223889   6.060   4.966   5.865
 7664SOL     OW23890   4.147   1.446   3.021
 7664SOL    HW123891   4.056   1.477   3.049
 7664SOL    HW223892   4.145   1.418   2.925
 7665SOL     OW23893   4.208   2.316   4.083
 7665SOL    HW123894   4.209   2.276   3.991
 7665SOL    HW223895   4.266   2.397   4.085
 7666SOL     OW23896   6.225   5.184   3.479
 7666SOL    HW123897   6.301   5.123   3.503
 7666SOL    HW223898   6.139   5.134   3.487
 7667SOL     OW23899   5.033   5.879   2.101
 7667SOL    HW123900   5.003   5.971   2.128
 7667SOL    HW223901   5.065   5.829   2.181
 7668SOL     OW23902   2.077   5.196   0.731
 7668SOL    HW123903   2.164   5.183   0.778
 7668SOL    HW223904   2.002   5.159   0.786
 7669SOL     OW23905   3.236   6.361   6.039
 7669SOL    HW123906   3.179   6.399   5.966
 7669SOL    HW223907   3.240   6.425   6.115
 7670SOL     OW23908   0.229   6.560   6.908
 7670SOL    HW123909   0.174   6.611   6.841
 7670SOL    HW223910   0.170   6.530   6.983
 7671SOL     OW23911   5.366   0.475   1.841
 7671SOL    HW123912   5.410   0.564   1.825
 7671SOL    HW223913   5.339   0.469   1.937
 7672SOL     OW23914   5.312   4.473   3.149
 7672SOL    HW123915   5.360   4.552   3.111
 7672SOL    HW223916   5.365   4.433   3.224
 7673SOL     OW23917   1.061   5.608   3.589
 7673SOL    HW123918   1.039   5.675   3.660
 7673SOL    HW223919   1.002   5.528   3.599
 7674SOL     OW23920   3.595   0.115   4.374
 7674SOL    HW123921   3.638   0.200   4.345
 7674SOL    HW223922   3.501   0.134   4.404
 7675SOL     OW23923   3.776   6.626   2.825
 7675SOL    HW123924   3.784   6.669   2.736
 7675SOL    HW223925   3.806   6.530   2.819
 7676SOL     OW23926   2.821   3.219   5.807
 7676SOL    HW123927   2.838   3.155   5.882
 7676SOL    HW223928   2.908   3.248   5.766
 7677SOL     OW23929   5.827   4.356   1.422
 7677SOL    HW123930   5.773   4.323   1.500
 7677SOL    HW223931   5.830   4.286   1.351
 7678SOL     OW23932   1.652   1.841   5.687
 7678SOL    HW123933   1.590   1.830   5.765
 7678SOL    HW223934   1.650   1.758   5.632
 7679SOL     OW23935   2.005   5.647   4.782
 7679SOL    HW123936   1.978   5.743   4.786
 7679SOL    HW223937   1.924   5.589   4.786
 7680SOL     OW23938   1.928   0.747   5.131
 7680SOL    HW123939   1.930   0.651   5.104
 7680SOL    HW223940   2.001   0.796   5.084
 7681SOL     OW23941   3.106   2.840   6.215
 7681SOL    HW123942   3.151   2.897   6.146
 7681SOL    HW223943   3.152   2.751   6.220
 7682SOL     OW23944   2.614   1.745   3.187
 7682SOL    HW123945   2.621   1.844   3.202
 7682SOL    HW223946   2.564   1.703   3.262
 7683SOL     OW23947   0.224   1.306   4.593
 7683SOL    HW123948   0.304   1.331   4.538
 7683SOL    HW223949   0.171   1.237   4.544
 7684SOL     OW23950   4.145   2.522   1.654
 7684SOL    HW123951   4.112   2.428   1.667
 7684SOL    HW223952   4.085   2.585   1.703
 7685SOL     OW23953   3.140   0.698   0.169
 7685SOL    HW123954   3.047   0.678   0.200
 7685SOL    HW223955   3.187   0.755   0.236
 7686SOL     OW23956   4.639   0.205   4.686
 7686SOL    HW123957   4.603   0.291   4.724
 7686SOL    HW223958   4.648   0.214   4.587
 7687SOL     OW23959   5.615   5.050   4.544
 7687SOL    HW123960   5.706   5.092   4.539
 7687SOL    HW223961   5.582   5.030   4.452
 7688SOL     OW23962   0.675   5.015   6.354
 7688SOL    HW123963   0.750   5.004   6.419
 7688SOL    HW223964   0.645   4.925   6.323
 7689SOL     OW23965   4.770   0.609   1.599
 7689SOL    HW123966   4.747   0.693   1.550
 7689SOL    HW223967   4.687   0.570   1.640
 7690SOL     OW23968   6.449   5.113   0.332
 7690SOL    HW123969   6.527   5.092   0.390
 7690SOL    HW223970   6.365   5.085   0.377
 7691SOL     OW23971   4.398   4.607   3.669
 7691SOL    HW123972   4.445   4.593   3.582
 7691SOL    HW223973   4.465   4.615   3.742
 7692SOL     OW23974   1.021   6.309   2.306
 7692SOL    HW123975   1.031   6.310   2.207
 7692SOL    HW223976   0.964   6.387   2.335
 7693SOL     OW23977   2.339   1.155   1.060
 7693SOL    HW123978   2.401   1.182   0.986
 7693SOL    HW223979   2.369   1.195   1.146
 7694SOL     OW23980   6.116   2.704   4.512
 7694SOL    HW123981   6.161   2.757   4.584
 7694SOL    HW223982   6.099   2.763   4.433
 7695SOL     OW23983   6.318   0.489   3.181
 7695SOL    HW123984   6.394   0.552   3.194
 7695SOL    HW223985   6.336   0.429   3.103
 7696SOL     OW23986   0.537   2.560   6.472
 7696SOL    HW123987   0.572   2.612   6.550
 7696SOL    HW223988   0.446   2.594   6.447
 7697SOL     OW23989   3.982   0.057   2.843
 7697SOL    HW123990   3.956   0.145   2.802
 7697SOL    HW223991   4.081   0.057   2.859
 7698SOL     OW23992   6.452   1.941   6.674
 7698SOL    HW123993   6.353   1.945   6.681
 7698SOL    HW223994   6.492   1.930   6.765
 7699SOL     OW23995   3.466   5.562   6.737
 7699SOL    HW123996   3.456   5.633   6.806
 7699SOL    HW223997   3.563   5.538   6.726
 7700SOL     OW23998   4.922   6.037   2.736
 7700SOL    HW123999   4.911   5.942   2.768
 7700SOL    HW224000   4.881   6.046   2.645
 7701SOL     OW24001   0.261   2.717   5.940
 7701SOL    HW124002   0.242   2.660   5.859
 7701SOL    HW224003   0.255   2.814   5.915
 7702SOL     OW24004   4.531   6.955   5.104
 7702SOL    HW124005   4.480   7.014   5.167
 7702SOL    HW224006   4.524   6.991   5.011
 7703SOL     OW24007   6.334   6.669   4.116
 7703SOL    HW124008   6.399   6.700   4.186
 7703SOL    HW224009   6.258   6.621   4.160
 7704SOL     OW24010   6.292   1.386   4.017
 7704SOL    HW124011   6.281   1.474   4.063
 7704SOL    HW224012   6.264   1.394   3.922
 7705SOL     OW24013   2.079   4.746   0.452
 7705SOL    HW124014   2.048   4.783   0.540
 7705SOL    HW224015   2.033   4.659   0.434
 7706SOL     OW24016   3.817   2.949   2.744
 7706SOL    HW124017   3.910   2.958   2.780
 7706SOL    HW224018   3.810   2.997   2.657
 7707SOL     OW24019   6.620   5.815   6.684
 7707SOL    HW124020   6.645   5.719   6.673
 7707SOL    HW224021   6.699   5.867   6.718
 7708SOL     OW24022   2.677   6.608   4.542
 7708SOL    HW124023   2.582   6.595   4.572
 7708SOL    HW224024   2.735   6.624   4.622
 7709SOL     OW24025   6.880   4.533   1.037
 7709SOL    HW124026   6.850   4.573   0.951
 7709SOL    HW224027   6.980   4.534   1.041
 7710SOL     OW24028   1.495   3.213   0.617
 7710SOL    HW124029   1.545   3.130   0.639
 7710SOL    HW224030   1.558   3.282   0.581
 7711SOL     OW24031   6.460   4.571   5.561
 7711SOL    HW124032   6.468   4.472   5.572
 7711SOL    HW224033   6.432   4.612   5.647
 7712SOL     OW24034   6.416   4.844   6.018
 7712SOL    HW124035   6.499   4.878   6.063
 7712SOL    HW224036   6.359   4.922   5.991
 7713SOL     OW24037   1.815   4.897   0.654
 7713SOL    HW124038   1.748   4.930   0.720
 7713SOL    HW224039   1.907   4.907   0.692
 7714SOL     OW24040   6.684   0.732   4.071
 7714SOL    HW124041   6.657   0.827   4.052
 7714SOL    HW224042   6.604   0.681   4.102
 7715SOL     OW24043   1.894   2.638   6.247
 7715SOL    HW124044   1.970   2.689   6.287
 7715SOL    HW224045   1.808   2.670   6.287
 7716SOL     OW24046   0.637   5.625   6.401
 7716SOL    HW124047   0.728   5.656   6.429
 7716SOL    HW224048   0.639   5.526   6.386
 7717SOL     OW24049   1.518   2.074   6.497
 7717SOL    HW124050   1.491   2.031   6.583
 7717SOL    HW224051   1.486   2.169   6.496
 7718SOL     OW24052   1.473   4.348   2.631
 7718SOL    HW124053   1.565   4.329   2.667
 7718SOL    HW224054   1.436   4.265   2.590
 7719SOL     OW24055   1.885   4.052   4.443
 7719SOL    HW124056   1.894   3.985   4.517
 7719SOL    HW224057   1.937   4.022   4.364
 7720SOL     OW24058   6.414   1.740   6.412
 7720SOL    HW124059   6.459   1.667   6.360
 7720SOL    HW224060   6.460   1.751   6.500
 7721SOL     OW24061   0.903   0.091   2.884
 7721SOL    HW124062   0.917   0.132   2.974
 7721SOL    HW224063   0.988   0.096   2.831
 7722SOL     OW24064   2.568   5.407   4.149
 7722SOL    HW124065   2.504   5.483   4.158
 7722SOL    HW224066   2.526   5.324   4.184
 7723SOL     OW24067   4.924   3.091   0.103
 7723SOL    HW124068   4.945   3.187   0.088
 7723SOL    HW224069   4.838   3.068   0.056
 7724SOL     OW24070   2.925   4.170   1.539
 7724SOL    HW124071   2.964   4.191   1.449
 7724SOL    HW224072   2.870   4.086   1.532
 7725SOL     OW24073   5.595   2.615   2.612
 7725SOL    HW124074   5.694   2.634   2.614
 7725SOL    HW224075   5.545   2.701   2.624
 7726SOL     OW24076   0.415   3.302   6.042
 7726SOL    HW124077   0.482   3.357   6.093
 7726SOL    HW224078   0.331   3.295   6.095
 7727SOL     OW24079   4.824   2.560   2.132
 7727SOL    HW124080   4.856   2.642   2.180
 7727SOL    HW224081   4.732   2.536   2.165
 7728SOL     OW24082   2.199   3.146   4.963
 7728SOL    HW124083   2.275   3.190   4.916
 7728SOL    HW224084   2.228   3.058   4.999
 7729SOL     OW24085   6.279   2.467   3.002
 7729SOL    HW124086   6.293   2.473   3.101
 7729SOL    HW224087   6.182   2.457   2.983
 7730SOL     OW24088   5.931   4.711   5.301
 7730SOL    HW124089   6.020   4.703   5.345
 7730SOL    HW224090   5.864   4.654   5.348
 7731SOL     OW24091   5.702   0.157   0.501
 7731SOL    HW124092   5.660   0.243   0.530
 7731SOL    HW224093   5.739   0.167   0.409
 7732SOL     OW24094   4.440   0.625   6.252
 7732SOL    HW124095   4.463   0.561   6.324
 7732SOL    HW224096   4.344   0.615   6.226
 7733SOL     OW24097   6.656   6.106   2.221
 7733SOL    HW124098   6.707   6.101   2.135
 7733SOL    HW224099   6.705   6.055   2.292
 7734SOL     OW24100   2.714   4.171   5.285
 7734SOL    HW124101   2.692   4.073   5.279
 7734SOL    HW224102   2.811   4.183   5.303
 7735SOL     OW24103   6.372   6.512   0.047
 7735SOL    HW124104   6.283   6.509   0.092
 7735SOL    HW224105   6.416   6.423   0.056
 7736SOL     OW24106   2.976   2.700   0.547
 7736SOL    HW124107   2.963   2.602   0.560
 7736SOL    HW224108   3.014   2.740   0.630
 7737SOL     OW24109   4.042   5.204   1.065
 7737SOL    HW124110   4.113   5.214   1.135
 7737SOL    HW224111   4.081   5.220   0.975
 7738SOL     OW24112   2.800   6.052   6.821
 7738SOL    HW124113   2.724   6.009   6.870
 7738SOL    HW224114   2.795   6.152   6.831
 7739SOL     OW24115   1.507   2.527   1.645
 7739SOL    HW124116   1.466   2.605   1.692
 7739SOL    HW224117   1.463   2.515   1.556
 7740SOL     OW24118   1.020   1.025   3.940
 7740SOL    HW124119   0.970   1.103   3.978
 7740SOL    HW224120   1.007   0.945   3.997
 7741SOL     OW24121   1.654   4.895   6.048
 7741SOL    HW124122   1.736   4.838   6.038
 7741SOL    HW224123   1.680   4.991   6.037
 7742SOL     OW24124   3.862   1.332   4.002
 7742SOL    HW124125   3.854   1.356   4.099
 7742SOL    HW224126   3.804   1.252   3.983
 7743SOL     OW24127   5.144   0.970   6.737
 7743SOL    HW124128   5.144   1.044   6.803
 7743SOL    HW224129   5.103   0.888   6.779
 7744SOL     OW24130   0.597   5.697   4.799
 7744SOL    HW124131   0.657   5.716   4.722
 7744SOL    HW224132   0.551   5.610   4.785
 7745SOL     OW24133   1.570   6.391   0.086
 7745SOL    HW124134   1.641   6.430   0.143
 7745SOL    HW224135   1.482   6.397   0.133
 7746SOL     OW24136   1.056   6.424   1.134
 7746SOL    HW124137   1.059   6.328   1.104
 7746SOL    HW224138   1.024   6.428   1.229
 7747SOL     OW24139   0.097   6.357   1.002
 7747SOL    HW124140   0.115   6.406   1.087
 7747SOL    HW224141   0.008   6.384   0.966
 7748SOL     OW24142   4.102   2.634   6.006
 7748SOL    HW124143   4.061   2.660   5.919
 7748SOL    HW224144   4.195   2.601   5.989
 7749SOL     OW24145   3.360   3.878   3.936
 7749SOL    HW124146   3.295   3.951   3.959
 7749SOL    HW224147   3.370   3.874   3.836
 7750SOL     OW24148   5.914   4.286   5.850
 7750SOL    HW124149   5.987   4.262   5.913
 7750SOL    HW224150   5.827   4.251   5.885
 7751SOL     OW24151   6.916   1.525   4.887
 7751SOL    HW124152   7.006   1.496   4.853
 7751SOL    HW224153   6.895   1.476   4.972
 7752SOL     OW24154   5.832   5.291   5.128
 7752SOL    HW124155   5.736   5.319   5.122
 7752SOL    HW224156   5.874   5.298   5.037
 7753SOL     OW24157   2.461   0.425   4.031
 7753SOL    HW124158   2.374   0.469   4.052
 7753SOL    HW224159   2.524   0.491   3.991
 7754SOL     OW24160   5.891   0.531   1.061
 7754SOL    HW124161   5.802   0.527   1.015
 7754SOL    HW224162   5.940   0.613   1.032
 7755SOL     OW24163   0.137   6.220   5.374
 7755SOL    HW124164   0.130   6.242   5.471
 7755SOL    HW224165   0.095   6.293   5.320
 7756SOL     OW24166   2.814   4.755   2.435
 7756SOL    HW124167   2.854   4.763   2.343
 7756SOL    HW224168   2.866   4.811   2.499
 7757SOL     OW24169   4.602   6.385   5.397
 7757SOL    HW124170   4.527   6.380   5.332
 7757SOL    HW224171   4.612   6.480   5.429
 7758SOL     OW24172   2.372   2.658   6.270
 7758SOL    HW124173   2.280   2.690   6.248
 7758SOL    HW224174   2.431   2.667   6.189
 7759SOL     OW24175   2.025   0.468   4.518
 7759SOL    HW124176   1.972   0.532   4.463
 7759SOL    HW224177   1.986   0.376   4.509
 7760SOL     OW24178   5.332   3.049   2.120
 7760SOL    HW124179   5.363   2.957   2.145
 7760SOL    HW224180   5.384   3.117   2.172
 7761SOL     OW24181   3.237   6.945   6.370
 7761SOL    HW124182   3.312   7.010   6.356
 7761SOL    HW224183   3.254   6.893   6.454
 7762SOL     OW24184   4.192   1.321   0.506
 7762SOL    HW124185   4.130   1.385   0.462
 7762SOL    HW224186   4.276   1.313   0.452
 7763SOL     OW24187   1.358   1.562   0.968
 7763SOL    HW124188   1.413   1.645   0.978
 7763SOL    HW224189   1.408   1.484   1.004
 7764SOL     OW24190   4.160   3.365   2.508
 7764SOL    HW124191   4.130   3.281   2.552
 7764SOL    HW224192   4.257   3.358   2.485
 7765SOL     OW24193   6.369   3.440   3.437
 7765SOL    HW124194   6.333   3.517   3.384
 7765SOL    HW224195   6.469   3.447   3.443
 7766SOL     OW24196   6.197   1.611   0.057
 7766SOL    HW124197   6.171   1.612   0.154
 7766SOL    HW224198   6.168   1.696   0.014
 7767SOL     OW24199   4.168   6.297   3.738
 7767SOL    HW124200   4.138   6.322   3.830
 7767SOL    HW224201   4.165   6.197   3.728
 7768SOL     OW24202   3.330   4.977   2.412
 7768SOL    HW124203   3.427   4.992   2.431
 7768SOL    HW224204   3.320   4.928   2.325
 7769SOL     OW24205   4.579   2.203   0.781
 7769SOL    HW124206   4.590   2.157   0.693
 7769SOL    HW224207   4.537   2.140   0.847
 7770SOL     OW24208   3.004   4.928   1.834
 7770SOL    HW124209   3.093   4.942   1.790
 7770SOL    HW224210   2.983   5.006   1.893
 7771SOL     OW24211   2.701   2.003   4.895
 7771SOL    HW124212   2.724   1.924   4.952
 7771SOL    HW224213   2.755   2.083   4.924
 7772SOL     OW24214   4.792   0.978   4.090
 7772SOL    HW124215   4.760   1.044   4.158
 7772SOL    HW224216   4.826   0.896   4.136
 7773SOL     OW24217   4.330   3.909   6.029
 7773SOL    HW124218   4.402   3.839   6.028
 7773SOL    HW224219   4.356   3.982   6.093
 7774SOL     OW24220   5.453   1.284   5.926
 7774SOL    HW124221   5.414   1.309   5.838
 7774SOL    HW224222   5.415   1.343   5.997
 7775SOL     OW24223   3.681   6.720   3.094
 7775SOL    HW124224   3.600   6.747   3.146
 7775SOL    HW224225   3.658   6.641   3.037
 7776SOL     OW24226   3.584   3.122   6.077
 7776SOL    HW124227   3.556   3.041   6.025
 7776SOL    HW224228   3.509   3.153   6.135
 7777SOL     OW24229   2.013   1.061   6.455
 7777SOL    HW124230   1.957   1.010   6.390
 7777SOL    HW224231   1.968   1.063   6.544
 7778SOL     OW24232   5.456   0.454   0.272
 7778SOL    HW124233   5.519   0.442   0.195
 7778SOL    HW224234   5.506   0.444   0.358
 7779SOL     OW24235   3.330   2.095   0.927
 7779SOL    HW124236   3.363   2.067   0.837
 7779SOL    HW224237   3.379   2.177   0.956
 7780SOL     OW24238   1.119   6.153   3.968
 7780SOL    HW124239   1.118   6.072   4.026
 7780SOL    HW224240   1.176   6.224   4.011
 7781SOL     OW24241   1.687   3.574   5.834
 7781SOL    HW124242   1.731   3.653   5.790
 7781SOL    HW224243   1.612   3.606   5.893
 7782SOL     OW24244   2.510   3.959   6.623
 7782SOL    HW124245   2.490   3.864   6.600
 7782SOL    HW224246   2.603   3.982   6.595
 7783SOL     OW24247   2.555   6.386   6.582
 7783SOL    HW124248   2.477   6.444   6.560
 7783SOL    HW224249   2.562   6.312   6.515
 7784SOL     OW24250   0.651   2.626   6.951
 7784SOL    HW124251   0.635   2.533   6.983
 7784SOL    HW224252   0.748   2.649   6.961
 7785SOL     OW24253   2.293   6.687   3.489
 7785SOL    HW124254   2.315   6.602   3.441
 7785SOL    HW224255   2.238   6.746   3.430
 7786SOL     OW24256   3.084   4.735   5.229
 7786SOL    HW124257   3.054   4.780   5.314
 7786SOL    HW224258   3.014   4.671   5.199
 7787SOL     OW24259   2.240   2.822   5.211
 7787SOL    HW124260   2.295   2.874   5.147
 7787SOL    HW224261   2.259   2.724   5.201
 7788SOL     OW24262   1.405   1.890   1.635
 7788SOL    HW124263   1.316   1.849   1.653
 7788SOL    HW224264   1.421   1.893   1.537
 7789SOL     OW24265   3.040   0.531   0.857
 7789SOL    HW124266   3.000   0.443   0.831
 7789SOL    HW224267   2.980   0.605   0.830
 7790SOL     OW24268   6.638   4.133   2.974
 7790SOL    HW124269   6.710   4.151   2.907
 7790SOL    HW224270   6.662   4.051   3.027
 7791SOL     OW24271   2.484   5.949   4.600
 7791SOL    HW124272   2.391   5.928   4.630
 7791SOL    HW224273   2.505   6.045   4.622
 7792SOL     OW24274   1.724   5.934   6.315
 7792SOL    HW124275   1.736   5.909   6.218
 7792SOL    HW224276   1.752   5.857   6.372
 7793SOL     OW24277   1.631   1.256   5.512
 7793SOL    HW124278   1.664   1.311   5.435
 7793SOL    HW224279   1.675   1.287   5.596
 7794SOL     OW24280   4.946   5.300   4.343
 7794SOL    HW124281   4.926   5.256   4.430
 7794SOL    HW224282   5.031   5.352   4.350
 7795SOL     OW24283   1.957   4.143   5.601
 7795SOL    HW124284   1.907   4.139   5.515
 7795SOL    HW224285   1.998   4.054   5.621
 7796SOL     OW24286   3.887   3.887   3.717
 7796SOL    HW124287   3.789   3.878   3.738
 7796SOL    HW224288   3.940   3.869   3.800
 7797SOL     OW24289   0.361   6.379   2.962
 7797SOL    HW124290   0.268   6.403   2.990
 7797SOL    HW224291   0.425   6.449   2.994
 7798SOL     OW24292   2.891   5.606   0.142
 7798SOL    HW124293   2.888   5.508   0.162
 7798SOL    HW224294   2.875   5.621   0.045
 7799SOL     OW24295   6.850   5.741   1.228
 7799SOL    HW124296   6.896   5.815   1.179
 7799SOL    HW224297   6.919   5.678   1.264
 7800SOL     OW24298   0.328   5.037   1.422
 7800SOL    HW124299   0.301   4.944   1.397
 7800SOL    HW224300   0.412   5.034   1.476
 7801SOL     OW24301   2.319   1.163   7.010
 7801SOL    HW124302   2.273   1.251   7.018
 7801SOL    HW224303   2.272   1.106   6.943
 7802SOL     OW24304   5.808   2.661   2.039
 7802SOL    HW124305   5.724   2.714   2.035
 7802SOL    HW224306   5.791   2.568   2.006
 7803SOL     OW24307   4.159   3.926   5.825
 7803SOL    HW124308   4.239   3.941   5.766
 7803SOL    HW224309   4.188   3.904   5.917
 7804SOL     OW24310   5.596   1.503   4.493
 7804SOL    HW124311   5.510   1.462   4.525
 7804SOL    HW224312   5.672   1.465   4.545
 7805SOL     OW24313   5.542   2.026   1.771
 7805SOL    HW124314   5.466   1.995   1.829
 7805SOL    HW224315   5.564   2.121   1.792
 7806SOL     OW24316   5.372   2.902   6.222
 7806SOL    HW124317   5.303   2.950   6.168
 7806SOL    HW224318   5.384   2.809   6.187
 7807SOL     OW24319   0.312   4.754   6.414
 7807SOL    HW124320   0.340   4.723   6.324
 7807SOL    HW224321   0.383   4.731   6.481
 7808SOL     OW24322   0.843   1.522   4.992
 7808SOL    HW124323   0.871   1.603   4.940
 7808SOL    HW224324   0.794   1.550   5.074
 7809SOL     OW24325   1.967   5.694   4.401
 7809SOL    HW124326   2.021   5.623   4.355
 7809SOL    HW224327   1.957   5.772   4.340
 7810SOL     OW24328   3.059   0.896   5.613
 7810SOL    HW124329   3.106   0.884   5.700
 7810SOL    HW224330   3.046   0.994   5.595
 7811SOL     OW24331   5.767   4.828   4.010
 7811SOL    HW124332   5.684   4.884   4.007
 7811SOL    HW224333   5.801   4.816   3.917
 7812SOL     OW24334   1.626   1.793   4.630
 7812SOL    HW124335   1.570   1.712   4.612
 7812SOL    HW224336   1.567   1.870   4.653
 7813SOL     OW24337   5.459   2.864   0.090
 7813SOL    HW124338   5.387   2.899   0.029
 7813SOL    HW224339   5.548   2.895   0.058
 7814SOL     OW24340   6.952   2.741   3.579
 7814SOL    HW124341   6.900   2.807   3.635
 7814SOL    HW224342   0.013   2.717   3.627
 7815SOL     OW24343   5.385   1.624   6.979
 7815SOL    HW124344   5.449   1.683   0.007
 7815SOL    HW224345   5.408   1.628   6.881
 7816SOL     OW24346   0.651   3.658   5.873
 7816SOL    HW124347   0.672   3.753   5.899
 7816SOL    HW224348   0.726   3.620   5.820
 7817SOL     OW24349   5.759   4.140   4.340
 7817SOL    HW124350   5.699   4.166   4.264
 7817SOL    HW224351   5.809   4.220   4.372
 7818SOL     OW24352   6.108   6.727   1.107
 7818SOL    HW124353   6.137   6.700   1.199
 7818SOL    HW224354   6.103   6.826   1.102
 7819SOL     OW24355   0.033   2.822   0.963
 7819SOL    HW124356   0.128   2.841   0.987
 7819SOL    HW224357   0.029   2.776   0.874
 7820SOL     OW24358   2.029   1.740   5.499
 7820SOL    HW124359   2.128   1.748   5.487
 7820SOL    HW224360   1.982   1.792   5.428
 7821SOL     OW24361   4.087   5.522   0.930
 7821SOL    HW124362   4.116   5.498   1.023
 7821SOL    HW224363   3.990   5.543   0.930
 7822SOL     OW24364   0.816   6.276   5.213
 7822SOL    HW124365   0.857   6.220   5.141
 7822SOL    HW224366   0.887   6.327   5.260
 7823SOL     OW24367   2.286   4.228   4.748
 7823SOL    HW124368   2.353   4.297   4.772
 7823SOL    HW224369   2.239   4.254   4.663
 7824SOL     OW24370   6.962   2.456   4.942
 7824SOL    HW124371   6.940   2.382   4.879
 7824SOL    HW224372   6.959   2.422   5.036
 7825SOL     OW24373   2.250   2.925   6.720
 7825SOL    HW124374   2.199   3.009   6.702
 7825SOL    HW224375   2.219   2.885   6.806
 7826SOL     OW24376   6.664   1.978   0.234
 7826SOL    HW124377   6.638   1.997   0.328
 7826SOL    HW224378   6.659   1.880   0.217
 7827SOL     OW24379   0.150   5.890   2.759
 7827SOL    HW124380   0.207   5.948   2.701
 7827SOL    HW224381   0.089   5.836   2.701
 7828SOL     OW24382   6.964   3.752   6.400
 7828SOL    HW124383   7.006   3.685   6.339
 7828SOL    HW224384   7.023   3.767   6.479
 7829SOL     OW24385   3.414   3.054   1.276
 7829SOL    HW124386   3.323   3.071   1.315
 7829SOL    HW224387   3.413   2.966   1.228
 7830SOL     OW24388   3.146   5.415   4.746
 7830SOL    HW124389   3.167   5.361   4.665
 7830SOL    HW224390   3.082   5.364   4.804
 7831SOL     OW24391   1.857   1.694   1.180
 7831SOL    HW124392   1.904   1.775   1.216
 7831SOL    HW224393   1.759   1.702   1.199
 7832SOL     OW24394   5.574   0.694   4.995
 7832SOL    HW124395   5.599   0.783   5.035
 7832SOL    HW224396   5.497   0.706   4.933
 7833SOL     OW24397   1.426   0.210   3.941
 7833SOL    HW124398   1.379   0.195   4.028
 7833SOL    HW224399   1.405   0.302   3.907
 7834SOL     OW24400   6.423   2.442   4.330
 7834SOL    HW124401   6.424   2.444   4.230
 7834SOL    HW224402   6.404   2.349   4.361
 7835SOL     OW24403   4.221   1.601   5.481
 7835SOL    HW124404   4.302   1.588   5.424
 7835SOL    HW224405   4.142   1.620   5.422
 7836SOL     OW24406   3.920   4.129   5.240
 7836SOL    HW124407   4.007   4.090   5.272
 7836SOL    HW224408   3.911   4.111   5.142
 7837SOL     OW24409   6.045   6.548   0.360
 7837SOL    HW124410   5.989   6.482   0.410
 7837SOL    HW224411   6.056   6.631   0.415
 7838SOL     OW24412   5.632   5.658   1.161
 7838SOL    HW124413   5.632   5.638   1.064
 7838SOL    HW224414   5.680   5.585   1.210
 7839SOL     OW24415   6.312   4.595   4.405
 7839SOL    HW124416   6.408   4.621   4.399
 7839SOL    HW224417   6.280   4.606   4.499
 7840SOL     OW24418   1.513   4.397   3.539
 7840SOL    HW124419   1.568   4.469   3.582
 7840SOL    HW224420   1.425   4.390   3.587
 7841SOL     OW24421   5.057   1.862   6.442
 7841SOL    HW124422   5.032   1.825   6.531
 7841SOL    HW224423   4.987   1.928   6.413
 7842SOL     OW24424   2.163   1.255   2.676
 7842SOL    HW124425   2.082   1.240   2.733
 7842SOL    HW224426   2.213   1.334   2.710
 7843SOL     OW24427   6.802   6.648   4.035
 7843SOL    HW124428   6.810   6.674   4.131
 7843SOL    HW224429   6.767   6.555   4.028
 7844SOL     OW24430   3.448   1.210   2.552
 7844SOL    HW124431   3.516   1.137   2.564
 7844SOL    HW224432   3.356   1.171   2.561
 7845SOL     OW24433   6.007   1.448   2.030
 7845SOL    HW124434   5.983   1.362   2.076
 7845SOL    HW224435   5.930   1.511   2.034
 7846SOL     OW24436   1.513   2.826   0.336
 7846SOL    HW124437   1.544   2.921   0.330
 7846SOL    HW224438   1.413   2.823   0.339
 7847SOL     OW24439   6.127   2.559   3.736
 7847SOL    HW124440   6.166   2.643   3.776
 7847SOL    HW224441   6.151   2.481   3.793
 7848SOL     OW24442   2.639   4.550   0.789
 7848SOL    HW124443   2.632   4.462   0.835
 7848SOL    HW224444   2.547   4.581   0.762
 7849SOL     OW24445   5.442   3.371   6.018
 7849SOL    HW124446   5.348   3.352   5.989
 7849SOL    HW224447   5.442   3.449   6.080
 7850SOL     OW24448   7.015   1.307   3.503
 7850SOL    HW124449   0.029   1.215   3.496
 7850SOL    HW224450   6.939   1.308   3.567
 7851SOL     OW24451   1.321   3.921   1.339
 7851SOL    HW124452   1.306   3.918   1.240
 7851SOL    HW224453   1.391   3.990   1.360
 7852SOL     OW24454   2.904   1.647   0.158
 7852SOL    HW124455   2.868   1.716   0.222
 7852SOL    HW224456   2.859   1.559   0.175
 7853SOL     OW24457   3.921   3.070   1.573
 7853SOL    HW124458   3.883   2.996   1.518
 7853SOL    HW224459   3.943   3.147   1.514
 7854SOL     OW24460   4.620   1.873   6.048
 7854SOL    HW124461   4.609   1.901   5.952
 7854SOL    HW224462   4.571   1.788   6.064
 7855SOL     OW24463   5.206   6.725   4.642
 7855SOL    HW124464   5.200   6.654   4.571
 7855SOL    HW224465   5.199   6.682   4.732
 7856SOL     OW24466   1.764   4.847   4.731
 7856SOL    HW124467   1.860   4.873   4.718
 7856SOL    HW224468   1.760   4.759   4.779
 7857SOL     OW24469   5.436   3.823   0.411
 7857SOL    HW124470   5.359   3.841   0.471
 7857SOL    HW224471   5.503   3.897   0.420
 7858SOL     OW24472   0.196   5.509   5.838
 7858SOL    HW124473   0.160   5.460   5.758
 7858SOL    HW224474   0.195   5.448   5.917
 7859SOL     OW24475   5.216   3.082   6.449
 7859SOL    HW124476   5.126   3.125   6.449
 7859SOL    HW224477   5.210   2.992   6.492
 7860SOL     OW24478   2.931   1.255   4.616
 7860SOL    HW124479   2.919   1.158   4.594
 7860SOL    HW224480   2.892   1.273   4.707
 7861SOL     OW24481   2.626   5.807   1.484
 7861SOL    HW124482   2.600   5.855   1.568
 7861SOL    HW224483   2.627   5.871   1.408
 7862SOL     OW24484   3.102   5.837   1.760
 7862SOL    HW124485   3.141   5.747   1.745
 7862SOL    HW224486   3.026   5.852   1.696
 7863SOL     OW24487   6.857   4.459   3.475
 7863SOL    HW124488   6.879   4.525   3.547
 7863SOL    HW224489   6.787   4.396   3.508
 7864SOL     OW24490   2.284   5.878   6.132
 7864SOL    HW124491   2.294   5.809   6.060
 7864SOL    HW224492   2.222   5.950   6.101
 7865SOL     OW24493   6.283   6.123   3.899
 7865SOL    HW124494   6.262   6.199   3.960
 7865SOL    HW224495   6.232   6.135   3.813
 7866SOL     OW24496   2.042   0.455   6.101
 7866SOL    HW124497   1.986   0.477   6.181
 7866SOL    HW224498   2.084   0.538   6.065
 7867SOL     OW24499   5.566   0.517   3.992
 7867SOL    HW124500   5.592   0.583   3.922
 7867SOL    HW224501   5.570   0.561   4.082
 7868SOL     OW24502   4.239   5.907   0.993
 7868SOL    HW124503   4.303   5.931   1.065
 7868SOL    HW224504   4.182   5.986   0.970
 7869SOL     OW24505   5.967   4.299   5.575
 7869SOL    HW124506   5.957   4.286   5.673
 7869SOL    HW224507   5.973   4.397   5.554
 7870SOL     OW24508   4.423   6.366   5.197
 7870SOL    HW124509   4.430   6.348   5.099
 7870SOL    HW224510   4.371   6.450   5.212
 7871SOL     OW24511   5.285   1.559   2.173
 7871SOL    HW124512   5.285   1.501   2.254
 7871SOL    HW224513   5.311   1.652   2.198
 7872SOL     OW24514   1.831   5.020   2.565
 7872SOL    HW124515   1.893   4.978   2.632
 7872SOL    HW224516   1.814   5.115   2.590
 7873SOL     OW24517   7.009   1.196   0.801
 7873SOL    HW124518   7.007   1.294   0.818
 7873SOL    HW224519   0.030   1.178   0.713
 7874SOL     OW24520   5.732   2.584   1.235
 7874SOL    HW124521   5.668   2.518   1.195
 7874SOL    HW224522   5.695   2.618   1.322
 7875SOL     OW24523   3.891   4.198   6.951
 7875SOL    HW124524   3.845   4.253   6.881
 7875SOL    HW224525   3.965   4.146   6.908
 7876SOL     OW24526   0.677   0.320   2.483
 7876SOL    HW124527   0.724   0.287   2.565
 7876SOL    HW224528   0.578   0.310   2.494
 7877SOL     OW24529   6.553   1.756   3.182
 7877SOL    HW124530   6.629   1.704   3.222
 7877SOL    HW224531   6.576   1.782   3.088
 7878SOL     OW24532   4.751   4.474   3.590
 7878SOL    HW124533   4.842   4.513   3.579
 7878SOL    HW224534   4.699   4.529   3.656
 7879SOL     OW24535   2.922   5.013   3.720
 7879SOL    HW124536   3.007   4.979   3.680
 7879SOL    HW224537   2.889   5.091   3.668
 7880SOL     OW24538   2.456   3.835   1.574
 7880SOL    HW124539   2.396   3.871   1.646
 7880SOL    HW224540   2.410   3.844   1.485
 7881SOL     OW24541   4.925   3.578   4.597
 7881SOL    HW124542   4.899   3.661   4.646
 7881SOL    HW224543   4.874   3.500   4.633
 7882SOL     OW24544   2.359   3.555   1.212
 7882SOL    HW124545   2.372   3.457   1.201
 7882SOL    HW224546   2.411   3.587   1.292
 7883SOL     OW24547   0.857   1.062   5.166
 7883SOL    HW124548   0.793   1.096   5.236
 7883SOL    HW224549   0.806   1.016   5.094
 7884SOL     OW24550   0.529   3.018   4.834
 7884SOL    HW124551   0.578   3.105   4.827
 7884SOL    HW224552   0.529   2.987   4.929
 7885SOL     OW24553   6.062   5.210   0.718
 7885SOL    HW124554   6.025   5.299   0.743
 7885SOL    HW224555   6.162   5.214   0.723
 7886SOL     OW24556   4.920   5.356   0.304
 7886SOL    HW124557   4.925   5.256   0.313
 7886SOL    HW224558   4.837   5.381   0.255
 7887SOL     OW24559   4.790   1.818   6.883
 7887SOL    HW124560   4.806   1.917   6.874
 7887SOL    HW224561   4.716   1.791   6.821
 7888SOL     OW24562   4.971   0.436   4.703
 7888SOL    HW124563   5.062   0.444   4.663
 7888SOL    HW224564   4.914   0.512   4.671
 7889SOL     OW24565   0.424   5.304   2.237
 7889SOL    HW124566   0.518   5.328   2.211
 7889SOL    HW224567   0.369   5.386   2.244
 7890SOL     OW24568   2.184   3.931   2.316
 7890SOL    HW124569   2.240   4.007   2.282
 7890SOL    HW224570   2.105   3.968   2.366
 7891SOL     OW24571   2.423   4.673   2.324
 7891SOL    HW124572   2.472   4.634   2.246
 7891SOL    HW224573   2.442   4.771   2.330
 7892SOL     OW24574   2.029   2.710   5.593
 7892SOL    HW124575   2.100   2.779   5.610
 7892SOL    HW224576   2.071   2.629   5.553
 7893SOL     OW24577   5.685   6.570   0.628
 7893SOL    HW124578   5.761   6.613   0.676
 7893SOL    HW224579   5.675   6.612   0.537
 7894SOL     OW24580   2.434   6.140   2.233
 7894SOL    HW124581   2.387   6.211   2.286
 7894SOL    HW224582   2.518   6.113   2.281
 7895SOL     OW24583   6.318   0.954   4.910
 7895SOL    HW124584   6.284   0.862   4.888
 7895SOL    HW224585   6.313   1.012   4.829
 7896SOL     OW24586   5.286   3.922   5.655
 7896SOL    HW124587   5.283   3.996   5.588
 7896SOL    HW224588   5.196   3.878   5.660
 7897SOL     OW24589   2.326   3.883   6.836
 7897SOL    HW124590   2.367   3.817   6.773
 7897SOL    HW224591   2.379   3.968   6.834
 7898SOL     OW24592   4.034   2.162   3.836
 7898SOL    HW124593   3.941   2.174   3.873
 7898SOL    HW224594   4.031   2.098   3.759
 7899SOL     OW24595   5.809   2.444   2.343
 7899SOL    HW124596   5.842   2.361   2.298
 7899SOL    HW224597   5.710   2.451   2.332
 7900SOL     OW24598   1.708   5.657   1.260
 7900SOL    HW124599   1.704   5.658   1.160
 7900SOL    HW224600   1.671   5.742   1.296
 7901SOL     OW24601   6.724   6.437   6.255
 7901SOL    HW124602   6.789   6.510   6.232
 7901SOL    HW224603   6.666   6.417   6.175
 7902SOL     OW24604   4.736   4.583   0.875
 7902SOL    HW124605   4.663   4.588   0.808
 7902SOL    HW224606   4.699   4.552   0.963
 7903SOL     OW24607   6.616   1.713   0.209
 7903SOL    HW124608   6.694   1.666   0.251
 7903SOL    HW224609   6.538   1.709   0.270
 7904SOL     OW24610   0.442   1.499   2.569
 7904SOL    HW124611   0.410   1.588   2.601
 7904SOL    HW224612   0.370   1.431   2.583
 7905SOL     OW24613   4.108   1.053   1.307
 7905SOL    HW124614   4.126   1.045   1.405
 7905SOL    HW224615   4.181   1.008   1.256
 7906SOL     OW24616   5.795   5.685   6.599
 7906SOL    HW124617   5.721   5.617   6.589
 7906SOL    HW224618   5.830   5.710   6.509
 7907SOL     OW24619   6.885   2.607   4.085
 7907SOL    HW124620   6.832   2.550   4.148
 7907SOL    HW224621   6.864   2.704   4.102
 7908SOL     OW24622   6.885   1.358   3.985
 7908SOL    HW124623   6.839   1.357   3.895
 7908SOL    HW224624   6.863   1.443   4.032
 7909SOL     OW24625   4.747   4.534   4.652
 7909SOL    HW124626   4.810   4.543   4.728
 7909SOL    HW224627   4.662   4.491   4.684
 7910SOL     OW24628   4.454   3.521   5.625
 7910SOL    HW124629   4.372   3.579   5.625
 7910SOL    HW224630   4.471   3.487   5.717
 7911SOL     OW24631   6.448   4.629   0.647
 7911SOL    HW124632   6.447   4.530   0.666
 7911SOL    HW224633   6.380   4.649   0.577
 7912SOL     OW24634   6.088   4.349   6.087
 7912SOL    HW124635   6.117   4.392   6.002
 7912SOL    HW224636   6.073   4.420   6.157
 7913SOL     OW24637   0.018   5.489   6.709
 7913SOL    HW124638   7.020   5.447   6.798
 7913SOL    HW224639   0.115   5.477   6.689
 7914SOL     OW24640   5.943   3.711   1.014
 7914SOL    HW124641   6.028   3.699   1.064
 7914SOL    HW224642   5.952   3.788   0.951
 7915SOL     OW24643   4.053   1.752   3.304
 7915SOL    HW124644   4.059   1.724   3.400
 7915SOL    HW224645   3.957   1.760   3.277
 7916SOL     OW24646   5.310   3.061   5.728
 7916SOL    HW124647   5.315   2.982   5.667
 7916SOL    HW224648   5.278   3.141   5.678
 7917SOL     OW24649   4.112   3.366   4.890
 7917SOL    HW124650   4.143   3.358   4.985
 7917SOL    HW224651   4.186   3.338   4.828
 7918SOL     OW24652   6.455   1.161   2.674
 7918SOL    HW124653   6.412   1.078   2.709
 7918SOL    HW224654   6.544   1.173   2.718
 7919SOL     OW24655   5.452   4.942   2.095
 7919SOL    HW124656   5.388   4.959   2.020
 7919SOL    HW224657   5.474   4.844   2.098
 7920SOL     OW24658   0.299   5.233   1.237
 7920SOL    HW124659   0.362   5.212   1.162
 7920SOL    HW224660   0.272   5.149   1.283
 7921SOL     OW24661   2.754   6.868   1.714
 7921SOL    HW124662   2.671   6.896   1.762
 7921SOL    HW224663   2.834   6.908   1.758
 7922SOL     OW24664   1.020   5.472   6.692
 7922SOL    HW124665   0.926   5.486   6.725
 7922SOL    HW224666   1.085   5.504   6.761
 7923SOL     OW24667   1.452   1.021   3.477
 7923SOL    HW124668   1.457   0.997   3.380
 7923SOL    HW224669   1.492   0.947   3.531
 7924SOL     OW24670   3.114   0.081   3.594
 7924SOL    HW124671   3.026   0.130   3.597
 7924SOL    HW224672   3.096   7.005   3.592
 7925SOL     OW24673   6.167   1.627   6.391
 7925SOL    HW124674   6.126   1.596   6.477
 7925SOL    HW224675   6.256   1.669   6.410
 7926SOL     OW24676   3.117   0.498   2.599
 7926SOL    HW124677   3.051   0.568   2.625
 7926SOL    HW224678   3.145   0.513   2.504
 7927SOL     OW24679   3.825   5.068   5.440
 7927SOL    HW124680   3.916   5.046   5.473
 7927SOL    HW224681   3.813   5.167   5.436
 7928SOL     OW24682   2.172   5.323   3.062
 7928SOL    HW124683   2.178   5.282   3.153
 7928SOL    HW224684   2.096   5.281   3.012
 7929SOL     OW24685   4.018   3.511   4.672
 7929SOL    HW124686   4.074   3.433   4.644
 7929SOL    HW224687   4.019   3.520   4.771
 7930SOL     OW24688   4.326   5.463   3.554
 7930SOL    HW124689   4.237   5.418   3.546
 7930SOL    HW224690   4.394   5.413   3.500
 7931SOL     OW24691   2.152   2.363   0.274
 7931SOL    HW124692   2.162   2.417   0.190
 7931SOL    HW224693   2.170   2.267   0.254
 7932SOL     OW24694   1.886   6.892   0.072
 7932SOL    HW124695   1.799   6.850   0.046
 7932SOL    HW224696   1.942   6.824   0.120
 7933SOL     OW24697   1.085   0.175   6.577
 7933SOL    HW124698   1.145   0.123   6.637
 7933SOL    HW224699   0.992   0.173   6.614
 7934SOL     OW24700   3.055   4.067   0.432
 7934SOL    HW124701   2.989   4.036   0.500
 7934SOL    HW224702   3.146   4.032   0.457
 7935SOL     OW24703   4.941   6.103   0.868
 7935SOL    HW124704   4.859   6.160   0.869
 7935SOL    HW224705   5.021   6.159   0.889
 7936SOL     OW24706   4.202   6.324   3.128
 7936SOL    HW124707   4.154   6.317   3.041
 7936SOL    HW224708   4.300   6.333   3.112
 7937SOL     OW24709   5.823   6.243   5.510
 7937SOL    HW124710   5.767   6.162   5.529
 7937SOL    HW224711   5.783   6.323   5.555
 7938SOL     OW24712   4.185   5.511   4.729
 7938SOL    HW124713   4.255   5.453   4.771
 7938SOL    HW224714   4.122   5.544   4.799
 7939SOL     OW24715   0.569   1.408   5.471
 7939SOL    HW124716   0.613   1.321   5.450
 7939SOL    HW224717   0.638   1.476   5.495
 7940SOL     OW24718   2.198   5.475   1.630
 7940SOL    HW124719   2.201   5.377   1.613
 7940SOL    HW224720   2.291   5.509   1.644
 7941SOL     OW24721   0.386   0.931   0.667
 7941SOL    HW124722   0.427   0.882   0.744
 7941SOL    HW224723   0.402   1.029   0.677
 7942SOL     OW24724   0.295   6.989   1.975
 7942SOL    HW124725   0.357   0.028   2.023
 7942SOL    HW224726   0.258   6.923   2.041
 7943SOL     OW24727   5.490   2.358   0.877
 7943SOL    HW124728   5.396   2.371   0.845
 7943SOL    HW224729   5.551   2.348   0.798
 7944SOL     OW24730   0.396   3.683   1.162
 7944SOL    HW124731   0.322   3.674   1.230
 7944SOL    HW224732   0.367   3.642   1.076
 7945SOL     OW24733   5.200   6.699   2.899
 7945SOL    HW124734   5.167   6.613   2.859
 7945SOL    HW224735   5.288   6.683   2.944
 7946SOL     OW24736   1.839   2.435   6.073
 7946SOL    HW124737   1.817   2.493   6.151
 7946SOL    HW224738   1.839   2.489   5.989
 7947SOL     OW24739   4.073   2.798   6.490
 7947SOL    HW124740   4.163   2.839   6.501
 7947SOL    HW224741   4.055   2.781   6.393
 7948SOL     OW24742   6.601   6.881   0.537
 7948SOL    HW124743   6.601   6.972   0.494
 7948SOL    HW224744   6.689   6.837   0.523
 7949SOL     OW24745   5.282   4.893   3.795
 7949SOL    HW124746   5.382   4.895   3.794
 7949SOL    HW224747   5.249   4.808   3.755
 7950SOL     OW24748   4.249   4.717   4.207
 7950SOL    HW124749   4.170   4.752   4.258
 7950SOL    HW224750   4.217   4.670   4.125
 7951SOL     OW24751   3.158   3.482   0.541
 7951SOL    HW124752   3.190   3.424   0.616
 7951SOL    HW224753   3.058   3.487   0.542
 7952SOL     OW24754   6.466   2.681   0.284
 7952SOL    HW124755   6.534   2.724   0.225
 7952SOL    HW224756   6.467   2.724   0.374
 7953SOL     OW24757   2.429   2.645   3.086
 7953SOL    HW124758   2.479   2.582   3.026
 7953SOL    HW224759   2.332   2.644   3.063
 7954SOL     OW24760   4.189   5.208   5.355
 7954SOL    HW124761   4.201   5.304   5.379
 7954SOL    HW224762   4.254   5.183   5.283
 7955SOL     OW24763   6.938   6.337   6.678
 7955SOL    HW124764   7.001   6.287   6.736
 7955SOL    HW224765   6.982   6.359   6.591
 7956SOL     OW24766   6.920   6.118   3.572
 7956SOL    HW124767   6.937   6.068   3.657
 7956SOL    HW224768   6.935   6.216   3.588
 7957SOL     OW24769   1.261   1.487   0.711
 7957SOL    HW124770   1.179   1.461   0.763
 7957SOL    HW224771   1.321   1.542   0.769
 7958SOL     OW24772   2.984   5.437   3.964
 7958SOL    HW124773   3.023   5.507   4.024
 7958SOL    HW224774   3.030   5.439   3.876
 7959SOL     OW24775   6.285   4.947   0.511
 7959SOL    HW124776   6.318   4.859   0.476
 7959SOL    HW224777   6.233   4.932   0.595
 7960SOL     OW24778   2.734   0.850   1.468
 7960SOL    HW124779   2.689   0.939   1.461
 7960SOL    HW224780   2.833   0.862   1.459
 7961SOL     OW24781   1.366   5.725   5.825
 7961SOL    HW124782   1.327   5.789   5.758
 7961SOL    HW224783   1.413   5.776   5.897
 7962SOL     OW24784   2.302   0.989   1.850
 7962SOL    HW124785   2.331   0.989   1.755
 7962SOL    HW224786   2.202   0.991   1.855
 7963SOL     OW24787   0.679   0.997   5.820
 7963SOL    HW124788   0.778   0.990   5.817
 7963SOL    HW224789   0.643   0.936   5.890
 7964SOL     OW24790   5.266   5.057   2.934
 7964SOL    HW124791   5.255   5.093   3.027
 7964SOL    HW224792   5.292   5.132   2.873
 7965SOL     OW24793   5.065   2.708   0.538
 7965SOL    HW124794   5.118   2.666   0.464
 7965SOL    HW224795   4.976   2.662   0.546
 7966SOL     OW24796   0.676   5.251   4.148
 7966SOL    HW124797   0.606   5.299   4.202
 7966SOL    HW224798   0.761   5.247   4.201
 7967SOL     OW24799   3.250   6.224   2.658
 7967SOL    HW124800   3.219   6.301   2.714
 7967SOL    HW224801   3.195   6.143   2.681
 7968SOL     OW24802   2.309   2.311   3.801
 7968SOL    HW124803   2.352   2.244   3.862
 7968SOL    HW224804   2.307   2.400   3.846
 7969SOL     OW24805   4.250   0.984   3.390
 7969SOL    HW124806   4.265   0.891   3.358
 7969SOL    HW224807   4.184   1.031   3.330
 7970SOL     OW24808   0.260   4.173   3.100
 7970SOL    HW124809   0.254   4.272   3.118
 7970SOL    HW224810   0.275   4.125   3.186
 7971SOL     OW24811   3.537   0.672   1.873
 7971SOL    HW124812   3.557   0.583   1.913
 7971SOL    HW224813   3.456   0.666   1.814
 7972SOL     OW24814   6.867   4.311   1.486
 7972SOL    HW124815   6.827   4.374   1.553
 7972SOL    HW224816   6.823   4.325   1.397
 7973SOL     OW24817   4.880   3.383   3.759
 7973SOL    HW124818   4.872   3.482   3.772
 7973SOL    HW224819   4.942   3.364   3.683
 7974SOL     OW24820   5.198   0.738   4.319
 7974SOL    HW124821   5.278   0.715   4.375
 7974SOL    HW224822   5.212   0.827   4.277
 7975SOL     OW24823   3.349   0.939   4.860
 7975SOL    HW124824   3.266   0.883   4.869
 7975SOL    HW224825   3.352   0.980   4.769
 7976SOL     OW24826   1.064   6.368   4.880
 7976SOL    HW124827   1.061   6.296   4.949
 7976SOL    HW224828   0.971   6.387   4.848
 7977SOL     OW24829   5.068   6.267   1.867
 7977SOL    HW124830   4.994   6.312   1.918
 7977SOL    HW224831   5.052   6.169   1.866
 7978SOL     OW24832   4.609   3.480   5.917
 7978SOL    HW124833   4.706   3.488   5.940
 7978SOL    HW224834   4.560   3.561   5.949
 7979SOL     OW24835   2.763   0.319   4.391
 7979SOL    HW124836   2.680   0.366   4.421
 7979SOL    HW224837   2.738   0.243   4.331
 7980SOL     OW24838   3.976   6.046   0.375
 7980SOL    HW124839   4.034   6.095   0.440
 7980SOL    HW224840   3.972   6.097   0.289
 7981SOL     OW24841   1.224   5.021   1.988
 7981SOL    HW124842   1.295   5.032   1.918
 7981SOL    HW224843   1.265   4.985   2.072
 7982SOL     OW24844   6.494   2.728   0.943
 7982SOL    HW124845   6.483   2.778   1.029
 7982SOL    HW224846   6.405   2.694   0.913
 7983SOL     OW24847   5.339   1.539   2.729
 7983SOL    HW124848   5.293   1.616   2.684
 7983SOL    HW224849   5.428   1.524   2.687
 7984SOL     OW24850   0.548   2.627   2.203
 7984SOL    HW124851   0.541   2.541   2.153
 7984SOL    HW224852   0.645   2.653   2.211
 7985SOL     OW24853   1.312   0.425   2.207
 7985SOL    HW124854   1.375   0.468   2.143
 7985SOL    HW224855   1.250   0.494   2.243
 7986SOL     OW24856   3.954   1.223   6.289
 7986SOL    HW124857   3.870   1.271   6.264
 7986SOL    HW224858   4.030   1.288   6.291
 7987SOL     OW24859   0.785   2.894   5.242
 7987SOL    HW124860   0.837   2.818   5.204
 7987SOL    HW224861   0.705   2.859   5.290
 7988SOL     OW24862   2.972   2.030   4.032
 7988SOL    HW124863   2.983   2.086   3.950
 7988SOL    HW224864   3.062   2.006   4.068
 7989SOL     OW24865   3.252   2.278   5.526
 7989SOL    HW124866   3.208   2.194   5.494
 7989SOL    HW224867   3.271   2.337   5.448
 7990SOL     OW24868   1.057   2.774   4.174
 7990SOL    HW124869   1.100   2.853   4.218
 7990SOL    HW224870   1.128   2.719   4.129
 7991SOL     OW24871   0.400   2.641   5.590
 7991SOL    HW124872   0.328   2.711   5.594
 7991SOL    HW224873   0.485   2.683   5.558
 7992SOL     OW24874   1.424   0.109   0.688
 7992SOL    HW124875   1.479   0.025   0.687
 7992SOL    HW224876   1.412   0.140   0.782
 7993SOL     OW24877   1.719   5.312   6.817
 7993SOL    HW124878   1.766   5.400   6.821
 7993SOL    HW224879   1.762   5.254   6.748
 7994SOL     OW24880   4.765   0.572   3.903
 7994SOL    HW124881   4.829   0.556   3.829
 7994SOL    HW224882   4.814   0.606   3.984
 7995SOL     OW24883   3.484   5.206   3.792
 7995SOL    HW124884   3.581   5.224   3.779
 7995SOL    HW224885   3.462   5.210   3.890
 7996SOL     OW24886   3.394   0.237   4.615
 7996SOL    HW124887   3.365   0.289   4.695
 7996SOL    HW224888   3.326   0.246   4.542
 7997SOL     OW24889   6.296   2.306   1.187
 7997SOL    HW124890   6.314   2.394   1.230
 7997SOL    HW224891   6.205   2.273   1.213
 7998SOL     OW24892   6.145   4.716   0.423
 7998SOL    HW124893   6.093   4.727   0.338
 7998SOL    HW224894   6.084   4.730   0.501
 7999SOL     OW24895   1.568   0.155   5.380
 7999SOL    HW124896   1.553   0.178   5.284
 7999SOL    HW224897   1.649   0.096   5.388
 8000SOL     OW24898   6.743   0.130   5.757
 8000SOL    HW124899   6.690   0.207   5.720
 8000SOL    HW224900   6.759   0.063   5.684
 8001SOL     OW24901   1.455   6.542   1.657
 8001SOL    HW124902   1.504   6.629   1.658
 8001SOL    HW224903   1.469   6.495   1.744
 8002SOL     OW24904   6.767   3.810   5.222
 8002SOL    HW124905   6.807   3.754   5.149
 8002SOL    HW224906   6.752   3.903   5.187
 8003SOL     OW24907   3.584   4.967   3.274
 8003SOL    HW124908   3.550   4.891   3.218
 8003SOL    HW224909   3.574   4.944   3.370
 8004SOL     OW24910   2.501   4.463   3.276
 8004SOL    HW124911   2.569   4.413   3.223
 8004SOL    HW224912   2.541   4.547   3.311
 8005SOL     OW24913   3.455   0.309   1.736
 8005SOL    HW124914   3.376   0.265   1.779
 8005SOL    HW224915   3.520   0.337   1.807
 8006SOL     OW24916   2.921   5.907   0.672
 8006SOL    HW124917   2.895   5.831   0.732
 8006SOL    HW224918   2.858   5.910   0.594
 8007SOL     OW24919   0.078   0.555   4.095
 8007SOL    HW124920   0.074   0.568   3.996
 8007SOL    HW224921   0.166   0.586   4.129
 8008SOL     OW24922   6.346   6.598   6.815
 8008SOL    HW124923   6.372   6.553   6.900
 8008SOL    HW224924   6.281   6.540   6.766
 8009SOL     OW24925   6.915   0.632   3.306
 8009SOL    HW124926   6.931   0.572   3.227
 8009SOL    HW224927   6.958   0.593   3.387
 8010SOL     OW24928   2.257   1.840   0.220
 8010SOL    HW124929   2.313   1.781   0.162
 8010SOL    HW224930   2.201   1.784   0.281
 8011SOL     OW24931   2.788   2.501   1.288
 8011SOL    HW124932   2.836   2.444   1.355
 8011SOL    HW224933   2.798   2.597   1.314
 8012SOL     OW24934   2.225   6.649   1.555
 8012SOL    HW124935   2.241   6.729   1.614
 8012SOL    HW224936   2.295   6.580   1.574
 8013SOL     OW24937   5.953   5.113   4.016
 8013SOL    HW124938   6.051   5.135   4.024
 8013SOL    HW224939   5.942   5.014   4.015
 8014SOL     OW24940   1.892   6.209   6.211
 8014SOL    HW124941   1.854   6.116   6.207
 8014SOL    HW224942   1.832   6.271   6.161
 8015SOL     OW24943   2.437   2.778   0.828
 8015SOL    HW124944   2.489   2.780   0.742
 8015SOL    HW224945   2.469   2.702   0.884
 8016SOL     OW24946   4.630   0.252   0.903
 8016SOL    HW124947   4.720   0.221   0.874
 8016SOL    HW224948   4.570   0.261   0.824
 8017SOL     OW24949   6.911   4.739   4.700
 8017SOL    HW124950   6.975   4.676   4.744
 8017SOL    HW224951   6.826   4.691   4.676
 8018SOL     OW24952   4.777   1.973   5.639
 8018SOL    HW124953   4.781   1.875   5.616
 8018SOL    HW224954   4.860   1.999   5.687
 8019SOL     OW24955   1.779   5.728   0.348
 8019SOL    HW124956   1.843   5.660   0.385
 8019SOL    HW224957   1.686   5.704   0.373
 8020SOL     OW24958   5.567   5.646   6.950
 8020SOL    HW124959   5.587   5.549   6.935
 8020SOL    HW224960   5.507   5.656   0.006
 8021SOL     OW24961   1.145   1.697   1.217
 8021SOL    HW124962   1.128   1.782   1.266
 8021SOL    HW224963   1.196   1.717   1.133
 8022SOL     OW24964   4.518   6.577   2.958
 8022SOL    HW124965   4.489   6.605   3.050
 8022SOL    HW224966   4.493   6.481   2.943
 8023SOL     OW24967   6.367   6.093   2.151
 8023SOL    HW124968   6.458   6.080   2.189
 8023SOL    HW224969   6.301   6.037   2.202
 8024SOL     OW24970   4.520   5.545   5.847
 8024SOL    HW124971   4.477   5.455   5.858
 8024SOL    HW224972   4.471   5.597   5.777
 8025SOL     OW24973   3.729   6.152   6.784
 8025SOL    HW124974   3.644   6.171   6.834
 8025SOL    HW224975   3.707   6.109   6.697
 8026SOL     OW24976   1.456   3.637   6.547
 8026SOL    HW124977   1.477   3.732   6.528
 8026SOL    HW224978   1.356   3.624   6.550
 8027SOL     OW24979   4.574   1.934   5.149
 8027SOL    HW124980   4.658   1.973   5.186
 8027SOL    HW224981   4.534   1.998   5.083
 8028SOL     OW24982   4.969   5.063   5.878
 8028SOL    HW124983   5.018   5.148   5.898
 8028SOL    HW224984   5.035   4.991   5.858
 8029SOL     OW24985   4.245   4.687   0.304
 8029SOL    HW124986   4.274   4.606   0.253
 8029SOL    HW224987   4.215   4.758   0.240
 8030SOL     OW24988   5.662   4.335   5.448
 8030SOL    HW124989   5.623   4.334   5.356
 8030SOL    HW224990   5.589   4.320   5.515
 8031SOL     OW24991   4.282   5.404   1.641
 8031SOL    HW124992   4.368   5.372   1.603
 8031SOL    HW224993   4.248   5.339   1.709
 8032SOL     OW24994   5.787   3.927   5.062
 8032SOL    HW124995   5.740   3.899   4.978
 8032SOL    HW224996   5.719   3.957   5.129
 8033SOL     OW24997   5.547   2.604   6.982
 8033SOL    HW124998   5.644   2.588   6.966
 8033SOL    HW224999   5.535   2.690   0.009
 8034SOL     OW25000   5.108   6.954   5.057
 8034SOL    HW125001   5.169   7.009   4.999
 8034SOL    HW225002   5.014   6.965   5.026
 8035SOL     OW25003   5.666   5.991   6.436
 8035SOL    HW125004   5.706   5.901   6.416
 8035SOL    HW225005   5.572   5.979   6.468
 8036SOL     OW25006   2.232   3.900   1.772
 8036SOL    HW125007   2.222   3.882   1.869
 8036SOL    HW225008   2.223   3.998   1.755
 8037SOL     OW25009   1.827   3.200   0.760
 8037SOL    HW125010   1.868   3.163   0.844
 8037SOL    HW225011   1.733   3.227   0.779
 8038SOL     OW25012   6.901   1.828   3.573
 8038SOL    HW125013   6.932   1.737   3.544
 8038SOL    HW225014   6.965   1.866   3.639
 8039SOL     OW25015   2.284   0.243   2.976
 8039SOL    HW125016   2.355   0.185   2.935
 8039SOL    HW225017   2.195   0.219   2.938
 8040SOL     OW25018   0.539   5.371   1.047
 8040SOL    HW125019   0.504   5.451   1.096
 8040SOL    HW225020   0.637   5.382   1.031
 8041SOL     OW25021   3.919   1.309   0.963
 8041SOL    HW125022   3.895   1.377   1.032
 8041SOL    HW225023   3.866   1.326   0.880
 8042SOL     OW25024   3.392   3.042   2.614
 8042SOL    HW125025   3.418   2.969   2.677
 8042SOL    HW225026   3.456   3.118   2.623
 8043SOL     OW25027   2.536   0.537   0.901
 8043SOL    HW125028   2.529   0.602   0.825
 8043SOL    HW225029   2.475   0.460   0.886
 8044SOL     OW25030   3.156   3.140   1.341
 8044SOL    HW125031   3.179   3.137   1.439
 8044SOL    HW225032   3.136   3.233   1.314
 8045SOL     OW25033   6.587   2.335   2.720
 8045SOL    HW125034   6.600   2.295   2.629
 8045SOL    HW225035   6.499   2.306   2.757
 8046SOL     OW25036   5.587   4.346   5.206
 8046SOL    HW125037   5.598   4.444   5.192
 8046SOL    HW225038   5.627   4.296   5.129
 8047SOL     OW25039   3.579   5.848   4.731
 8047SOL    HW125040   3.522   5.874   4.653
 8047SOL    HW225041   3.521   5.812   4.805
 8048SOL     OW25042   6.571   0.329   5.716
 8048SOL    HW125043   6.629   0.389   5.659
 8048SOL    HW225044   6.475   0.353   5.702
 8049SOL     OW25045   0.966   6.555   1.467
 8049SOL    HW125046   0.950   6.651   1.491
 8049SOL    HW225047   1.064   6.540   1.454
 8050SOL     OW25048   1.668   3.645   0.700
 8050SOL    HW125049   1.587   3.599   0.664
 8050SOL    HW225050   1.748   3.587   0.687
 8051SOL     OW25051   3.964   1.066   2.956
 8051SOL    HW125052   3.894   1.021   2.901
 8051SOL    HW225053   3.951   1.165   2.954
 8052SOL     OW25054   2.787   1.454   3.155
 8052SOL    HW125055   2.875   1.429   3.115
 8052SOL    HW225056   2.729   1.495   3.084
 8053SOL     OW25057   3.644   4.058   3.244
 8053SOL    HW125058   3.736   4.080   3.275
 8053SOL    HW225059   3.577   4.102   3.305
 8054SOL     OW25060   5.120   6.561   4.404
 8054SOL    HW125061   5.030   6.586   4.367
 8054SOL    HW225062   5.146   6.470   4.372
 8055SOL     OW25063   1.310   6.819   5.832
 8055SOL    HW125064   1.359   6.888   5.779
 8055SOL    HW225065   1.303   6.849   5.927
 8056SOL     OW25066   4.897   1.760   2.871
 8056SOL    HW125067   4.976   1.804   2.827
 8056SOL    HW225068   4.929   1.693   2.938
 8057SOL     OW25069   2.777   6.916   3.207
 8057SOL    HW125070   2.775   6.870   3.296
 8057SOL    HW225071   2.872   6.934   3.181
 8058SOL     OW25072   2.670   0.608   2.396
 8058SOL    HW125073   2.649   0.587   2.492
 8058SOL    HW225074   2.587   0.641   2.350
 8059SOL     OW25075   3.282   2.058   4.816
 8059SOL    HW125076   3.350   2.007   4.868
 8059SOL    HW225077   3.242   2.129   4.873
 8060SOL     OW25078   6.867   1.081   4.707
 8060SOL    HW125079   6.784   1.044   4.749
 8060SOL    HW225080   6.910   1.012   4.650
 8061SOL     OW25081   6.523   5.709   2.390
 8061SOL    HW125082   6.622   5.717   2.399
 8061SOL    HW225083   6.480   5.798   2.409
 8062SOL     OW25084   1.648   3.914   4.202
 8062SOL    HW125085   1.667   3.920   4.300
 8062SOL    HW225086   1.578   3.981   4.177
 8063SOL     OW25087   3.313   3.205   6.671
 8063SOL    HW125088   3.269   3.119   6.698
 8063SOL    HW225089   3.306   3.270   6.747
 8064SOL     OW25090   0.541   3.976   0.352
 8064SOL    HW125091   0.571   3.955   0.259
 8064SOL    HW225092   0.448   4.011   0.350
 8065SOL     OW25093   4.769   6.983   4.717
 8065SOL    HW125094   4.821   6.956   4.636
 8065SOL    HW225095   4.735   0.053   4.705
 8066SOL     OW25096   1.604   1.392   0.692
 8066SOL    HW125097   1.585   1.389   0.790
 8066SOL    HW225098   1.535   1.337   0.643
 8067SOL     OW25099   4.223   2.882   1.665
 8067SOL    HW125100   4.321   2.894   1.686
 8067SOL    HW225101   4.211   2.879   1.566
 8068SOL     OW25102   0.643   4.513   4.521
 8068SOL    HW125103   0.571   4.444   4.515
 8068SOL    HW225104   0.603   4.604   4.505
 8069SOL     OW25105   1.459   6.303   1.112
 8069SOL    HW125106   1.528   6.374   1.102
 8069SOL    HW225107   1.427   6.301   1.206
 8070SOL     OW25108   3.664   6.093   1.988
 8070SOL    HW125109   3.747   6.083   1.933
 8070SOL    HW225110   3.644   6.190   2.000
 8071SOL     OW25111   3.808   6.533   5.596
 8071SOL    HW125112   3.790   6.614   5.540
 8071SOL    HW225113   3.898   6.496   5.573
 8072SOL     OW25114   4.438   1.363   0.380
 8072SOL    HW125115   4.534   1.378   0.401
 8072SOL    HW225116   4.416   1.402   0.291
 8073SOL     OW25117   4.401   6.532   5.952
 8073SOL    HW125118   4.368   6.500   5.863
 8073SOL    HW225119   4.460   6.462   5.992
 8074SOL     OW25120   3.364   3.701   0.549
 8074SOL    HW125121   3.406   3.704   0.640
 8074SOL    HW225122   3.306   3.619   0.542
 8075SOL     OW25123   0.009   1.137   2.517
 8075SOL    HW125124   6.977   1.171   2.593
 8075SOL    HW225125   6.972   1.100   2.446
 8076SOL     OW25126   5.504   2.518   5.186
 8076SOL    HW125127   5.536   2.464   5.263
 8076SOL    HW225128   5.526   2.615   5.202
 8077SOL     OW25129   0.676   6.901   1.346
 8077SOL    HW125130   0.591   6.931   1.390
 8077SOL    HW225131   0.656   6.866   1.255
 8078SOL     OW25132   6.625   2.474   0.926
 8078SOL    HW125133   6.560   2.412   0.881
 8078SOL    HW225134   6.579   2.561   0.946
 8079SOL     OW25135   6.792   2.029   3.049
 8079SOL    HW125136   6.773   2.065   3.140
 8079SOL    HW225137   6.833   2.101   2.993
 8080SOL     OW25138   2.471   4.062   0.496
 8080SOL    HW125139   2.517   3.995   0.437
 8080SOL    HW225140   2.526   4.078   0.578
 8081SOL     OW25141   6.068   0.705   5.169
 8081SOL    HW125142   6.166   0.683   5.174
 8081SOL    HW225143   6.016   0.635   5.217
 8082SOL     OW25144   6.496   2.632   3.530
 8082SOL    HW125145   6.487   2.727   3.502
 8082SOL    HW225146   6.591   2.603   3.521
 8083SOL     OW25147   4.725   2.580   2.680
 8083SOL    HW125148   4.709   2.620   2.590
 8083SOL    HW225149   4.715   2.650   2.750
 8084SOL     OW25150   6.440   6.336   1.287
 8084SOL    HW125151   6.517   6.371   1.342
 8084SOL    HW225152   6.425   6.240   1.310
 8085SOL     OW25153   5.378   0.478   0.777
 8085SOL    HW125154   5.360   0.519   0.687
 8085SOL    HW225155   5.357   0.381   0.775
 8086SOL     OW25156   3.922   0.269   4.920
 8086SOL    HW125157   3.918   0.173   4.947
 8086SOL    HW225158   3.953   0.324   4.997
 8087SOL     OW25159   2.646   2.410   1.081
 8087SOL    HW125160   2.691   2.321   1.066
 8087SOL    HW225161   2.702   2.465   1.143
 8088SOL     OW25162   5.892   1.241   2.222
 8088SOL    HW125163   5.893   1.176   2.146
 8088SOL    HW225164   5.798   1.266   2.244
 8089SOL     OW25165   5.182   2.830   0.757
 8089SOL    HW125166   5.142   2.795   0.672
 8089SOL    HW225167   5.273   2.866   0.739
 8090SOL     OW25168   5.196   1.912   6.224
 8090SOL    HW125169   5.127   1.909   6.297
 8090SOL    HW225170   5.209   1.820   6.187
 8091SOL     OW25171   3.226   4.972   6.868
 8091SOL    HW125172   3.143   4.916   6.870
 8091SOL    HW225173   3.286   4.945   6.943
 8092SOL     OW25174   1.491   1.380   5.075
 8092SOL    HW125175   1.543   1.352   4.994
 8092SOL    HW225176   1.428   1.308   5.102
 8093SOL     OW25177   5.898   5.923   1.366
 8093SOL    HW125178   5.895   6.010   1.416
 8093SOL    HW225179   5.972   5.926   1.298
 8094SOL     OW25180   1.551   3.879   6.414
 8094SOL    HW125181   1.611   3.912   6.341
 8094SOL    HW225182   1.507   3.957   6.458
 8095SOL     OW25183   5.769   3.325   4.717
 8095SOL    HW125184   5.754   3.264   4.795
 8095SOL    HW225185   5.754   3.274   4.632
 8096SOL     OW25186   3.224   6.074   1.783
 8096SOL    HW125187   3.216   6.139   1.707
 8096SOL    HW225188   3.161   5.998   1.769
 8097SOL     OW25189   5.003   1.118   3.670
 8097SOL    HW125190   5.018   1.057   3.592
 8097SOL    HW225191   4.964   1.204   3.638
 8098SOL     OW25192   3.115   6.000   4.247
 8098SOL    HW125193   3.103   6.069   4.176
 8098SOL    HW225194   3.031   5.947   4.255
 8099SOL     OW25195   5.346   6.344   4.719
 8099SOL    HW125196   5.424   6.370   4.776
 8099SOL    HW225197   5.269   6.404   4.738
 8100SOL     OW25198   6.835   6.727   0.551
 8100SOL    HW125199   6.878   6.776   0.626
 8100SOL    HW225200   6.905   6.685   0.493
 8101SOL     OW25201   1.476   6.364   3.848
 8101SOL    HW125202   1.432   6.374   3.758
 8101SOL    HW225203   1.526   6.448   3.869
 8102SOL     OW25204   6.968   5.567   5.583
 8102SOL    HW125205   6.945   5.613   5.669
 8102SOL    HW225206   6.932   5.620   5.507
 8103SOL     OW25207   3.545   1.566   2.295
 8103SOL    HW125208   3.517   1.470   2.298
 8103SOL    HW225209   3.637   1.573   2.256
 8104SOL     OW25210   2.787   0.035   5.673
 8104SOL    HW125211   2.698   0.038   5.629
 8104SOL    HW225212   2.780   0.073   5.765
 8105SOL     OW25213   2.289   2.052   3.377
 8105SOL    HW125214   2.241   2.017   3.458
 8105SOL    HW225215   2.276   2.151   3.371
 8106SOL     OW25216   1.235   4.038   3.348
 8106SOL    HW125217   1.247   3.988   3.262
 8106SOL    HW225218   1.143   4.023   3.382
 8107SOL     OW25219   1.923   6.460   5.703
 8107SOL    HW125220   1.988   6.485   5.776
 8107SOL    HW225221   1.912   6.361   5.701
 8108SOL     OW25222   0.219   3.738   4.525
 8108SOL    HW125223   0.215   3.838   4.530
 8108SOL    HW225224   0.225   3.709   4.430
 8109SOL     OW25225   1.656   4.582   4.827
 8109SOL    HW125226   1.574   4.601   4.772
 8109SOL    HW225227   1.734   4.568   4.766
 8110SOL     OW25228   1.947   6.255   0.698
 8110SOL    HW125229   1.929   6.312   0.778
 8110SOL    HW225230   2.038   6.214   0.706
 8111SOL     OW25231   2.664   5.842   4.808
 8111SOL    HW125232   2.590   5.865   4.745
 8111SOL    HW225233   2.633   5.853   4.903
 8112SOL     OW25234   2.447   0.494   5.575
 8112SOL    HW125235   2.367   0.498   5.515
 8112SOL    HW225236   2.530   0.504   5.520
 8113SOL     OW25237   3.864   2.520   6.537
 8113SOL    HW125238   3.935   2.565   6.591
 8113SOL    HW225239   3.882   2.421   6.536
 8114SOL     OW25240   2.264   2.905   2.715
 8114SOL    HW125241   2.331   2.853   2.766
 8114SOL    HW225242   2.279   2.893   2.617
 8115SOL     OW25243   3.168   1.416   1.482
 8115SOL    HW125244   3.172   1.515   1.471
 8115SOL    HW225245   3.178   1.393   1.579
 8116SOL     OW25246   6.021   6.771   5.054
 8116SOL    HW125247   6.109   6.746   5.015
 8116SOL    HW225248   6.010   6.726   5.143
 8117SOL     OW25249   1.148   1.822   5.040
 8117SOL    HW125250   1.166   1.725   5.023
 8117SOL    HW225251   1.231   1.865   5.076
 8118SOL     OW25252   1.076   4.093   5.379
 8118SOL    HW125253   1.077   4.037   5.296
 8118SOL    HW225254   1.162   4.080   5.429
 8119SOL     OW25255   0.850   6.159   3.028
 8119SOL    HW125256   0.761   6.133   3.066
 8119SOL    HW225257   0.846   6.158   2.928
 8120SOL     OW25258   4.133   4.297   0.977
 8120SOL    HW125259   4.069   4.219   0.976
 8120SOL    HW225260   4.203   4.282   1.046
 8121SOL     OW25261   6.763   0.611   2.537
 8121SOL    HW125262   6.743   0.529   2.591
 8121SOL    HW225263   6.679   0.643   2.493
 8122SOL     OW25264   6.885   6.311   2.138
 8122SOL    HW125265   6.918   6.404   2.118
 8122SOL    HW225266   6.792   6.316   2.173
 8123SOL     OW25267   1.282   6.366   6.135
 8123SOL    HW125268   1.332   6.425   6.071
 8123SOL    HW225269   1.194   6.408   6.157
 8124SOL     OW25270   0.847   5.533   1.741
 8124SOL    HW125271   0.813   5.568   1.654
 8124SOL    HW225272   0.907   5.455   1.725
 8125SOL     OW25273   5.954   4.221   2.966
 8125SOL    HW125274   5.930   4.161   2.890
 8125SOL    HW225275   5.973   4.313   2.932
 8126SOL     OW25276   5.808   4.141   2.752
 8126SOL    HW125277   5.759   4.073   2.697
 8126SOL    HW225278   5.744   4.212   2.780
 8127SOL     OW25279   2.038   4.984   0.233
 8127SOL    HW125280   1.949   4.978   0.278
 8127SOL    HW225281   2.029   5.031   0.146
 8128SOL     OW25282   3.467   2.689   5.809
 8128SOL    HW125283   3.388   2.642   5.850
 8128SOL    HW225284   3.544   2.626   5.804
 8129SOL     OW25285   5.640   0.582   6.471
 8129SOL    HW125286   5.694   0.507   6.508
 8129SOL    HW225287   5.582   0.549   6.397
 8130SOL     OW25288   1.143   5.250   6.776
 8130SOL    HW125289   1.172   5.186   6.705
 8130SOL    HW225290   1.112   5.335   6.735
 8131SOL     OW25291   2.900   0.608   0.281
 8131SOL    HW125292   2.819   0.656   0.315
 8131SOL    HW225293   2.951   0.569   0.358
 8132SOL     OW25294   5.848   5.691   4.009
 8132SOL    HW125295   5.898   5.775   4.032
 8132SOL    HW225296   5.912   5.623   3.974
 8133SOL     OW25297   2.658   5.378   2.925
 8133SOL    HW125298   2.708   5.350   3.007
 8133SOL    HW225299   2.563   5.397   2.950
 8134SOL     OW25300   2.044   2.256   3.785
 8134SOL    HW125301   2.142   2.272   3.794
 8134SOL    HW225302   2.026   2.199   3.705
 8135SOL     OW25303   4.071   5.516   2.638
 8135SOL    HW125304   3.997   5.470   2.589
 8135SOL    HW225305   4.081   5.610   2.603
 8136SOL     OW25306   4.357   5.783   2.660
 8136SOL    HW125307   4.280   5.774   2.723
 8136SOL    HW225308   4.441   5.755   2.707
 8137SOL     OW25309   2.099   3.849   4.919
 8137SOL    HW125310   2.134   3.844   4.826
 8137SOL    HW225311   2.159   3.907   4.975
 8138SOL     OW25312   5.513   1.345   2.481
 8138SOL    HW125313   5.416   1.340   2.459
 8138SOL    HW225314   5.543   1.260   2.525
 8139SOL     OW25315   1.674   3.058   3.029
 8139SOL    HW125316   1.618   3.139   3.013
 8139SOL    HW225317   1.751   3.058   2.965
 8140SOL     OW25318   4.894   0.599   0.549
 8140SOL    HW125319   4.914   0.513   0.502
 8140SOL    HW225320   4.974   0.628   0.601
 8141SOL     OW25321   4.796   1.689   5.658
 8141SOL    HW125322   4.746   1.617   5.706
 8141SOL    HW225323   4.883   1.706   5.704
 8142SOL     OW25324   2.071   6.136   0.150
 8142SOL    HW125325   1.993   6.188   0.184
 8142SOL    HW225326   2.154   6.191   0.157
 8143SOL     OW25327   5.808   4.873   0.643
 8143SOL    HW125328   5.842   4.945   0.583
 8143SOL    HW225329   5.733   4.825   0.598
 8144SOL     OW25330   6.866   4.865   5.958
 8144SOL    HW125331   6.852   4.775   5.999
 8144SOL    HW225332   6.956   4.900   5.986
 8145SOL     OW25333   5.864   5.745   6.862
 8145SOL    HW125334   5.782   5.703   6.902
 8145SOL    HW225335   5.866   5.728   6.764
 8146SOL     OW25336   5.926   0.428   4.579
 8146SOL    HW125337   5.907   0.336   4.544
 8146SOL    HW225338   5.851   0.489   4.552
 8147SOL     OW25339   0.971   0.976   5.750
 8147SOL    HW125340   1.033   1.051   5.771
 8147SOL    HW225341   1.013   0.889   5.776
 8148SOL     OW25342   4.048   4.855   0.237
 8148SOL    HW125343   4.017   4.774   0.287
 8148SOL    HW225344   4.008   4.854   0.145
 8149SOL     OW25345   1.526   6.247   4.173
 8149SOL    HW125346   1.564   6.176   4.113
 8149SOL    HW225347   1.598   6.313   4.194
 8150SOL     OW25348   1.328   3.130   0.994
 8150SOL    HW125349   1.379   3.196   0.939
 8150SOL    HW225350   1.354   3.140   1.090
 8151SOL     OW25351   6.079   4.477   3.955
 8151SOL    HW125352   6.101   4.554   3.896
 8151SOL    HW225353   5.979   4.464   3.958
 8152SOL     OW25354   4.666   2.196   3.099
 8152SOL    HW125355   4.725   2.117   3.081
 8152SOL    HW225356   4.571   2.166   3.106
 8153SOL     OW25357   0.097   1.940   3.693
 8153SOL    HW125358   0.127   2.007   3.625
 8153SOL    HW225359   0.069   1.988   3.776
 8154SOL     OW25360   1.792   1.659   3.582
 8154SOL    HW125361   1.728   1.588   3.613
 8154SOL    HW225362   1.880   1.647   3.628
 8155SOL     OW25363   1.687   5.146   1.782
 8155SOL    HW125364   1.712   5.242   1.793
 8155SOL    HW225365   1.660   5.108   1.870
 8156SOL     OW25366   5.849   5.034   1.846
 8156SOL    HW125367   5.757   5.073   1.835
 8156SOL    HW225368   5.904   5.054   1.765
 8157SOL     OW25369   6.777   2.996   6.534
 8157SOL    HW125370   6.787   2.972   6.437
 8157SOL    HW225371   6.867   3.013   6.574
 8158SOL     OW25372   5.529   4.596   6.027
 8158SOL    HW125373   5.522   4.677   6.085
 8158SOL    HW225374   5.605   4.607   5.963
 8159SOL     OW25375   3.678   6.028   5.614
 8159SOL    HW125376   3.736   5.994   5.688
 8159SOL    HW225377   3.662   6.126   5.625
 8160SOL     OW25378   5.054   1.232   3.302
 8160SOL    HW125379   4.984   1.298   3.329
 8160SOL    HW225380   5.050   1.152   3.361
 8161SOL     OW25381   5.862   3.270   0.873
 8161SOL    HW125382   5.869   3.180   0.915
 8161SOL    HW225383   5.847   3.261   0.775
 8162SOL     OW25384   0.444   4.959   6.559
 8162SOL    HW125385   0.497   4.885   6.518
 8162SOL    HW225386   0.504   5.013   6.619
 8163SOL     OW25387   4.453   4.878   5.297
 8163SOL    HW125388   4.430   4.964   5.251
 8163SOL    HW225389   4.496   4.897   5.385
 8164SOL     OW25390   5.583   1.181   0.103
 8164SOL    HW125391   5.578   1.253   0.034
 8164SOL    HW225392   5.498   1.180   0.156
 8165SOL     OW25393   0.162   1.796   6.236
 8165SOL    HW125394   0.088   1.832   6.292
 8165SOL    HW225395   0.135   1.800   6.139
 8166SOL     OW25396   1.765   2.213   4.613
 8166SOL    HW125397   1.723   2.296   4.574
 8166SOL    HW225398   1.708   2.180   4.689
 8167SOL     OW25399   6.731   2.425   4.256
 8167SOL    HW125400   6.757   2.346   4.202
 8167SOL    HW225401   6.646   2.406   4.304
 8168SOL     OW25402   2.443   0.611   1.667
 8168SOL    HW125403   2.536   0.617   1.703
 8168SOL    HW225404   2.377   0.632   1.740
 8169SOL     OW25405   5.341   2.133   0.989
 8169SOL    HW125406   5.359   2.200   0.918
 8169SOL    HW225407   5.417   2.069   0.996
 8170SOL     OW25408   6.501   4.562   2.394
 8170SOL    HW125409   6.572   4.568   2.324
 8170SOL    HW225410   6.535   4.508   2.471
 8171SOL     OW25411   1.978   1.357   0.200
 8171SOL    HW125412   1.921   1.276   0.212
 8171SOL    HW225413   1.924   1.439   0.222
 8172SOL     OW25414   0.778   2.783   1.736
 8172SOL    HW125415   0.684   2.791   1.702
 8172SOL    HW225416   0.833   2.857   1.699
 8173SOL     OW25417   5.349   2.096   2.116
 8173SOL    HW125418   5.313   2.141   2.198
 8173SOL    HW225419   5.449   2.100   2.118
 8174SOL     OW25420   1.950   5.451   2.639
 8174SOL    HW125421   1.916   5.470   2.547
 8174SOL    HW225422   1.897   5.376   2.680
 8175SOL     OW25423   0.625   2.620   4.759
 8175SOL    HW125424   0.601   2.528   4.791
 8175SOL    HW225425   0.554   2.652   4.696
 8176SOL     OW25426   1.712   4.419   0.741
 8176SOL    HW125427   1.810   4.439   0.751
 8176SOL    HW225428   1.674   4.476   0.668
 8177SOL     OW25429   3.089   1.614   2.889
 8177SOL    HW125430   3.044   1.698   2.859
 8177SOL    HW225431   3.073   1.542   2.821
 8178SOL     OW25432   2.009   6.229   1.478
 8178SOL    HW125433   1.910   6.235   1.460
 8178SOL    HW225434   2.057   6.297   1.423
 8179SOL     OW25435   5.432   1.090   3.676
 8179SOL    HW125436   5.398   1.142   3.754
 8179SOL    HW225437   5.406   0.994   3.686
 8180SOL     OW25438   5.384   6.725   0.094
 8180SOL    HW125439   5.397   6.648   0.157
 8180SOL    HW225440   5.351   6.690   0.006
 8181SOL     OW25441   0.790   1.132   1.316
 8181SOL    HW125442   0.797   1.231   1.313
 8181SOL    HW225443   0.879   1.091   1.297
 8182SOL     OW25444   2.932   3.784   4.572
 8182SOL    HW125445   2.890   3.693   4.563
 8182SOL    HW225446   3.013   3.789   4.513
 8183SOL     OW25447   6.785   7.019   4.716
 8183SOL    HW125448   6.712   7.010   4.784
 8183SOL    HW225449   6.747   0.032   4.631
 8184SOL     OW25450   0.450   6.558   6.735
 8184SOL    HW125451   0.479   6.639   6.684
 8184SOL    HW225452   0.398   6.587   6.816
 8185SOL     OW25453   0.859   0.346   0.183
 8185SOL    HW125454   0.861   0.275   0.113
 8185SOL    HW225455   0.764   0.366   0.208
 8186SOL     OW25456   1.218   4.989   6.382
 8186SOL    HW125457   1.247   5.023   6.471
 8186SOL    HW225458   1.297   4.985   6.320
 8187SOL     OW25459   1.627   1.637   5.522
 8187SOL    HW125460   1.593   1.676   5.436
 8187SOL    HW225461   1.707   1.580   5.504
 8188SOL     OW25462   3.137   1.776   3.905
 8188SOL    HW125463   3.161   1.823   3.820
 8188SOL    HW225464   3.038   1.758   3.906
 8189SOL     OW25465   4.511   4.559   4.320
 8189SOL    HW125466   4.557   4.486   4.371
 8189SOL    HW225467   4.504   4.533   4.224
 8190SOL     OW25468   5.362   3.418   3.111
 8190SOL    HW125469   5.337   3.342   3.051
 8190SOL    HW225470   5.410   3.488   3.058
 8191SOL     OW25471   4.185   5.227   1.832
 8191SOL    HW125472   4.235   5.162   1.775
 8191SOL    HW225473   4.230   5.236   1.920
 8192SOL     OW25474   1.744   5.068   3.707
 8192SOL    HW125475   1.803   4.992   3.683
 8192SOL    HW225476   1.723   5.065   3.805
 8193SOL     OW25477   6.769   4.859   5.105
 8193SOL    HW125478   6.863   4.832   5.124
 8193SOL    HW225479   6.767   4.929   5.034
 8194SOL     OW25480   4.629   6.706   1.749
 8194SOL    HW125481   4.571   6.672   1.675
 8194SOL    HW225482   4.636   6.805   1.744
 8195SOL     OW25483   5.547   6.914   3.378
 8195SOL    HW125484   5.478   6.886   3.445
 8195SOL    HW225485   5.633   6.933   3.424
 8196SOL     OW25486   4.583   0.244   6.933
 8196SOL    HW125487   4.573   0.285   0.000
 8196SOL    HW225488   4.679   0.228   6.913
 8197SOL     OW25489   5.212   1.878   1.315
 8197SOL    HW125490   5.221   1.968   1.272
 8197SOL    HW225491   5.216   1.888   1.414
 8198SOL     OW25492   2.229   6.864   1.997
 8198SOL    HW125493   2.219   6.882   1.899
 8198SOL    HW225494   2.140   6.876   2.042
 8199SOL     OW25495   5.473   2.668   6.060
 8199SOL    HW125496   5.422   2.696   5.979
 8199SOL    HW225497   5.538   2.596   6.035
 8200SOL     OW25498   4.953   3.458   1.439
 8200SOL    HW125499   4.916   3.450   1.347
 8200SOL    HW225500   4.898   3.405   1.503
 8201SOL     OW25501   7.022   0.010   5.089
 8201SOL    HW125502   0.005   0.098   5.042
 8201SOL    HW225503   7.012   0.026   5.188
 8202SOL     OW25504   0.353   6.403   2.351
 8202SOL    HW125505   0.405   6.463   2.289
 8202SOL    HW225506   0.274   6.453   2.386
 8203SOL     OW25507   1.575   2.989   0.749
 8203SOL    HW125508   1.638   2.946   0.684
 8203SOL    HW225509   1.596   2.956   0.841
 8204SOL     OW25510   4.532   3.502   1.227
 8204SOL    HW125511   4.561   3.413   1.261
 8204SOL    HW225512   4.448   3.491   1.173
 8205SOL     OW25513   1.071   3.407   0.558
 8205SOL    HW125514   1.096   3.464   0.480
 8205SOL    HW225515   1.121   3.320   0.552
 8206SOL     OW25516   3.909   1.634   6.969
 8206SOL    HW125517   3.858   1.549   6.973
 8206SOL    HW225518   3.849   1.708   6.937
 8207SOL     OW25519   3.741   3.006   4.211
 8207SOL    HW125520   3.655   2.955   4.220
 8207SOL    HW225521   3.726   3.085   4.151
 8208SOL     OW25522   0.884   1.003   0.533
 8208SOL    HW125523   0.896   0.906   0.514
 8208SOL    HW225524   0.973   1.049   0.534
 8209SOL     OW25525   6.443   1.148   5.374
 8209SOL    HW125526   6.435   1.246   5.393
 8209SOL    HW225527   6.437   1.133   5.275
 8210SOL     OW25528   1.944   2.676   0.385
 8210SOL    HW125529   2.021   2.710   0.439
 8210SOL    HW225530   1.919   2.744   0.315
 8211SOL     OW25531   3.073   3.385   1.277
 8211SOL    HW125532   3.072   3.455   1.349
 8211SOL    HW225533   3.059   3.428   1.188
 8212SOL     OW25534   1.707   2.534   2.987
 8212SOL    HW125535   1.670   2.600   2.921
 8212SOL    HW225536   1.690   2.568   3.080
 8213SOL     OW25537   0.568   5.138   1.552
 8213SOL    HW125538   0.567   5.148   1.651
 8213SOL    HW225539   0.591   5.044   1.528
 8214SOL     OW25540   5.880   4.379   3.354
 8214SOL    HW125541   5.955   4.337   3.302
 8214SOL    HW225542   5.893   4.478   3.356
 8215SOL     OW25543   3.631   5.039   4.823
 8215SOL    HW125544   3.589   5.127   4.798
 8215SOL    HW225545   3.645   5.037   4.922
 8216SOL     OW25546   5.226   4.405   4.057
 8216SOL    HW125547   5.232   4.369   4.150
 8216SOL    HW225548   5.185   4.335   3.997
 8217SOL     OW25549   1.613   5.929   0.813
 8217SOL    HW125550   1.520   5.954   0.838
 8217SOL    HW225551   1.659   6.007   0.771
 8218SOL     OW25552   0.597   1.851   6.968
 8218SOL    HW125553   0.578   1.759   7.001
 8218SOL    HW225554   0.580   1.855   6.869
 8219SOL     OW25555   4.895   1.763   0.107
 8219SOL    HW125556   4.841   1.768   0.024
 8219SOL    HW225557   4.857   1.824   0.176
 8220SOL     OW25558   3.547   3.589   2.684
 8220SOL    HW125559   3.640   3.552   2.680
 8220SOL    HW225560   3.483   3.519   2.651
 8221SOL     OW25561   4.789   6.214   4.153
 8221SOL    HW125562   4.716   6.274   4.185
 8221SOL    HW225563   4.857   6.268   4.103
 8222SOL     OW25564   5.860   1.916   2.132
 8222SOL    HW125565   5.824   1.840   2.187
 8222SOL    HW225566   5.874   1.884   2.038
 8223SOL     OW25567   0.522   4.499   5.987
 8223SOL    HW125568   0.528   4.554   6.070
 8223SOL    HW225569   0.611   4.459   5.967
 8224SOL     OW25570   0.660   2.598   2.522
 8224SOL    HW125571   0.735   2.566   2.578
 8224SOL    HW225572   0.573   2.568   2.562
 8225SOL     OW25573   4.738   1.240   6.447
 8225SOL    HW125574   4.665   1.172   6.445
 8225SOL    HW225575   4.699   1.330   6.468
 8226SOL     OW25576   5.569   0.843   1.552
 8226SOL    HW125577   5.592   0.794   1.468
 8226SOL    HW225578   5.645   0.903   1.577
 8227SOL     OW25579   6.792   3.109   3.963
 8227SOL    HW125580   6.699   3.129   3.933
 8227SOL    HW225581   6.854   3.179   3.929
 8228SOL     OW25582   0.306   2.485   5.067
 8228SOL    HW125583   0.255   2.539   5.134
 8228SOL    HW225584   0.304   2.388   5.094
 8229SOL     OW25585   2.667   5.764   0.200
 8229SOL    HW125586   2.718   5.832   0.148
 8229SOL    HW225587   2.704   5.673   0.183
 8230SOL     OW25588   5.395   0.555   5.406
 8230SOL    HW125589   5.482   0.603   5.403
 8230SOL    HW225590   5.342   0.586   5.485
 8231SOL     OW25591   4.950   5.873   1.579
 8231SOL    HW125592   5.034   5.886   1.526
 8231SOL    HW225593   4.871   5.882   1.518
 8232SOL     OW25594   3.994   1.490   0.368
 8232SOL    HW125595   3.954   1.417   0.312
 8232SOL    HW225596   4.024   1.565   0.309
 8233SOL     OW25597   0.207   5.324   6.051
 8233SOL    HW125598   0.293   5.285   6.018
 8233SOL    HW225599   0.223   5.371   6.138
 8234SOL     OW25600   3.034   2.861   0.084
 8234SOL    HW125601   2.996   2.791   0.024
 8234SOL    HW225602   3.104   2.913   0.035
 8235SOL     OW25603   2.951   3.681   0.786
 8235SOL    HW125604   2.928   3.623   0.709
 8235SOL    HW225605   2.872   3.690   0.846
 8236SOL     OW25606   0.077   3.361   6.919
 8236SOL    HW125607   0.031   3.444   6.950
 8236SOL    HW225608   0.118   3.314   6.998
 8237SOL     OW25609   4.692   5.746   5.515
 8237SOL    HW125610   4.727   5.761   5.608
 8237SOL    HW225611   4.738   5.808   5.452
 8238SOL     OW25612   1.564   3.919   6.801
 8238SOL    HW125613   1.645   3.860   6.799
 8238SOL    HW225614   1.553   3.957   6.893
 8239SOL     OW25615   6.319   2.034   5.604
 8239SOL    HW125616   6.258   2.088   5.546
 8239SOL    HW225617   6.378   1.977   5.546
 8240SOL     OW25618   3.321   3.844   3.139
 8240SOL    HW125619   3.359   3.931   3.108
 8240SOL    HW225620   3.221   3.848   3.133
 8241SOL     OW25621   3.276   6.676   0.894
 8241SOL    HW125622   3.201   6.734   0.927
 8241SOL    HW225623   3.237   6.596   0.848
 8242SOL     OW25624   0.735   4.272   5.550
 8242SOL    HW125625   0.767   4.178   5.560
 8242SOL    HW225626   0.648   4.272   5.501
 8243SOL     OW25627   0.085   3.199   5.772
 8243SOL    HW125628   0.018   3.191   5.699
 8243SOL    HW225629   0.157   3.263   5.745
 8244SOL     OW25630   0.147   0.123   4.013
 8244SOL    HW125631   0.144   0.041   3.956
 8244SOL    HW225632   0.055   0.159   4.025
 8245SOL     OW25633   4.700   1.708   1.486
 8245SOL    HW125634   4.751   1.625   1.463
 8245SOL    HW225635   4.602   1.691   1.478
 8246SOL     OW25636   6.465   4.371   5.986
 8246SOL    HW125637   6.491   4.451   6.040
 8246SOL    HW225638   6.424   4.302   6.045
 8247SOL     OW25639   0.953   0.836   1.769
 8247SOL    HW125640   1.048   0.825   1.740
 8247SOL    HW225641   0.897   0.863   1.691
 8248SOL     OW25642   5.873   4.751   3.769
 8248SOL    HW125643   5.777   4.726   3.772
 8248SOL    HW225644   5.929   4.669   3.760
 8249SOL     OW25645   2.326   4.635   4.157
 8249SOL    HW125646   2.260   4.567   4.124
 8249SOL    HW225647   2.337   4.707   4.088
 8250SOL     OW25648   3.488   4.027   3.015
 8250SOL    HW125649   3.539   4.021   3.100
 8250SOL    HW225650   3.551   4.032   2.937
 8251SOL     OW25651   5.224   1.967   4.691
 8251SOL    HW125652   5.260   1.994   4.602
 8251SOL    HW225653   5.296   1.922   4.745
 8252SOL     OW25654   3.320   3.822   6.328
 8252SOL    HW125655   3.273   3.753   6.383
 8252SOL    HW225656   3.333   3.906   6.382
 8253SOL     OW25657   3.678   2.837   5.252
 8253SOL    HW125658   3.778   2.836   5.259
 8253SOL    HW225659   3.651   2.866   5.161
 8254SOL     OW25660   4.299   4.814   4.758
 8254SOL    HW125661   4.366   4.766   4.815
 8254SOL    HW225662   4.324   4.804   4.662
 8255SOL     OW25663   3.923   6.210   4.333
 8255SOL    HW125664   3.875   6.287   4.290
 8255SOL    HW225665   3.859   6.135   4.349
 8256SOL     OW25666   6.122   0.481   3.868
 8256SOL    HW125667   6.127   0.547   3.943
 8256SOL    HW225668   6.114   0.529   3.781
 8257SOL     OW25669   6.050   5.042   2.782
 8257SOL    HW125670   6.031   5.085   2.871
 8257SOL    HW225671   6.004   4.953   2.778
 8258SOL     OW25672   4.788   1.259   0.446
 8258SOL    HW125673   4.861   1.323   0.471
 8258SOL    HW225674   4.760   1.277   0.351
 8259SOL     OW25675   4.240   1.485   3.478
 8259SOL    HW125676   4.251   1.533   3.392
 8259SOL    HW225677   4.143   1.468   3.495
 8260SOL     OW25678   2.512   6.817   2.068
 8260SOL    HW125679   2.413   6.807   2.059
 8260SOL    HW225680   2.549   6.738   2.116
 8261SOL     OW25681   5.743   1.121   1.323
 8261SOL    HW125682   5.678   1.105   1.248
 8261SOL    HW225683   5.776   1.215   1.319
 8262SOL     OW25684   1.149   2.324   1.361
 8262SOL    HW125685   1.156   2.290   1.454
 8262SOL    HW225686   1.103   2.412   1.360
 8263SOL     OW25687   0.358   1.595   1.261
 8263SOL    HW125688   0.312   1.580   1.349
 8263SOL    HW225689   0.427   1.524   1.248
 8264SOL     OW25690   1.154   5.941   2.218
 8264SOL    HW125691   1.228   5.884   2.254
 8264SOL    HW225692   1.072   5.929   2.274
 8265SOL     OW25693   1.621   0.263   1.422
 8265SOL    HW125694   1.555   0.202   1.467
 8265SOL    HW225695   1.705   0.266   1.476
 8266SOL     OW25696   1.719   6.712   2.649
 8266SOL    HW125697   1.734   6.669   2.560
 8266SOL    HW225698   1.687   6.806   2.636
 8267SOL     OW25699   2.185   3.895   1.024
 8267SOL    HW125700   2.184   3.897   0.924
 8267SOL    HW225701   2.106   3.946   1.059
 8268SOL     OW25702   2.099   6.519   5.882
 8268SOL    HW125703   2.107   6.467   5.966
 8268SOL    HW225704   2.142   6.609   5.894
 8269SOL     OW25705   5.929   1.637   1.254
 8269SOL    HW125706   5.899   1.675   1.166
 8269SOL    HW225707   5.897   1.695   1.328
 8270SOL     OW25708   2.713   6.774   4.308
 8270SOL    HW125709   2.660   6.727   4.236
 8270SOL    HW225710   2.690   6.734   4.397
 8271SOL     OW25711   6.995   1.233   2.814
 8271SOL    HW125712   6.921   1.298   2.797
 8271SOL    HW225713   6.991   1.202   2.909
 8272SOL     OW25714   5.097   0.790   2.004
 8272SOL    HW125715   5.100   0.751   2.096
 8272SOL    HW225716   5.038   0.870   2.003
 8273SOL     OW25717   2.151   6.303   1.052
 8273SOL    HW125718   2.113   6.358   1.126
 8273SOL    HW225719   2.195   6.363   0.985
 8274SOL     OW25720   4.421   4.825   2.843
 8274SOL    HW125721   4.496   4.887   2.866
 8274SOL    HW225722   4.409   4.758   2.916
 8275SOL     OW25723   4.738   2.262   5.872
 8275SOL    HW125724   4.654   2.227   5.912
 8275SOL    HW225725   4.805   2.277   5.945
 8276SOL     OW25726   0.855   1.915   3.848
 8276SOL    HW125727   0.830   1.888   3.755
 8276SOL    HW225728   0.951   1.894   3.864
 8277SOL     OW25729   0.139   0.881   6.500
 8277SOL    HW125730   0.205   0.858   6.573
 8277SOL    HW225731   0.080   0.955   6.531
 8278SOL     OW25732   2.150   2.534   6.529
 8278SOL    HW125733   2.210   2.454   6.528
 8278SOL    HW225734   2.055   2.505   6.521
 8279SOL     OW25735   0.529   6.177   4.569
 8279SOL    HW125736   0.589   6.121   4.625
 8279SOL    HW225737   0.565   6.181   4.475
 8280SOL     OW25738   2.797   3.117   6.966
 8280SOL    HW125739   2.856   3.149   0.016
 8280SOL    HW225740   2.742   3.193   6.930
 8281SOL     OW25741   0.840   5.626   1.482
 8281SOL    HW125742   0.868   5.684   1.405
 8281SOL    HW225743   0.885   5.537   1.475
 8282SOL     OW25744   5.772   2.835   6.329
 8282SOL    HW125745   5.778   2.736   6.313
 8282SOL    HW225746   5.731   2.879   6.249
 8283SOL     OW25747   1.476   4.698   6.233
 8283SOL    HW125748   1.501   4.610   6.193
 8283SOL    HW225749   1.518   4.772   6.180
 8284SOL     OW25750   0.416   4.232   1.925
 8284SOL    HW125751   0.355   4.242   1.847
 8284SOL    HW225752   0.380   4.162   1.987
 8285SOL     OW25753   3.932   3.158   5.290
 8285SOL    HW125754   3.901   3.107   5.210
 8285SOL    HW225755   3.982   3.097   5.351
 8286SOL     OW25756   5.635   2.513   5.890
 8286SOL    HW125757   5.733   2.529   5.895
 8286SOL    HW225758   5.618   2.416   5.871
 8287SOL     OW25759   1.275   5.791   4.856
 8287SOL    HW125760   1.222   5.729   4.798
 8287SOL    HW225761   1.363   5.749   4.879
 8288SOL     OW25762   2.543   2.482   2.882
 8288SOL    HW125763   2.503   2.399   2.921
 8288SOL    HW225764   2.631   2.460   2.840
 8289SOL     OW25765   0.425   6.960   0.518
 8289SOL    HW125766   0.488   6.893   0.557
 8289SOL    HW225767   0.476   0.019   0.492
 8290SOL     OW25768   6.565   1.429   0.287
 8290SOL    HW125769   6.537   1.447   0.193
 8290SOL    HW225770   6.661   1.452   0.298
 8291SOL     OW25771   4.986   6.875   6.842
 8291SOL    HW125772   5.042   6.828   6.773
 8291SOL    HW225773   4.947   6.808   6.905
 8292SOL     OW25774   2.906   6.240   0.476
 8292SOL    HW125775   2.874   6.146   0.460
 8292SOL    HW225776   2.868   6.301   0.407
 8293SOL     OW25777   4.057   6.831   6.690
 8293SOL    HW125778   3.962   6.798   6.687
 8293SOL    HW225779   4.119   6.753   6.687
 8294SOL     OW25780   5.953   3.504   5.910
 8294SOL    HW125781   5.861   3.497   5.946
 8294SOL    HW225782   6.019   3.490   5.984
 8295SOL     OW25783   5.429   4.880   1.734
 8295SOL    HW125784   5.438   4.790   1.776
 8295SOL    HW225785   5.354   4.929   1.778
 8296SOL     OW25786   1.444   6.545   5.991
 8296SOL    HW125787   1.415   6.623   6.046
 8296SOL    HW225788   1.497   6.578   5.912
 8297SOL     OW25789   6.452   2.767   2.965
 8297SOL    HW125790   6.484   2.672   2.965
 8297SOL    HW225791   6.381   2.778   2.896
 8298SOL     OW25792   5.475   1.301   1.425
 8298SOL    HW125793   5.453   1.210   1.389
 8298SOL    HW225794   5.566   1.300   1.465
 8299SOL     OW25795   0.374   2.772   1.845
 8299SOL    HW125796   0.296   2.834   1.857
 8299SOL    HW225797   0.353   2.684   1.886
 8300SOL     OW25798   0.453   5.051   5.393
 8300SOL    HW125799   0.473   5.126   5.330
 8300SOL    HW225800   0.423   5.089   5.480
 8301SOL     OW25801   4.427   1.701   1.441
 8301SOL    HW125802   4.412   1.640   1.363
 8301SOL    HW225803   4.339   1.729   1.479
 8302SOL     OW25804   6.074   6.050   6.142
 8302SOL    HW125805   6.061   6.105   6.225
 8302SOL    HW225806   6.069   6.110   6.062
 8303SOL     OW25807   6.822   0.464   4.367
 8303SOL    HW125808   6.902   0.524   4.369
 8303SOL    HW225809   6.849   0.373   4.336
 8304SOL     OW25810   1.735   3.624   6.479
 8304SOL    HW125811   1.640   3.628   6.512
 8304SOL    HW225812   1.744   3.681   6.397
 8305SOL     OW25813   3.852   5.147   4.012
 8305SOL    HW125814   3.760   5.114   3.990
 8305SOL    HW225815   3.887   5.097   4.092
 8306SOL     OW25816   0.302   3.140   4.782
 8306SOL    HW125817   0.384   3.097   4.820
 8306SOL    HW225818   0.221   3.108   4.832
 8307SOL     OW25819   3.890   5.351   1.713
 8307SOL    HW125820   3.799   5.383   1.738
 8307SOL    HW225821   3.941   5.426   1.670
 8308SOL     OW25822   4.540   6.468   1.541
 8308SOL    HW125823   4.508   6.377   1.513
 8308SOL    HW225824   4.493   6.538   1.488
 8309SOL     OW25825   5.568   5.506   3.003
 8309SOL    HW125826   5.538   5.434   3.065
 8309SOL    HW225827   5.569   5.472   2.909
 8310SOL     OW25828   1.033   4.623   0.710
 8310SOL    HW125829   0.992   4.675   0.635
 8310SOL    HW225830   0.963   4.569   0.756
 8311SOL     OW25831   0.355   1.034   5.763
 8311SOL    HW125832   0.349   1.087   5.678
 8311SOL    HW225833   0.451   1.016   5.784
 8312SOL     OW25834   5.133   6.383   1.610
 8312SOL    HW125835   5.102   6.341   1.695
 8312SOL    HW225836   5.064   6.370   1.539
 8313SOL     OW25837   3.831   1.703   2.417
 8313SOL    HW125838   3.896   1.629   2.400
 8313SOL    HW225839   3.757   1.670   2.475
 8314SOL     OW25840   4.845   6.453   0.736
 8314SOL    HW125841   4.925   6.511   0.748
 8314SOL    HW225842   4.771   6.506   0.695
 8315SOL     OW25843   4.207   3.223   1.061
 8315SOL    HW125844   4.251   3.157   1.121
 8315SOL    HW225845   4.258   3.309   1.063
 8316SOL     OW25846   0.435   3.384   1.533
 8316SOL    HW125847   0.406   3.479   1.519
 8316SOL    HW225848   0.426   3.333   1.447
 8317SOL     OW25849   2.123   3.247   2.328
 8317SOL    HW125850   2.105   3.202   2.241
 8317SOL    HW225851   2.135   3.345   2.313
 8318SOL     OW25852   4.800   2.209   4.730
 8318SOL    HW125853   4.715   2.222   4.781
 8318SOL    HW225854   4.856   2.140   4.775
 8319SOL     OW25855   3.163   1.925   5.790
 8319SOL    HW125856   3.261   1.946   5.785
 8319SOL    HW225857   3.114   2.004   5.829
 8320SOL     OW25858   3.435   4.884   1.231
 8320SOL    HW125859   3.449   4.789   1.259
 8320SOL    HW225860   3.439   4.890   1.131
 8321SOL     OW25861   0.504   1.170   6.131
 8321SOL    HW125862   0.419   1.169   6.078
 8321SOL    HW225863   0.559   1.090   6.107
 8322SOL     OW25864   0.008   0.177   0.112
 8322SOL    HW125865   6.993   0.257   0.067
 8322SOL    HW225866   0.036   0.110   0.042
 8323SOL     OW25867   7.001   7.014   2.158
 8323SOL    HW125868   7.013   6.989   2.062
 8323SOL    HW225869   0.002   6.937   2.216
 8324SOL     OW25870   6.478   0.454   2.592
 8324SOL    HW125871   6.550   0.439   2.659
 8324SOL    HW225872   6.390   0.423   2.629
 8325SOL     OW25873   3.920   3.097   4.418
 8325SOL    HW125874   3.965   3.182   4.389
 8325SOL    HW225875   3.850   3.072   4.351
 8326SOL     OW25876   4.240   3.714   5.579
 8326SOL    HW125877   4.238   3.750   5.485
 8326SOL    HW225878   4.290   3.778   5.638
 8327SOL     OW25879   5.138   2.365   5.777
 8327SOL    HW125880   5.185   2.448   5.807
 8327SOL    HW225881   5.039   2.382   5.777
 8328SOL     OW25882   2.361   3.764   6.125
 8328SOL    HW125883   2.263   3.785   6.127
 8328SOL    HW225884   2.412   3.839   6.167
 8329SOL     OW25885   6.927   3.132   5.578
 8329SOL    HW125886   6.916   3.062   5.508
 8329SOL    HW225887   6.845   3.134   5.636
 8330SOL     OW25888   2.013   0.079   0.474
 8330SOL    HW125889   2.011   0.112   0.568
 8330SOL    HW225890   2.107   0.068   0.444
 8331SOL     OW25891   2.902   6.844   0.861
 8331SOL    HW125892   2.971   6.859   0.932
 8331SOL    HW225893   2.947   6.825   0.774
 8332SOL     OW25894   4.465   5.200   2.651
 8332SOL    HW125895   4.373   5.167   2.630
 8332SOL    HW225896   4.476   5.293   2.616
 8333SOL     OW25897   0.161   6.064   6.989
 8333SOL    HW125898   0.164   6.034   0.061
 8333SOL    HW225899   0.074   6.109   6.971
 8334SOL     OW25900   5.849   1.328   4.178
 8334SOL    HW125901   5.913   1.353   4.105
 8334SOL    HW225902   5.827   1.410   4.232
 8335SOL     OW25903   6.251   5.183   5.663
 8335SOL    HW125904   6.184   5.115   5.695
 8335SOL    HW225905   6.333   5.179   5.719
 8336SOL     OW25906   6.736   1.067   2.635
 8336SOL    HW125907   6.756   1.096   2.542
 8336SOL    HW225908   6.688   0.979   2.633
 8337SOL     OW25909   0.454   6.902   3.810
 8337SOL    HW125910   0.513   6.949   3.744
 8337SOL    HW225911   0.362   6.942   3.807
 8338SOL     OW25912   2.347   5.027   1.862
 8338SOL    HW125913   2.380   4.936   1.888
 8338SOL    HW225914   2.410   5.097   1.898
 8339SOL     OW25915   6.408   1.101   2.420
 8339SOL    HW125916   6.431   1.132   2.513
 8339SOL    HW225917   6.478   1.133   2.357
 8340SOL     OW25918   4.842   3.847   1.184
 8340SOL    HW125919   4.757   3.849   1.132
 8340SOL    HW225920   4.919   3.834   1.121
 8341SOL     OW25921   2.088   6.765   0.201
 8341SOL    HW125922   2.125   6.776   0.294
 8341SOL    HW225923   2.123   6.680   0.162
 8342SOL     OW25924   3.686   6.663   1.295
 8342SOL    HW125925   3.659   6.674   1.199
 8342SOL    HW225926   3.738   6.578   1.305
 8343SOL     OW25927   1.579   5.336   5.967
 8343SOL    HW125928   1.640   5.412   5.990
 8343SOL    HW225929   1.501   5.337   6.030
 8344SOL     OW25930   4.604   6.640   5.512
 8344SOL    HW125931   4.553   6.725   5.500
 8344SOL    HW225932   4.607   6.617   5.610
 8345SOL     OW25933   5.481   1.868   3.552
 8345SOL    HW125934   5.459   1.780   3.511
 8345SOL    HW225935   5.424   1.883   3.633
 8346SOL     OW25936   2.359   4.644   0.274
 8346SOL    HW125937   2.303   4.579   0.224
 8346SOL    HW225938   2.417   4.595   0.340
 8347SOL     OW25939   2.856   0.116   5.096
 8347SOL    HW125940   2.925   0.143   5.163
 8347SOL    HW225941   2.842   0.189   5.030
 8348SOL     OW25942   1.409   6.945   1.291
 8348SOL    HW125943   1.449   6.970   1.202
 8348SOL    HW225944   1.403   0.004   1.348
 8349SOL     OW25945   5.637   3.808   1.065
 8349SOL    HW125946   5.644   3.709   1.049
 8349SOL    HW225947   5.681   3.830   1.152
 8350SOL     OW25948   5.466   0.864   4.776
 8350SOL    HW125949   5.518   0.921   4.840
 8350SOL    HW225950   5.459   0.911   4.688
 8351SOL     OW25951   3.672   5.377   4.177
 8351SOL    HW125952   3.753   5.357   4.233
 8351SOL    HW225953   3.658   5.302   4.112
 8352SOL     OW25954   6.563   0.113   1.695
 8352SOL    HW125955   6.479   0.073   1.730
 8352SOL    HW225956   6.619   0.145   1.772
 8353SOL     OW25957   5.540   3.773   2.435
 8353SOL    HW125958   5.478   3.829   2.380
 8353SOL    HW225959   5.542   3.809   2.529
 8354SOL     OW25960   3.053   1.288   6.448
 8354SOL    HW125961   3.038   1.246   6.358
 8354SOL    HW225962   3.148   1.317   6.455
 8355SOL     OW25963   2.628   0.715   6.890
 8355SOL    HW125964   2.672   0.780   6.829
 8355SOL    HW225965   2.601   0.761   6.974
 8356SOL     OW25966   1.211   6.421   0.575
 8356SOL    HW125967   1.121   6.439   0.613
 8356SOL    HW225968   1.267   6.373   0.642
 8357SOL     OW25969   3.866   5.521   5.548
 8357SOL    HW125970   3.916   5.583   5.608
 8357SOL    HW225971   3.842   5.438   5.598
 8358SOL     OW25972   2.315   2.710   5.644
 8358SOL    HW125973   2.306   2.683   5.740
 8358SOL    HW225974   2.405   2.750   5.629
 8359SOL     OW25975   3.699   5.997   4.926
 8359SOL    HW125976   3.633   5.961   4.860
 8359SOL    HW225977   3.781   5.940   4.925
 8360SOL     OW25978   3.683   0.133   2.732
 8360SOL    HW125979   3.686   0.043   2.774
 8360SOL    HW225980   3.754   0.140   2.661
 8361SOL     OW25981   1.715   1.193   2.099
 8361SOL    HW125982   1.796   1.159   2.147
 8361SOL    HW225983   1.667   1.259   2.158
 8362SOL     OW25984   2.709   2.204   0.384
 8362SOL    HW125985   2.802   2.240   0.392
 8362SOL    HW225986   2.711   2.117   0.335
 8363SOL     OW25987   0.941   2.858   0.373
 8363SOL    HW125988   0.844   2.869   0.396
 8363SOL    HW225989   0.988   2.810   0.447
 8364SOL     OW25990   0.451   3.434   2.782
 8364SOL    HW125991   0.398   3.357   2.744
 8364SOL    HW225992   0.476   3.496   2.708
 8365SOL     OW25993   1.739   3.910   0.870
 8365SOL    HW125994   1.740   4.008   0.849
 8365SOL    HW225995   1.676   3.863   0.808
 8366SOL     OW25996   4.582   5.996   2.031
 8366SOL    HW125997   4.496   6.011   1.982
 8366SOL    HW225998   4.649   5.956   1.968
 8367SOL     OW25999   4.592   6.520   4.363
 8367SOL    HW126000   4.637   6.446   4.412
 8367SOL    HW226001   4.494   6.517   4.381
 8368SOL     OW26002   2.704   5.842   6.424
 8368SOL    HW126003   2.764   5.915   6.391
 8368SOL    HW226004   2.610   5.876   6.429
 8369SOL     OW26005   1.794   1.035   6.647
 8369SOL    HW126006   1.769   0.940   6.625
 8369SOL    HW226007   1.720   1.096   6.620
 8370SOL     OW26008   2.870   2.291   5.720
 8370SOL    HW126009   2.948   2.233   5.743
 8370SOL    HW226010   2.861   2.364   5.788
 8371SOL     OW26011   1.553   3.657   0.329
 8371SOL    HW126012   1.494   3.610   0.395
 8371SOL    HW226013   1.502   3.672   0.244
 8372SOL     OW26014   1.029   6.656   2.796
 8372SOL    HW126015   1.102   6.588   2.804
 8372SOL    HW226016   0.969   6.632   2.720
 8373SOL     OW26017   1.013   6.801   5.166
 8373SOL    HW126018   1.053   6.838   5.250
 8373SOL    HW226019   0.950   6.727   5.189
 8374SOL     OW26020   0.276   1.045   6.834
 8374SOL    HW126021   0.349   1.096   6.880
 8374SOL    HW226022   0.284   0.948   6.856
 8375SOL     OW26023   3.427   6.006   5.768
 8375SOL    HW126024   3.380   5.918   5.759
 8375SOL    HW226025   3.508   6.006   5.709
 8376SOL     OW26026   2.402   0.547   4.797
 8376SOL    HW126027   2.362   0.499   4.875
 8376SOL    HW226028   2.449   0.482   4.738
 8377SOL     OW26029   5.949   5.726   1.563
 8377SOL    HW126030   5.904   5.756   1.647
 8377SOL    HW226031   5.940   5.797   1.493
 8378SOL     OW26032   4.829   4.080   3.281
 8378SOL    HW126033   4.863   3.991   3.312
 8378SOL    HW226034   4.761   4.114   3.345
 8379SOL     OW26035   6.663   3.453   1.487
 8379SOL    HW126036   6.710   3.486   1.405
 8379SOL    HW226037   6.716   3.481   1.568
 8380SOL     OW26038   6.490   0.947   2.070
 8380SOL    HW126039   6.405   0.894   2.078
 8380SOL    HW226040   6.565   0.896   2.110
 8381SOL     OW26041   0.896   5.193   4.801
 8381SOL    HW126042   0.827   5.229   4.864
 8381SOL    HW226043   0.937   5.111   4.839
 8382SOL     OW26044   1.187   1.484   2.049
 8382SOL    HW126045   1.270   1.518   2.005
 8382SOL    HW226046   1.205   1.394   2.089
 8383SOL     OW26047   3.031   2.087   6.604
 8383SOL    HW126048   2.974   2.011   6.634
 8383SOL    HW226049   2.973   2.163   6.575
 8384SOL     OW26050   6.955   6.795   0.788
 8384SOL    HW126051   6.890   6.765   0.857
 8384SOL    HW226052   7.023   6.724   0.773
 8385SOL     OW26053   5.762   2.399   1.870
 8385SOL    HW126054   5.673   2.358   1.890
 8385SOL    HW226055   5.835   2.332   1.887
 8386SOL     OW26056   1.053   4.055   2.429
 8386SOL    HW126057   0.982   4.046   2.499
 8386SOL    HW226058   1.028   4.000   2.349
 8387SOL     OW26059   1.416   0.961   0.692
 8387SOL    HW126060   1.468   0.881   0.722
 8387SOL    HW226061   1.411   1.027   0.767
 8388SOL     OW26062   2.501   6.186   1.465
 8388SOL    HW126063   2.561   6.259   1.496
 8388SOL    HW226064   2.524   6.101   1.511
 8389SOL     OW26065   5.178   3.607   2.081
 8389SOL    HW126066   5.204   3.533   2.019
 8389SOL    HW226067   5.082   3.629   2.067
 8390SOL     OW26068   3.947   1.847   6.396
 8390SOL    HW126069   3.868   1.833   6.336
 8390SOL    HW226070   4.000   1.925   6.363
 8391SOL     OW26071   5.935   6.686   0.715
 8391SOL    HW126072   5.982   6.685   0.626
 8391SOL    HW226073   5.989   6.634   0.781
 8392SOL     OW26074   6.553   3.852   3.892
 8392SOL    HW126075   6.490   3.928   3.901
 8392SOL    HW226076   6.539   3.788   3.968
 8393SOL     OW26077   5.130   0.514   2.487
 8393SOL    HW126078   5.154   0.418   2.473
 8393SOL    HW226079   5.198   0.557   2.546
 8394SOL     OW26080   5.813   3.753   2.500
 8394SOL    HW126081   5.817   3.654   2.517
 8394SOL    HW226082   5.724   3.776   2.461
 8395SOL     OW26083   2.335   0.230   5.254
 8395SOL    HW126084   2.270   0.158   5.281
 8395SOL    HW226085   2.306   0.317   5.293
 8396SOL     OW26086   4.077   4.834   4.381
 8396SOL    HW126087   4.136   4.915   4.380
 8396SOL    HW226088   4.054   4.811   4.476
 8397SOL     OW26089   6.860   1.605   4.129
 8397SOL    HW126090   6.901   1.656   4.205
 8397SOL    HW226091   6.858   1.663   4.048
 8398SOL     OW26092   4.917   1.793   6.085
 8398SOL    HW126093   4.987   1.863   6.072
 8398SOL    HW226094   4.828   1.828   6.057
 8399SOL     OW26095   6.889   5.922   6.681
 8399SOL    HW126096   6.959   5.857   6.711
 8399SOL    HW226097   6.918   5.964   6.595
 8400SOL     OW26098   1.581   2.349   4.290
 8400SOL    HW126099   1.647   2.401   4.344
 8400SOL    HW226100   1.560   2.263   4.337
 8401SOL     OW26101   2.376   0.388   5.031
 8401SOL    HW126102   2.473   0.391   5.056
 8401SOL    HW226103   2.328   0.326   5.093
 8402SOL     OW26104   4.695   0.548   6.475
 8402SOL    HW126105   4.761   0.516   6.542
 8402SOL    HW226106   4.603   0.525   6.505
 8403SOL     OW26107   6.724   4.917   3.873
 8403SOL    HW126108   6.698   4.888   3.966
 8403SOL    HW226109   6.684   4.854   3.807
 8404SOL     OW26110   2.688   1.876   5.997
 8404SOL    HW126111   2.715   1.802   5.936
 8404SOL    HW226112   2.744   1.871   6.081
 8405SOL     OW26113   3.747   1.636   6.050
 8405SOL    HW126114   3.654   1.602   6.038
 8405SOL    HW226115   3.792   1.641   5.961
 8406SOL     OW26116   4.639   0.803   6.983
 8406SOL    HW126117   4.642   0.898   7.016
 8406SOL    HW226118   4.701   0.747   0.015
 8407SOL     OW26119   4.326   6.381   3.529
 8407SOL    HW126120   4.284   6.365   3.618
 8407SOL    HW226121   4.406   6.440   3.540
 8408SOL     OW26122   5.501   6.789   0.816
 8408SOL    HW126123   5.536   6.727   0.886
 8408SOL    HW226124   5.573   6.852   0.788
 8409SOL     OW26125   4.425   2.267   1.913
 8409SOL    HW126126   4.440   2.366   1.913
 8409SOL    HW226127   4.345   2.245   1.857
 8410SOL     OW26128   6.540   1.793   1.607
 8410SOL    HW126129   6.553   1.714   1.668
 8410SOL    HW226130   6.629   1.831   1.582
 8411SOL     OW26131   0.197   6.173   1.460
 8411SOL    HW126132   0.129   6.239   1.493
 8411SOL    HW226133   0.150   6.092   1.424
 8412SOL     OW26134   3.395   3.268   0.731
 8412SOL    HW126135   3.445   3.225   0.806
 8412SOL    HW226136   3.453   3.337   0.687
 8413SOL     OW26137   4.286   5.674   6.327
 8413SOL    HW126138   4.377   5.662   6.286
 8413SOL    HW226139   4.294   5.731   6.409
 8414SOL     OW26140   1.810   1.138   2.462
 8414SOL    HW126141   1.904   1.140   2.429
 8414SOL    HW226142   1.760   1.064   2.417
 8415SOL     OW26143   2.986   0.078   4.079
 8415SOL    HW126144   2.993   0.177   4.066
 8415SOL    HW226145   3.054   0.032   4.021
 8416SOL     OW26146   5.684   1.709   4.881
 8416SOL    HW126147   5.593   1.728   4.843
 8416SOL    HW226148   5.686   1.616   4.918
 8417SOL     OW26149   1.371   3.385   5.271
 8417SOL    HW126150   1.364   3.338   5.359
 8417SOL    HW226151   1.468   3.399   5.249
 8418SOL     OW26152   0.917   5.385   2.315
 8418SOL    HW126153   0.962   5.297   2.334
 8418SOL    HW226154   0.889   5.427   2.402
 8419SOL     OW26155   5.608   1.005   3.055
 8419SOL    HW126156   5.544   1.019   3.131
 8419SOL    HW226157   5.638   1.094   3.020
 8420SOL     OW26158   3.561   6.928   2.129
 8420SOL    HW126159   3.505   6.883   2.061
 8420SOL    HW226160   3.560   0.004   2.113
 8421SOL     OW26161   3.496   6.412   6.400
 8421SOL    HW126162   3.519   6.328   6.351
 8421SOL    HW226163   3.488   6.393   6.497
 8422SOL     OW26164   4.674   2.727   2.444
 8422SOL    HW126165   4.594   2.787   2.443
 8422SOL    HW226166   4.725   2.738   2.359
 8423SOL     OW26167   5.043   4.678   5.568
 8423SOL    HW126168   5.095   4.603   5.528
 8423SOL    HW226169   5.067   4.686   5.665
 8424SOL     OW26170   2.128   0.249   3.394
 8424SOL    HW126171   2.113   0.205   3.483
 8424SOL    HW226172   2.057   0.318   3.379
 8425SOL     OW26173   3.312   4.136   3.742
 8425SOL    HW126174   3.256   4.121   3.661
 8425SOL    HW226175   3.262   4.109   3.824
 8426SOL     OW26176   3.934   3.481   2.493
 8426SOL    HW126177   3.871   3.449   2.563
 8426SOL    HW226178   4.020   3.429   2.499
 8427SOL     OW26179   3.067   3.281   3.533
 8427SOL    HW126180   3.007   3.350   3.491
 8427SOL    HW226181   3.040   3.267   3.628
 8428SOL     OW26182   0.038   0.122   0.959
 8428SOL    HW126183   0.023   0.057   0.884
 8428SOL    HW226184   0.031   0.215   0.924
 8429SOL     OW26185   1.992   5.512   6.224
 8429SOL    HW126186   1.966   5.418   6.204
 8429SOL    HW226187   1.916   5.559   6.269
 8430SOL     OW26188   4.120   5.093   4.714
 8430SOL    HW126189   4.180   5.167   4.685
 8430SOL    HW226190   4.096   5.036   4.635
 8431SOL     OW26191   3.044   3.179   6.776
 8431SOL    HW126192   2.956   3.151   6.812
 8431SOL    HW226193   3.078   3.110   6.712
 8432SOL     OW26194   6.693   5.562   6.227
 8432SOL    HW126195   6.780   5.515   6.242
 8432SOL    HW226196   6.700   5.656   6.262
 8433SOL     OW26197   4.416   2.744   1.168
 8433SOL    HW126198   4.485   2.722   1.238
 8433SOL    HW226199   4.364   2.662   1.147
 8434SOL     OW26200   1.780   5.586   4.595
 8434SOL    HW126201   1.835   5.632   4.526
 8434SOL    HW226202   1.780   5.487   4.577
 8435SOL     OW26203   5.250   1.151   2.665
 8435SOL    HW126204   5.253   1.121   2.570
 8435SOL    HW226205   5.328   1.211   2.684
 8436SOL     OW26206   2.833   6.203   3.475
 8436SOL    HW126207   2.896   6.169   3.544
 8436SOL    HW226208   2.853   6.160   3.387
 8437SOL     OW26209   2.149   3.152   2.603
 8437SOL    HW126210   2.166   3.168   2.505
 8437SOL    HW226211   2.213   3.084   2.637
 8438SOL     OW26212   1.752   3.563   3.189
 8438SOL    HW126213   1.729   3.614   3.271
 8438SOL    HW226214   1.852   3.560   3.179
 8439SOL     OW26215   5.989   5.324   3.740
 8439SOL    HW126216   5.904   5.283   3.773
 8439SOL    HW226217   6.022   5.274   3.660
 8440SOL     OW26218   2.222   1.602   3.457
 8440SOL    HW126219   2.162   1.653   3.519
 8440SOL    HW226220   2.167   1.546   3.396
 8441SOL     OW26221   5.386   5.776   5.556
 8441SOL    HW126222   5.306   5.835   5.564
 8441SOL    HW226223   5.419   5.778   5.461
 8442SOL     OW26224   3.878   0.938   5.348
 8442SOL    HW126225   3.863   0.958   5.251
 8442SOL    HW226226   3.950   0.998   5.383
 8443SOL     OW26227   1.900   4.956   3.400
 8443SOL    HW126228   1.948   4.898   3.334
 8443SOL    HW226229   1.863   4.900   3.474
 8444SOL     OW26230   4.632   6.592   2.699
 8444SOL    HW126231   4.610   6.597   2.796
 8444SOL    HW226232   4.731   6.581   2.687
 8445SOL     OW26233   2.699   6.984   7.021
 8445SOL    HW126234   2.687   0.059   0.012
 8445SOL    HW226235   2.634   6.934   0.055
 8446SOL     OW26236   0.179   6.418   4.909
 8446SOL    HW126237   0.239   6.382   4.837
 8446SOL    HW226238   0.235   6.455   4.983
 8447SOL     OW26239   4.464   1.499   2.577
 8447SOL    HW126240   4.470   1.435   2.654
 8447SOL    HW226241   4.554   1.537   2.559
 8448SOL     OW26242   4.755   6.429   3.476
 8448SOL    HW126243   4.719   6.403   3.566
 8448SOL    HW226244   4.787   6.524   3.481
 8449SOL     OW26245   1.841   2.973   3.259
 8449SOL    HW126246   1.801   2.992   3.169
 8449SOL    HW226247   1.790   3.021   3.329
 8450SOL     OW26248   0.541   0.731   6.880
 8450SOL    HW126249   0.583   0.733   6.970
 8450SOL    HW226250   0.607   0.762   6.811
 8451SOL     OW26251   3.695   1.040   1.024
 8451SOL    HW126252   3.695   0.966   1.091
 8451SOL    HW226253   3.769   1.104   1.046
 8452SOL     OW26254   5.663   1.806   4.445
 8452SOL    HW126255   5.613   1.880   4.399
 8452SOL    HW226256   5.605   1.725   4.450
 8453SOL     OW26257   0.918   5.482   0.072
 8453SOL    HW126258   0.867   5.503   7.012
 8453SOL    HW226259   0.884   5.540   0.147
 8454SOL     OW26260   0.871   4.190   6.858
 8454SOL    HW126261   0.831   4.211   6.947
 8454SOL    HW226262   0.899   4.094   6.855
 8455SOL     OW26263   1.016   0.359   2.563
 8455SOL    HW126264   0.920   0.346   2.589
 8455SOL    HW226265   1.023   0.363   2.463
 8456SOL     OW26266   5.162   0.349   3.380
 8456SOL    HW126267   5.071   0.353   3.338
 8456SOL    HW226268   5.218   0.424   3.344
 8457SOL     OW26269   6.085   6.706   4.597
 8457SOL    HW126270   6.090   6.804   4.618
 8457SOL    HW226271   6.172   6.663   4.616
 8458SOL     OW26272   0.755   6.889   0.288
 8458SOL    HW126273   0.842   6.893   0.337
 8458SOL    HW226274   0.704   6.973   0.306
 8459SOL     OW26275   1.345   5.598   3.212
 8459SOL    HW126276   1.286   5.519   3.226
 8459SOL    HW226277   1.292   5.674   3.175
 8460SOL     OW26278   4.137   4.062   5.371
 8460SOL    HW126279   4.158   3.968   5.344
 8460SOL    HW226280   4.200   4.125   5.325
 8461SOL     OW26281   6.892   2.933   4.641
 8461SOL    HW126282   6.967   2.876   4.675
 8461SOL    HW226283   6.886   2.924   4.542
 8462SOL     OW26284   2.855   1.843   1.242
 8462SOL    HW126285   2.765   1.883   1.261
 8462SOL    HW226286   2.857   1.749   1.276
 8463SOL     OW26287   5.943   0.629   2.132
 8463SOL    HW126288   5.969   0.566   2.058
 8463SOL    HW226289   5.946   0.723   2.098
 8464SOL     OW26290   6.146   3.307   4.428
 8464SOL    HW126291   6.057   3.341   4.398
 8464SOL    HW226292   6.147   3.296   4.527
 8465SOL     OW26293   1.268   2.034   0.706
 8465SOL    HW126294   1.212   2.085   0.641
 8465SOL    HW226295   1.240   1.938   0.707
 8466SOL     OW26296   1.015   5.685   3.300
 8466SOL    HW126297   1.086   5.738   3.348
 8466SOL    HW226298   1.054   5.597   3.271
 8467SOL     OW26299   2.828   5.603   0.833
 8467SOL    HW126300   2.827   5.587   0.931
 8467SOL    HW226301   2.920   5.632   0.805
 8468SOL     OW26302   4.120   2.261   0.204
 8468SOL    HW126303   4.022   2.246   0.200
 8468SOL    HW226304   4.156   2.231   0.292
 8469SOL     OW26305   3.316   2.772   6.507
 8469SOL    HW126306   3.354   2.689   6.466
 8469SOL    HW226307   3.357   2.852   6.463
 8470SOL     OW26308   1.990   2.304   0.912
 8470SOL    HW126309   2.030   2.365   0.843
 8470SOL    HW226310   2.059   2.237   0.941
 8471SOL     OW26311   3.242   0.500   4.371
 8471SOL    HW126312   3.264   0.407   4.341
 8471SOL    HW226313   3.150   0.524   4.341
 8472SOL     OW26314   0.452   6.867   4.554
 8472SOL    HW126315   0.480   6.811   4.476
 8472SOL    HW226316   0.400   6.946   4.521
 8473SOL     OW26317   6.895   5.346   0.291
 8473SOL    HW126318   6.846   5.333   0.205
 8473SOL    HW226319   6.904   5.444   0.310
 8474SOL     OW26320   3.298   2.885   1.657
 8474SOL    HW126321   3.229   2.882   1.584
 8474SOL    HW226322   3.256   2.862   1.744
 8475SOL     OW26323   6.165   1.614   2.851
 8475SOL    HW126324   6.137   1.559   2.772
 8475SOL    HW226325   6.086   1.633   2.909
 8476SOL     OW26326   5.454   0.113   2.073
 8476SOL    HW126327   5.449   0.020   2.112
 8476SOL    HW226328   5.362   0.142   2.045
 8477SOL     OW26329   2.687   6.818   1.069
 8477SOL    HW126330   2.730   6.787   0.984
 8477SOL    HW226331   2.670   6.740   1.129
 8478SOL     OW26332   1.868   0.880   5.374
 8478SOL    HW126333   1.775   0.859   5.406
 8478SOL    HW226334   1.884   0.833   5.287
 8479SOL     OW26335   6.017   1.183   0.395
 8479SOL    HW126336   6.113   1.204   0.375
 8479SOL    HW226337   5.990   1.229   0.479
 8480SOL     OW26338   3.369   0.468   1.300
 8480SOL    HW126339   3.348   0.409   1.378
 8480SOL    HW226340   3.284   0.507   1.264
 8481SOL     OW26341   3.642   1.756   4.591
 8481SOL    HW126342   3.600   1.820   4.526
 8481SOL    HW226343   3.741   1.770   4.593
 8482SOL     OW26344   1.698   0.232   2.242
 8482SOL    HW126345   1.644   0.167   2.294
 8482SOL    HW226346   1.721   0.310   2.300
 8483SOL     OW26347   3.336   5.791   2.239
 8483SOL    HW126348   3.271   5.862   2.266
 8483SOL    HW226349   3.429   5.829   2.237
 8484SOL     OW26350   0.572   4.607   4.014
 8484SOL    HW126351   0.590   4.672   4.088
 8484SOL    HW226352   0.593   4.650   3.926
 8485SOL     OW26353   2.354   4.210   0.201
 8485SOL    HW126354   2.335   4.206   0.103
 8485SOL    HW226355   2.433   4.269   0.218
 8486SOL     OW26356   5.983   1.079   2.632
 8486SOL    HW126357   5.921   1.021   2.579
 8486SOL    HW226358   6.002   1.163   2.581
 8487SOL     OW26359   5.361   0.373   1.393
 8487SOL    HW126360   5.455   0.394   1.422
 8487SOL    HW226361   5.306   0.456   1.394
 8488SOL     OW26362   5.248   4.567   4.450
 8488SOL    HW126363   5.305   4.533   4.524
 8488SOL    HW226364   5.291   4.646   4.408
 8489SOL     OW26365   5.295   4.280   1.420
 8489SOL    HW126366   5.324   4.210   1.485
 8489SOL    HW226367   5.326   4.370   1.452
 8490SOL     OW26368   4.408   5.648   3.009
 8490SOL    HW126369   4.488   5.609   2.963
 8490SOL    HW226370   4.327   5.634   2.952
 8491SOL     OW26371   2.548   0.718   2.167
 8491SOL    HW126372   2.642   0.711   2.136
 8491SOL    HW226373   2.518   0.813   2.162
 8492SOL     OW26374   5.820   3.179   5.691
 8492SOL    HW126375   5.793   3.161   5.786
 8492SOL    HW226376   5.762   3.250   5.652
 8493SOL     OW26377   4.154   1.893   0.118
 8493SOL    HW126378   4.186   1.930   0.205
 8493SOL    HW226379   4.215   1.922   0.044
 8494SOL     OW26380   2.600   5.884   6.925
 8494SOL    HW126381   2.556   5.820   6.862
 8494SOL    HW226382   2.532   5.922   6.987
 8495SOL     OW26383   6.723   2.222   0.586
 8495SOL    HW126384   6.777   2.184   0.661
 8495SOL    HW226385   6.757   2.313   0.563
 8496SOL     OW26386   0.473   2.239   3.341
 8496SOL    HW126387   0.390   2.247   3.285
 8496SOL    HW226388   0.488   2.143   3.364
 8497SOL     OW26389   5.835   5.256   4.248
 8497SOL    HW126390   5.880   5.194   4.184
 8497SOL    HW226391   5.900   5.325   4.279
 8498SOL     OW26392   0.178   0.280   1.413
 8498SOL    HW126393   0.184   0.218   1.335
 8498SOL    HW226394   0.220   0.368   1.390
 8499SOL     OW26395   3.074   5.042   6.379
 8499SOL    HW126396   3.123   5.097   6.311
 8499SOL    HW226397   3.127   5.039   6.464
 8500SOL     OW26398   2.264   6.743   5.888
 8500SOL    HW126399   2.343   6.770   5.832
 8500SOL    HW226400   2.295   6.716   5.979
 8501SOL     OW26401   1.969   3.602   6.658
 8501SOL    HW126402   1.901   3.575   6.590
 8501SOL    HW226403   2.042   3.654   6.614
 8502SOL     OW26404   6.936   6.112   1.225
 8502SOL    HW126405   6.914   6.200   1.265
 8502SOL    HW226406   7.006   6.123   1.155
 8503SOL     OW26407   2.239   5.048   3.559
 8503SOL    HW126408   2.234   5.070   3.462
 8503SOL    HW226409   2.330   5.069   3.594
 8504SOL     OW26410   1.985   6.045   3.384
 8504SOL    HW126411   1.951   6.139   3.381
 8504SOL    HW226412   2.064   6.036   3.324
 8505SOL     OW26413   5.472   4.234   3.958
 8505SOL    HW126414   5.447   4.196   4.047
 8505SOL    HW226415   5.456   4.333   3.959
 8506SOL     OW26416   1.347   6.256   0.758
 8506SOL    HW126417   1.317   6.176   0.706
 8506SOL    HW226418   1.400   6.227   0.837
 8507SOL     OW26419   2.207   0.798   6.236
 8507SOL    HW126420   2.121   0.805   6.287
 8507SOL    HW226421   2.269   0.736   6.285
 8508SOL     OW26422   6.761   2.481   5.349
 8508SOL    HW126423   6.668   2.459   5.319
 8508SOL    HW226424   6.825   2.419   5.305
 8509SOL     OW26425   6.012   1.416   4.695
 8509SOL    HW126426   5.959   1.468   4.628
 8509SOL    HW226427   5.956   1.401   4.777
 8510SOL     OW26428   5.788   5.685   3.048
 8510SOL    HW126429   5.697   5.644   3.041
 8510SOL    HW226430   5.787   5.775   3.006
 8511SOL     OW26431   6.615   4.356   0.989
 8511SOL    HW126432   6.564   4.377   0.906
 8511SOL    HW226433   6.697   4.413   0.994
 8512SOL     OW26434   4.141   2.188   6.813
 8512SOL    HW126435   4.068   2.124   6.838
 8512SOL    HW226436   4.177   2.231   6.896
 8513SOL     OW26437   5.671   3.759   0.731
 8513SOL    HW126438   5.575   3.746   0.707
 8513SOL    HW226439   5.711   3.672   0.760
 8514SOL     OW26440   2.576   1.570   4.574
 8514SOL    HW126441   2.504   1.501   4.566
 8514SOL    HW226442   2.548   1.641   4.639
 8515SOL     OW26443   0.352   1.340   6.662
 8515SOL    HW126444   0.351   1.439   6.670
 8515SOL    HW226445   0.443   1.310   6.633
 8516SOL     OW26446   5.802   2.901   2.587
 8516SOL    HW126447   5.829   2.858   2.501
 8516SOL    HW226448   5.804   2.833   2.660
 8517SOL     OW26449   2.114   2.457   6.059
 8517SOL    HW126450   2.014   2.451   6.065
 8517SOL    HW226451   2.139   2.544   6.017
 8518SOL     OW26452   5.048   4.757   6.579
 8518SOL    HW126453   5.104   4.778   6.658
 8518SOL    HW226454   5.020   4.842   6.534
 8519SOL     OW26455   1.482   4.776   0.702
 8519SOL    HW126456   1.491   4.684   0.664
 8519SOL    HW226457   1.391   4.786   0.744
 8520SOL     OW26458   4.090   3.637   5.134
 8520SOL    HW126459   4.094   3.648   5.035
 8520SOL    HW226460   4.104   3.541   5.158
 8521SOL     OW26461   1.316   6.381   5.488
 8521SOL    HW126462   1.373   6.446   5.438
 8521SOL    HW226463   1.220   6.400   5.470
 8522SOL     OW26464   1.036   0.067   0.345
 8522SOL    HW126465   1.060   0.111   0.258
 8522SOL    HW226466   1.007   0.137   0.410
 8523SOL     OW26467   2.735   6.805   6.329
 8523SOL    HW126468   2.800   6.870   6.369
 8523SOL    HW226469   2.745   6.805   6.230
 8524SOL     OW26470   1.267   5.080   4.852
 8524SOL    HW126471   1.267   5.176   4.824
 8524SOL    HW226472   1.348   5.034   4.814
 8525SOL     OW26473   6.496   4.686   0.931
 8525SOL    HW126474   6.551   4.765   0.959
 8525SOL    HW226475   6.482   4.689   0.832
 8526SOL     OW26476   2.415   6.661   0.746
 8526SOL    HW126477   2.397   6.745   0.796
 8526SOL    HW226478   2.342   6.594   0.766
 8527SOL     OW26479   3.429   0.285   6.792
 8527SOL    HW126480   3.401   0.378   6.769
 8527SOL    HW226481   3.347   0.229   6.807
 8528SOL     OW26482   4.603   1.839   1.171
 8528SOL    HW126483   4.635   1.886   1.253
 8528SOL    HW226484   4.506   1.819   1.179
 8529SOL     OW26485   0.742   6.521   0.012
 8529SOL    HW126486   0.699   6.477   6.956
 8529SOL    HW226487   0.697   6.608   0.031
 8530SOL     OW26488   2.877   3.488   3.973
 8530SOL    HW126489   2.911   3.575   3.936
 8530SOL    HW226490   2.917   3.412   3.922
 8531SOL     OW26491   6.642   5.702   3.499
 8531SOL    HW126492   6.618   5.638   3.426
 8531SOL    HW226493   6.700   5.775   3.462
 8532SOL     OW26494   3.292   6.327   3.996
 8532SOL    HW126495   3.373   6.273   3.974
 8532SOL    HW226496   3.318   6.401   4.058
 8533SOL     OW26497   0.722   6.132   6.943
 8533SOL    HW126498   0.646   6.075   6.913
 8533SOL    HW226499   0.703   6.168   0.011
 8534SOL     OW26500   4.543   2.248   4.004
 8534SOL    HW126501   4.505   2.306   4.077
 8534SOL    HW226502   4.553   2.303   3.920
 8535SOL     OW26503   5.351   0.821   3.813
 8535SOL    HW126504   5.433   0.860   3.854
 8535SOL    HW226505   5.346   0.724   3.834
 8536SOL     OW26506   0.573   1.408   4.697
 8536SOL    HW126507   0.640   1.479   4.675
 8536SOL    HW226508   0.615   1.339   4.756
 8537SOL     OW26509   5.895   1.118   3.441
 8537SOL    HW126510   5.842   1.194   3.405
 8537SOL    HW226511   5.992   1.142   3.442
 8538SOL     OW26512   1.381   1.456   0.196
 8538SOL    HW126513   1.294   1.455   0.146
 8538SOL    HW226514   1.451   1.498   0.139
 8539SOL     OW26515   6.282   2.605   2.786
 8539SOL    HW126516   6.353   2.582   2.719
 8539SOL    HW226517   6.282   2.537   2.859
 8540SOL     OW26518   4.422   6.950   6.935
 8540SOL    HW126519   4.387   6.986   6.849
 8540SOL    HW226520   4.492   7.012   6.971
 8541SOL     OW26521   2.821   2.338   3.946
 8541SOL    HW126522   2.774   2.324   4.033
 8541SOL    HW226523   2.769   2.400   3.889
 8542SOL     OW26524   3.639   4.460   6.604
 8542SOL    HW126525   3.596   4.518   6.674
 8542SOL    HW226526   3.568   4.406   6.558
 8543SOL     OW26527   1.910   2.465   0.067
 8543SOL    HW126528   1.913   2.372   0.105
 8543SOL    HW226529   1.979   2.521   0.113
 8544SOL     OW26530   5.438   2.632   4.501
 8544SOL    HW126531   5.430   2.725   4.538
 8544SOL    HW226532   5.462   2.569   4.576
 8545SOL     OW26533   4.962   6.372   5.681
 8545SOL    HW126534   4.925   6.403   5.769
 8545SOL    HW226535   5.060   6.388   5.679
 8546SOL     OW26536   6.003   1.604   3.785
 8546SOL    HW126537   6.098   1.577   3.773
 8546SOL    HW226538   5.974   1.661   3.708
 8547SOL     OW26539   1.629   5.279   4.894
 8547SOL    HW126540   1.642   5.258   4.991
 8547SOL    HW226541   1.716   5.269   4.846
 8548SOL     OW26542   5.997   1.508   5.844
 8548SOL    HW126543   6.093   1.493   5.865
 8548SOL    HW226544   5.988   1.576   5.771
 8549SOL     OW26545   6.532   4.049   3.620
 8549SOL    HW126546   6.589   4.052   3.703
 8549SOL    HW226547   6.436   4.036   3.646
 8550SOL     OW26548   1.446   5.343   6.528
 8550SOL    HW126549   1.489   5.255   6.506
 8550SOL    HW226550   1.382   5.368   6.456
 8551SOL     OW26551   3.344   4.371   6.866
 8551SOL    HW126552   3.392   4.454   6.836
 8551SOL    HW226553   3.328   4.375   6.964
 8552SOL     OW26554   3.314   5.573   3.292
 8552SOL    HW126555   3.411   5.558   3.309
 8552SOL    HW226556   3.295   5.671   3.288
 8553SOL     OW26557   5.302   6.663   6.873
 8553SOL    HW126558   5.352   6.746   6.851
 8553SOL    HW226559   5.219   6.658   6.817
 8554SOL     OW26560   0.460   4.277   0.155
 8554SOL    HW126561   0.385   4.216   0.178
 8554SOL    HW226562   0.430   4.372   0.161
 8555SOL     OW26563   0.825   0.658   3.272
 8555SOL    HW126564   0.739   0.613   3.296
 8555SOL    HW226565   0.819   0.755   3.293
 8556SOL     OW26566   0.139   0.818   3.353
 8556SOL    HW126567   0.041   0.807   3.363
 8556SOL    HW226568   0.187   0.749   3.407
 8557SOL     OW26569   0.033   6.309   1.728
 8557SOL    HW126570   0.125   6.347   1.730
 8557SOL    HW226571   0.001   6.304   1.633
 8558SOL     OW26572   2.452   5.559   2.413
 8558SOL    HW126573   2.447   5.466   2.376
 8558SOL    HW226574   2.547   5.583   2.429
 8559SOL     OW26575   1.188   1.277   1.827
 8559SOL    HW126576   1.136   1.318   1.902
 8559SOL    HW226577   1.283   1.265   1.856
 8560SOL     OW26578   6.880   1.614   0.587
 8560SOL    HW126579   6.871   1.701   0.636
 8560SOL    HW226580   6.936   1.551   0.641
 8561SOL     OW26581   4.650   6.123   2.275
 8561SOL    HW126582   4.654   6.052   2.204
 8561SOL    HW226583   4.562   6.169   2.272
 8562SOL     OW26584   3.892   6.729   4.356
 8562SOL    HW126585   3.805   6.773   4.331
 8562SOL    HW226586   3.874   6.655   4.421
 8563SOL     OW26587   2.698   3.153   0.263
 8563SOL    HW126588   2.623   3.115   0.208
 8563SOL    HW226589   2.785   3.118   0.229
 8564SOL     OW26590   1.054   0.107   3.885
 8564SOL    HW126591   1.107   0.107   3.800
 8564SOL    HW226592   0.981   0.176   3.878
 8565SOL     OW26593   3.960   0.193   0.810
 8565SOL    HW126594   4.031   0.166   0.745
 8565SOL    HW226595   3.898   0.259   0.768
 8566SOL     OW26596   1.003   2.443   3.103
 8566SOL    HW126597   0.992   2.372   3.033
 8566SOL    HW226598   0.916   2.455   3.151
 8567SOL     OW26599   5.564   1.713   1.191
 8567SOL    HW126600   5.537   1.617   1.201
 8567SOL    HW226601   5.660   1.718   1.163
 8568SOL     OW26602   4.844   1.902   0.526
 8568SOL    HW126603   4.937   1.922   0.555
 8568SOL    HW226604   4.792   1.987   0.519
 8569SOL     OW26605   5.044   0.776   4.531
 8569SOL    HW126606   5.111   0.808   4.598
 8569SOL    HW226607   5.088   0.765   4.442
 8570SOL     OW26608   1.276   4.150   6.497
 8570SOL    HW126609   1.240   4.106   6.579
 8570SOL    HW226610   1.261   4.091   6.417
 8571SOL     OW26611   6.996   4.353   4.536
 8571SOL    HW126612   0.029   4.373   4.616
 8571SOL    HW226613   0.008   4.403   4.457
 8572SOL     OW26614   1.875   4.863   5.305
 8572SOL    HW126615   1.783   4.854   5.343
 8572SOL    HW226616   1.883   4.949   5.256
 8573SOL     OW26617   4.840   6.462   6.826
 8573SOL    HW126618   4.869   6.513   6.745
 8573SOL    HW226619   4.861   6.365   6.815
 8574SOL     OW26620   0.627   4.013   6.114
 8574SOL    HW126621   0.532   4.002   6.143
 8574SOL    HW226622   0.638   4.101   6.068
 8575SOL     OW26623   2.960   3.113   0.163
 8575SOL    HW126624   3.009   3.138   0.246
 8575SOL    HW226625   2.976   3.016   0.143
 8576SOL     OW26626   1.169   6.998   1.846
 8576SOL    HW126627   1.121   6.983   1.932
 8576SOL    HW226628   1.249   6.937   1.841
 8577SOL     OW26629   6.504   5.613   3.052
 8577SOL    HW126630   6.414   5.644   3.083
 8577SOL    HW226631   6.498   5.585   2.956
 8578SOL     OW26632   4.801   0.132   4.047
 8578SOL    HW126633   4.751   0.217   4.063
 8578SOL    HW226634   4.850   0.106   4.130
 8579SOL     OW26635   1.199   5.028   3.327
 8579SOL    HW126636   1.234   5.101   3.386
 8579SOL    HW226637   1.267   4.955   3.321
 8580SOL     OW26638   1.255   6.371   2.040
 8580SOL    HW126639   1.337   6.389   1.986
 8580SOL    HW226640   1.201   6.454   2.047
 8581SOL     OW26641   3.117   1.915   1.287
 8581SOL    HW126642   3.131   1.852   1.364
 8581SOL    HW226643   3.021   1.916   1.262
 8582SOL     OW26644   4.427   4.684   2.317
 8582SOL    HW126645   4.422   4.590   2.284
 8582SOL    HW226646   4.396   4.746   2.245
 8583SOL     OW26647   6.587   0.249   6.032
 8583SOL    HW126648   6.564   0.234   5.936
 8583SOL    HW226649   6.638   0.170   6.066
 8584SOL     OW26650   6.786   4.536   0.707
 8584SOL    HW126651   6.864   4.474   0.708
 8584SOL    HW226652   6.710   4.494   0.657
 8585SOL     OW26653   0.430   0.639   0.548
 8585SOL    HW126654   0.361   0.579   0.506
 8585SOL    HW226655   0.458   0.709   0.483
 8586SOL     OW26656   3.893   6.245   3.106
 8586SOL    HW126657   3.916   6.162   3.055
 8586SOL    HW226658   3.973   6.304   3.112
 8587SOL     OW26659   0.243   1.935   2.493
 8587SOL    HW126660   0.208   1.988   2.570
 8587SOL    HW226661   0.182   1.945   2.415
 8588SOL     OW26662   3.842   2.343   0.636
 8588SOL    HW126663   3.884   2.271   0.692
 8588SOL    HW226664   3.910   2.415   0.619
 8589SOL     OW26665   3.598   0.840   4.935
 8589SOL    HW126666   3.520   0.892   4.901
 8589SOL    HW226667   3.668   0.903   4.970
 8590SOL     OW26668   6.295   5.310   4.059
 8590SOL    HW126669   6.310   5.231   4.001
 8590SOL    HW226670   6.330   5.292   4.151
 8591SOL     OW26671   1.284   3.462   6.233
 8591SOL    HW126672   1.274   3.396   6.158
 8591SOL    HW226673   1.340   3.421   6.305
 8592SOL     OW26674   6.959   4.133   1.172
 8592SOL    HW126675   6.893   4.060   1.193
 8592SOL    HW226676   6.909   4.218   1.156
 8593SOL     OW26677   1.540   6.984   2.318
 8593SOL    HW126678   1.473   7.022   2.382
 8593SOL    HW226679   1.497   6.973   2.228
 8594SOL     OW26680   3.136   3.840   4.114
 8594SOL    HW126681   3.233   3.849   4.093
 8594SOL    HW226682   3.125   3.811   4.209
 8595SOL     OW26683   1.831   1.921   2.317
 8595SOL    HW126684   1.824   1.936   2.218
 8595SOL    HW226685   1.876   2.000   2.359
 8596SOL     OW26686   5.445   4.838   1.465
 8596SOL    HW126687   5.450   4.866   1.561
 8596SOL    HW226688   5.437   4.739   1.460
 8597SOL     OW26689   2.950   1.522   0.730
 8597SOL    HW126690   2.915   1.613   0.753
 8597SOL    HW226691   2.918   1.456   0.798
 8598SOL     OW26692   6.322   3.645   0.667
 8598SOL    HW126693   6.388   3.707   0.708
 8598SOL    HW226694   6.369   3.562   0.636
 8599SOL     OW26695   0.675   2.596   3.665
 8599SOL    HW126696   0.747   2.559   3.725
 8599SOL    HW226697   0.718   2.639   3.586
 8600SOL     OW26698   6.564   4.780   6.598
 8600SOL    HW126699   6.466   4.761   6.599
 8600SOL    HW226700   6.589   4.829   6.681
 8601SOL     OW26701   0.079   0.984   4.143
 8601SOL    HW126702   7.019   0.959   4.193
 8601SOL    HW226703   0.062   1.065   4.088
 8602SOL     OW26704   2.944   6.019   2.635
 8602SOL    HW126705   2.990   5.999   2.721
 8602SOL    HW226706   2.860   5.966   2.628
 8603SOL     OW26707   3.819   3.584   0.324
 8603SOL    HW126708   3.867   3.666   0.295
 8603SOL    HW226709   3.823   3.576   0.424
 8604SOL     OW26710   5.486   3.108   3.438
 8604SOL    HW126711   5.488   3.013   3.406
 8604SOL    HW226712   5.494   3.109   3.538
 8605SOL     OW26713   3.419   5.629   4.149
 8605SOL    HW126714   3.408   5.728   4.160
 8605SOL    HW226715   3.447   5.609   4.055
 8606SOL     OW26716   2.990   4.888   6.016
 8606SOL    HW126717   3.063   4.939   5.970
 8606SOL    HW226718   2.959   4.814   5.957
 8607SOL     OW26719   3.789   5.811   1.928
 8607SOL    HW126720   3.746   5.803   2.018
 8607SOL    HW226721   3.850   5.891   1.927
 8608SOL     OW26722   4.017   4.839   2.940
 8608SOL    HW126723   4.045   4.852   2.845
 8608SOL    HW226724   4.086   4.783   2.987
 8609SOL     OW26725   3.560   0.308   5.024
 8609SOL    HW126726   3.476   0.332   4.974
 8609SOL    HW226727   3.618   0.251   4.966
 8610SOL     OW26728   0.709   6.682   3.343
 8610SOL    HW126729   0.774   6.611   3.368
 8610SOL    HW226730   0.717   6.702   3.245
 8611SOL     OW26731   1.414   1.950   4.712
 8611SOL    HW126732   1.343   1.958   4.641
 8611SOL    HW226733   1.380   1.989   4.797
 8612SOL     OW26734   3.215   2.968   6.693
 8612SOL    HW126735   3.294   2.917   6.725
 8612SOL    HW226736   3.141   2.904   6.671
 8613SOL     OW26737   1.990   1.520   1.014
 8613SOL    HW126738   1.955   1.429   1.038
 8613SOL    HW226739   1.947   1.589   1.072
 8614SOL     OW26740   0.915   3.646   3.275
 8614SOL    HW126741   0.879   3.697   3.353
 8614SOL    HW226742   1.015   3.640   3.282
 8615SOL     OW26743   4.214   2.156   6.037
 8615SOL    HW126744   4.145   2.216   6.077
 8615SOL    HW226745   4.177   2.063   6.030
 8616SOL     OW26746   0.977   4.914   0.100
 8616SOL    HW126747   1.042   4.840   0.081
 8616SOL    HW226748   1.026   4.989   0.145
 8617SOL     OW26749   6.450   2.281   0.898
 8617SOL    HW126750   6.386   2.350   0.931
 8617SOL    HW226751   6.441   2.198   0.953
 8618SOL     OW26752   4.909   0.319   2.659
 8618SOL    HW126753   4.933   0.412   2.686
 8618SOL    HW226754   4.834   0.321   2.593
 8619SOL     OW26755   4.667   4.995   6.899
 8619SOL    HW126756   4.570   4.999   6.923
 8619SOL    HW226757   4.700   4.901   6.912
 8620SOL     OW26758   5.637   7.005   2.458
 8620SOL    HW126759   5.572   6.943   2.502
 8620SOL    HW226760   5.598   0.074   2.455
 8621SOL     OW26761   6.067   1.068   3.997
 8621SOL    HW126762   6.047   1.003   3.924
 8621SOL    HW226763   6.006   1.147   3.988
 8622SOL     OW26764   4.927   4.838   0.245
 8622SOL    HW126765   4.835   4.834   0.282
 8622SOL    HW226766   4.979   4.910   0.291
 8623SOL     OW26767   1.046   3.967   2.962
 8623SOL    HW126768   0.962   3.987   3.013
 8623SOL    HW226769   1.026   3.971   2.864
 8624SOL     OW26770   1.378   4.326   3.304
 8624SOL    HW126771   1.322   4.245   3.323
 8624SOL    HW226772   1.412   4.365   3.390
 8625SOL     OW26773   4.830   0.651   4.611
 8625SOL    HW126774   4.904   0.713   4.584
 8625SOL    HW226775   4.749   0.705   4.635
 8626SOL     OW26776   3.322   3.228   4.038
 8626SOL    HW126777   3.399   3.214   3.976
 8626SOL    HW226778   3.275   3.141   4.053
 8627SOL     OW26779   0.945   0.333   1.167
 8627SOL    HW126780   1.044   0.327   1.167
 8627SOL    HW226781   0.911   0.331   1.261
 8628SOL     OW26782   6.621   1.134   6.956
 8628SOL    HW126783   6.609   1.197   6.879
 8628SOL    HW226784   6.719   1.118   6.970
 8629SOL     OW26785   0.882   4.939   3.862
 8629SOL    HW126786   0.825   4.857   3.864
 8629SOL    HW226787   0.942   4.936   3.783
 8630SOL     OW26788   5.697   3.597   4.222
 8630SOL    HW126789   5.623   3.568   4.161
 8630SOL    HW226790   5.658   3.628   4.308
 8631SOL     OW26791   3.881   5.566   5.218
 8631SOL    HW126792   3.886   5.519   5.306
 8631SOL    HW226793   3.963   5.621   5.204
 8632SOL     OW26794   3.914   0.136   3.591
 8632SOL    HW126795   3.932   0.177   3.502
 8632SOL    HW226796   3.844   0.066   3.582
 8633SOL     OW26797   5.579   1.178   4.042
 8633SOL    HW126798   5.674   1.196   4.070
 8633SOL    HW226799   5.550   1.248   3.976
 8634SOL     OW26800   6.388   4.158   1.927
 8634SOL    HW126801   6.401   4.063   1.901
 8634SOL    HW226802   6.290   4.175   1.942
 8635SOL     OW26803   6.237   3.912   6.050
 8635SOL    HW126804   6.194   3.842   5.993
 8635SOL    HW226805   6.272   3.869   6.134
 8636SOL     OW26806   5.990   5.650   0.601
 8636SOL    HW126807   5.979   5.562   0.647
 8636SOL    HW226808   5.911   5.707   0.620
 8637SOL     OW26809   1.581   0.954   0.346
 8637SOL    HW126810   1.508   0.886   0.332
 8637SOL    HW226811   1.542   1.046   0.339
 8638SOL     OW26812   2.333   4.485   0.017
 8638SOL    HW126813   2.365   4.560   6.982
 8638SOL    HW226814   2.322   4.402   6.985
 8639SOL     OW26815   5.090   2.953   2.173
 8639SOL    HW126816   5.040   2.969   2.088
 8639SOL    HW226817   5.176   3.003   2.171
 8640SOL     OW26818   4.420   4.252   0.765
 8640SOL    HW126819   4.363   4.170   0.765
 8640SOL    HW226820   4.503   4.236   0.819
 8641SOL     OW26821   0.371   4.255   3.512
 8641SOL    HW126822   0.379   4.345   3.471
 8641SOL    HW226823   0.457   4.229   3.555
 8642SOL     OW26824   5.065   1.118   1.769
 8642SOL    HW126825   5.151   1.137   1.722
 8642SOL    HW226826   4.998   1.087   1.702
 8643SOL     OW26827   4.321   0.354   6.929
 8643SOL    HW126828   4.394   0.318   6.871
 8643SOL    HW226829   4.358   0.372   7.021
 8644SOL     OW26830   5.622   2.424   4.913
 8644SOL    HW126831   5.571   2.449   4.996
 8644SOL    HW226832   5.716   2.454   4.922
 8645SOL     OW26833   6.564   3.808   1.048
 8645SOL    HW126834   6.558   3.752   0.965
 8645SOL    HW226835   6.473   3.841   1.072
 8646SOL     OW26836   5.083   1.313   0.745
 8646SOL    HW126837   5.026   1.356   0.814
 8646SOL    HW226838   5.066   1.356   0.656
 8647SOL     OW26839   3.874   5.114   0.086
 8647SOL    HW126840   3.892   5.016   0.086
 8647SOL    HW226841   3.855   5.145   7.016
 8648SOL     OW26842   5.714   0.507   4.437
 8648SOL    HW126843   5.659   0.458   4.504
 8648SOL    HW226844   5.709   0.460   4.349
 8649SOL     OW26845   6.392   4.161   5.342
 8649SOL    HW126846   6.441   4.084   5.302
 8649SOL    HW226847   6.318   4.127   5.400
 8650SOL     OW26848   1.916   4.975   4.272
 8650SOL    HW126849   2.010   4.983   4.304
 8650SOL    HW226850   1.864   5.056   4.300
 8651SOL     OW26851   3.615   1.723   0.475
 8651SOL    HW126852   3.636   1.785   0.399
 8651SOL    HW226853   3.700   1.691   0.516
 8652SOL     OW26854   2.166   4.023   3.588
 8652SOL    HW126855   2.079   4.072   3.580
 8652SOL    HW226856   2.239   4.080   3.552
 8653SOL     OW26857   0.257   2.456   6.104
 8653SOL    HW126858   0.254   2.357   6.118
 8653SOL    HW226859   0.255   2.476   6.006
 8654SOL     OW26860   0.070   6.716   3.184
 8654SOL    HW126861   0.042   6.810   3.164
 8654SOL    HW226862   0.005   6.676   3.249
 8655SOL     OW26863   5.788   6.796   3.874
 8655SOL    HW126864   5.880   6.778   3.838
 8655SOL    HW226865   5.762   6.890   3.852
 8656SOL     OW26866   6.279   0.878   0.968
 8656SOL    HW126867   6.344   0.905   0.898
 8656SOL    HW226868   6.206   0.947   0.973
 8657SOL     OW26869   5.188   5.031   6.221
 8657SOL    HW126870   5.089   5.036   6.240
 8657SOL    HW226871   5.222   4.941   6.247
 8658SOL     OW26872   5.298   4.541   0.127
 8658SOL    HW126873   5.311   4.453   0.173
 8658SOL    HW226874   5.201   4.567   0.130
 8659SOL     OW26875   4.431   0.629   3.604
 8659SOL    HW126876   4.497   0.677   3.662
 8659SOL    HW226877   4.479   0.582   3.530
 8660SOL     OW26878   6.513   4.091   0.351
 8660SOL    HW126879   6.593   4.133   0.393
 8660SOL    HW226880   6.519   4.099   0.252
 8661SOL     OW26881   6.182   3.951   2.044
 8661SOL    HW126882   6.118   3.877   2.065
 8661SOL    HW226883   6.138   4.016   1.981
 8662SOL     OW26884   5.821   6.341   0.958
 8662SOL    HW126885   5.849   6.436   0.944
 8662SOL    HW226886   5.731   6.327   0.915
 8663SOL     OW26887   1.982   5.445   0.662
 8663SOL    HW126888   2.037   5.485   0.589
 8663SOL    HW226889   2.014   5.352   0.681
 8664SOL     OW26890   4.786   5.623   0.102
 8664SOL    HW126891   4.840   5.639   0.185
 8664SOL    HW226892   4.818   5.539   0.058
 8665SOL     OW26893   4.820   5.823   5.766
 8665SOL    HW126894   4.773   5.907   5.792
 8665SOL    HW226895   4.919   5.834   5.779
 8666SOL     OW26896   4.799   2.045   5.275
 8666SOL    HW126897   4.819   2.133   5.232
 8666SOL    HW226898   4.810   2.053   5.374
 8667SOL     OW26899   5.025   1.650   3.121
 8667SOL    HW126900   4.974   1.565   3.124
 8667SOL    HW226901   5.115   1.634   3.082
 8668SOL     OW26902   5.518   2.605   4.250
 8668SOL    HW126903   5.482   2.621   4.342
 8668SOL    HW226904   5.615   2.583   4.256
 8669SOL     OW26905   4.223   1.064   6.192
 8669SOL    HW126906   4.270   1.103   6.271
 8669SOL    HW226907   4.157   1.131   6.156
 8670SOL     OW26908   3.676   5.577   4.822
 8670SOL    HW126909   3.685   5.677   4.816
 8670SOL    HW226910   3.730   5.534   4.750
 8671SOL     OW26911   6.029   6.861   3.760
 8671SOL    HW126912   6.088   6.863   3.680
 8671SOL    HW226913   6.084   6.871   3.843
 8672SOL     OW26914   2.571   5.537   4.514
 8672SOL    HW126915   2.661   5.497   4.492
 8672SOL    HW226916   2.573   5.635   4.494
 8673SOL     OW26917   0.229   2.193   0.229
 8673SOL    HW126918   0.259   2.141   0.309
 8673SOL    HW226919   0.183   2.132   0.164
 8674SOL     OW26920   0.027   6.656   2.874
 8674SOL    HW126921   0.059   6.750   2.881
 8674SOL    HW226922   0.060   6.615   2.789
 8675SOL     OW26923   2.738   1.827   4.022
 8675SOL    HW126924   2.819   1.885   4.026
 8675SOL    HW226925   2.665   1.873   3.971
 8676SOL     OW26926   3.590   0.505   2.487
 8676SOL    HW126927   3.515   0.522   2.550
 8676SOL    HW226928   3.559   0.519   2.393
 8677SOL     OW26929   2.616   5.369   6.399
 8677SOL    HW126930   2.605   5.446   6.336
 8677SOL    HW226931   2.635   5.285   6.347
 8678SOL     OW26932   1.462   0.316   6.843
 8678SOL    HW126933   1.435   0.353   6.932
 8678SOL    HW226934   1.435   0.220   6.838
 8679SOL     OW26935   5.909   1.943   5.152
 8679SOL    HW126936   5.951   1.861   5.114
 8679SOL    HW226937   5.850   1.917   5.229
 8680SOL     OW26938   1.873   3.828   0.606
 8680SOL    HW126939   1.863   3.796   0.511
 8680SOL    HW226940   1.795   3.798   0.660
 8681SOL     OW26941   4.598   4.102   0.266
 8681SOL    HW126942   4.630   4.197   0.266
 8681SOL    HW226943   4.541   4.087   0.347
 8682SOL     OW26944   3.155   6.671   2.771
 8682SOL    HW126945   3.159   6.703   2.676
 8682SOL    HW226946   3.188   6.743   2.832
 8683SOL     OW26947   1.146   3.210   1.510
 8683SOL    HW126948   1.192   3.170   1.589
 8683SOL    HW226949   1.120   3.304   1.532
 8684SOL     OW26950   6.223   2.999   5.021
 8684SOL    HW126951   6.300   3.046   4.977
 8684SOL    HW226952   6.259   2.927   5.081
 8685SOL     OW26953   1.311   2.248   6.207
 8685SOL    HW126954   1.349   2.329   6.162
 8685SOL    HW226955   1.365   2.168   6.183
 8686SOL     OW26956   6.890   1.750   2.015
 8686SOL    HW126957   6.883   1.823   1.948
 8686SOL    HW226958   6.867   1.785   2.106
 8687SOL     OW26959   3.506   6.496   2.561
 8687SOL    HW126960   3.545   6.560   2.627
 8687SOL    HW226961   3.561   6.496   2.477
 8688SOL     OW26962   2.751   0.051   0.874
 8688SOL    HW126963   2.808   0.133   0.883
 8688SOL    HW226964   2.810   6.995   0.859
 8689SOL     OW26965   4.316   5.624   6.893
 8689SOL    HW126966   4.411   5.651   6.908
 8689SOL    HW226967   4.255   5.695   6.929
 8690SOL     OW26968   1.123   1.720   3.950
 8690SOL    HW126969   1.195   1.778   3.913
 8690SOL    HW226970   1.094   1.755   4.039
 8691SOL     OW26971   4.736   2.956   6.507
 8691SOL    HW126972   4.720   2.867   6.548
 8691SOL    HW226973   4.659   3.017   6.528
 8692SOL     OW26974   3.279   1.900   3.700
 8692SOL    HW126975   3.268   1.983   3.646
 8692SOL    HW226976   3.331   1.832   3.648
 8693SOL     OW26977   5.872   2.697   0.908
 8693SOL    HW126978   5.780   2.661   0.923
 8693SOL    HW226979   5.939   2.631   0.943
 8694SOL     OW26980   4.900   0.175   6.464
 8694SOL    HW126981   4.977   0.160   6.527
 8694SOL    HW226982   4.825   0.219   6.513
 8695SOL     OW26983   4.671   2.898   5.770
 8695SOL    HW126984   4.604   2.964   5.735
 8695SOL    HW226985   4.719   2.938   5.849
 8696SOL     OW26986   3.525   5.599   0.994
 8696SOL    HW126987   3.440   5.610   0.942
 8696SOL    HW226988   3.518   5.650   1.080
 8697SOL     OW26989   6.508   3.559   0.392
 8697SOL    HW126990   6.475   3.531   0.302
 8697SOL    HW226991   6.498   3.658   0.402
 8698SOL     OW26992   5.569   5.911   4.261
 8698SOL    HW126993   5.472   5.890   4.248
 8698SOL    HW226994   5.601   5.966   4.184
 8699SOL     OW26995   1.343   2.824   5.309
 8699SOL    HW126996   1.358   2.810   5.211
 8699SOL    HW226997   1.279   2.755   5.344
 8700SOL     OW26998   2.009   0.902   4.532
 8700SOL    HW126999   2.032   0.874   4.438
 8700SOL    HW227000   2.084   0.878   4.593
 8701SOL     OW27001   0.915   1.546   5.785
 8701SOL    HW127002   0.857   1.535   5.704
 8701SOL    HW227003   0.881   1.623   5.840
 8702SOL     OW27004   5.578   4.631   0.294
 8702SOL    HW127005   5.501   4.647   0.233
 8702SOL    HW227006   5.625   4.547   0.268
 8703SOL     OW27007   3.318   5.905   1.080
 8703SOL    HW127008   3.304   5.978   1.146
 8703SOL    HW227009   3.315   5.943   0.987
 8704SOL     OW27010   6.507   4.415   2.646
 8704SOL    HW127011   6.415   4.377   2.657
 8704SOL    HW227012   6.515   4.500   2.697
 8705SOL     OW27013   4.954   1.094   6.500
 8705SOL    HW127014   4.970   1.079   6.598
 8705SOL    HW227015   4.879   1.158   6.488
 8706SOL     OW27016   4.476   2.128   6.803
 8706SOL    HW127017   4.476   2.205   6.740
 8706SOL    HW227018   4.488   2.161   6.897
 8707SOL     OW27019   3.888   3.006   0.132
 8707SOL    HW127020   3.852   3.089   0.089
 8707SOL    HW227021   3.923   3.028   0.223
 8708SOL     OW27022   3.579   0.432   1.985
 8708SOL    HW127023   3.514   0.364   2.018
 8708SOL    HW227024   3.657   0.437   2.048
 8709SOL     OW27025   0.156   4.429   0.217
 8709SOL    HW127026   0.057   4.424   0.230
 8709SOL    HW227027   0.177   4.424   0.120
 8710SOL     OW27028   1.460   3.255   2.953
 8710SOL    HW127029   1.480   3.350   2.976
 8710SOL    HW227030   1.372   3.229   2.992
 8711SOL     OW27031   0.382   0.319   2.493
 8711SOL    HW127032   0.332   0.233   2.503
 8711SOL    HW227033   0.364   0.378   2.572
 8712SOL     OW27034   3.764   1.818   4.170
 8712SOL    HW127035   3.835   1.763   4.213
 8712SOL    HW227036   3.743   1.897   4.229
 8713SOL     OW27037   6.970   4.187   3.585
 8713SOL    HW127038   6.915   4.106   3.603
 8713SOL    HW227039   6.927   4.242   3.515
 8714SOL     OW27040   1.655   0.914   5.911
 8714SOL    HW127041   1.742   0.877   5.877
 8714SOL    HW227042   1.618   0.978   5.844
 8715SOL     OW27043   5.840   0.498   0.721
 8715SOL    HW127044   5.752   0.524   0.760
 8715SOL    HW227045   5.860   0.403   0.745
 8716SOL     OW27046   0.803   1.356   1.484
 8716SOL    HW127047   0.760   1.302   1.556
 8716SOL    HW227048   0.900   1.368   1.505
 8717SOL     OW27049   4.072   3.597   2.149
 8717SOL    HW127050   3.997   3.539   2.181
 8717SOL    HW227051   4.097   3.662   2.221
 8718SOL     OW27052   0.097   2.815   4.779
 8718SOL    HW127053   0.126   2.721   4.797
 8718SOL    HW227054   0.165   2.860   4.721
 8719SOL     OW27055   1.305   0.677   5.699
 8719SOL    HW127056   1.341   0.585   5.714
 8719SOL    HW227057   1.244   0.676   5.619
 8720SOL     OW27058   6.473   4.921   4.943
 8720SOL    HW127059   6.419   4.989   4.992
 8720SOL    HW227060   6.566   4.955   4.929
 8721SOL     OW27061   6.126   2.459   4.375
 8721SOL    HW127062   6.224   2.451   4.361
 8721SOL    HW227063   6.107   2.525   4.447
 8722SOL     OW27064   3.357   1.517   0.242
 8722SOL    HW127065   3.312   1.603   0.223
 8722SOL    HW227066   3.381   1.513   0.339
 8723SOL     OW27067   6.242   5.658   0.735
 8723SOL    HW127068   6.146   5.675   0.712
 8723SOL    HW227069   6.273   5.726   0.801
 8724SOL     OW27070   5.963   0.104   5.825
 8724SOL    HW127071   5.881   0.090   5.881
 8724SOL    HW227072   5.952   0.187   5.771
 8725SOL     OW27073   2.019   0.346   0.218
 8725SOL    HW127074   2.072   0.269   0.183
 8725SOL    HW227075   2.078   0.405   0.274
 8726SOL     OW27076   6.069   0.231   1.304
 8726SOL    HW127077   6.010   0.311   1.308
 8726SOL    HW227078   6.152   0.248   1.358
 8727SOL     OW27079   6.562   6.625   2.051
 8727SOL    HW127080   6.550   6.525   2.055
 8727SOL    HW227081   6.495   6.663   1.987
 8728SOL     OW27082   3.230   7.002   5.224
 8728SOL    HW127083   3.214   6.990   5.126
 8728SOL    HW227084   3.328   7.017   5.240
 8729SOL     OW27085   4.619   5.716   2.701
 8729SOL    HW127086   4.656   5.634   2.744
 8729SOL    HW227087   4.658   5.725   2.609
 8730SOL     OW27088   0.022   5.761   2.545
 8730SOL    HW127089   6.949   5.770   2.519
 8730SOL    HW227090   0.079   5.809   2.478
 8731SOL     OW27091   1.691   2.096   3.288
 8731SOL    HW127092   1.625   2.037   3.335
 8731SOL    HW227093   1.694   2.185   3.333
 8732SOL     OW27094   5.090   4.401   2.075
 8732SOL    HW127095   5.014   4.407   2.139
 8732SOL    HW227096   5.056   4.383   1.983
 8733SOL     OW27097   0.839   6.091   2.754
 8733SOL    HW127098   0.855   6.109   2.657
 8733SOL    HW227099   0.846   5.993   2.771
 8734SOL     OW27100   0.639   4.875   1.529
 8734SOL    HW127101   0.704   4.880   1.604
 8734SOL    HW227102   0.603   4.782   1.522
 8735SOL     OW27103   0.810   1.908   0.114
 8735SOL    HW127104   0.810   1.852   0.197
 8735SOL    HW227105   0.728   1.887   0.061
 8736SOL     OW27106   0.801   6.392   0.245
 8736SOL    HW127107   0.785   6.461   0.174
 8736SOL    HW227108   0.735   6.318   0.235
 8737SOL     OW27109   3.846   6.060   6.290
 8737SOL    HW127110   3.893   6.054   6.377
 8737SOL    HW227111   3.834   5.969   6.251
 8738SOL     OW27112   1.418   3.652   4.499
 8738SOL    HW127113   1.411   3.684   4.594
 8738SOL    HW227114   1.490   3.703   4.452
 8739SOL     OW27115   6.813   4.179   6.209
 8739SOL    HW127116   6.761   4.105   6.166
 8739SOL    HW227117   6.886   4.209   6.147
 8740SOL     OW27118   3.565   0.580   5.955
 8740SOL    HW127119   3.592   0.597   5.860
 8740SOL    HW227120   3.617   0.503   5.991
 8741SOL     OW27121   1.564   2.137   2.231
 8741SOL    HW127122   1.570   2.038   2.243
 8741SOL    HW227123   1.643   2.181   2.274
 8742SOL     OW27124   5.052   6.015   1.272
 8742SOL    HW127125   5.015   5.926   1.245
 8742SOL    HW227126   4.992   6.088   1.238
 8743SOL     OW27127   2.176   5.290   2.414
 8743SOL    HW127128   2.264   5.270   2.456
 8743SOL    HW227129   2.148   5.383   2.437
 8744SOL     OW27130   4.392   2.670   6.474
 8744SOL    HW127131   4.321   2.604   6.452
 8744SOL    HW227132   4.396   2.740   6.403
 8745SOL     OW27133   6.136   1.808   5.339
 8745SOL    HW127134   6.055   1.752   5.320
 8745SOL    HW227135   6.109   1.890   5.389
 8746SOL     OW27136   4.704   4.091   5.600
 8746SOL    HW127137   4.701   4.138   5.688
 8746SOL    HW227138   4.619   4.110   5.549
 8747SOL     OW27139   0.878   2.667   3.463
 8747SOL    HW127140   0.866   2.742   3.398
 8747SOL    HW227141   0.914   2.587   3.416
 8748SOL     OW27142   0.861   0.213   6.797
 8748SOL    HW127143   0.773   0.197   6.843
 8748SOL    HW227144   0.874   0.311   6.785
 8749SOL     OW27145   3.167   0.752   4.174
 8749SOL    HW127146   3.101   0.826   4.163
 8749SOL    HW227147   3.182   0.707   4.086
 8750SOL     OW27148   2.197   2.467   5.540
 8750SOL    HW127149   2.240   2.407   5.473
 8750SOL    HW227150   2.257   2.546   5.558
 8751SOL     OW27151   0.070   0.361   2.415
 8751SOL    HW127152   0.131   0.313   2.352
 8751SOL    HW227153   0.020   0.433   2.367
 8752SOL     OW27154   2.948   3.845   6.628
 8752SOL    HW127155   2.907   3.896   6.703
 8752SOL    HW227156   2.949   3.902   6.546
 8753SOL     OW27157   5.127   1.658   4.319
 8753SOL    HW127158   5.108   1.735   4.380
 8753SOL    HW227159   5.173   1.586   4.370
 8754SOL     OW27160   0.594   2.081   5.717
 8754SOL    HW127161   0.640   2.038   5.795
 8754SOL    HW227162   0.652   2.154   5.681
 8755SOL     OW27163   1.981   1.030   0.017
 8755SOL    HW127164   2.057   1.002   6.983
 8755SOL    HW227165   1.897   1.034   6.986
 8756SOL     OW27166   2.227   2.906   3.596
 8756SOL    HW127167   2.134   2.913   3.558
 8756SOL    HW227168   2.294   2.914   3.522
 8757SOL     OW27169   4.754   6.343   5.180
 8757SOL    HW127170   4.737   6.424   5.124
 8757SOL    HW227171   4.698   6.347   5.263
 8758SOL     OW27172   5.483   6.497   1.821
 8758SOL    HW127173   5.438   6.413   1.852
 8758SOL    HW227174   5.582   6.490   1.836
 8759SOL     OW27175   5.052   1.183   5.930
 8759SOL    HW127176   5.082   1.235   6.010
 8759SOL    HW227177   5.035   1.246   5.854
 8760SOL     OW27178   2.034   1.554   4.503
 8760SOL    HW127179   2.098   1.587   4.572
 8760SOL    HW227180   1.946   1.600   4.515
 8761SOL     OW27181   5.310   0.546   0.534
 8761SOL    HW127182   5.237   0.611   0.555
 8761SOL    HW227183   5.345   0.564   0.442
 8762SOL     OW27184   1.312   3.348   2.332
 8762SOL    HW127185   1.372   3.426   2.350
 8762SOL    HW227186   1.352   3.265   2.371
 8763SOL     OW27187   6.427   5.954   5.287
 8763SOL    HW127188   6.454   5.885   5.220
 8763SOL    HW227189   6.501   5.969   5.352
 8764SOL     OW27190   5.118   1.760   3.699
 8764SOL    HW127191   5.020   1.755   3.717
 8764SOL    HW227192   5.165   1.800   3.777
 8765SOL     OW27193   5.605   6.773   4.713
 8765SOL    HW127194   5.539   6.847   4.728
 8765SOL    HW227195   5.690   6.794   4.762
 8766SOL     OW27196   3.152   4.901   3.591
 8766SOL    HW127197   3.193   4.881   3.502
 8766SOL    HW227198   3.225   4.919   3.658
 8767SOL     OW27199   4.237   0.991   2.875
 8767SOL    HW127200   4.279   0.909   2.916
 8767SOL    HW227201   4.142   0.997   2.903
 8768SOL     OW27202   1.718   2.813   0.555
 8768SOL    HW127203   1.633   2.830   0.505
 8768SOL    HW227204   1.794   2.807   0.491
 8769SOL     OW27205   0.531   0.192   5.370
 8769SOL    HW127206   0.476   0.186   5.286
 8769SOL    HW227207   0.487   0.254   5.434
 8770SOL     OW27208   5.282   4.119   1.947
 8770SOL    HW127209   5.232   4.159   1.870
 8770SOL    HW227210   5.216   4.079   2.011
 8771SOL     OW27211   1.465   1.770   6.880
 8771SOL    HW127212   1.414   1.851   6.907
 8771SOL    HW227213   1.413   1.720   6.811
 8772SOL     OW27214   6.651   1.336   6.563
 8772SOL    HW127215   6.624   1.269   6.632
 8772SOL    HW227216   6.713   1.293   6.497
 8773SOL     OW27217   3.524   2.092   3.249
 8773SOL    HW127218   3.617   2.080   3.214
 8773SOL    HW227219   3.527   2.113   3.347
 8774SOL     OW27220   0.647   1.431   0.755
 8774SOL    HW127221   0.579   1.495   0.719
 8774SOL    HW227222   0.738   1.469   0.743
 8775SOL     OW27223   5.649   6.685   3.242
 8775SOL    HW127224   5.596   6.602   3.225
 8775SOL    HW227225   5.594   6.749   3.295
 8776SOL     OW27226   3.215   3.300   4.993
 8776SOL    HW127227   3.212   3.400   4.985
 8776SOL    HW227228   3.244   3.261   4.906
 8777SOL     OW27229   6.434   4.763   1.327
 8777SOL    HW127230   6.406   4.831   1.395
 8777SOL    HW227231   6.491   4.694   1.371
 8778SOL     OW27232   0.257   2.259   3.188
 8778SOL    HW127233   0.261   2.359   3.185
 8778SOL    HW227234   0.165   2.231   3.216
 8779SOL     OW27235   1.745   4.689   1.856
 8779SOL    HW127236   1.706   4.741   1.780
 8779SOL    HW227237   1.672   4.655   1.915
 8780SOL     OW27238   1.338   5.964   4.330
 8780SOL    HW127239   1.432   5.941   4.304
 8780SOL    HW227240   1.316   6.057   4.301
 8781SOL     OW27241   0.521   1.326   2.827
 8781SOL    HW127242   0.488   1.344   2.919
 8781SOL    HW227243   0.531   1.413   2.778
 8782SOL     OW27244   4.734   1.373   2.375
 8782SOL    HW127245   4.709   1.469   2.389
 8782SOL    HW227246   4.658   1.314   2.405
 8783SOL     OW27247   6.121   3.772   4.261
 8783SOL    HW127248   6.207   3.817   4.237
 8783SOL    HW227249   6.053   3.841   4.287
 8784SOL     OW27250   5.581   5.746   5.747
 8784SOL    HW127251   5.492   5.762   5.703
 8784SOL    HW227252   5.654   5.762   5.680
 8785SOL     OW27253   5.680   4.085   0.042
 8785SOL    HW127254   5.728   4.125   6.988
 8785SOL    HW227255   5.648   3.994   0.018
 8786SOL     OW27256   1.330   6.429   6.614
 8786SOL    HW127257   1.394   6.353   6.605
 8786SOL    HW227258   1.350   6.480   6.698
 8787SOL     OW27259   2.180   3.182   1.866
 8787SOL    HW127260   2.240   3.262   1.860
 8787SOL    HW227261   2.113   3.185   1.793
 8788SOL     OW27262   6.714   2.037   5.377
 8788SOL    HW127263   6.811   2.018   5.392
 8788SOL    HW227264   6.700   2.075   5.286
 8789SOL     OW27265   6.707   0.483   5.968
 8789SOL    HW127266   6.782   0.471   6.033
 8789SOL    HW227267   6.648   0.402   5.971
 8790SOL     OW27268   6.862   1.626   7.021
 8790SOL    HW127269   6.786   1.607   0.059
 8790SOL    HW227270   6.892   1.541   6.978
 8791SOL     OW27271   4.982   0.137   5.432
 8791SOL    HW127272   5.040   0.066   5.470
 8791SOL    HW227273   5.038   0.217   5.407
 8792SOL     OW27274   4.459   7.009   3.185
 8792SOL    HW127275   4.476   6.967   3.274
 8792SOL    HW227276   4.365   0.019   3.181
 8793SOL     OW27277   2.877   5.962   3.996
 8793SOL    HW127278   2.842   5.933   4.085
 8793SOL    HW227279   2.944   6.035   4.009
 8794SOL     OW27280   2.435   6.615   2.671
 8794SOL    HW127281   2.528   6.645   2.651
 8794SOL    HW227282   2.437   6.543   2.741
 8795SOL     OW27283   1.485   6.737   5.544
 8795SOL    HW127284   1.514   6.733   5.640
 8795SOL    HW227285   1.388   6.714   5.537
 8796SOL     OW27286   4.457   1.787   5.348
 8796SOL    HW127287   4.506   1.838   5.276
 8796SOL    HW227288   4.522   1.727   5.396
 8797SOL     OW27289   0.953   6.768   6.077
 8797SOL    HW127290   0.939   6.721   5.990
 8797SOL    HW227291   0.864   6.781   6.122
 8798SOL     OW27292   6.145   3.667   5.065
 8798SOL    HW127293   6.051   3.654   5.096
 8798SOL    HW227294   6.166   3.764   5.060
 8799SOL     OW27295   2.707   4.754   3.115
 8799SOL    HW127296   2.798   4.796   3.116
 8799SOL    HW227297   2.685   4.727   3.021
 8800SOL     OW27298   4.294   4.397   5.674
 8800SOL    HW127299   4.211   4.346   5.649
 8800SOL    HW227300   4.321   4.455   5.598
 8801SOL     OW27301   2.123   1.282   4.457
 8801SOL    HW127302   2.047   1.224   4.485
 8801SOL    HW227303   2.102   1.378   4.477
 8802SOL     OW27304   1.216   6.526   2.458
 8802SOL    HW127305   1.305   6.555   2.492
 8802SOL    HW227306   1.206   6.427   2.472
 8803SOL     OW27307   2.006   5.351   6.940
 8803SOL    HW127308   2.048   5.391   6.859
 8803SOL    HW227309   2.048   5.262   6.960
 8804SOL     OW27310   3.902   0.612   1.378
 8804SOL    HW127311   3.894   0.560   1.463
 8804SOL    HW227312   3.825   0.589   1.318
 8805SOL     OW27313   1.007   6.886   3.454
 8805SOL    HW127314   1.078   6.842   3.508
 8805SOL    HW227315   1.035   6.889   3.358
 8806SOL     OW27316   1.433   5.405   0.339
 8806SOL    HW127317   1.344   5.359   0.339
 8806SOL    HW227318   1.502   5.343   0.375
 8807SOL     OW27319   6.307   6.281   5.761
 8807SOL    HW127320   6.276   6.208   5.701
 8807SOL    HW227321   6.407   6.280   5.766
 8808SOL     OW27322   5.415   1.180   0.548
 8808SOL    HW127323   5.455   1.258   0.499
 8808SOL    HW227324   5.329   1.154   0.505
 8809SOL     OW27325   5.588   3.714   1.786
 8809SOL    HW127326   5.643   3.702   1.869
 8809SOL    HW227327   5.535   3.631   1.769
 8810SOL     OW27328   5.228   1.897   3.895
 8810SOL    HW127329   5.257   1.940   3.810
 8810SOL    HW227330   5.238   1.962   3.970
 8811SOL     OW27331   2.027   1.650   3.692
 8811SOL    HW127332   2.027   1.712   3.771
 8811SOL    HW227333   2.036   1.555   3.724
 8812SOL     OW27334   0.722   0.907   0.731
 8812SOL    HW127335   0.763   0.948   0.649
 8812SOL    HW227336   0.683   0.818   0.708
 8813SOL     OW27337   0.926   6.118   1.823
 8813SOL    HW127338   0.907   6.020   1.823
 8813SOL    HW227339   1.006   6.138   1.880
 8814SOL     OW27340   6.823   0.988   6.767
 8814SOL    HW127341   6.726   0.967   6.757
 8814SOL    HW227342   6.867   0.919   6.825
 8815SOL     OW27343   7.014   5.274   1.535
 8815SOL    HW127344   0.090   5.289   1.542
 8815SOL    HW227345   6.966   5.361   1.552
 8816SOL     OW27346   1.072   6.157   1.089
 8816SOL    HW127347   1.009   6.159   1.011
 8816SOL    HW227348   1.123   6.071   1.088
 8817SOL     OW27349   1.459   5.851   5.222
 8817SOL    HW127350   1.434   5.871   5.317
 8817SOL    HW227351   1.491   5.934   5.178
 8818SOL     OW27352   0.226   4.029   3.938
 8818SOL    HW127353   0.241   4.100   3.869
 8818SOL    HW227354   0.143   4.049   3.989
 8819SOL     OW27355   4.656   6.771   4.431
 8819SOL    HW127356   4.610   6.705   4.371
 8819SOL    HW227357   4.746   6.794   4.392
 8820SOL     OW27358   1.914   2.913   4.439
 8820SOL    HW127359   1.869   2.968   4.510
 8820SOL    HW227360   1.847   2.852   4.397
 8821SOL     OW27361   2.157   0.192   6.367
 8821SOL    HW127362   2.144   0.279   6.415
 8821SOL    HW227363   2.152   0.117   6.433
 8822SOL     OW27364   0.913   1.055   3.265
 8822SOL    HW127365   0.916   1.077   3.168
 8822SOL    HW227366   1.005   1.061   3.304
 8823SOL     OW27367   1.982   0.152   0.722
 8823SOL    HW127368   1.885   0.162   0.743
 8823SOL    HW227369   2.037   0.178   0.801
 8824SOL     OW27370   2.643   3.991   1.042
 8824SOL    HW127371   2.702   4.047   1.101
 8824SOL    HW227372   2.569   3.952   1.097
 8825SOL     OW27373   1.992   0.973   2.158
 8825SOL    HW127374   2.025   1.014   2.243
 8825SOL    HW227375   1.965   0.878   2.176
 8826SOL     OW27376   5.903   1.123   6.841
 8826SOL    HW127377   5.826   1.079   6.887
 8826SOL    HW227378   5.989   1.089   6.879
 8827SOL     OW27379   2.271   1.652   3.130
 8827SOL    HW127380   2.345   1.610   3.181
 8827SOL    HW227381   2.303   1.675   3.038
 8828SOL     OW27382   3.346   6.170   3.629
 8828SOL    HW127383   3.335   6.099   3.559
 8828SOL    HW227384   3.442   6.177   3.655
 8829SOL     OW27385   0.494   3.130   6.520
 8829SOL    HW127386   0.565   3.095   6.459
 8829SOL    HW227387   0.463   3.057   6.580
 8830SOL     OW27388   0.490   1.148   6.995
 8830SOL    HW127389   0.512   1.232   6.947
 8830SOL    HW227390   0.572   1.090   7.001
 8831SOL     OW27391   6.060   0.520   2.973
 8831SOL    HW127392   6.007   0.435   2.971
 8831SOL    HW227393   6.071   0.550   3.068
 8832SOL     OW27394   0.452   0.119   2.139
 8832SOL    HW127395   0.446   0.212   2.175
 8832SOL    HW227396   0.535   0.075   2.172
 8833SOL     OW27397   2.631   5.812   4.431
 8833SOL    HW127398   2.702   5.791   4.498
 8833SOL    HW227399   2.564   5.875   4.471
 8834SOL     OW27400   6.124   3.066   4.649
 8834SOL    HW127401   6.138   3.160   4.683
 8834SOL    HW227402   6.027   3.045   4.650
 8835SOL     OW27403   6.687   6.963   5.255
 8835SOL    HW127404   6.599   7.002   5.229
 8835SOL    HW227405   6.739   6.939   5.174
 8836SOL     OW27406   4.004   1.114   0.680
 8836SOL    HW127407   4.091   1.069   0.697
 8836SOL    HW227408   3.940   1.093   0.754
 8837SOL     OW27409   0.176   0.890   1.713
 8837SOL    HW127410   0.123   0.864   1.794
 8837SOL    HW227411   0.245   0.957   1.738
 8838SOL     OW27412   2.687   4.997   3.501
 8838SOL    HW127413   2.703   4.915   3.557
 8838SOL    HW227414   2.640   5.066   3.556
 8839SOL     OW27415   6.301   6.289   2.919
 8839SOL    HW127416   6.363   6.293   2.997
 8839SOL    HW227417   6.240   6.368   2.922
 8840SOL     OW27418   5.502   2.257   2.514
 8840SOL    HW127419   5.511   2.330   2.582
 8840SOL    HW227420   5.417   2.269   2.463
 8841SOL     OW27421   0.967   2.112   5.350
 8841SOL    HW127422   0.952   2.150   5.442
 8841SOL    HW227423   0.957   2.184   5.282
 8842SOL     OW27424   2.692   2.874   1.507
 8842SOL    HW127425   2.663   2.813   1.580
 8842SOL    HW227426   2.629   2.951   1.501
 8843SOL     OW27427   1.269   3.004   4.994
 8843SOL    HW127428   1.333   3.080   4.977
 8843SOL    HW227429   1.199   3.034   5.059
 8844SOL     OW27430   6.093   1.181   6.125
 8844SOL    HW127431   6.136   1.201   6.037
 8844SOL    HW227432   6.105   1.084   6.147
 8845SOL     OW27433   4.537   3.632   0.225
 8845SOL    HW127434   4.614   3.667   0.277
 8845SOL    HW227435   4.565   3.615   0.131
 8846SOL     OW27436   1.918   4.855   4.023
 8846SOL    HW127437   1.946   4.906   4.105
 8846SOL    HW227438   1.997   4.840   3.964
 8847SOL     OW27439   2.769   0.267   2.825
 8847SOL    HW127440   2.828   0.226   2.756
 8847SOL    HW227441   2.691   0.311   2.780
 8848SOL     OW27442   1.988   0.916   1.663
 8848SOL    HW127443   2.026   0.986   1.723
 8848SOL    HW227444   2.034   0.919   1.574
 8849SOL     OW27445   1.551   6.240   2.436
 8849SOL    HW127446   1.513   6.319   2.485
 8849SOL    HW227447   1.501   6.227   2.350
 8850SOL     OW27448   3.142   2.402   6.536
 8850SOL    HW127449   3.115   2.490   6.575
 8850SOL    HW227450   3.065   2.361   6.489
 8851SOL     OW27451   1.774   4.611   2.292
 8851SOL    HW127452   1.715   4.604   2.372
 8851SOL    HW227453   1.821   4.524   2.277
 8852SOL     OW27454   1.332   1.641   5.645
 8852SOL    HW127455   1.238   1.622   5.617
 8852SOL    HW227456   1.391   1.639   5.565
 8853SOL     OW27457   3.304   0.994   1.140
 8853SOL    HW127458   3.213   0.983   1.100
 8853SOL    HW227459   3.300   1.063   1.213
 8854SOL     OW27460   1.491   3.267   4.822
 8854SOL    HW127461   1.415   3.318   4.863
 8854SOL    HW227462   1.534   3.210   4.891
 8855SOL     OW27463   5.902   4.999   1.464
 8855SOL    HW127464   5.922   5.066   1.535
 8855SOL    HW227465   5.806   5.007   1.437
 8856SOL     OW27466   0.208   5.400   6.359
 8856SOL    HW127467   0.114   5.372   6.378
 8856SOL    HW227468   0.271   5.330   6.391
 8857SOL     OW27469   6.430   1.415   5.413
 8857SOL    HW127470   6.466   1.481   5.479
 8857SOL    HW227471   6.417   1.460   5.325
 8858SOL     OW27472   6.193   4.775   5.390
 8858SOL    HW127473   6.227   4.868   5.375
 8858SOL    HW227474   6.241   4.735   5.469
 8859SOL     OW27475   0.763   0.899   3.448
 8859SOL    HW127476   0.664   0.896   3.458
 8859SOL    HW227477   0.788   0.973   3.385
 8860SOL     OW27478   6.526   2.590   1.526
 8860SOL    HW127479   6.615   2.631   1.503
 8860SOL    HW227480   6.539   2.520   1.597
 8861SOL     OW27481   4.076   1.636   1.385
 8861SOL    HW127482   4.046   1.545   1.354
 8861SOL    HW227483   4.002   1.702   1.372
 8862SOL     OW27484   4.511   5.610   5.323
 8862SOL    HW127485   4.556   5.520   5.317
 8862SOL    HW227486   4.540   5.656   5.406
 8863SOL     OW27487   2.183   4.341   3.641
 8863SOL    HW127488   2.228   4.277   3.579
 8863SOL    HW227489   2.159   4.424   3.591
 8864SOL     OW27490   5.316   2.162   6.525
 8864SOL    HW127491   5.364   2.176   6.611
 8864SOL    HW227492   5.320   2.065   6.500
 8865SOL     OW27493   2.652   1.830   6.533
 8865SOL    HW127494   2.647   1.734   6.559
 8865SOL    HW227495   2.564   1.860   6.496
 8866SOL     OW27496   5.702   6.070   2.032
 8866SOL    HW127497   5.606   6.061   2.056
 8866SOL    HW227498   5.721   6.165   2.007
 8867SOL     OW27499   6.384   3.501   2.798
 8867SOL    HW127500   6.286   3.501   2.817
 8867SOL    HW227501   6.400   3.534   2.705
 8868SOL     OW27502   0.009   3.629   3.315
 8868SOL    HW127503   6.951   3.657   3.265
 8868SOL    HW227504   0.090   3.645   3.258
 8869SOL     OW27505   3.600   5.980   3.733
 8869SOL    HW127506   3.615   5.906   3.798
 8869SOL    HW227507   3.684   5.995   3.680
 8870SOL     OW27508   1.877   0.188   2.011
 8870SOL    HW127509   1.834   0.216   2.097
 8870SOL    HW227510   1.879   0.266   1.948
 8871SOL     OW27511   1.349   0.649   2.654
 8871SOL    HW127512   1.366   0.718   2.725
 8871SOL    HW227513   1.310   0.567   2.696
 8872SOL     OW27514   0.503   4.319   5.386
 8872SOL    HW127515   0.571   4.366   5.330
 8872SOL    HW227516   0.415   4.320   5.339
 8873SOL     OW27517   1.414   0.574   2.016
 8873SOL    HW127518   1.497   0.587   2.070
 8873SOL    HW227519   1.438   0.527   1.930
 8874SOL     OW27520   2.083   5.581   0.453
 8874SOL    HW127521   2.106   5.521   0.377
 8874SOL    HW227522   2.168   5.619   0.492
 8875SOL     OW27523   0.280   2.931   3.492
 8875SOL    HW127524   0.332   3.002   3.442
 8875SOL    HW227525   0.328   2.908   3.576
 8876SOL     OW27526   3.720   0.417   6.105
 8876SOL    HW127527   3.762   0.339   6.059
 8876SOL    HW227528   3.791   0.482   6.131
 8877SOL     OW27529   1.800   3.732   1.338
 8877SOL    HW127530   1.886   3.694   1.374
 8877SOL    HW227531   1.803   3.832   1.345
 8878SOL     OW27532   4.059   4.884   0.626
 8878SOL    HW127533   4.005   4.893   0.542
 8878SOL    HW227534   4.000   4.853   0.701
 8879SOL     OW27535   6.268   4.569   3.192
 8879SOL    HW127536   6.288   4.653   3.241
 8879SOL    HW227537   6.296   4.490   3.247
 8880SOL     OW27538   4.809   6.582   3.766
 8880SOL    HW127539   4.869   6.660   3.745
 8880SOL    HW227540   4.731   6.613   3.819
 8881SOL     OW27541   3.877   5.001   4.250
 8881SOL    HW127542   3.875   5.071   4.321
 8881SOL    HW227543   3.935   4.925   4.279
 8882SOL     OW27544   3.822   0.620   0.973
 8882SOL    HW127545   3.892   0.555   0.944
 8882SOL    HW227546   3.733   0.576   0.973
 8883SOL     OW27547   0.283   5.982   5.375
 8883SOL    HW127548   0.372   6.008   5.413
 8883SOL    HW227549   0.223   6.062   5.373
 8884SOL     OW27550   5.501   3.689   4.939
 8884SOL    HW127551   5.478   3.624   5.012
 8884SOL    HW227552   5.553   3.643   4.868
 8885SOL     OW27553   5.725   5.323   0.447
 8885SOL    HW127554   5.802   5.261   0.460
 8885SOL    HW227555   5.723   5.354   0.352
 8886SOL     OW27556   2.814   6.002   0.124
 8886SOL    HW127557   2.840   6.008   0.028
 8886SOL    HW227558   2.715   6.014   0.133
 8887SOL     OW27559   4.635   1.762   0.915
 8887SOL    HW127560   4.620   1.807   1.004
 8887SOL    HW227561   4.565   1.692   0.902
 8888SOL     OW27562   1.923   1.942   3.410
 8888SOL    HW127563   1.996   1.901   3.355
 8888SOL    HW227564   1.837   1.895   3.392
 8889SOL     OW27565   6.945   6.620   6.431
 8889SOL    HW127566   6.952   6.672   6.345
 8889SOL    HW227567   6.987   6.531   6.419
 8890SOL     OW27568   0.131   0.020   6.927
 8890SOL    HW127569   0.177   7.018   7.012
 8890SOL    HW227570   0.153   6.975   6.857
 8891SOL     OW27571   5.946   4.670   6.708
 8891SOL    HW127572   5.927   4.617   6.791
 8891SOL    HW227573   5.932   4.611   6.628
 8892SOL     OW27574   3.336   5.118   3.508
 8892SOL    HW127575   3.333   5.215   3.484
 8892SOL    HW227576   3.278   5.066   3.445
 8893SOL     OW27577   1.178   5.328   4.792
 8893SOL    HW127578   1.190   5.407   4.852
 8893SOL    HW227579   1.084   5.296   4.798
 8894SOL     OW27580   4.004   2.592   0.460
 8894SOL    HW127581   3.981   2.623   0.368
 8894SOL    HW227582   4.082   2.529   0.456
 8895SOL     OW27583   0.743   3.723   0.944
 8895SOL    HW127584   0.717   3.687   1.034
 8895SOL    HW227585   0.661   3.739   0.889
 8896SOL     OW27586   0.284   2.246   4.071
 8896SOL    HW127587   0.364   2.265   4.129
 8896SOL    HW227588   0.200   2.258   4.124
 8897SOL     OW27589   2.002   3.928   3.886
 8897SOL    HW127590   2.023   3.988   3.808
 8897SOL    HW227591   1.939   3.975   3.948
 8898SOL     OW27592   4.913   3.614   2.785
 8898SOL    HW127593   4.845   3.612   2.711
 8898SOL    HW227594   5.005   3.618   2.746
 8899SOL     OW27595   7.010   3.894   6.078
 8899SOL    HW127596   0.000   3.933   6.169
 8899SOL    HW227597   6.919   3.853   6.073
 8900SOL     OW27598   5.789   2.516   3.870
 8900SOL    HW127599   5.700   2.560   3.863
 8900SOL    HW227600   5.828   2.532   3.961
 8901SOL     OW27601   1.151   2.091   4.011
 8901SOL    HW127602   1.070   2.150   4.020
 8901SOL    HW227603   1.197   2.110   3.925
 8902SOL     OW27604   1.124   4.533   6.913
 8902SOL    HW127605   1.170   4.445   6.924
 8902SOL    HW227606   1.131   4.563   6.818
 8903SOL     OW27607   1.561   1.069   4.809
 8903SOL    HW127608   1.484   1.049   4.749
 8903SOL    HW227609   1.592   1.163   4.793
 8904SOL     OW27610   0.850   1.070   2.973
 8904SOL    HW127611   0.827   1.123   2.891
 8904SOL    HW227612   0.862   0.974   2.948
 8905SOL     OW27613   1.333   3.404   2.064
 8905SOL    HW127614   1.311   3.348   2.144
 8905SOL    HW227615   1.430   3.425   2.064
 8906SOL     OW27616   6.913   0.021   0.528
 8906SOL    HW127617   6.940   0.115   0.507
 8906SOL    HW227618   6.869   0.018   0.617
 8907SOL     OW27619   3.536   3.047   5.055
 8907SOL    HW127620   3.508   3.117   5.121
 8907SOL    HW227621   3.464   2.980   5.044
 8908SOL     OW27622   1.293   5.987   0.695
 8908SOL    HW127623   1.285   5.910   0.759
 8908SOL    HW227624   1.342   5.957   0.614
 8909SOL     OW27625   2.679   1.187   6.652
 8909SOL    HW127626   2.751   1.256   6.653
 8909SOL    HW227627   2.605   1.216   6.713
 8910SOL     OW27628   1.385   2.655   4.606
 8910SOL    HW127629   1.474   2.629   4.644
 8910SOL    HW227630   1.361   2.595   4.530
 8911SOL     OW27631   4.778   2.019   4.035
 8911SOL    HW127632   4.739   1.929   4.055
 8911SOL    HW227633   4.704   2.084   4.015
 8912SOL     OW27634   3.835   3.831   5.103
 8912SOL    HW127635   3.914   3.784   5.142
 8912SOL    HW227636   3.865   3.916   5.059
 8913SOL     OW27637   5.267   5.860   6.797
 8913SOL    HW127638   5.300   5.854   6.891
 8913SOL    HW227639   5.287   5.775   6.748
 8914SOL     OW27640   5.223   6.219   5.544
 8914SOL    HW127641   5.164   6.167   5.483
 8914SOL    HW227642   5.319   6.198   5.526
 8915SOL     OW27643   0.570   1.438   3.557
 8915SOL    HW127644   0.494   1.390   3.513
 8915SOL    HW227645   0.548   1.451   3.654
 8916SOL     OW27646   5.162   1.449   6.970
 8916SOL    HW127647   5.246   1.503   6.974
 8916SOL    HW227648   5.185   1.352   6.962
 8917SOL     OW27649   5.874   1.678   0.422
 8917SOL    HW127650   5.959   1.729   0.410
 8917SOL    HW227651   5.893   1.591   0.466
 8918SOL     OW27652   1.441   5.047   1.479
 8918SOL    HW127653   1.381   5.093   1.413
 8918SOL    HW227654   1.410   5.067   1.572
 8919SOL     OW27655   5.752   4.172   6.828
 8919SOL    HW127656   5.752   4.102   6.757
 8919SOL    HW227657   5.720   4.258   6.789
 8920SOL     OW27658   0.092   1.281   6.658
 8920SOL    HW127659   0.075   1.336   6.575
 8920SOL    HW227660   0.189   1.286   6.681
 8921SOL     OW27661   1.639   2.823   0.972
 8921SOL    HW127662   1.599   2.769   1.047
 8921SOL    HW227663   1.662   2.763   0.896
 8922SOL     OW27664   3.757   0.404   3.581
 8922SOL    HW127665   3.801   0.383   3.494
 8922SOL    HW227666   3.821   0.389   3.656
 8923SOL     OW27667   2.157   1.978   5.884
 8923SOL    HW127668   2.079   1.992   5.823
 8923SOL    HW227669   2.125   1.941   5.971
 8924SOL     OW27670   5.309   4.906   4.852
 8924SOL    HW127671   5.242   4.944   4.789
 8924SOL    HW227672   5.270   4.828   4.901
 8925SOL     OW27673   0.930   0.803   2.942
 8925SOL    HW127674   1.027   0.791   2.961
 8925SOL    HW227675   0.891   0.716   2.911
 8926SOL     OW27676   6.745   4.037   5.520
 8926SOL    HW127677   6.831   3.996   5.548
 8926SOL    HW227678   6.742   4.046   5.420
 8927SOL     OW27679   6.668   2.097   5.970
 8927SOL    HW127680   6.621   2.096   6.058
 8927SOL    HW227681   6.731   2.020   5.966
 8928SOL     OW27682   2.312   6.842   5.286
 8928SOL    HW127683   2.368   6.919   5.315
 8928SOL    HW227684   2.215   6.867   5.289
 8929SOL     OW27685   6.745   2.189   5.128
 8929SOL    HW127686   6.653   2.214   5.100
 8929SOL    HW227687   6.782   2.120   5.066
 8930SOL     OW27688   1.452   3.900   3.431
 8930SOL    HW127689   1.410   3.817   3.467
 8930SOL    HW227690   1.388   3.944   3.367
 8931SOL     OW27691   3.569   2.862   1.617
 8931SOL    HW127692   3.614   2.795   1.675
 8931SOL    HW227693   3.469   2.851   1.624
 8932SOL     OW27694   6.898   2.283   2.982
 8932SOL    HW127695   6.970   2.300   2.915
 8932SOL    HW227696   6.927   2.318   3.072
 8933SOL     OW27697   3.529   2.014   6.225
 8933SOL    HW127698   3.523   2.066   6.139
 8933SOL    HW227699   3.514   2.075   6.302
 8934SOL     OW27700   3.862   5.583   3.778
 8934SOL    HW127701   3.895   5.558   3.870
 8934SOL    HW227702   3.939   5.614   3.723
 8935SOL     OW27703   6.958   5.180   0.824
 8935SOL    HW127704   6.920   5.131   0.903
 8935SOL    HW227705   6.889   5.183   0.752
 8936SOL     OW27706   2.010   3.502   0.347
 8936SOL    HW127707   2.057   3.503   0.436
 8936SOL    HW227708   1.946   3.578   0.342
 8937SOL     OW27709   0.005   6.480   5.340
 8937SOL    HW127710   6.944   6.465   5.391
 8937SOL    HW227711   0.051   6.561   5.375
 8938SOL     OW27712   6.283   5.109   1.563
 8938SOL    HW127713   6.282   5.011   1.586
 8938SOL    HW227714   6.278   5.120   1.464
 8939SOL     OW27715   5.248   2.246   4.519
 8939SOL    HW127716   5.291   2.260   4.608
 8939SOL    HW227717   5.238   2.333   4.472
 8940SOL     OW27718   6.445   0.614   3.961
 8940SOL    HW127719   6.363   0.644   4.009
 8940SOL    HW227720   6.460   0.673   3.881
 8941SOL     OW27721   5.640   1.994   5.788
 8941SOL    HW127722   5.615   1.957   5.878
 8941SOL    HW227723   5.572   1.965   5.721
 8942SOL     OW27724   0.505   2.791   5.184
 8942SOL    HW127725   0.506   2.783   5.283
 8942SOL    HW227726   0.542   2.707   5.143
 8943SOL     OW27727   4.788   3.560   1.160
 8943SOL    HW127728   4.704   3.541   1.211
 8943SOL    HW227729   4.812   3.656   1.170
 8944SOL     OW27730   5.362   5.598   0.140
 8944SOL    HW127731   5.410   5.624   0.224
 8944SOL    HW227732   5.300   5.671   0.113
 8945SOL     OW27733   2.708   0.633   5.078
 8945SOL    HW127734   2.651   0.562   5.037
 8945SOL    HW227735   2.699   0.630   5.178
 8946SOL     OW27736   3.408   1.652   5.302
 8946SOL    HW127737   3.478   1.627   5.235
 8946SOL    HW227738   3.317   1.639   5.261
 8947SOL     OW27739   3.465   3.537   5.629
 8947SOL    HW127740   3.375   3.551   5.587
 8947SOL    HW227741   3.454   3.503   5.722
 8948SOL     OW27742   5.385   4.798   3.314
 8948SOL    HW127743   5.385   4.718   3.375
 8948SOL    HW227744   5.429   4.875   3.360
 8949SOL     OW27745   1.635   6.553   6.886
 8949SOL    HW127746   1.639   6.490   6.963
 8949SOL    HW227747   1.642   6.647   6.920
 8950SOL     OW27748   4.978   2.945   5.228
 8950SOL    HW127749   5.058   2.941   5.168
 8950SOL    HW227750   4.904   2.994   5.182
 8951SOL     OW27751   1.781   2.806   5.496
 8951SOL    HW127752   1.870   2.760   5.489
 8951SOL    HW227753   1.795   2.905   5.502
 8952SOL     OW27754   1.405   1.248   3.200
 8952SOL    HW127755   1.365   1.334   3.167
 8952SOL    HW227756   1.500   1.243   3.171
 8953SOL     OW27757   1.795   3.332   7.002
 8953SOL    HW127758   1.846   3.386   6.935
 8953SOL    HW227759   1.856   3.261   0.016
 8954SOL     OW27760   0.908   5.976   6.342
 8954SOL    HW127761   0.942   5.980   6.248
 8954SOL    HW227762   0.903   5.881   6.372
 8955SOL     OW27763   6.945   4.627   3.656
 8955SOL    HW127764   6.902   4.717   3.654
 8955SOL    HW227765   0.019   4.637   3.676
 8956SOL     OW27766   0.889   1.132   6.070
 8956SOL    HW127767   0.901   1.153   5.973
 8956SOL    HW227768   0.825   1.056   6.080
 8957SOL     OW27769   2.693   4.665   1.719
 8957SOL    HW127770   2.721   4.671   1.815
 8957SOL    HW227771   2.771   4.636   1.664
 8958SOL     OW27772   0.853   0.189   4.127
 8958SOL    HW127773   0.797   0.120   4.173
 8958SOL    HW227774   0.922   0.144   4.070
 8959SOL     OW27775   1.326   5.115   0.771
 8959SOL    HW127776   1.292   5.025   0.742
 8959SOL    HW227777   1.348   5.112   0.869
 8960SOL     OW27778   4.373   5.713   2.398
 8960SOL    HW127779   4.379   5.723   2.497
 8960SOL    HW227780   4.289   5.665   2.374
 8961SOL     OW27781   0.992   1.514   4.228
 8961SOL    HW127782   0.997   1.614   4.221
 8961SOL    HW227783   1.082   1.477   4.249
 8962SOL     OW27784   5.595   0.246   2.708
 8962SOL    HW127785   5.649   0.185   2.766
 8962SOL    HW227786   5.647   0.269   2.626
 8963SOL     OW27787   5.273   0.062   4.400
 8963SOL    HW127788   5.235   0.030   4.313
 8963SOL    HW227789   5.349   0.124   4.383
 8964SOL     OW27790   5.073   4.924   2.075
 8964SOL    HW127791   5.107   4.830   2.067
 8964SOL    HW227792   4.991   4.925   2.132
 8965SOL     OW27793   1.420   5.435   1.421
 8965SOL    HW127794   1.342   5.445   1.483
 8965SOL    HW227795   1.426   5.340   1.390
 8966SOL     OW27796   1.538   2.739   5.997
 8966SOL    HW127797   1.573   2.715   6.088
 8966SOL    HW227798   1.454   2.688   5.979
 8967SOL     OW27799   3.696   6.898   1.435
 8967SOL    HW127800   3.623   6.949   1.480
 8967SOL    HW227801   3.657   6.830   1.373
 8968SOL     OW27802   5.339   5.834   1.693
 8968SOL    HW127803   5.378   5.919   1.728
 8968SOL    HW227804   5.315   5.845   1.597
 8969SOL     OW27805   5.969   0.592   3.218
 8969SOL    HW127806   5.975   0.656   3.295
 8969SOL    HW227807   5.973   0.498   3.252
 8970SOL     OW27808   3.469   2.337   0.879
 8970SOL    HW127809   3.397   2.399   0.846
 8970SOL    HW227810   3.522   2.303   0.801
 8971SOL     OW27811   3.588   6.058   2.458
 8971SOL    HW127812   3.551   5.999   2.386
 8971SOL    HW227813   3.687   6.067   2.446
 8972SOL     OW27814   5.054   6.267   6.218
 8972SOL    HW127815   5.104   6.200   6.272
 8972SOL    HW227816   5.100   6.280   6.130
 8973SOL     OW27817   1.291   4.633   1.043
 8973SOL    HW127818   1.381   4.594   1.023
 8973SOL    HW227819   1.223   4.591   0.983
 8974SOL     OW27820   1.342   4.335   6.783
 8974SOL    HW127821   1.335   4.237   6.799
 8974SOL    HW227822   1.320   4.356   6.688
 8975SOL     OW27823   2.760   0.271   0.483
 8975SOL    HW127824   2.756   0.331   0.404
 8975SOL    HW227825   2.719   0.183   0.460
 8976SOL     OW27826   1.379   5.417   4.620
 8976SOL    HW127827   1.283   5.393   4.638
 8976SOL    HW227828   1.435   5.335   4.630
 8977SOL     OW27829   6.266   1.135   5.586
 8977SOL    HW127830   6.343   1.138   5.522
 8977SOL    HW227831   6.189   1.185   5.547
 8978SOL     OW27832   5.612   5.994   0.111
 8978SOL    HW127833   5.569   6.084   0.113
 8978SOL    HW227834   5.679   5.991   0.036
 8979SOL     OW27835   1.882   4.062   4.887
 8979SOL    HW127836   1.863   4.003   4.966
 8979SOL    HW227837   1.976   4.095   4.892
 8980SOL     OW27838   3.243   3.565   5.443
 8980SOL    HW127839   3.237   3.619   5.359
 8980SOL    HW227840   3.202   3.475   5.428
 8981SOL     OW27841   3.787   1.518   5.508
 8981SOL    HW127842   3.784   1.419   5.518
 8981SOL    HW227843   3.805   1.542   5.413
 8982SOL     OW27844   2.127   3.553   0.066
 8982SOL    HW127845   2.163   3.646   0.058
 8982SOL    HW227846   2.107   3.534   0.162
 8983SOL     OW27847   3.927   6.046   6.923
 8983SOL    HW127848   3.850   6.091   6.878
 8983SOL    HW227849   3.910   5.948   6.929
 8984SOL     OW27850   2.407   6.007   3.055
 8984SOL    HW127851   2.480   5.938   3.053
 8984SOL    HW227852   2.448   6.097   3.071
 8985SOL     OW27853   3.253   2.771   0.221
 8985SOL    HW127854   3.197   2.701   0.176
 8985SOL    HW227855   3.198   2.853   0.235
 8986SOL     OW27856   3.243   4.931   3.035
 8986SOL    HW127857   3.175   4.975   2.977
 8986SOL    HW227858   3.296   4.865   2.981
 8987SOL     OW27859   5.207   6.155   3.049
 8987SOL    HW127860   5.202   6.055   3.052
 8987SOL    HW227861   5.146   6.189   2.978
 8988SOL     OW27862   0.385   6.020   3.534
 8988SOL    HW127863   0.453   6.083   3.572
 8988SOL    HW227864   0.312   6.073   3.489
 8989SOL     OW27865   4.905   3.304   6.264
 8989SOL    HW127866   4.906   3.248   6.347
 8989SOL    HW227867   4.989   3.290   6.213
 8990SOL     OW27868   0.868   5.398   3.638
 8990SOL    HW127869   0.861   5.365   3.732
 8990SOL    HW227870   0.786   5.449   3.614
 8991SOL     OW27871   1.531   3.082   4.580
 8991SOL    HW127872   1.630   3.085   4.565
 8991SOL    HW227873   1.509   3.133   4.663
 8992SOL     OW27874   5.253   1.537   0.582
 8992SOL    HW127875   5.257   1.605   0.655
 8992SOL    HW227876   5.345   1.525   0.543
 8993SOL     OW27877   4.286   3.516   6.553
 8993SOL    HW127878   4.206   3.478   6.506
 8993SOL    HW227879   4.348   3.556   6.485
 8994SOL     OW27880   2.235   4.698   4.473
 8994SOL    HW127881   2.330   4.666   4.482
 8994SOL    HW227882   2.175   4.619   4.463
 8995SOL     OW27883   6.239   1.578   1.348
 8995SOL    HW127884   6.150   1.583   1.302
 8995SOL    HW227885   6.250   1.657   1.407
 8996SOL     OW27886   5.659   3.748   6.554
 8996SOL    HW127887   5.696   3.834   6.590
 8996SOL    HW227888   5.560   3.756   6.543
 8997SOL     OW27889   4.751   1.237   5.875
 8997SOL    HW127890   4.826   1.216   5.937
 8997SOL    HW227891   4.664   1.224   5.922
 8998SOL     OW27892   6.050   3.822   3.927
 8998SOL    HW127893   6.109   3.872   3.991
 8998SOL    HW227894   6.093   3.734   3.905
 8999SOL     OW27895   4.739   6.962   6.100
 8999SOL    HW127896   4.722   6.881   6.044
 8999SOL    HW227897   4.653   6.994   6.141
 9000SOL     OW27898   1.502   3.296   1.660
 9000SOL    HW127899   1.410   3.332   1.674
 9000SOL    HW227900   1.569   3.369   1.671
 9001SOL     OW27901   0.181   4.755   1.740
 9001SOL    HW127902   0.141   4.828   1.796
 9001SOL    HW227903   0.124   4.673   1.747
 9002SOL     OW27904   1.378   4.700   5.386
 9002SOL    HW127905   1.352   4.745   5.300
 9002SOL    HW227906   1.307   4.634   5.411
 9003SOL     OW27907   5.239   3.199   1.614
 9003SOL    HW127908   5.261   3.154   1.700
 9003SOL    HW227909   5.184   3.138   1.557
 9004SOL     OW27910   4.495   4.884   0.973
 9004SOL    HW127911   4.444   4.814   0.924
 9004SOL    HW227912   4.526   4.848   1.061
 9005SOL     OW27913   5.750   1.424   5.963
 9005SOL    HW127914   5.821   1.480   5.921
 9005SOL    HW227915   5.763   1.422   6.062
 9006SOL     OW27916   2.910   6.547   0.923
 9006SOL    HW127917   2.856   6.629   0.909
 9006SOL    HW227918   2.938   6.509   0.835
 9007SOL     OW27919   2.368   1.198   2.083
 9007SOL    HW127920   2.358   1.099   2.091
 9007SOL    HW227921   2.295   1.234   2.025
 9008SOL     OW27922   0.176   4.887   3.240
 9008SOL    HW127923   0.163   4.790   3.218
 9008SOL    HW227924   0.159   4.942   3.158
 9009SOL     OW27925   3.498   5.130   0.912
 9009SOL    HW127926   3.461   5.185   0.988
 9009SOL    HW227927   3.598   5.135   0.913
 9010SOL     OW27928   2.332   6.595   4.490
 9010SOL    HW127929   2.235   6.593   4.463
 9010SOL    HW227930   2.341   6.643   4.577
 9011SOL     OW27931   3.690   1.064   2.043
 9011SOL    HW127932   3.713   1.133   2.110
 9011SOL    HW227933   3.751   1.071   1.964
 9012SOL     OW27934   2.048   5.854   0.215
 9012SOL    HW127935   2.110   5.933   0.214
 9012SOL    HW227936   2.072   5.794   0.291
 9013SOL     OW27937   0.838   0.589   4.637
 9013SOL    HW127938   0.806   0.504   4.595
 9013SOL    HW227939   0.923   0.571   4.687
 9014SOL     OW27940   6.092   2.813   1.386
 9014SOL    HW127941   6.023   2.874   1.346
 9014SOL    HW227942   6.158   2.867   1.438
 9015SOL     OW27943   4.932   2.618   1.212
 9015SOL    HW127944   4.935   2.587   1.117
 9015SOL    HW227945   4.912   2.540   1.272
 9016SOL     OW27946   5.546   5.017   6.411
 9016SOL    HW127947   5.559   5.051   6.504
 9016SOL    HW227948   5.590   5.080   6.347
 9017SOL     OW27949   4.020   1.140   4.817
 9017SOL    HW127950   4.046   1.117   4.910
 9017SOL    HW227951   3.988   1.058   4.770
 9018SOL     OW27952   3.829   3.738   6.360
 9018SOL    HW127953   3.734   3.707   6.364
 9018SOL    HW227954   3.832   3.838   6.357
 9019SOL     OW27955   1.173   4.262   2.876
 9019SOL    HW127956   1.228   4.179   2.871
 9019SOL    HW227957   1.230   4.338   2.909
 9020SOL     OW27958   6.793   4.354   1.228
 9020SOL    HW127959   6.829   4.428   1.171
 9020SOL    HW227960   6.698   4.373   1.252
 9021SOL     OW27961   0.027   0.791   3.841
 9021SOL    HW127962   0.035   0.819   3.937
 9021SOL    HW227963   0.100   0.833   3.787
 9022SOL     OW27964   3.503   2.081   0.068
 9022SOL    HW127965   3.429   2.044   0.012
 9022SOL    HW227966   3.558   2.143   0.013
 9023SOL     OW27967   3.988   3.215   1.341
 9023SOL    HW127968   4.088   3.222   1.339
 9023SOL    HW227969   3.949   3.297   1.299
 9024SOL     OW27970   0.795   4.675   5.403
 9024SOL    HW127971   0.789   4.763   5.355
 9024SOL    HW227972   0.888   4.662   5.438
 9025SOL     OW27973   6.753   5.851   0.642
 9025SOL    HW127974   6.807   5.766   0.645
 9025SOL    HW227975   6.815   5.929   0.640
 9026SOL     OW27976   2.996   1.951   0.499
 9026SOL    HW127977   3.091   1.923   0.486
 9026SOL    HW227978   2.987   2.049   0.485
 9027SOL     OW27979   1.098   4.004   4.054
 9027SOL    HW127980   1.170   4.041   3.995
 9027SOL    HW227981   1.097   4.053   4.141
 9028SOL     OW27982   3.953   2.751   5.313
 9028SOL    HW127983   3.990   2.661   5.288
 9028SOL    HW227984   4.024   2.820   5.301
 9029SOL     OW27985   4.252   0.644   4.955
 9029SOL    HW127986   4.256   0.620   4.858
 9029SOL    HW227987   4.339   0.622   4.999
 9030SOL     OW27988   2.160   2.517   4.091
 9030SOL    HW127989   2.112   2.455   4.154
 9030SOL    HW227990   2.255   2.527   4.122
 9031SOL     OW27991   4.268   0.186   4.626
 9031SOL    HW127992   4.258   0.107   4.566
 9031SOL    HW227993   4.267   0.156   4.722
 9032SOL     OW27994   4.458   4.144   1.053
 9032SOL    HW127995   4.467   4.219   1.118
 9032SOL    HW227996   4.547   4.126   1.010
 9033SOL     OW27997   0.610   4.608   2.880
 9033SOL    HW127998   0.516   4.578   2.869
 9033SOL    HW227999   0.612   4.695   2.931
 9034SOL     OW28000   3.650   6.178   4.604
 9034SOL    HW128001   3.676   6.086   4.575
 9034SOL    HW228002   3.724   6.242   4.581
 9035SOL     OW28003   1.642   6.163   6.980
 9035SOL    HW128004   1.733   6.165   6.940
 9035SOL    HW228005   1.612   6.256   7.002
 9036SOL     OW28006   1.552   3.926   5.595
 9036SOL    HW128007   1.512   3.848   5.546
 9036SOL    HW228008   1.644   3.902   5.626
 9037SOL     OW28009   1.091   2.964   4.382
 9037SOL    HW128010   1.174   2.962   4.438
 9037SOL    HW228011   1.093   3.044   4.323
 9038SOL     OW28012   4.417   3.397   6.772
 9038SOL    HW128013   4.515   3.374   6.770
 9038SOL    HW228014   4.393   3.446   6.688
 9039SOL     OW28015   3.143   4.899   0.290
 9039SOL    HW128016   3.074   4.840   0.331
 9039SOL    HW228017   3.214   4.844   0.248
 9040SOL     OW28018   2.880   2.251   2.357
 9040SOL    HW128019   2.905   2.262   2.261
 9040SOL    HW228020   2.949   2.294   2.415
 9041SOL     OW28021   0.986   2.631   1.076
 9041SOL    HW128022   1.047   2.664   1.004
 9041SOL    HW228023   0.915   2.574   1.036
 9042SOL     OW28024   3.761   6.253   4.946
 9042SOL    HW128025   3.711   6.278   5.029
 9042SOL    HW228026   3.751   6.156   4.929
 9043SOL     OW28027   2.229   1.398   6.548
 9043SOL    HW128028   2.307   1.407   6.486
 9043SOL    HW228029   2.249   1.445   6.634
 9044SOL     OW28030   0.857   0.878   6.353
 9044SOL    HW128031   0.935   0.840   6.403
 9044SOL    HW228032   0.780   0.889   6.415
 9045SOL     OW28033   4.188   0.576   3.177
 9045SOL    HW128034   4.154   0.507   3.113
 9045SOL    HW228035   4.111   0.628   3.214
 9046SOL     OW28036   4.005   3.783   2.715
 9046SOL    HW128037   3.999   3.694   2.761
 9046SOL    HW228038   4.065   3.844   2.767
 9047SOL     OW28039   1.149   4.181   4.997
 9047SOL    HW128040   1.236   4.157   4.954
 9047SOL    HW228041   1.128   4.277   4.979
 9048SOL     OW28042   6.167   2.566   5.949
 9048SOL    HW128043   6.183   2.525   6.039
 9048SOL    HW228044   6.213   2.511   5.879
 9049SOL     OW28045   3.634   6.320   5.632
 9049SOL    HW128046   3.547   6.365   5.652
 9049SOL    HW228047   3.705   6.389   5.616
 9050SOL     OW28048   0.743   4.227   1.580
 9050SOL    HW128049   0.664   4.170   1.556
 9050SOL    HW228050   0.762   4.218   1.678
 9051SOL     OW28051   2.585   0.420   1.486
 9051SOL    HW128052   2.581   0.336   1.539
 9051SOL    HW228053   2.538   0.494   1.535
 9052SOL     OW28054   1.734   3.096   4.115
 9052SOL    HW128055   1.809   3.131   4.171
 9052SOL    HW228056   1.743   3.129   4.021
 9053SOL     OW28057   2.446   1.317   0.829
 9053SOL    HW128058   2.375   1.383   0.856
 9053SOL    HW228059   2.526   1.328   0.887
 9054SOL     OW28060   2.150   5.549   4.201
 9054SOL    HW128061   2.082   5.593   4.142
 9054SOL    HW228062   2.178   5.462   4.161
 9055SOL     OW28063   6.651   4.609   4.672
 9055SOL    HW128064   6.581   4.678   4.688
 9055SOL    HW228065   6.629   4.527   4.724
 9056SOL     OW28066   6.800   1.839   2.262
 9056SOL    HW128067   6.827   1.934   2.244
 9056SOL    HW228068   6.721   1.838   2.324
 9057SOL     OW28069   4.702   2.015   4.413
 9057SOL    HW128070   4.798   2.034   4.433
 9057SOL    HW228071   4.651   2.005   4.499
 9058SOL     OW28072   1.518   0.429   6.599
 9058SOL    HW128073   1.536   0.527   6.600
 9058SOL    HW228074   1.474   0.403   6.685
 9059SOL     OW28075   0.990   2.556   2.509
 9059SOL    HW128076   0.984   2.653   2.484
 9059SOL    HW228077   0.937   2.502   2.444
 9060SOL     OW28078   5.618   3.220   5.103
 9060SOL    HW128079   5.692   3.249   5.163
 9060SOL    HW228080   5.655   3.203   5.011
 9061SOL     OW28081   4.092   5.254   2.773
 9061SOL    HW128082   4.154   5.219   2.703
 9061SOL    HW228083   4.079   5.352   2.760
 9062SOL     OW28084   0.991   5.302   1.609
 9062SOL    HW128085   1.035   5.213   1.619
 9062SOL    HW228086   0.939   5.303   1.523
 9063SOL     OW28087   2.755   1.275   3.713
 9063SOL    HW128088   2.744   1.347   3.644
 9063SOL    HW228089   2.673   1.271   3.770
 9064SOL     OW28090   6.714   3.504   6.835
 9064SOL    HW128091   6.718   3.404   6.838
 9064SOL    HW228092   6.631   3.533   6.789
 9065SOL     OW28093   3.405   0.235   0.094
 9065SOL    HW128094   3.360   0.324   0.095
 9065SOL    HW228095   3.375   0.181   0.172
 9066SOL     OW28096   5.915   0.376   0.047
 9066SOL    HW128097   5.931   0.465   0.091
 9066SOL    HW228098   5.969   0.306   0.095
 9067SOL     OW28099   1.799   0.145   3.040
 9067SOL    HW128100   1.761   0.066   2.992
 9067SOL    HW228101   1.725   0.206   3.069
 9068SOL     OW28102   1.379   6.199   5.254
 9068SOL    HW128103   1.319   6.205   5.334
 9068SOL    HW228104   1.328   6.164   5.176
 9069SOL     OW28105   1.487   2.924   6.418
 9069SOL    HW128106   1.540   2.971   6.488
 9069SOL    HW228107   1.418   2.986   6.381
 9070SOL     OW28108   2.099   3.954   4.229
 9070SOL    HW128109   2.164   4.016   4.273
 9070SOL    HW228110   2.104   3.864   4.271
 9071SOL     OW28111   6.388   6.728   0.592
 9071SOL    HW128112   6.379   6.708   0.690
 9071SOL    HW228113   6.479   6.764   0.574
 9072SOL     OW28114   0.135   3.855   0.483
 9072SOL    HW128115   0.177   3.769   0.456
 9072SOL    HW228116   0.196   3.904   0.545
 9073SOL     OW28117   1.947   1.028   1.317
 9073SOL    HW128118   1.998   1.078   1.386
 9073SOL    HW228119   1.961   0.930   1.330
 9074SOL     OW28120   1.517   6.908   2.622
 9074SOL    HW128121   1.433   6.860   2.650
 9074SOL    HW228122   1.494   6.980   2.557
 9075SOL     OW28123   6.697   0.804   2.206
 9075SOL    HW128124   6.669   0.763   2.293
 9075SOL    HW228125   6.745   0.736   2.151
 9076SOL     OW28126   6.886   1.369   6.043
 9076SOL    HW128127   6.786   1.364   6.055
 9076SOL    HW228128   6.924   1.437   6.106
 9077SOL     OW28129   4.696   6.581   2.208
 9077SOL    HW128130   4.749   6.497   2.218
 9077SOL    HW228131   4.598   6.561   2.217
 9078SOL     OW28132   3.820   3.454   5.053
 9078SOL    HW128133   3.907   3.404   5.057
 9078SOL    HW228134   3.747   3.391   5.026
 9079SOL     OW28135   3.155   6.559   4.390
 9079SOL    HW128136   3.200   6.470   4.399
 9079SOL    HW228137   3.108   6.582   4.474
 9080SOL     OW28138   5.476   2.602   0.291
 9080SOL    HW128139   5.568   2.596   0.252
 9080SOL    HW228140   5.433   2.688   0.263
 9081SOL     OW28141   5.439   6.512   2.635
 9081SOL    HW128142   5.371   6.468   2.577
 9081SOL    HW228143   5.421   6.490   2.731
 9082SOL     OW28144   2.479   0.718   3.671
 9082SOL    HW128145   2.413   0.735   3.744
 9082SOL    HW228146   2.489   0.800   3.615
 9083SOL     OW28147   4.679   4.605   5.245
 9083SOL    HW128148   4.640   4.574   5.332
 9083SOL    HW228149   4.778   4.598   5.248
 9084SOL     OW28150   3.196   3.525   3.305
 9084SOL    HW128151   3.270   3.544   3.240
 9084SOL    HW228152   3.110   3.518   3.256
 9085SOL     OW28153   2.485   1.742   1.105
 9085SOL    HW128154   2.533   1.786   1.180
 9085SOL    HW228155   2.547   1.678   1.059
 9086SOL     OW28156   0.593   4.008   1.114
 9086SOL    HW128157   0.689   4.033   1.102
 9086SOL    HW228158   0.584   3.909   1.124
 9087SOL     OW28159   4.911   3.608   2.089
 9087SOL    HW128160   4.825   3.587   2.136
 9087SOL    HW228161   4.951   3.524   2.052
 9088SOL     OW28162   6.825   0.893   6.442
 9088SOL    HW128163   6.848   0.798   6.462
 9088SOL    HW228164   6.885   0.953   6.493
 9089SOL     OW28165   4.712   7.011   5.754
 9089SOL    HW128166   4.719   0.022   5.660
 9089SOL    HW228167   4.742   6.916   5.756
 9090SOL     OW28168   5.632   0.289   4.815
 9090SOL    HW128169   5.584   0.274   4.901
 9090SOL    HW228170   5.670   0.381   4.814
 9091SOL     OW28171   3.416   3.904   0.180
 9091SOL    HW128172   3.332   3.922   0.231
 9091SOL    HW228173   3.481   3.856   0.239
 9092SOL     OW28174   0.077   2.039   7.004
 9092SOL    HW128175   0.026   2.119   6.971
 9092SOL    HW228176   0.175   2.054   6.988
 9093SOL     OW28177   1.441   6.859   5.298
 9093SOL    HW128178   1.513   6.838   5.232
 9093SOL    HW228179   1.473   6.843   5.391
 9094SOL     OW28180   0.175   3.102   2.109
 9094SOL    HW128181   0.237   3.173   2.075
 9094SOL    HW228182   0.223   3.045   2.175
 9095SOL     OW28183   5.204   5.627   5.862
 9095SOL    HW128184   5.262   5.606   5.783
 9095SOL    HW228185   5.139   5.552   5.876
 9096SOL     OW28186   6.597   5.424   2.607
 9096SOL    HW128187   6.541   5.367   2.666
 9096SOL    HW228188   6.554   5.432   2.517
 9097SOL     OW28189   0.208   2.841   5.636
 9097SOL    HW128190   0.238   2.916   5.577
 9097SOL    HW228191   0.188   2.876   5.727
 9098SOL     OW28192   2.041   2.366   4.611
 9098SOL    HW128193   1.976   2.291   4.598
 9098SOL    HW228194   2.051   2.385   4.708
 9099SOL     OW28195   2.331   3.276   6.658
 9099SOL    HW128196   2.384   3.244   6.579
 9099SOL    HW228197   2.367   3.364   6.688
 9100SOL     OW28198   1.408   4.469   2.373
 9100SOL    HW128199   1.337   4.422   2.426
 9100SOL    HW228200   1.488   4.485   2.430
 9101SOL     OW28201   2.146   1.403   2.021
 9101SOL    HW128202   2.182   1.482   2.069
 9101SOL    HW228203   2.075   1.432   1.956
 9102SOL     OW28204   4.486   6.033   2.674
 9102SOL    HW128205   4.576   6.058   2.639
 9102SOL    HW228206   4.471   5.935   2.662
 9103SOL     OW28207   6.437   1.795   0.388
 9103SOL    HW128208   6.348   1.754   0.409
 9103SOL    HW228209   6.446   1.880   0.439
 9104SOL     OW28210   6.995   0.943   0.154
 9104SOL    HW128211   6.949   0.858   0.128
 9104SOL    HW228212   6.959   0.975   0.242
 9105SOL     OW28213   1.795   6.985   6.162
 9105SOL    HW128214   1.873   0.012   6.200
 9105SOL    HW228215   1.792   6.996   6.063
 9106SOL     OW28216   0.914   5.024   6.597
 9106SOL    HW128217   0.946   4.995   6.687
 9106SOL    HW228218   0.932   4.952   6.530
 9107SOL     OW28219   2.497   1.178   0.173
 9107SOL    HW128220   2.579   1.187   0.116
 9107SOL    HW228221   2.416   1.169   0.114
 9108SOL     OW28222   5.311   5.287   5.775
 9108SOL    HW128223   5.358   5.279   5.863
 9108SOL    HW228224   5.352   5.361   5.721
 9109SOL     OW28225   5.277   2.246   2.314
 9109SOL    HW128226   5.194   2.212   2.358
 9109SOL    HW228227   5.266   2.344   2.294
 9110SOL     OW28228   1.705   5.635   4.849
 9110SOL    HW128229   1.613   5.600   4.866
 9110SOL    HW228230   1.729   5.619   4.754
 9111SOL     OW28231   4.596   2.627   4.929
 9111SOL    HW128232   4.587   2.651   5.026
 9111SOL    HW228233   4.632   2.706   4.879
 9112SOL     OW28234   2.305   5.117   2.250
 9112SOL    HW128235   2.264   5.043   2.197
 9112SOL    HW228236   2.233   5.181   2.278
 9113SOL     OW28237   4.696   1.915   3.346
 9113SOL    HW128238   4.702   1.954   3.437
 9113SOL    HW228239   4.788   1.904   3.308
 9114SOL     OW28240   1.393   6.376   4.947
 9114SOL    HW128241   1.373   6.319   5.027
 9114SOL    HW228242   1.380   6.322   4.864
 9115SOL     OW28243   5.820   4.451   3.868
 9115SOL    HW128244   5.720   4.462   3.867
 9115SOL    HW228245   5.853   4.448   3.774
 9116SOL     OW28246   0.623   0.030   3.646
 9116SOL    HW128247   0.687   0.069   3.712
 9116SOL    HW228248   0.673   7.015   3.568
 9117SOL     OW28249   3.949   1.273   0.122
 9117SOL    HW128250   3.911   1.328   0.048
 9117SOL    HW228251   3.875   1.237   0.178
 9118SOL     OW28252   5.942   3.869   0.808
 9118SOL    HW128253   5.940   3.864   0.708
 9118SOL    HW228254   5.848   3.873   0.843
 9119SOL     OW28255   3.605   6.810   0.898
 9119SOL    HW128256   3.641   6.899   0.924
 9119SOL    HW228257   3.572   6.762   0.980
 9120SOL     OW28258   5.533   2.661   5.688
 9120SOL    HW128259   5.565   2.632   5.779
 9120SOL    HW228260   5.486   2.585   5.644
 9121SOL     OW28261   3.357   0.380   5.431
 9121SOL    HW128262   3.369   0.332   5.517
 9121SOL    HW228263   3.311   0.467   5.448
 9122SOL     OW28264   2.227   4.471   2.264
 9122SOL    HW128265   2.206   4.435   2.355
 9122SOL    HW228266   2.297   4.542   2.271
 9123SOL     OW28267   0.909   1.065   3.655
 9123SOL    HW128268   0.814   1.089   3.636
 9123SOL    HW228269   0.919   1.047   3.753
 9124SOL     OW28270   3.290   5.581   1.605
 9124SOL    HW128271   3.219   5.535   1.657
 9124SOL    HW228272   3.336   5.515   1.545
 9125SOL     OW28273   4.513   6.530   0.366
 9125SOL    HW128274   4.578   6.600   0.395
 9125SOL    HW228275   4.421   6.554   0.397
 9126SOL     OW28276   3.650   4.827   0.552
 9126SOL    HW128277   3.694   4.745   0.589
 9126SOL    HW228278   3.717   4.880   0.499
 9127SOL     OW28279   0.030   3.858   5.259
 9127SOL    HW128280   6.956   3.843   5.274
 9127SOL    HW228281   0.071   3.775   5.220
 9128SOL     OW28282   5.892   3.674   5.134
 9128SOL    HW128283   5.877   3.768   5.105
 9128SOL    HW228284   5.828   3.651   5.207
 9129SOL     OW28285   1.179   1.743   0.686
 9129SOL    HW128286   1.210   1.651   0.710
 9129SOL    HW228287   1.176   1.753   0.587
 9130SOL     OW28288   2.697   3.867   5.251
 9130SOL    HW128289   2.615   3.904   5.206
 9130SOL    HW228290   2.670   3.822   5.337
 9131SOL     OW28291   6.038   2.509   1.020
 9131SOL    HW128292   6.051   2.515   1.119
 9131SOL    HW228293   6.025   2.414   0.994
 9132SOL     OW28294   0.579   4.196   3.941
 9132SOL    HW128295   0.677   4.218   3.940
 9132SOL    HW228296   0.550   4.173   3.849
 9133SOL     OW28297   4.692   0.739   1.059
 9133SOL    HW128298   4.705   0.673   1.133
 9133SOL    HW228299   4.729   0.701   0.974
 9134SOL     OW28300   4.604   5.442   0.857
 9134SOL    HW128301   4.701   5.456   0.875
 9134SOL    HW228302   4.573   5.508   0.788
 9135SOL     OW28303   0.623   6.569   2.612
 9135SOL    HW128304   0.676   6.511   2.550
 9135SOL    HW228305   0.535   6.526   2.633
 9136SOL     OW28306   6.303   4.717   6.520
 9136SOL    HW128307   6.232   4.647   6.532
 9136SOL    HW228308   6.363   4.690   6.444
 9137SOL     OW28309   4.977   6.456   6.459
 9137SOL    HW128310   5.011   6.433   6.367
 9137SOL    HW228311   4.968   6.373   6.513
 9138SOL     OW28312   2.983   2.986   1.165
 9138SOL    HW128313   3.049   2.948   1.100
 9138SOL    HW228314   3.032   3.039   1.234
 9139SOL     OW28315   6.846   0.510   1.432
 9139SOL    HW128316   6.919   0.559   1.479
 9139SOL    HW228317   6.762   0.565   1.431
 9140SOL     OW28318   0.899   4.265   2.627
 9140SOL    HW128319   0.819   4.287   2.572
 9140SOL    HW228320   0.871   4.238   2.719
 9141SOL     OW28321   6.548   5.802   5.703
 9141SOL    HW128322   6.458   5.758   5.710
 9141SOL    HW228323   6.551   5.858   5.620
 9142SOL     OW28324   1.138   4.094   3.704
 9142SOL    HW128325   1.196   4.113   3.784
 9142SOL    HW228326   1.114   3.997   3.703
 9143SOL     OW28327   6.195   3.218   2.599
 9143SOL    HW128328   6.190   3.210   2.500
 9143SOL    HW228329   6.168   3.310   2.627
 9144SOL     OW28330   2.534   4.379   5.179
 9144SOL    HW128331   2.447   4.351   5.138
 9144SOL    HW228332   2.593   4.299   5.190
 9145SOL     OW28333   1.100   6.198   5.909
 9145SOL    HW128334   1.171   6.175   5.842
 9145SOL    HW228335   1.138   6.260   5.978
 9146SOL     OW28336   6.262   3.108   3.133
 9146SOL    HW128337   6.337   3.153   3.085
 9146SOL    HW228338   6.177   3.122   3.084
 9147SOL     OW28339   4.634   0.225   4.408
 9147SOL    HW128340   4.723   0.181   4.395
 9147SOL    HW228341   4.599   0.255   4.320
 9148SOL     OW28342   6.166   6.660   1.643
 9148SOL    HW128343   6.149   6.758   1.646
 9148SOL    HW228344   6.235   6.640   1.573
 9149SOL     OW28345   0.222   3.536   1.915
 9149SOL    HW128346   0.128   3.506   1.900
 9149SOL    HW228347   0.230   3.578   2.005
 9150SOL     OW28348   2.798   2.729   0.984
 9150SOL    HW128349   2.772   2.767   1.073
 9150SOL    HW228350   2.812   2.804   0.919
 9151SOL     OW28351   1.816   3.311   3.742
 9151SOL    HW128352   1.815   3.410   3.728
 9151SOL    HW228353   1.909   3.281   3.761
 9152SOL     OW28354   2.469   4.991   3.338
 9152SOL    HW128355   2.554   4.988   3.391
 9152SOL    HW228356   2.482   4.942   3.252
 9153SOL     OW28357   6.622   3.325   0.147
 9153SOL    HW128358   6.691   3.387   0.184
 9153SOL    HW228359   6.543   3.378   0.115
 9154SOL     OW28360   5.729   4.473   3.046
 9154SOL    HW128361   5.682   4.554   3.080
 9154SOL    HW228362   5.827   4.480   3.067
 9155SOL     OW28363   0.730   6.558   2.878
 9155SOL    HW128364   0.689   6.547   2.787
 9155SOL    HW228365   0.659   6.582   2.944
 9156SOL     OW28366   6.949   3.905   6.987
 9156SOL    HW128367   6.984   3.997   6.969
 9156SOL    HW228368   6.890   3.876   6.912
 9157SOL     OW28369   2.166   5.114   6.083
 9157SOL    HW128370   2.162   5.131   6.182
 9157SOL    HW228371   2.247   5.157   6.045
 9158SOL     OW28372   6.656   3.409   4.585
 9158SOL    HW128373   6.619   3.494   4.546
 9158SOL    HW228374   6.623   3.331   4.532
 9159SOL     OW28375   4.008   1.168   3.765
 9159SOL    HW128376   3.999   1.156   3.666
 9159SOL    HW228377   3.919   1.191   3.804
 9160SOL     OW28378   0.107   4.265   0.967
 9160SOL    HW128379   0.109   4.168   0.992
 9160SOL    HW228380   0.038   4.280   0.896
 9161SOL     OW28381   6.285   3.934   1.109
 9161SOL    HW128382   6.326   4.002   1.048
 9161SOL    HW228383   6.301   3.960   1.204
 9162SOL     OW28384   4.516   2.354   1.423
 9162SOL    HW128385   4.595   2.403   1.461
 9162SOL    HW228386   4.529   2.344   1.324
 9163SOL     OW28387   1.555   2.740   3.320
 9163SOL    HW128388   1.583   2.814   3.380
 9163SOL    HW228389   1.551   2.772   3.226
 9164SOL     OW28390   2.462   0.519   0.089
 9164SOL    HW128391   2.455   0.619   0.095
 9164SOL    HW228392   2.380   0.483   0.045
 9165SOL     OW28393   5.140   1.564   5.977
 9165SOL    HW128394   5.194   1.581   6.060
 9165SOL    HW228395   5.083   1.644   5.959
 9166SOL     OW28396   5.285   5.581   1.764
 9166SOL    HW128397   5.309   5.677   1.751
 9166SOL    HW228398   5.351   5.523   1.717
 9167SOL     OW28399   1.655   1.336   4.809
 9167SOL    HW128400   1.730   1.356   4.872
 9167SOL    HW228401   1.664   1.391   4.726
 9168SOL     OW28402   6.473   6.347   4.275
 9168SOL    HW128403   6.450   6.385   4.364
 9168SOL    HW228404   6.533   6.268   4.286
 9169SOL     OW28405   6.444   6.060   0.666
 9169SOL    HW128406   6.452   5.962   0.645
 9169SOL    HW228407   6.439   6.112   0.580
 9170SOL     OW28408   1.431   1.367   5.716
 9170SOL    HW128409   1.402   1.461   5.700
 9170SOL    HW228410   1.491   1.337   5.641
 9171SOL     OW28411   3.507   4.796   0.153
 9171SOL    HW128412   3.541   4.728   0.218
 9171SOL    HW228413   3.413   4.774   0.127
 9172SOL     OW28414   4.698   1.477   4.444
 9172SOL    HW128415   4.719   1.529   4.361
 9172SOL    HW228416   4.706   1.379   4.425
 9173SOL     OW28417   5.408   2.923   4.285
 9173SOL    HW128418   5.376   2.861   4.212
 9173SOL    HW228419   5.368   3.013   4.272
 9174SOL     OW28420   0.248   4.352   0.461
 9174SOL    HW128421   0.247   4.424   0.530
 9174SOL    HW228422   0.229   4.391   0.371
 9175SOL     OW28423   1.699   6.531   6.601
 9175SOL    HW128424   1.661   6.442   6.574
 9175SOL    HW228425   1.652   6.564   6.683
 9176SOL     OW28426   1.994   1.518   2.577
 9176SOL    HW128427   2.086   1.504   2.615
 9176SOL    HW228428   1.985   1.612   2.544
 9177SOL     OW28429   0.818   4.020   4.146
 9177SOL    HW128430   0.766   3.934   4.146
 9177SOL    HW228431   0.906   4.006   4.100
 9178SOL     OW28432   2.266   6.226   0.701
 9178SOL    HW128433   2.290   6.164   0.776
 9178SOL    HW228434   2.204   6.179   0.638
 9179SOL     OW28435   3.313   5.553   5.189
 9179SOL    HW128436   3.239   5.504   5.236
 9179SOL    HW228437   3.362   5.611   5.255
 9180SOL     OW28438   6.964   0.850   4.591
 9180SOL    HW128439   6.928   0.801   4.511
 9180SOL    HW228440   6.985   0.785   4.664
 9181SOL     OW28441   3.560   1.822   3.955
 9181SOL    HW128442   3.489   1.876   4.000
 9181SOL    HW228443   3.648   1.839   3.999
 9182SOL     OW28444   1.321   1.230   2.637
 9182SOL    HW128445   1.420   1.217   2.626
 9182SOL    HW228446   1.296   1.322   2.607
 9183SOL     OW28447   7.010   2.437   5.783
 9183SOL    HW128448   6.971   2.418   5.873
 9183SOL    HW228449   0.084   2.413   5.783
 9184SOL     OW28450   3.096   3.000   0.703
 9184SOL    HW128451   3.104   3.085   0.755
 9184SOL    HW228452   3.145   3.010   0.617
 9185SOL     OW28453   1.369   0.727   6.517
 9185SOL    HW128454   1.356   0.643   6.464
 9185SOL    HW228455   1.418   0.707   6.602
 9186SOL     OW28456   5.458   1.194   6.534
 9186SOL    HW128457   5.374   1.148   6.509
 9186SOL    HW228458   5.528   1.176   6.465
 9187SOL     OW28459   4.871   2.218   0.761
 9187SOL    HW128460   4.923   2.154   0.818
 9187SOL    HW228461   4.775   2.192   0.761
 9188SOL     OW28462   1.419   0.091   1.524
 9188SOL    HW128463   1.415   0.086   1.624
 9188SOL    HW228464   1.334   0.132   1.490
 9189SOL     OW28465   4.161   0.706   4.296
 9189SOL    HW128466   4.219   0.786   4.280
 9189SOL    HW228467   4.212   0.624   4.271
 9190SOL     OW28468   6.219   3.201   5.446
 9190SOL    HW128469   6.192   3.243   5.360
 9190SOL    HW228470   6.282   3.262   5.494
 9191SOL     OW28471   5.649   6.250   0.455
 9191SOL    HW128472   5.593   6.331   0.439
 9191SOL    HW228473   5.726   6.250   0.390
 9192SOL     OW28474   6.163   4.962   4.711
 9192SOL    HW128475   6.078   4.910   4.716
 9192SOL    HW228476   6.194   4.966   4.616
 9193SOL     OW28477   3.844   3.263   3.774
 9193SOL    HW128478   3.871   3.238   3.868
 9193SOL    HW228479   3.886   3.199   3.710
 9194SOL     OW28480   3.166   5.981   2.396
 9194SOL    HW128481   3.191   6.077   2.390
 9194SOL    HW228482   3.150   5.956   2.492
 9195SOL     OW28483   6.490   3.765   2.935
 9195SOL    HW128484   6.443   3.677   2.924
 9195SOL    HW228485   6.515   3.777   3.030
 9196SOL     OW28486   4.548   0.177   3.711
 9196SOL    HW128487   4.648   0.167   3.713
 9196SOL    HW228488   4.524   0.272   3.733
 9197SOL     OW28489   3.307   3.252   6.173
 9197SOL    HW128490   3.229   3.250   6.235
 9197SOL    HW228491   3.354   3.340   6.183
 9198SOL     OW28492   5.292   2.832   5.203
 9198SOL    HW128493   5.350   2.832   5.121
 9198SOL    HW228494   5.259   2.740   5.221
 9199SOL     OW28495   1.317   4.065   6.776
 9199SOL    HW128496   1.402   4.013   6.767
 9199SOL    HW228497   1.261   4.025   6.849
 9200SOL     OW28498   6.487   0.543   6.954
 9200SOL    HW128499   6.523   0.635   6.971
 9200SOL    HW228500   6.391   0.539   6.981
 9201SOL     OW28501   1.595   4.145   3.428
 9201SOL    HW128502   1.539   4.064   3.447
 9201SOL    HW228503   1.569   4.218   3.491
 9202SOL     OW28504   3.095   5.296   4.201
 9202SOL    HW128505   3.009   5.321   4.157
 9202SOL    HW228506   3.084   5.210   4.251
 9203SOL     OW28507   5.108   0.431   6.501
 9203SOL    HW128508   5.090   0.345   6.550
 9203SOL    HW228509   5.030   0.452   6.442
 9204SOL     OW28510   4.615   4.346   2.313
 9204SOL    HW128511   4.594   4.272   2.377
 9204SOL    HW228512   4.586   4.319   2.221
 9205SOL     OW28513   5.129   2.898   2.928
 9205SOL    HW128514   5.094   2.979   2.977
 9205SOL    HW228515   5.073   2.881   2.847
 9206SOL     OW28516   0.864   0.295   3.839
 9206SOL    HW128517   0.803   0.319   3.915
 9206SOL    HW228518   0.830   0.338   3.755
 9207SOL     OW28519   4.243   0.173   0.269
 9207SOL    HW128520   4.177   0.234   0.225
 9207SOL    HW228521   4.257   0.092   0.212
 9208SOL     OW28522   4.872   4.626   2.272
 9208SOL    HW128523   4.894   4.609   2.176
 9208SOL    HW228524   4.922   4.562   2.330
 9209SOL     OW28525   4.055   1.201   2.572
 9209SOL    HW128526   4.004   1.209   2.486
 9209SOL    HW228527   3.991   1.188   2.648
 9210SOL     OW28528   1.263   0.149   1.056
 9210SOL    HW128529   1.272   0.051   1.035
 9210SOL    HW228530   1.184   0.186   1.007
 9211SOL     OW28531   4.845   1.013   6.833
 9211SOL    HW128532   4.936   0.974   6.848
 9211SOL    HW228533   4.777   0.939   6.833
 9212SOL     OW28534   6.034   3.902   4.852
 9212SOL    HW128535   6.031   3.977   4.919
 9212SOL    HW228536   5.948   3.898   4.802
 9213SOL     OW28537   5.982   0.091   2.575
 9213SOL    HW128538   5.929   0.175   2.584
 9213SOL    HW228539   6.029   0.072   2.662
 9214SOL     OW28540   1.983   2.339   5.669
 9214SOL    HW128541   2.073   2.378   5.650
 9214SOL    HW228542   1.993   2.242   5.693
 9215SOL     OW28543   1.014   3.131   2.849
 9215SOL    HW128544   1.031   3.033   2.837
 9215SOL    HW228545   0.956   3.165   2.775
 9216SOL     OW28546   2.558   5.851   5.073
 9216SOL    HW128547   2.587   5.883   5.163
 9216SOL    HW228548   2.459   5.843   5.070
 9217SOL     OW28549   4.514   1.053   6.627
 9217SOL    HW128550   4.578   0.996   6.679
 9217SOL    HW228551   4.455   0.995   6.572
 9218SOL     OW28552   6.096   5.474   6.460
 9218SOL    HW128553   6.167   5.405   6.473
 9218SOL    HW228554   6.095   5.503   6.364
 9219SOL     OW28555   3.701   2.977   5.490
 9219SOL    HW128556   3.696   3.077   5.491
 9219SOL    HW228557   3.649   2.942   5.412
 9220SOL     OW28558   0.859   6.246   3.557
 9220SOL    HW128559   0.893   6.263   3.649
 9220SOL    HW228560   0.896   6.160   3.523
 9221SOL     OW28561   2.471   0.952   0.500
 9221SOL    HW128562   2.483   0.887   0.575
 9221SOL    HW228563   2.468   1.045   0.537
 9222SOL     OW28564   1.235   3.436   3.516
 9222SOL    HW128565   1.250   3.387   3.430
 9222SOL    HW228566   1.267   3.381   3.593
 9223SOL     OW28567   0.714   3.686   4.852
 9223SOL    HW128568   0.619   3.692   4.821
 9223SOL    HW228569   0.773   3.660   4.775
 9224SOL     OW28570   2.037   4.606   3.552
 9224SOL    HW128571   2.054   4.594   3.454
 9224SOL    HW228572   2.101   4.674   3.588
 9225SOL     OW28573   4.841   6.657   6.586
 9225SOL    HW128574   4.878   6.603   6.510
 9225SOL    HW228575   4.818   6.748   6.552
 9226SOL     OW28576   0.962   0.592   1.074
 9226SOL    HW128577   0.949   0.501   1.113
 9226SOL    HW228578   1.040   0.591   1.012
 9227SOL     OW28579   2.380   5.602   0.831
 9227SOL    HW128580   2.452   5.539   0.859
 9227SOL    HW228581   2.318   5.618   0.908
 9228SOL     OW28582   3.095   2.913   5.618
 9228SOL    HW128583   3.179   2.877   5.578
 9228SOL    HW228584   3.017   2.883   5.564
 9229SOL     OW28585   0.416   4.531   0.061
 9229SOL    HW128586   0.361   4.531   7.000
 9229SOL    HW228587   0.513   4.528   0.036
 9230SOL     OW28588   4.784   1.885   4.815
 9230SOL    HW128589   4.696   1.897   4.768
 9230SOL    HW228590   4.773   1.818   4.889
 9231SOL     OW28591   6.724   5.692   3.757
 9231SOL    HW128592   6.667   5.687   3.675
 9231SOL    HW228593   6.816   5.659   3.737
 9232SOL     OW28594   1.392   5.069   1.759
 9232SOL    HW128595   1.466   5.005   1.779
 9232SOL    HW228596   1.420   5.162   1.781
 9233SOL     OW28597   0.575   6.536   0.347
 9233SOL    HW128598   0.618   6.449   0.326
 9233SOL    HW228599   0.484   6.539   0.306
 9234SOL     OW28600   2.079   4.344   0.292
 9234SOL    HW128601   2.146   4.318   0.362
 9234SOL    HW228602   2.105   4.303   0.205
 9235SOL     OW28603   1.740   2.230   3.739
 9235SOL    HW128604   1.733   2.139   3.778
 9235SOL    HW228605   1.815   2.279   3.784
 9236SOL     OW28606   2.635   3.303   6.832
 9236SOL    HW128607   2.576   3.223   6.830
 9236SOL    HW228608   2.664   3.324   6.738
 9237SOL     OW28609   5.490   4.717   3.090
 9237SOL    HW128610   5.440   4.778   3.152
 9237SOL    HW228611   5.546   4.772   3.028
 9238SOL     OW28612   1.957   2.833   5.203
 9238SOL    HW128613   1.916   2.746   5.232
 9238SOL    HW228614   2.056   2.830   5.220
 9239SOL     OW28615   0.891   4.894   6.856
 9239SOL    HW128616   0.838   4.819   6.897
 9239SOL    HW228617   0.921   4.957   6.927
 9240SOL     OW28618   4.445   2.444   2.693
 9240SOL    HW128619   4.384   2.404   2.762
 9240SOL    HW228620   4.529   2.475   2.738
 9241SOL     OW28621   5.798   6.854   1.057
 9241SOL    HW128622   5.860   6.852   0.979
 9241SOL    HW228623   5.740   6.773   1.055
 9242SOL     OW28624   1.754   2.474   0.483
 9242SOL    HW128625   1.806   2.558   0.470
 9242SOL    HW228626   1.664   2.484   0.440
 9243SOL     OW28627   0.881   0.640   6.947
 9243SOL    HW128628   0.959   0.615   7.004
 9243SOL    HW228629   0.866   0.569   6.879
 9244SOL     OW28630   4.032   6.395   5.508
 9244SOL    HW128631   4.023   6.395   5.409
 9244SOL    HW228632   4.056   6.303   5.540
 9245SOL     OW28633   1.147   4.432   3.160
 9245SOL    HW128634   1.217   4.404   3.227
 9245SOL    HW228635   1.104   4.351   3.120
 9246SOL     OW28636   6.318   0.474   5.753
 9246SOL    HW128637   6.221   0.478   5.732
 9246SOL    HW228638   6.333   0.499   5.848
 9247SOL     OW28639   3.960   6.778   3.039
 9247SOL    HW128640   3.860   6.771   3.044
 9247SOL    HW228641   4.001   6.693   3.073
 9248SOL     OW28642   2.406   1.020   6.114
 9248SOL    HW128643   2.367   0.959   6.183
 9248SOL    HW228644   2.350   1.102   6.105
 9249SOL     OW28645   3.463   5.404   1.468
 9249SOL    HW128646   3.546   5.458   1.456
 9249SOL    HW228647   3.486   5.307   1.478
 9250SOL     OW28648   0.591   3.037   4.156
 9250SOL    HW128649   0.609   3.053   4.059
 9250SOL    HW228650   0.674   3.002   4.200
 9251SOL     OW28651   3.281   2.861   1.121
 9251SOL    HW128652   3.240   2.828   1.206
 9251SOL    HW228653   3.328   2.786   1.075
 9252SOL     OW28654   5.024   1.992   5.757
 9252SOL    HW128655   5.001   2.044   5.839
 9252SOL    HW228656   5.033   1.895   5.780
 9253SOL     OW28657   0.982   5.085   5.431
 9253SOL    HW128658   0.905   5.022   5.441
 9253SOL    HW228659   1.056   5.058   5.494
 9254SOL     OW28660   6.998   5.167   2.559
 9254SOL    HW128661   6.943   5.177   2.476
 9254SOL    HW228662   0.051   5.105   2.541
 9255SOL     OW28663   0.156   3.995   0.983
 9255SOL    HW128664   0.195   3.948   1.063
 9255SOL    HW228665   0.190   3.952   0.900
 9256SOL     OW28666   1.764   6.319   1.971
 9256SOL    HW128667   1.766   6.325   2.071
 9256SOL    HW228668   1.825   6.245   1.941
 9257SOL     OW28669   6.420   5.915   4.025
 9257SOL    HW128670   6.470   5.904   3.939
 9257SOL    HW228671   6.340   5.973   4.010
 9258SOL     OW28672   3.448   5.250   1.172
 9258SOL    HW128673   3.475   5.344   1.189
 9258SOL    HW228674   3.489   5.190   1.240
 9259SOL     OW28675   1.859   1.429   6.824
 9259SOL    HW128676   1.902   1.465   6.907
 9259SOL    HW228677   1.813   1.504   6.776
 9260SOL     OW28678   6.321   4.019   4.820
 9260SOL    HW128679   6.268   4.101   4.798
 9260SOL    HW228680   6.264   3.938   4.803
 9261SOL     OW28681   3.621   2.426   1.700
 9261SOL    HW128682   3.663   2.513   1.725
 9261SOL    HW228683   3.648   2.356   1.765
 9262SOL     OW28684   6.084   6.037   4.269
 9262SOL    HW128685   6.004   6.075   4.314
 9262SOL    HW228686   6.161   6.101   4.276
 9263SOL     OW28687   1.570   3.973   3.872
 9263SOL    HW128688   1.539   4.061   3.838
 9263SOL    HW228689   1.666   3.980   3.901
 9264SOL     OW28690   4.314   3.613   0.391
 9264SOL    HW128691   4.381   3.618   0.317
 9264SOL    HW228692   4.336   3.537   0.452
 9265SOL     OW28693   5.619   1.758   0.012
 9265SOL    HW128694   5.713   1.741   7.005
 9265SOL    HW228695   5.616   1.761   0.112
 9266SOL     OW28696   1.182   4.383   1.609
 9266SOL    HW128697   1.241   4.455   1.572
 9266SOL    HW228698   1.206   4.366   1.704
 9267SOL     OW28699   6.636   0.959   4.773
 9267SOL    HW128700   6.565   1.019   4.809
 9267SOL    HW228701   6.606   0.864   4.780
 9268SOL     OW28702   0.658   0.016   1.902
 9268SOL    HW128703   0.605   0.030   1.986
 9268SOL    HW228704   0.740   0.073   1.904
 9269SOL     OW28705   4.271   1.027   0.730
 9269SOL    HW128706   4.293   1.036   0.633
 9269SOL    HW228707   4.356   1.031   0.784
 9270SOL     OW28708   1.973   0.378   5.821
 9270SOL    HW128709   1.876   0.404   5.815
 9270SOL    HW228710   2.001   0.378   5.917
 9271SOL     OW28711   1.276   6.983   4.701
 9271SOL    HW128712   1.356   6.924   4.710
 9271SOL    HW228713   1.196   6.926   4.681
 9272SOL     OW28714   6.586   6.947   5.880
 9272SOL    HW128715   6.637   0.003   5.846
 9272SOL    HW228716   6.635   6.907   5.958
 9273SOL     OW28717   4.906   5.137   4.553
 9273SOL    HW128718   4.949   5.079   4.623
 9273SOL    HW228719   4.832   5.085   4.509
 9274SOL     OW28720   0.947   2.656   6.962
 9274SOL    HW128721   0.952   2.715   0.019
 9274SOL    HW228722   1.039   2.628   6.935
 9275SOL     OW28723   0.235   0.733   6.916
 9275SOL    HW128724   0.333   0.748   6.926
 9275SOL    HW228725   0.209   0.650   6.966
 9276SOL     OW28726   2.668   5.227   0.128
 9276SOL    HW128727   2.587   5.247   0.073
 9276SOL    HW228728   2.749   5.266   0.084
 9277SOL     OW28729   5.270   5.836   2.000
 9277SOL    HW128730   5.277   5.782   1.916
 9277SOL    HW228731   5.175   5.861   2.016
 9278SOL     OW28732   0.663   0.953   4.971
 9278SOL    HW128733   0.627   0.994   4.887
 9278SOL    HW228734   0.690   0.858   4.954
 9279SOL     OW28735   4.790   6.433   1.651
 9279SOL    HW128736   4.775   6.360   1.718
 9279SOL    HW228737   4.707   6.446   1.596
 9280SOL     OW28738   1.691   6.979   2.817
 9280SOL    HW128739   1.623   6.977   2.889
 9280SOL    HW228740   1.646   6.991   2.728
 9281SOL     OW28741   2.525   5.078   6.601
 9281SOL    HW128742   2.546   5.052   6.506
 9281SOL    HW228743   2.608   5.108   6.647
 9282SOL     OW28744   2.858   6.870   5.015
 9282SOL    HW128745   2.861   6.966   5.042
 9282SOL    HW228746   2.951   6.835   5.002
 9283SOL     OW28747   4.708   6.158   0.132
 9283SOL    HW128748   4.724   6.251   0.100
 9283SOL    HW228749   4.629   6.119   0.085
 9284SOL     OW28750   3.456   4.111   5.135
 9284SOL    HW128751   3.506   4.158   5.062
 9284SOL    HW228752   3.508   4.031   5.165
 9285SOL     OW28753   0.382   4.731   2.642
 9285SOL    HW128754   0.319   4.735   2.565
 9285SOL    HW228755   0.457   4.668   2.621
 9286SOL     OW28756   4.967   5.764   1.173
 9286SOL    HW128757   4.989   5.730   1.081
 9286SOL    HW228758   4.872   5.744   1.194
 9287SOL     OW28759   3.488   4.908   6.309
 9287SOL    HW128760   3.441   4.985   6.352
 9287SOL    HW228761   3.501   4.928   6.211
 9288SOL     OW28762   4.120   1.985   2.867
 9288SOL    HW128763   4.146   2.025   2.779
 9288SOL    HW228764   4.026   2.012   2.889
 9289SOL     OW28765   4.967   6.630   7.015
 9289SOL    HW128766   4.877   6.634   0.033
 9289SOL    HW228767   4.969   6.557   6.947
 9290SOL     OW28768   5.060   0.703   3.915
 9290SOL    HW128769   5.128   0.659   3.856
 9290SOL    HW228770   5.102   0.780   3.962
 9291SOL     OW28771   1.070   4.909   5.891
 9291SOL    HW128772   1.102   4.981   5.953
 9291SOL    HW228773   1.084   4.938   5.796
 9292SOL     OW28774   1.882   1.590   6.386
 9292SOL    HW128775   1.906   1.493   6.384
 9292SOL    HW228776   1.897   1.626   6.478
 9293SOL     OW28777   5.280   2.873   4.783
 9293SOL    HW128778   5.261   2.964   4.820
 9293SOL    HW228779   5.201   2.814   4.798
 9294SOL     OW28780   4.345   1.550   0.142
 9294SOL    HW128781   4.272   1.575   0.207
 9294SOL    HW228782   4.308   1.488   0.073
 9295SOL     OW28783   0.535   1.261   5.041
 9295SOL    HW128784   0.556   1.214   4.955
 9295SOL    HW228785   0.437   1.256   5.058
 9296SOL     OW28786   1.465   4.930   0.231
 9296SOL    HW128787   1.530   4.925   0.156
 9296SOL    HW228788   1.497   4.996   0.299
 9297SOL     OW28789   5.721   5.619   2.436
 9297SOL    HW128790   5.688   5.690   2.374
 9297SOL    HW228791   5.699   5.529   2.399
 9298SOL     OW28792   1.244   5.386   6.358
 9298SOL    HW128793   1.220   5.473   6.316
 9298SOL    HW228794   1.173   5.359   6.422
 9299SOL     OW28795   2.089   2.370   4.876
 9299SOL    HW128796   2.172   2.352   4.928
 9299SOL    HW228797   2.039   2.446   4.916
 9300SOL     OW28798   1.513   5.272   5.679
 9300SOL    HW128799   1.567   5.284   5.763
 9300SOL    HW228800   1.421   5.240   5.703
 9301SOL     OW28801   6.979   4.125   4.873
 9301SOL    HW128802   7.005   4.220   4.891
 9301SOL    HW228803   0.037   4.067   4.877
 9302SOL     OW28804   1.979   3.704   5.126
 9302SOL    HW128805   2.039   3.654   5.189
 9302SOL    HW228806   2.029   3.723   5.041
 9303SOL     OW28807   2.084   4.892   0.698
 9303SOL    HW128808   2.063   4.860   0.791
 9303SOL    HW228809   2.160   4.957   0.702
 9304SOL     OW28810   4.651   5.283   0.123
 9304SOL    HW128811   4.701   5.200   0.144
 9304SOL    HW228812   4.553   5.262   0.115
 9305SOL     OW28813   1.975   1.945   1.244
 9305SOL    HW128814   2.036   1.936   1.324
 9305SOL    HW228815   1.917   2.025   1.256
 9306SOL     OW28816   6.619   5.078   4.334
 9306SOL    HW128817   6.670   4.995   4.354
 9306SOL    HW228818   6.625   5.141   4.411
 9307SOL     OW28819   2.378   3.076   1.649
 9307SOL    HW128820   2.428   3.018   1.586
 9307SOL    HW228821   2.339   3.021   1.723
 9308SOL     OW28822   2.158   3.804   2.043
 9308SOL    HW128823   2.184   3.836   2.135
 9308SOL    HW228824   2.191   3.710   2.030
 9309SOL     OW28825   5.218   5.463   6.295
 9309SOL    HW128826   5.309   5.501   6.281
 9309SOL    HW228827   5.185   5.486   6.387
 9310SOL     OW28828   5.626   6.318   0.070
 9310SOL    HW128829   5.692   6.270   0.012
 9310SOL    HW228830   5.675   6.379   0.133
 9311SOL     OW28831   4.417   3.609   1.498
 9311SOL    HW128832   4.467   3.623   1.413
 9311SOL    HW228833   4.460   3.662   1.571
 9312SOL     OW28834   0.596   2.825   2.028
 9312SOL    HW128835   0.592   2.734   2.071
 9312SOL    HW228836   0.559   2.820   1.936
 9313SOL     OW28837   0.421   6.965   2.370
 9313SOL    HW128838   0.475   6.930   2.447
 9313SOL    HW228839   0.327   6.932   2.378
 9314SOL     OW28840   5.086   3.327   0.329
 9314SOL    HW128841   5.017   3.391   0.295
 9314SOL    HW228842   5.083   3.326   0.429
 9315SOL     OW28843   5.626   0.983   6.081
 9315SOL    HW128844   5.635   1.035   6.166
 9315SOL    HW228845   5.530   0.976   6.056
 9316SOL     OW28846   4.484   0.841   5.405
 9316SOL    HW128847   4.484   0.850   5.306
 9316SOL    HW228848   4.437   0.758   5.432
 9317SOL     OW28849   4.118   6.595   3.166
 9317SOL    HW128850   4.178   6.633   3.236
 9317SOL    HW228851   4.138   6.498   3.153
 9318SOL     OW28852   5.030   6.783   1.299
 9318SOL    HW128853   5.102   6.740   1.245
 9318SOL    HW228854   4.972   6.713   1.339
 9319SOL     OW28855   2.865   3.976   6.865
 9319SOL    HW128856   2.909   3.944   6.949
 9319SOL    HW228857   2.897   4.068   6.843
 9320SOL     OW28858   6.431   6.236   6.782
 9320SOL    HW128859   6.422   6.136   6.781
 9320SOL    HW228860   6.521   6.261   6.746
 9321SOL     OW28861   0.944   3.692   4.640
 9321SOL    HW128862   1.040   3.666   4.649
 9321SOL    HW228863   0.899   3.631   4.575
 9322SOL     OW28864   6.049   3.395   6.148
 9322SOL    HW128865   5.996   3.422   6.228
 9322SOL    HW228866   6.106   3.316   6.171
 9323SOL     OW28867   1.652   2.131   4.879
 9323SOL    HW128868   1.566   2.165   4.840
 9323SOL    HW228869   1.681   2.193   4.952
 9324SOL     OW28870   0.703   4.499   1.691
 9324SOL    HW128871   0.756   4.441   1.629
 9324SOL    HW228872   0.627   4.541   1.641
 9325SOL     OW28873   0.926   4.904   3.105
 9325SOL    HW128874   0.940   4.955   3.190
 9325SOL    HW228875   0.975   4.818   3.110
 9326SOL     OW28876   4.324   4.574   1.209
 9326SOL    HW128877   4.286   4.590   1.118
 9326SOL    HW228878   4.250   4.574   1.276
 9327SOL     OW28879   4.055   0.037   4.139
 9327SOL    HW128880   4.020   0.108   4.199
 9327SOL    HW228881   4.021   0.051   4.046
 9328SOL     OW28882   2.567   0.060   4.422
 9328SOL    HW128883   2.648   0.007   4.448
 9328SOL    HW228884   2.570   0.080   4.324
 9329SOL     OW28885   0.183   5.182   6.842
 9329SOL    HW128886   0.203   5.130   6.925
 9329SOL    HW228887   0.110   5.248   6.860
 9330SOL     OW28888   6.118   5.222   6.682
 9330SOL    HW128889   6.147   5.160   6.609
 9330SOL    HW228890   6.153   5.189   6.770
 9331SOL     OW28891   1.886   2.688   4.796
 9331SOL    HW128892   1.906   2.779   4.832
 9331SOL    HW228893   1.935   2.675   4.710
 9332SOL     OW28894   4.899   5.210   1.014
 9332SOL    HW128895   4.854   5.202   0.925
 9332SOL    HW228896   4.882   5.127   1.067
 9333SOL     OW28897   3.795   4.698   1.060
 9333SOL    HW128898   3.707   4.659   1.034
 9333SOL    HW228899   3.862   4.625   1.073
 9334SOL     OW28900   5.886   5.927   5.772
 9334SOL    HW128901   5.955   6.000   5.775
 9334SOL    HW228902   5.798   5.966   5.745
 9335SOL     OW28903   1.653   2.838   1.586
 9335SOL    HW128904   1.615   2.926   1.557
 9335SOL    HW228905   1.696   2.848   1.675
 9336SOL     OW28906   6.200   6.825   5.331
 9336SOL    HW128907   6.137   6.799   5.404
 9336SOL    HW228908   6.230   6.743   5.282
 9337SOL     OW28909   2.729   0.253   6.823
 9337SOL    HW128910   2.709   0.189   6.748
 9337SOL    HW228911   2.796   0.320   6.791
 9338SOL     OW28912   5.865   6.932   6.901
 9338SOL    HW128913   5.965   6.934   6.899
 9338SOL    HW228914   5.829   0.002   6.895
 9339SOL     OW28915   6.702   4.429   5.222
 9339SOL    HW128916   6.611   4.455   5.190
 9339SOL    HW228917   6.746   4.507   5.265
 9340SOL     OW28918   4.282   5.977   1.889
 9340SOL    HW128919   4.302   5.988   1.792
 9340SOL    HW228920   4.275   5.880   1.911
 9341SOL     OW28921   4.954   3.862   6.935
 9341SOL    HW128922   4.904   3.777   6.916
 9341SOL    HW228923   4.906   3.914   7.005
 9342SOL     OW28924   2.975   0.359   4.034
 9342SOL    HW128925   3.005   0.437   4.089
 9342SOL    HW228926   2.882   0.375   4.001
 9343SOL     OW28927   4.479   4.635   1.692
 9343SOL    HW128928   4.579   4.639   1.693
 9343SOL    HW228929   4.446   4.596   1.779
 9344SOL     OW28930   5.858   5.637   4.813
 9344SOL    HW128931   5.854   5.672   4.906
 9344SOL    HW228932   5.825   5.543   4.811
 9345SOL     OW28933   6.653   6.363   1.033
 9345SOL    HW128934   6.598   6.393   0.955
 9345SOL    HW228935   6.593   6.319   1.101
 9346SOL     OW28936   5.903   5.901   0.996
 9346SOL    HW128937   5.892   5.972   1.066
 9346SOL    HW228938   5.827   5.906   0.931
 9347SOL     OW28939   3.677   5.363   0.956
 9347SOL    HW128940   3.640   5.455   0.949
 9347SOL    HW228941   3.640   5.318   1.038
 9348SOL     OW28942   1.801   6.043   1.846
 9348SOL    HW128943   1.779   6.061   1.751
 9348SOL    HW228944   1.750   5.963   1.878
 9349SOL     OW28945   6.199   5.740   1.908
 9349SOL    HW128946   6.109   5.784   1.910
 9349SOL    HW228947   6.238   5.749   1.816
 9350SOL     OW28948   6.998   0.096   5.353
 9350SOL    HW128949   0.074   0.087   5.366
 9350SOL    HW228950   6.977   0.189   5.325
 9351SOL     OW28951   2.890   1.706   6.382
 9351SOL    HW128952   2.827   1.744   6.314
 9351SOL    HW228953   2.903   1.772   6.456
 9352SOL     OW28954   3.615   2.263   6.475
 9352SOL    HW128955   3.516   2.255   6.485
 9352SOL    HW228956   3.637   2.350   6.432
 9353SOL     OW28957   1.641   3.549   0.973
 9353SOL    HW128958   1.635   3.576   0.877
 9353SOL    HW228959   1.737   3.542   1.000
 9354SOL     OW28960   4.836   2.353   1.301
 9354SOL    HW128961   4.756   2.311   1.260
 9354SOL    HW228962   4.817   2.376   1.396
 9355SOL     OW28963   6.858   6.967   3.368
 9355SOL    HW128964   6.849   6.873   3.334
 9355SOL    HW228965   6.768   7.005   3.386
 9356SOL     OW28966   4.142   4.724   2.452
 9356SOL    HW128967   4.200   4.648   2.422
 9356SOL    HW228968   4.075   4.745   2.381
 9357SOL     OW28969   3.173   2.424   1.218
 9357SOL    HW128970   3.212   2.506   1.178
 9357SOL    HW228971   3.194   2.421   1.316
 9358SOL     OW28972   6.550   4.848   2.339
 9358SOL    HW128973   6.537   4.753   2.369
 9358SOL    HW228974   6.531   4.910   2.414
 9359SOL     OW28975   6.680   4.255   5.854
 9359SOL    HW128976   6.744   4.321   5.814
 9359SOL    HW228977   6.610   4.304   5.906
 9360SOL     OW28978   2.190   1.003   6.837
 9360SOL    HW128979   2.124   1.071   6.806
 9360SOL    HW228980   2.251   0.978   6.761
 9361SOL     OW28981   2.662   6.319   2.515
 9361SOL    HW128982   2.663   6.228   2.473
 9361SOL    HW228983   2.617   6.384   2.454
 9362SOL     OW28984   2.316   1.106   2.529
 9362SOL    HW128985   2.249   1.151   2.587
 9362SOL    HW228986   2.382   1.057   2.586
 9363SOL     OW28987   3.233   6.350   2.410
 9363SOL    HW128988   3.222   6.320   2.505
 9363SOL    HW228989   3.146   6.388   2.377
 9364SOL     OW28990   4.528   3.246   0.317
 9364SOL    HW128991   4.490   3.154   0.308
 9364SOL    HW228992   4.561   3.277   0.227
 9365SOL     OW28993   2.463   2.044   5.024
 9365SOL    HW128994   2.551   2.017   4.984
 9365SOL    HW228995   2.447   2.141   5.005
 9366SOL     OW28996   2.518   1.703   0.400
 9366SOL    HW128997   2.607   1.713   0.444
 9366SOL    HW228998   2.457   1.777   0.428
 9367SOL     OW28999   6.593   5.813   2.702
 9367SOL    HW129000   6.626   5.847   2.789
 9367SOL    HW229001   6.525   5.741   2.718
 9368SOL     OW29002   3.103   1.782   1.889
 9368SOL    HW129003   3.131   1.849   1.820
 9368SOL    HW229004   3.030   1.821   1.945
 9369SOL     OW29005   0.250   2.459   4.596
 9369SOL    HW129006   0.215   2.501   4.679
 9369SOL    HW229007   0.178   2.403   4.554
 9370SOL     OW29008   6.214   0.453   2.688
 9370SOL    HW129009   6.254   0.529   2.740
 9370SOL    HW229010   6.176   0.487   2.602
 9371SOL     OW29011   0.217   6.336   0.426
 9371SOL    HW129012   0.252   6.253   0.383
 9371SOL    HW229013   0.265   6.352   0.512
 9372SOL     OW29014   6.005   6.618   3.996
 9372SOL    HW129015   5.920   6.654   4.036
 9372SOL    HW229016   6.079   6.683   4.013
 9373SOL     OW29017   3.908   1.603   2.884
 9373SOL    HW129018   3.814   1.628   2.908
 9373SOL    HW229019   3.970   1.676   2.912
 9374SOL     OW29020   5.316   2.828   0.401
 9374SOL    HW129021   5.372   2.832   0.483
 9374SOL    HW229022   5.250   2.903   0.402
 9375SOL     OW29023   0.714   1.356   3.142
 9375SOL    HW129024   0.713   1.281   3.209
 9375SOL    HW229025   0.625   1.401   3.140
 9376SOL     OW29026   2.682   4.177   0.668
 9376SOL    HW129027   2.721   4.262   0.634
 9376SOL    HW229028   2.654   4.189   0.763
 9377SOL     OW29029   6.343   5.658   3.486
 9377SOL    HW129030   6.439   5.631   3.499
 9377SOL    HW229031   6.339   5.732   3.420
 9378SOL     OW29032   2.116   0.085   0.149
 9378SOL    HW129033   2.040   0.026   0.122
 9378SOL    HW229034   2.188   0.082   0.080
 9379SOL     OW29035   4.943   5.354   3.809
 9379SOL    HW129036   4.976   5.441   3.844
 9379SOL    HW229037   4.899   5.302   3.882
 9380SOL     OW29038   6.450   6.896   5.498
 9380SOL    HW129039   6.430   6.818   5.438
 9380SOL    HW229040   6.438   6.869   5.593
 9381SOL     OW29041   2.475   2.281   5.791
 9381SOL    HW129042   2.530   2.365   5.796
 9381SOL    HW229043   2.401   2.286   5.857
 9382SOL     OW29044   4.036   1.528   2.335
 9382SOL    HW129045   4.134   1.534   2.354
 9382SOL    HW229046   4.010   1.432   2.328
 9383SOL     OW29047   4.091   6.406   3.986
 9383SOL    HW129048   4.022   6.475   3.962
 9383SOL    HW229049   4.066   6.363   4.072
 9384SOL     OW29050   5.117   6.365   2.244
 9384SOL    HW129051   5.043   6.298   2.250
 9384SOL    HW229052   5.082   6.451   2.207
 9385SOL     OW29053   4.188   0.683   3.536
 9385SOL    HW129054   4.161   0.779   3.538
 9385SOL    HW229055   4.276   0.672   3.583
 9386SOL     OW29056   2.987   6.668   5.732
 9386SOL    HW129057   2.983   6.631   5.639
 9386SOL    HW229058   2.896   6.667   5.772
 9387SOL     OW29059   3.047   6.539   1.685
 9387SOL    HW129060   3.139   6.578   1.696
 9387SOL    HW229061   2.991   6.603   1.633
 9388SOL     OW29062   0.221   0.674   2.728
 9388SOL    HW129063   0.170   0.686   2.813
 9388SOL    HW229064   0.226   0.576   2.706
 9389SOL     OW29065   2.475   1.047   5.755
 9389SOL    HW129066   2.392   1.002   5.787
 9389SOL    HW229067   2.550   1.028   5.817
 9390SOL     OW29068   3.258   5.400   2.510
 9390SOL    HW129069   3.163   5.374   2.528
 9390SOL    HW229070   3.261   5.497   2.485
 9391SOL     OW29071   1.078   1.617   5.583
 9391SOL    HW129072   1.008   1.669   5.536
 9391SOL    HW229073   1.043   1.585   5.672
 9392SOL     OW29074   1.552   6.838   4.629
 9392SOL    HW129075   1.609   6.841   4.547
 9392SOL    HW229076   1.530   6.743   4.651
 9393SOL     OW29077   3.624   2.169   5.320
 9393SOL    HW129078   3.582   2.237   5.381
 9393SOL    HW229079   3.557   2.141   5.251
 9394SOL     OW29080   6.884   3.191   2.886
 9394SOL    HW129081   6.820   3.117   2.903
 9394SOL    HW229082   6.838   3.265   2.836
 9395SOL     OW29083   2.687   3.184   0.864
 9395SOL    HW129084   2.609   3.128   0.893
 9395SOL    HW229085   2.654   3.264   0.814
 9396SOL     OW29086   6.193   0.001   5.927
 9396SOL    HW129087   6.258   0.076   5.915
 9396SOL    HW229088   6.105   0.026   5.886
 9397SOL     OW29089   2.266   0.108   0.381
 9397SOL    HW129090   2.233   0.101   0.287
 9397SOL    HW229091   2.327   0.187   0.389
 9398SOL     OW29092   2.778   1.442   6.368
 9398SOL    HW129093   2.814   1.536   6.366
 9398SOL    HW229094   2.842   1.383   6.416
 9399SOL     OW29095   6.362   1.464   6.155
 9399SOL    HW129096   6.457   1.431   6.154
 9399SOL    HW229097   6.329   1.468   6.249
 9400SOL     OW29098   5.250   3.354   1.986
 9400SOL    HW129099   5.299   3.332   1.902
 9400SOL    HW229100   5.295   3.311   2.064
 9401SOL     OW29101   3.022   6.067   3.684
 9401SOL    HW129102   3.011   6.029   3.775
 9401SOL    HW229103   3.108   6.035   3.644
 9402SOL     OW29104   2.458   4.905   6.129
 9402SOL    HW129105   2.462   4.806   6.122
 9402SOL    HW229106   2.367   4.937   6.104
 9403SOL     OW29107   5.249   1.388   3.759
 9403SOL    HW129108   5.200   1.465   3.720
 9403SOL    HW229109   5.253   1.313   3.693
 9404SOL     OW29110   0.941   5.235   6.999
 9404SOL    HW129111   1.002   5.223   6.921
 9404SOL    HW229112   0.948   5.329   0.010
 9405SOL     OW29113   6.118   6.895   1.452
 9405SOL    HW129114   6.025   6.918   1.480
 9405SOL    HW229115   6.131   6.921   1.357
 9406SOL     OW29116   7.003   1.976   5.321
 9406SOL    HW129117   0.040   1.942   5.249
 9406SOL    HW229118   0.013   2.064   5.354
 9407SOL     OW29119   3.463   5.909   3.507
 9407SOL    HW129120   3.539   5.866   3.458
 9407SOL    HW229121   3.487   5.918   3.604
 9408SOL     OW29122   3.963   2.023   6.973
 9408SOL    HW129123   3.881   1.982   6.935
 9408SOL    HW229124   4.014   1.955   0.002
 9409SOL     OW29125   5.835   3.428   3.765
 9409SOL    HW129126   5.908   3.439   3.697
 9409SOL    HW229127   5.873   3.440   3.857
 9410SOL     OW29128   4.397   6.226   2.279
 9410SOL    HW129129   4.351   6.140   2.256
 9410SOL    HW229130   4.379   6.293   2.207
 9411SOL     OW29131   4.633   5.963   0.602
 9411SOL    HW129132   4.686   6.044   0.625
 9411SOL    HW229133   4.675   5.916   0.525
 9412SOL     OW29134   0.441   2.767   0.879
 9412SOL    HW129135   0.404   2.821   0.954
 9412SOL    HW229136   0.539   2.753   0.893
 9413SOL     OW29137   4.301   5.924   5.260
 9413SOL    HW129138   4.257   6.014   5.260
 9413SOL    HW229139   4.400   5.936   5.255
 9414SOL     OW29140   3.016   1.356   3.040
 9414SOL    HW129141   3.052   1.431   2.984
 9414SOL    HW229142   3.069   1.273   3.023
 9415SOL     OW29143   1.907   6.290   2.460
 9415SOL    HW129144   1.931   6.384   2.438
 9415SOL    HW229145   1.809   6.276   2.445
 9416SOL     OW29146   1.404   1.623   1.938
 9416SOL    HW129147   1.417   1.553   1.867
 9416SOL    HW229148   1.486   1.680   1.944
 9417SOL     OW29149   2.312   5.700   5.606
 9417SOL    HW129150   2.226   5.651   5.613
 9417SOL    HW229151   2.337   5.712   5.510
 9418SOL     OW29152   2.511   5.452   1.926
 9418SOL    HW129153   2.417   5.485   1.922
 9418SOL    HW229154   2.573   5.525   1.894
 9419SOL     OW29155   2.853   6.653   5.247
 9419SOL    HW129156   2.888   6.717   5.178
 9419SOL    HW229157   2.795   6.585   5.202
 9420SOL     OW29158   6.674   1.273   4.968
 9420SOL    HW129159   6.625   1.307   4.888
 9420SOL    HW229160   6.747   1.210   4.939
 9421SOL     OW29161   1.320   4.053   5.547
 9421SOL    HW129162   1.405   3.999   5.554
 9421SOL    HW229163   1.343   4.150   5.546
 9422SOL     OW29164   5.404   0.285   2.325
 9422SOL    HW129165   5.427   0.232   2.243
 9422SOL    HW229166   5.344   0.230   2.383
 9423SOL     OW29167   4.245   1.013   3.660
 9423SOL    HW129168   4.230   1.031   3.563
 9423SOL    HW229169   4.191   1.077   3.715
 9424SOL     OW29170   4.445   0.429   5.270
 9424SOL    HW129171   4.524   0.386   5.313
 9424SOL    HW229172   4.371   0.363   5.262
 9425SOL     OW29173   0.507   4.034   5.430
 9425SOL    HW129174   0.518   4.134   5.435
 9425SOL    HW229175   0.596   3.991   5.417
 9426SOL     OW29176   2.922   0.657   6.771
 9426SOL    HW129177   2.958   0.564   6.758
 9426SOL    HW229178   2.822   0.654   6.773
 9427SOL     OW29179   2.917   5.423   5.008
 9427SOL    HW129180   2.880   5.467   4.926
 9427SOL    HW229181   2.955   5.333   4.984
 9428SOL     OW29182   5.379   0.618   2.957
 9428SOL    HW129183   5.302   0.663   2.911
 9428SOL    HW229184   5.458   0.679   2.957
 9429SOL     OW29185   1.119   4.397   2.047
 9429SOL    HW129186   1.095   4.395   2.144
 9429SOL    HW229187   1.185   4.324   2.027
 9430SOL     OW29188   6.768   6.406   1.783
 9430SOL    HW129189   6.864   6.378   1.788
 9430SOL    HW229190   6.714   6.353   1.848
 9431SOL     OW29191   6.927   3.526   0.006
 9431SOL    HW129192   6.915   3.598   0.074
 9431SOL    HW229193   6.850   3.527   6.965
 9432SOL     OW29194   5.812   0.050   3.286
 9432SOL    HW129195   5.899   0.078   3.328
 9432SOL    HW229196   5.774   6.996   3.336
 9433SOL     OW29197   3.289   4.921   5.175
 9433SOL    HW129198   3.217   4.853   5.189
 9433SOL    HW229199   3.250   5.003   5.134
 9434SOL     OW29200   5.631   3.904   3.031
 9434SOL    HW129201   5.641   3.837   3.104
 9434SOL    HW229202   5.662   3.864   2.945
 9435SOL     OW29203   1.799   1.693   4.066
 9435SOL    HW129204   1.715   1.722   4.112
 9435SOL    HW229205   1.878   1.720   4.121
 9436SOL     OW29206   1.960   4.086   0.613
 9436SOL    HW129207   1.929   3.991   0.607
 9436SOL    HW229208   1.920   4.139   0.539
 9437SOL     OW29209   1.155   5.149   3.081
 9437SOL    HW129210   1.129   5.118   3.172
 9437SOL    HW229211   1.081   5.205   3.042
 9438SOL     OW29212   0.581   6.803   2.204
 9438SOL    HW129213   0.526   6.877   2.245
 9438SOL    HW229214   0.669   6.797   2.251
 9439SOL     OW29215   6.810   3.701   1.889
 9439SOL    HW129216   6.886   3.717   1.952
 9439SOL    HW229217   6.833   3.739   1.799
 9440SOL     OW29218   5.276   6.490   5.163
 9440SOL    HW129219   5.370   6.459   5.152
 9440SOL    HW229220   5.215   6.412   5.177
 9441SOL     OW29221   1.518   4.944   4.782
 9441SOL    HW129222   1.604   4.904   4.749
 9441SOL    HW229223   1.529   4.968   4.879
 9442SOL     OW29224   6.842   2.444   0.148
 9442SOL    HW129225   6.895   2.372   0.193
 9442SOL    HW229226   6.747   2.416   0.142
 9443SOL     OW29227   1.863   4.701   0.991
 9443SOL    HW129228   1.839   4.640   0.916
 9443SOL    HW229229   1.785   4.712   1.052
 9444SOL     OW29230   0.547   2.645   0.199
 9444SOL    HW129231   0.500   2.732   0.217
 9444SOL    HW229232   0.586   2.647   0.107
 9445SOL     OW29233   5.252   3.632   2.339
 9445SOL    HW129234   5.230   3.638   2.241
 9445SOL    HW229235   5.347   3.604   2.350
 9446SOL     OW29236   6.491   6.234   2.423
 9446SOL    HW129237   6.526   6.185   2.343
 9446SOL    HW229238   6.506   6.180   2.505
 9447SOL     OW29239   4.821   3.882   2.334
 9447SOL    HW129240   4.800   3.944   2.409
 9447SOL    HW229241   4.825   3.934   2.248
 9448SOL     OW29242   5.726   6.272   6.429
 9448SOL    HW129243   5.662   6.320   6.488
 9448SOL    HW229244   5.697   6.176   6.420
 9449SOL     OW29245   6.318   5.727   5.441
 9449SOL    HW129246   6.314   5.628   5.458
 9449SOL    HW229247   6.345   5.743   5.346
 9450SOL     OW29248   2.027   5.237   4.308
 9450SOL    HW129249   2.099   5.168   4.295
 9450SOL    HW229250   2.050   5.295   4.385
 9451SOL     OW29251   4.947   5.450   6.937
 9451SOL    HW129252   5.038   5.480   6.910
 9451SOL    HW229253   4.889   5.441   6.855
 9452SOL     OW29254   2.463   3.649   0.855
 9452SOL    HW129255   2.396   3.576   0.864
 9452SOL    HW229256   2.470   3.698   0.942
 9453SOL     OW29257   2.188   4.956   3.105
 9453SOL    HW129258   2.280   4.920   3.089
 9453SOL    HW229259   2.121   4.892   3.066
 9454SOL     OW29260   1.546   4.451   6.178
 9454SOL    HW129261   1.503   4.363   6.157
 9454SOL    HW229262   1.585   4.448   6.270
 9455SOL     OW29263   3.181   1.161   2.954
 9455SOL    HW129264   3.220   1.106   3.028
 9455SOL    HW229265   3.254   1.213   2.909
 9456SOL     OW29266   0.956   3.921   1.027
 9456SOL    HW129267   1.056   3.924   1.022
 9456SOL    HW229268   0.924   3.836   0.985
 9457SOL     OW29269   2.011   3.434   6.863
 9457SOL    HW129270   1.998   3.483   6.777
 9457SOL    HW229271   2.059   3.493   6.928
 9458SOL     OW29272   6.654   4.947   6.132
 9458SOL    HW129273   6.722   4.951   6.059
 9458SOL    HW229274   6.696   4.907   6.214
 9459SOL     OW29275   5.983   5.185   1.639
 9459SOL    HW129276   6.080   5.188   1.615
 9459SOL    HW229277   5.945   5.278   1.638
 9460SOL     OW29278   0.575   2.473   5.091
 9460SOL    HW129279   0.605   2.431   5.006
 9460SOL    HW229280   0.477   2.495   5.085
 9461SOL     OW29281   0.614   1.083   3.199
 9461SOL    HW129282   0.686   1.049   3.138
 9461SOL    HW229283   0.548   1.009   3.216
 9462SOL     OW29284   1.398   3.060   2.744
 9462SOL    HW129285   1.334   3.079   2.669
 9462SOL    HW229286   1.408   3.141   2.801
 9463SOL     OW29287   6.745   1.073   0.845
 9463SOL    HW129288   6.695   1.116   0.921
 9463SOL    HW229289   6.837   1.112   0.839
 9464SOL     OW29290   6.124   6.865   6.541
 9464SOL    HW129291   6.095   6.801   6.612
 9464SOL    HW229292   6.222   6.853   6.524
 9465SOL     OW29293   6.617   0.733   3.583
 9465SOL    HW129294   6.683   0.661   3.602
 9465SOL    HW229295   6.533   0.717   3.636
 9466SOL     OW29296   2.408   3.062   6.037
 9466SOL    HW129297   2.460   3.037   5.955
 9466SOL    HW229298   2.461   3.040   6.119
 9467SOL     OW29299   1.862   2.459   2.013
 9467SOL    HW129300   1.854   2.372   1.964
 9467SOL    HW229301   1.920   2.448   2.093
 9468SOL     OW29302   6.465   2.969   5.884
 9468SOL    HW129303   6.446   3.044   5.948
 9468SOL    HW229304   6.487   2.886   5.935
 9469SOL     OW29305   6.205   5.843   2.314
 9469SOL    HW129306   6.263   5.900   2.372
 9469SOL    HW229307   6.114   5.838   2.354
 9470SOL     OW29308   4.982   3.564   0.159
 9470SOL    HW129309   5.057   3.564   0.093
 9470SOL    HW229310   4.897   3.537   0.113
 9471SOL     OW29311   6.574   2.728   5.705
 9471SOL    HW129312   6.500   2.796   5.703
 9471SOL    HW229313   6.629   2.737   5.621
 9472SOL     OW29314   6.045   4.584   4.323
 9472SOL    HW129315   6.133   4.578   4.371
 9472SOL    HW229316   6.054   4.645   4.245
 9473SOL     OW29317   3.189   6.244   6.405
 9473SOL    HW129318   3.141   6.331   6.408
 9473SOL    HW229319   3.241   6.232   6.489
 9474SOL     OW29320   5.497   4.301   2.029
 9474SOL    HW129321   5.486   4.389   1.983
 9474SOL    HW229322   5.415   4.244   2.013
 9475SOL     OW29323   3.257   3.377   1.062
 9475SOL    HW129324   3.336   3.378   1.124
 9475SOL    HW229325   3.236   3.283   1.038
 9476SOL     OW29326   4.154   3.483   5.436
 9476SOL    HW129327   4.139   3.398   5.487
 9476SOL    HW229328   4.190   3.553   5.497
 9477SOL     OW29329   1.341   2.506   0.997
 9477SOL    HW129330   1.244   2.497   0.973
 9477SOL    HW229331   1.391   2.425   0.968
 9478SOL     OW29332   5.264   3.970   5.346
 9478SOL    HW129333   5.174   4.011   5.348
 9478SOL    HW229334   5.334   4.041   5.351
 9479SOL     OW29335   5.827   5.396   6.456
 9479SOL    HW129336   5.917   5.441   6.458
 9479SOL    HW229337   5.840   5.297   6.454
 9480SOL     OW29338   4.464   4.227   6.642
 9480SOL    HW129339   4.564   4.219   6.642
 9480SOL    HW229340   4.426   4.169   6.713
 9481SOL     OW29341   0.136   3.961   1.785
 9481SOL    HW129342   0.195   3.899   1.837
 9481SOL    HW229343   0.190   4.039   1.754
 9482SOL     OW29344   4.800   0.786   3.225
 9482SOL    HW129345   4.797   0.870   3.172
 9482SOL    HW229346   4.894   0.751   3.227
 9483SOL     OW29347   1.587   1.798   1.225
 9483SOL    HW129348   1.490   1.820   1.213
 9483SOL    HW229349   1.641   1.847   1.156
 9484SOL     OW29350   6.006   0.907   3.764
 9484SOL    HW129351   5.989   0.839   3.693
 9484SOL    HW229352   5.944   0.984   3.752
 9485SOL     OW29353   1.140   1.010   2.086
 9485SOL    HW129354   1.202   1.069   2.138
 9485SOL    HW229355   1.193   0.948   2.029
 9486SOL     OW29356   2.131   6.079   0.528
 9486SOL    HW129357   2.038   6.043   0.515
 9486SOL    HW229358   2.197   6.016   0.486
 9487SOL     OW29359   3.574   4.166   3.712
 9487SOL    HW129360   3.619   4.194   3.797
 9487SOL    HW229361   3.477   4.151   3.730
 9488SOL     OW29362   1.681   6.076   1.107
 9488SOL    HW129363   1.637   6.068   1.017
 9488SOL    HW229364   1.780   6.080   1.095
 9489SOL     OW29365   3.875   4.493   1.342
 9489SOL    HW129366   3.804   4.560   1.362
 9489SOL    HW229367   3.838   4.400   1.351
 9490SOL     OW29368   5.170   0.537   0.926
 9490SOL    HW129369   5.261   0.518   0.889
 9490SOL    HW229370   5.138   0.457   0.978
 9491SOL     OW29371   6.252   5.079   3.876
 9491SOL    HW129372   6.302   4.996   3.900
 9491SOL    HW229373   6.191   5.061   3.799
 9492SOL     OW29374   3.259   3.789   2.116
 9492SOL    HW129375   3.251   3.882   2.080
 9492SOL    HW229376   3.178   3.736   2.091
 9493SOL     OW29377   4.872   5.471   3.168
 9493SOL    HW129378   4.935   5.424   3.230
 9493SOL    HW229379   4.916   5.485   3.079
 9494SOL     OW29380   5.318   3.210   0.205
 9494SOL    HW129381   5.235   3.250   0.245
 9494SOL    HW229382   5.349   3.268   0.130
 9495SOL     OW29383   6.373   2.309   4.090
 9495SOL    HW129384   6.431   2.231   4.066
 9495SOL    HW229385   6.324   2.340   4.009
 9496SOL     OW29386   5.345   4.224   6.716
 9496SOL    HW129387   5.270   4.285   6.744
 9496SOL    HW229388   5.375   4.247   6.624
 9497SOL     OW29389   5.042   4.604   1.220
 9497SOL    HW129390   5.012   4.518   1.179
 9497SOL    HW229391   5.140   4.598   1.242
 9498SOL     OW29392   3.761   6.738   5.393
 9498SOL    HW129393   3.667   6.762   5.416
 9498SOL    HW229394   3.766   6.711   5.297
 9499SOL     OW29395   2.893   3.578   5.637
 9499SOL    HW129396   2.795   3.574   5.658
 9499SOL    HW229397   2.906   3.597   5.540
 9500SOL     OW29398   4.687   6.187   1.434
 9500SOL    HW129399   4.625   6.247   1.382
 9500SOL    HW229400   4.671   6.201   1.532
 9501SOL     OW29401   3.515   1.627   4.248
 9501SOL    HW129402   3.587   1.682   4.205
 9501SOL    HW229403   3.454   1.687   4.300
 9502SOL     OW29404   6.610   2.724   4.826
 9502SOL    HW129405   6.708   2.744   4.837
 9502SOL    HW229406   6.557   2.807   4.845
 9503SOL     OW29407   0.585   0.425   1.775
 9503SOL    HW129408   0.511   0.491   1.764
 9503SOL    HW229409   0.635   0.444   1.860
 9504SOL     OW29410   0.151   2.720   0.583
 9504SOL    HW129411   0.166   2.669   0.667
 9504SOL    HW229412   0.063   2.767   0.588
 9505SOL     OW29413   6.030   3.739   3.145
 9505SOL    HW129414   6.090   3.668   3.108
 9505SOL    HW229415   6.053   3.827   3.103
 9506SOL     OW29416   0.217   3.113   6.901
 9506SOL    HW129417   0.247   3.018   6.911
 9506SOL    HW229418   0.119   3.118   6.916
 9507SOL     OW29419   1.353   0.944   4.124
 9507SOL    HW129420   1.308   0.922   4.211
 9507SOL    HW229421   1.301   1.014   4.077
 9508SOL     OW29422   5.540   1.962   0.519
 9508SOL    HW129423   5.600   2.031   0.479
 9508SOL    HW229424   5.579   1.928   0.604
 9509SOL     OW29425   1.677   6.822   5.135
 9509SOL    HW129426   1.660   6.873   5.051
 9509SOL    HW229427   1.700   6.727   5.112
 9510SOL     OW29428   7.007   4.120   2.303
 9510SOL    HW129429   6.998   4.217   2.323
 9510SOL    HW229430   7.019   4.107   2.204
 9511SOL     OW29431   0.456   2.459   0.395
 9511SOL    HW129432   0.475   2.480   0.299
 9511SOL    HW229433   0.535   2.483   0.451
 9512SOL     OW29434   0.115   2.286   3.828
 9512SOL    HW129435   0.170   2.271   3.746
 9512SOL    HW229436   0.175   2.292   3.908
 9513SOL     OW29437   2.183   3.934   4.620
 9513SOL    HW129438   2.211   3.959   4.527
 9513SOL    HW229439   2.230   3.993   4.685
 9514SOL     OW29440   2.139   3.737   6.516
 9514SOL    HW129441   2.208   3.684   6.467
 9514SOL    HW229442   2.114   3.817   6.463
 9515SOL     OW29443   1.121   6.173   6.930
 9515SOL    HW129444   1.118   6.261   6.979
 9515SOL    HW229445   1.032   6.157   6.887
 9516SOL     OW29446   4.925   3.475   4.084
 9516SOL    HW129447   4.944   3.541   4.011
 9516SOL    HW229448   4.842   3.424   4.063
 9517SOL     OW29449   0.846   5.468   1.095
 9517SOL    HW129450   0.902   5.436   1.019
 9517SOL    HW229451   0.850   5.568   1.099
 9518SOL     OW29452   0.791   2.947   5.729
 9518SOL    HW129453   0.861   2.876   5.724
 9518SOL    HW229454   0.806   3.014   5.656
 9519SOL     OW29455   3.032   3.405   2.966
 9519SOL    HW129456   2.998   3.382   2.875
 9519SOL    HW229457   3.093   3.333   2.997
 9520SOL     OW29458   6.929   1.137   4.952
 9520SOL    HW129459   6.995   1.212   4.954
 9520SOL    HW229460   6.927   1.097   4.861
 9521SOL     OW29461   3.476   5.982   1.762
 9521SOL    HW129462   3.383   6.013   1.742
 9521SOL    HW229463   3.511   6.032   1.842
 9522SOL     OW29464   4.083   5.134   2.069
 9522SOL    HW129465   4.122   5.174   2.152
 9522SOL    HW229466   4.141   5.059   2.037
 9523SOL     OW29467   2.483   5.301   4.668
 9523SOL    HW129468   2.527   5.282   4.756
 9523SOL    HW229469   2.526   5.381   4.626
 9524SOL     OW29470   1.158   4.196   0.963
 9524SOL    HW129471   1.240   4.153   0.999
 9524SOL    HW229472   1.139   4.161   0.871
 9525SOL     OW29473   1.674   2.342   5.641
 9525SOL    HW129474   1.772   2.334   5.623
 9525SOL    HW229475   1.640   2.427   5.601
 9526SOL     OW29476   5.585   5.098   6.658
 9526SOL    HW129477   5.665   5.071   6.712
 9526SOL    HW229478   5.510   5.123   6.719
 9527SOL     OW29479   3.092   6.852   3.959
 9527SOL    HW129480   3.119   6.756   3.954
 9527SOL    HW229481   3.006   6.865   3.910
 9528SOL     OW29482   6.466   1.010   0.768
 9528SOL    HW129483   6.412   1.061   0.702
 9528SOL    HW229484   6.556   1.053   0.777
 9529SOL     OW29485   5.970   3.021   1.687
 9529SOL    HW129486   6.049   3.055   1.636
 9529SOL    HW229487   5.886   3.054   1.644
 9530SOL     OW29488   1.111   5.665   4.619
 9530SOL    HW129489   1.041   5.649   4.689
 9530SOL    HW229490   1.082   5.625   4.532
 9531SOL     OW29491   4.246   4.907   3.661
 9531SOL    HW129492   4.151   4.897   3.688
 9531SOL    HW229493   4.297   4.954   3.734
 9532SOL     OW29494   6.193   4.886   1.818
 9532SOL    HW129495   6.199   4.967   1.876
 9532SOL    HW229496   6.116   4.829   1.847
 9533SOL     OW29497   1.040   5.460   4.368
 9533SOL    HW129498   1.035   5.395   4.444
 9533SOL    HW229499   1.132   5.457   4.328
 9534SOL     OW29500   6.027   4.903   4.341
 9534SOL    HW129501   5.979   4.877   4.424
 9534SOL    HW229502   6.095   4.973   4.362
 9535SOL     OW29503   1.948   1.539   6.042
 9535SOL    HW129504   1.948   1.621   5.986
 9535SOL    HW229505   2.018   1.476   6.008
 9536SOL     OW29506   3.405   3.232   5.229
 9536SOL    HW129507   3.364   3.265   5.144
 9536SOL    HW229508   3.433   3.310   5.285
 9537SOL     OW29509   2.084   1.887   3.914
 9537SOL    HW129510   2.078   1.971   3.969
 9537SOL    HW229511   2.160   1.831   3.947
 9538SOL     OW29512   3.749   0.835   4.668
 9538SOL    HW129513   3.842   0.870   4.663
 9538SOL    HW229514   3.726   0.816   4.764
 9539SOL     OW29515   3.525   2.947   3.911
 9539SOL    HW129516   3.451   2.982   3.854
 9539SOL    HW229517   3.489   2.920   4.000
 9540SOL     OW29518   4.898   5.280   4.070
 9540SOL    HW129519   4.799   5.292   4.067
 9540SOL    HW229520   4.929   5.283   4.165
 9541SOL     OW29521   0.922   0.616   5.414
 9541SOL    HW129522   0.837   0.655   5.450
 9541SOL    HW229523   1.000   0.665   5.453
 9542SOL     OW29524   5.594   4.664   4.183
 9542SOL    HW129525   5.655   4.711   4.119
 9542SOL    HW229526   5.551   4.731   4.243
 9543SOL     OW29527   3.370   6.797   6.193
 9543SOL    HW129528   3.290   6.850   6.218
 9543SOL    HW229529   3.351   6.699   6.206
 9544SOL     OW29530   4.861   3.948   3.882
 9544SOL    HW129531   4.849   3.962   3.980
 9544SOL    HW229532   4.796   4.005   3.832
 9545SOL     OW29533   0.837   4.743   2.032
 9545SOL    HW129534   0.851   4.842   2.033
 9545SOL    HW229535   0.739   4.723   2.041
 9546SOL     OW29536   3.198   1.660   5.777
 9546SOL    HW129537   3.109   1.620   5.755
 9546SOL    HW229538   3.190   1.759   5.783
 9547SOL     OW29539   3.661   5.630   4.406
 9547SOL    HW129540   3.703   5.582   4.483
 9547SOL    HW229541   3.585   5.577   4.371
 9548SOL     OW29542   0.920   5.346   5.562
 9548SOL    HW129543   0.918   5.270   5.498
 9548SOL    HW229544   0.874   5.320   5.647
 9549SOL     OW29545   3.954   1.212   2.288
 9549SOL    HW129546   3.856   1.218   2.273
 9549SOL    HW229547   4.003   1.254   2.211
 9550SOL     OW29548   6.092   2.410   1.502
 9550SOL    HW129549   6.087   2.459   1.589
 9550SOL    HW229550   6.071   2.473   1.427
 9551SOL     OW29551   5.866   2.848   5.875
 9551SOL    HW129552   5.935   2.912   5.908
 9551SOL    HW229553   5.775   2.881   5.900
 9552SOL     OW29554   2.387   0.659   6.759
 9552SOL    HW129555   2.462   0.683   6.821
 9552SOL    HW229556   2.407   0.693   6.667
 9553SOL     OW29557   5.084   1.903   0.629
 9553SOL    HW129558   5.128   1.975   0.576
 9553SOL    HW229559   5.153   1.838   0.661
 9554SOL     OW29560   2.561   6.586   3.701
 9554SOL    HW129561   2.644   6.608   3.650
 9554SOL    HW229562   2.482   6.596   3.641
 9555SOL     OW29563   6.860   1.708   3.861
 9555SOL    HW129564   6.884   1.802   3.837
 9555SOL    HW229565   6.774   1.684   3.817
 9556SOL     OW29566   1.317   4.535   1.442
 9556SOL    HW129567   1.350   4.479   1.366
 9556SOL    HW229568   1.340   4.631   1.425
 9557SOL     OW29569   4.946   0.015   1.770
 9557SOL    HW129570   5.024   7.015   1.829
 9557SOL    HW229571   4.977   0.078   1.699
 9558SOL     OW29572   5.572   6.440   5.550
 9558SOL    HW129573   5.552   6.524   5.500
 9558SOL    HW229574   5.578   6.460   5.648
 9559SOL     OW29575   1.538   3.560   6.812
 9559SOL    HW129576   1.623   3.613   6.820
 9559SOL    HW229577   1.491   3.586   6.727
 9560SOL     OW29578   3.383   0.917   2.375
 9560SOL    HW129579   3.450   0.897   2.447
 9560SOL    HW229580   3.321   0.988   2.407
 9561SOL     OW29581   0.468   0.046   1.444
 9561SOL    HW129582   0.496   0.074   1.536
 9561SOL    HW229583   0.467   0.126   1.384
 9562SOL     OW29584   3.475   5.815   4.442
 9562SOL    HW129585   3.477   5.861   4.353
 9562SOL    HW229586   3.545   5.743   4.444
 9563SOL     OW29587   0.114   6.606   0.721
 9563SOL    HW129588   0.151   6.667   0.651
 9563SOL    HW229589   0.167   6.521   0.723
 9564SOL     OW29590   1.265   1.175   1.298
 9564SOL    HW129591   1.258   1.270   1.266
 9564SOL    HW229592   1.278   1.175   1.397
 9565SOL     OW29593   2.757   1.525   4.402
 9565SOL    HW129594   2.688   1.553   4.468
 9565SOL    HW229595   2.724   1.540   4.309
 9566SOL     OW29596   2.633   6.043   0.988
 9566SOL    HW129597   2.638   5.961   0.931
 9566SOL    HW229598   2.569   6.109   0.947
 9567SOL     OW29599   6.531   4.522   0.249
 9567SOL    HW129600   6.572   4.515   0.158
 9567SOL    HW229601   6.438   4.486   0.246
 9568SOL     OW29602   3.519   1.323   0.486
 9568SOL    HW129603   3.516   1.316   0.386
 9568SOL    HW229604   3.503   1.417   0.513
 9569SOL     OW29605   7.020   0.715   2.538
 9569SOL    HW129606   6.923   0.711   2.561
 9569SOL    HW229607   0.051   0.673   2.611
 9570SOL     OW29608   0.679   2.774   1.042
 9570SOL    HW129609   0.767   2.727   1.053
 9570SOL    HW229610   0.691   2.872   1.058
 9571SOL     OW29611   2.219   2.862   6.133
 9571SOL    HW129612   2.265   2.941   6.094
 9571SOL    HW229613   2.120   2.869   6.117
 9572SOL     OW29614   2.338   4.174   3.076
 9572SOL    HW129615   2.274   4.099   3.092
 9572SOL    HW229616   2.306   4.230   3.000
 9573SOL     OW29617   6.471   0.968   5.716
 9573SOL    HW129618   6.400   1.031   5.684
 9573SOL    HW229619   6.432   0.876   5.723
 9574SOL     OW29620   3.890   3.009   2.052
 9574SOL    HW129621   3.948   3.060   2.117
 9574SOL    HW229622   3.948   2.958   1.988
 9575SOL     OW29623   5.874   0.250   2.929
 9575SOL    HW129624   5.827   0.336   2.947
 9575SOL    HW229625   5.810   0.174   2.939
 9576SOL     OW29626   1.709   1.847   0.159
 9576SOL    HW129627   1.658   1.924   0.123
 9576SOL    HW229628   1.685   1.831   0.254
 9577SOL     OW29629   7.013   5.372   6.957
 9577SOL    HW129630   6.954   5.300   6.992
 9577SOL    HW229631   0.030   5.422   0.010
 9578SOL     OW29632   1.182   2.648   3.118
 9578SOL    HW129633   1.099   2.597   3.098
 9578SOL    HW229634   1.251   2.629   3.048
 9579SOL     OW29635   6.223   6.731   2.082
 9579SOL    HW129636   6.206   6.656   2.146
 9579SOL    HW229637   6.251   6.812   2.133
 9580SOL     OW29638   4.910   3.978   1.398
 9580SOL    HW129639   4.867   3.948   1.312
 9580SOL    HW229640   4.950   3.898   1.444
 9581SOL     OW29641   0.366   0.395   6.425
 9581SOL    HW129642   0.336   0.480   6.468
 9581SOL    HW229643   0.465   0.397   6.411
 9582SOL     OW29644   3.827   5.466   4.572
 9582SOL    HW129645   3.925   5.481   4.557
 9582SOL    HW229646   3.798   5.384   4.523
 9583SOL     OW29647   3.237   4.688   1.509
 9583SOL    HW129648   3.178   4.699   1.590
 9583SOL    HW229649   3.268   4.778   1.478
 9584SOL     OW29650   1.891   4.982   5.621
 9584SOL    HW129651   1.869   4.985   5.524
 9584SOL    HW229652   1.819   4.933   5.670
 9585SOL     OW29653   5.297   6.846   1.807
 9585SOL    HW129654   5.255   6.906   1.876
 9585SOL    HW229655   5.229   6.782   1.773
 9586SOL     OW29656   4.378   5.304   2.046
 9586SOL    HW129657   4.435   5.223   2.034
 9586SOL    HW229658   4.417   5.381   1.997
 9587SOL     OW29659   1.536   5.978   2.567
 9587SOL    HW129660   1.546   6.063   2.516
 9587SOL    HW229661   1.512   5.998   2.662
 9588SOL     OW29662   5.920   6.147   0.597
 9588SOL    HW129663   5.988   6.114   0.663
 9588SOL    HW229664   5.829   6.113   0.623
 9589SOL     OW29665   1.782   4.117   6.968
 9589SOL    HW129666   1.738   4.205   6.989
 9589SOL    HW229667   1.765   4.093   6.873
 9590SOL     OW29668   6.156   2.232   2.015
 9590SOL    HW129669   6.200   2.144   2.035
 9590SOL    HW229670   6.226   2.301   1.997
 9591SOL     OW29671   3.810   6.694   6.694
 9591SOL    HW129672   3.841   6.663   6.604
 9591SOL    HW229673   3.710   6.706   6.692
 9592SOL     OW29674   3.200   5.142   0.180
 9592SOL    HW129675   3.183   5.079   0.256
 9592SOL    HW229676   3.298   5.149   0.164
 9593SOL     OW29677   1.397   2.169   5.385
 9593SOL    HW129678   1.366   2.250   5.434
 9593SOL    HW229679   1.495   2.176   5.367
 9594SOL     OW29680   2.919   6.150   4.451
 9594SOL    HW129681   3.017   6.134   4.457
 9594SOL    HW229682   2.901   6.248   4.438
 9595SOL     OW29683   0.597   3.348   3.338
 9595SOL    HW129684   0.682   3.340   3.285
 9595SOL    HW229685   0.613   3.406   3.418
 9596SOL     OW29686   0.892   5.473   0.553
 9596SOL    HW129687   0.975   5.489   0.607
 9596SOL    HW229688   0.822   5.432   0.611
 9597SOL     OW29689   0.107   4.380   1.262
 9597SOL    HW129690   0.068   4.288   1.267
 9597SOL    HW229691   0.160   4.388   1.178
 9598SOL     OW29692   1.963   3.846   3.074
 9598SOL    HW129693   2.023   3.790   3.131
 9598SOL    HW229694   1.907   3.906   3.132
 9599SOL     OW29695   3.003   6.925   4.297
 9599SOL    HW129696   2.976   6.838   4.256
 9599SOL    HW229697   3.000   6.997   4.228
 9600SOL     OW29698   2.892   0.294   0.721
 9600SOL    HW129699   2.952   0.214   0.719
 9600SOL    HW229700   2.849   0.306   0.632
 9601SOL     OW29701   5.588   4.077   0.446
 9601SOL    HW129702   5.611   4.058   0.541
 9601SOL    HW229703   5.669   4.112   0.398
 9602SOL     OW29704   5.077   3.501   5.480
 9602SOL    HW129705   5.095   3.571   5.549
 9602SOL    HW229706   5.017   3.538   5.409
 9603SOL     OW29707   5.374   6.645   6.564
 9603SOL    HW129708   5.338   6.574   6.623
 9603SOL    HW229709   5.466   6.621   6.534
 9604SOL     OW29710   5.261   0.107   1.354
 9604SOL    HW129711   5.195   0.120   1.280
 9604SOL    HW229712   5.298   0.195   1.382
 9605SOL     OW29713   0.686   5.645   2.632
 9605SOL    HW129714   0.676   5.710   2.556
 9605SOL    HW229715   0.678   5.552   2.597
 9606SOL     OW29716   1.484   0.203   6.413
 9606SOL    HW129717   1.537   0.120   6.426
 9606SOL    HW229718   1.514   0.273   6.478
 9607SOL     OW29719   2.727   1.216   7.010
 9607SOL    HW129720   2.651   1.257   6.959
 9607SOL    HW229721   2.812   1.261   6.983
 9608SOL     OW29722   6.968   4.859   2.022
 9608SOL    HW129723   0.016   4.907   1.970
 9608SOL    HW229724   6.910   4.808   1.958
 9609SOL     OW29725   3.829   3.272   7.010
 9609SOL    HW129726   3.863   3.253   6.918
 9609SOL    HW229727   3.759   3.343   7.006
 9610SOL     OW29728   1.797   4.560   2.948
 9610SOL    HW129729   1.716   4.598   2.993
 9610SOL    HW229730   1.815   4.468   2.983
 9611SOL     OW29731   1.534   6.524   0.450
 9611SOL    HW129732   1.516   6.426   0.457
 9611SOL    HW229733   1.465   6.575   0.502
 9612SOL     OW29734   0.482   3.546   1.813
 9612SOL    HW129735   0.449   3.549   1.719
 9612SOL    HW229736   0.411   3.505   1.871
 9613SOL     OW29737   5.200   6.427   3.542
 9613SOL    HW129738   5.163   6.351   3.489
 9613SOL    HW229739   5.299   6.433   3.528
 9614SOL     OW29740   3.639   1.887   1.947
 9614SOL    HW129741   3.591   1.804   1.918
 9614SOL    HW229742   3.575   1.948   1.994
 9615SOL     OW29743   2.766   1.590   1.374
 9615SOL    HW129744   2.754   1.497   1.339
 9615SOL    HW229745   2.707   1.604   1.453
 9616SOL     OW29746   3.403   3.695   1.324
 9616SOL    HW129747   3.431   3.657   1.236
 9616SOL    HW229748   3.476   3.754   1.360
 9617SOL     OW29749   1.976   2.918   3.504
 9617SOL    HW129750   1.891   2.888   3.548
 9617SOL    HW229751   1.954   2.954   3.413
 9618SOL     OW29752   2.942   0.289   1.001
 9618SOL    HW129753   2.903   0.343   1.076
 9618SOL    HW229754   2.893   0.310   0.916
 9619SOL     OW29755   2.277   0.468   5.361
 9619SOL    HW129756   2.219   0.440   5.438
 9619SOL    HW229757   2.255   0.563   5.337
 9620SOL     OW29758   4.228   0.088   4.885
 9620SOL    HW129759   4.220   0.179   4.925
 9620SOL    HW229760   4.146   0.035   4.906
 9621SOL     OW29761   1.799   3.192   1.718
 9621SOL    HW129762   1.702   3.206   1.699
 9621SOL    HW229763   1.809   3.114   1.780
 9622SOL     OW29764   6.118   1.875   0.728
 9622SOL    HW129765   6.120   1.778   0.707
 9622SOL    HW229766   6.023   1.906   0.735
 9623SOL     OW29767   2.290   3.288   6.170
 9623SOL    HW129768   2.358   3.218   6.150
 9623SOL    HW229769   2.310   3.370   6.116
 9624SOL     OW29770   5.844   4.061   3.160
 9624SOL    HW129771   5.758   4.050   3.110
 9624SOL    HW229772   5.898   4.134   3.118
 9625SOL     OW29773   5.547   5.101   0.384
 9625SOL    HW129774   5.497   5.147   0.311
 9625SOL    HW229775   5.593   5.169   0.441
 9626SOL     OW29776   4.394   5.207   0.425
 9626SOL    HW129777   4.384   5.117   0.382
 9626SOL    HW229778   4.389   5.278   0.354
 9627SOL     OW29779   0.719   6.413   6.458
 9627SOL    HW129780   0.716   6.316   6.485
 9627SOL    HW229781   0.756   6.420   6.365
 9628SOL     OW29782   5.456   4.746   1.085
 9628SOL    HW129783   5.536   4.807   1.082
 9628SOL    HW229784   5.431   4.721   0.991
 9629SOL     OW29785   1.922   0.454   1.312
 9629SOL    HW129786   1.928   0.421   1.218
 9629SOL    HW229787   1.926   0.554   1.313
 9630SOL     OW29788   6.194   6.319   4.762
 9630SOL    HW129789   6.193   6.378   4.843
 9630SOL    HW229790   6.175   6.225   4.789
 9631SOL     OW29791   6.936   6.784   5.930
 9631SOL    HW129792   6.956   6.857   5.996
 9631SOL    HW229793   6.950   6.818   5.837
 9632SOL     OW29794   1.425   6.718   2.835
 9632SOL    HW129795   1.522   6.702   2.814
 9632SOL    HW229796   1.392   6.646   2.897
 9633SOL     OW29797   5.486   4.623   6.498
 9633SOL    HW129798   5.405   4.655   6.548
 9633SOL    HW229799   5.457   4.582   6.411
 9634SOL     OW29800   1.091   6.497   3.803
 9634SOL    HW129801   1.017   6.552   3.766
 9634SOL    HW229802   1.091   6.406   3.760
 9635SOL     OW29803   1.964   6.324   4.840
 9635SOL    HW129804   2.049   6.340   4.790
 9635SOL    HW229805   1.942   6.226   4.839
 9636SOL     OW29806   4.079   1.704   5.715
 9636SOL    HW129807   4.138   1.636   5.672
 9636SOL    HW229808   3.987   1.666   5.726
 9637SOL     OW29809   2.430   2.694   6.524
 9637SOL    HW129810   2.358   2.752   6.561
 9637SOL    HW229811   2.421   2.688   6.424
 9638SOL     OW29812   0.159   3.722   5.917
 9638SOL    HW129813   0.237   3.695   5.974
 9638SOL    HW229814   0.104   3.790   5.966
 9639SOL     OW29815   4.022   1.746   2.036
 9639SOL    HW129816   3.994   1.805   2.112
 9639SOL    HW229817   4.118   1.762   2.015
 9640SOL     OW29818   2.165   2.732   3.795
 9640SOL    HW129819   2.066   2.731   3.811
 9640SOL    HW229820   2.188   2.805   3.731
 9641SOL     OW29821   4.366   0.353   0.746
 9641SOL    HW129822   4.426   0.370   0.668
 9641SOL    HW229823   4.360   0.434   0.803
 9642SOL     OW29824   2.600   0.340   4.702
 9642SOL    HW129825   2.678   0.288   4.738
 9642SOL    HW229826   2.628   0.389   4.620
 9643SOL     OW29827   5.379   3.854   3.610
 9643SOL    HW129828   5.324   3.774   3.633
 9643SOL    HW229829   5.319   3.927   3.578
 9644SOL     OW29830   1.065   3.245   6.310
 9644SOL    HW129831   1.094   3.332   6.271
 9644SOL    HW229832   1.045   3.256   6.407
 9645SOL     OW29833   2.329   5.107   5.025
 9645SOL    HW129834   2.308   5.011   5.042
 9645SOL    HW229835   2.320   5.159   5.110
 9646SOL     OW29836   3.796   5.188   2.630
 9646SOL    HW129837   3.877   5.191   2.572
 9646SOL    HW229838   3.819   5.143   2.716
 9647SOL     OW29839   6.174   3.690   1.139
 9647SOL    HW129840   6.239   3.616   1.156
 9647SOL    HW229841   6.223   3.770   1.106
 9648SOL     OW29842   3.805   1.530   1.081
 9648SOL    HW129843   3.802   1.582   0.996
 9648SOL    HW229844   3.713   1.521   1.118
 9649SOL     OW29845   2.952   6.623   0.264
 9649SOL    HW129846   3.028   6.569   0.300
 9649SOL    HW229847   2.940   6.705   0.320
 9650SOL     OW29848   0.202   5.028   2.513
 9650SOL    HW129849   0.293   5.068   2.523
 9650SOL    HW229850   0.178   4.978   2.597
 9651SOL     OW29851   0.066   2.233   5.394
 9651SOL    HW129852   0.161   2.262   5.389
 9651SOL    HW229853   0.040   2.219   5.489
 9652SOL     OW29854   0.904   5.105   1.403
 9652SOL    HW129855   0.954   5.040   1.460
 9652SOL    HW229856   0.806   5.098   1.421
 9653SOL     OW29857   4.211   4.806   5.046
 9653SOL    HW129858   4.228   4.832   4.952
 9653SOL    HW229859   4.152   4.874   5.090
 9654SOL     OW29860   2.752   2.163   1.907
 9654SOL    HW129861   2.754   2.199   1.814
 9654SOL    HW229862   2.820   2.210   1.963
 9655SOL     OW29863   0.049   1.814   5.992
 9655SOL    HW129864   0.088   1.750   5.925
 9655SOL    HW229865   0.089   1.905   5.977
 9656SOL     OW29866   2.879   0.664   2.692
 9656SOL    HW129867   2.814   0.721   2.743
 9656SOL    HW229868   2.837   0.576   2.672
 9657SOL     OW29869   5.188   1.040   4.553
 9657SOL    HW129870   5.137   1.122   4.528
 9657SOL    HW229871   5.203   0.984   4.472
 9658SOL     OW29872   0.101   2.666   2.101
 9658SOL    HW129873   0.033   2.596   2.078
 9658SOL    HW229874   0.106   2.677   2.201
 9659SOL     OW29875   6.968   3.909   0.702
 9659SOL    HW129876   7.003   3.861   0.621
 9659SOL    HW229877   7.008   3.868   0.784
 9660SOL     OW29878   0.453   5.913   1.140
 9660SOL    HW129879   0.548   5.941   1.122
 9660SOL    HW229880   0.406   5.899   1.053
 9661SOL     OW29881   4.856   6.212   1.184
 9661SOL    HW129882   4.798   6.176   1.257
 9661SOL    HW229883   4.799   6.259   1.116
 9662SOL     OW29884   6.147   2.680   4.916
 9662SOL    HW129885   6.064   2.709   4.964
 9662SOL    HW229886   6.165   2.584   4.937
 9663SOL     OW29887   1.642   5.512   3.508
 9663SOL    HW129888   1.591   5.467   3.581
 9663SOL    HW229889   1.740   5.497   3.521
 9664SOL     OW29890   4.847   6.906   2.805
 9664SOL    HW129891   4.757   6.904   2.850
 9664SOL    HW229892   4.835   6.889   2.707
 9665SOL     OW29893   6.161   4.761   4.937
 9665SOL    HW129894   6.094   4.700   4.894
 9665SOL    HW229895   6.173   4.842   4.879
 9666SOL     OW29896   5.932   3.838   1.842
 9666SOL    HW129897   5.985   3.901   1.786
 9666SOL    HW229898   5.843   3.880   1.864
 9667SOL     OW29899   3.991   3.909   3.974
 9667SOL    HW129900   4.074   3.940   4.020
 9667SOL    HW229901   3.912   3.954   4.015
 9668SOL     OW29902   6.940   0.933   5.686
 9668SOL    HW129903   7.022   0.906   5.635
 9668SOL    HW229904   6.966   0.994   5.760
 9669SOL     OW29905   0.612   0.463   0.281
 9669SOL    HW129906   0.515   0.439   0.286
 9669SOL    HW229907   0.623   0.553   0.240
 9670SOL     OW29908   4.805   4.517   6.071
 9670SOL    HW129909   4.802   4.438   6.009
 9670SOL    HW229910   4.817   4.600   6.017
 9671SOL     OW29911   6.891   5.627   5.861
 9671SOL    HW129912   6.961   5.612   5.931
 9671SOL    HW229913   6.872   5.725   5.854
 9672SOL     OW29914   1.487   6.588   4.693
 9672SOL    HW129915   1.389   6.568   4.696
 9672SOL    HW229916   1.536   6.509   4.657
 9673SOL     OW29917   3.970   4.580   6.699
 9673SOL    HW129918   3.944   4.510   6.632
 9673SOL    HW229919   3.893   4.596   6.761
 9674SOL     OW29920   3.120   6.164   1.540
 9674SOL    HW129921   3.074   6.112   1.468
 9674SOL    HW229922   3.158   6.248   1.501
 9675SOL     OW29923   6.327   0.846   2.371
 9675SOL    HW129924   6.242   0.846   2.317
 9675SOL    HW229925   6.363   0.939   2.376
 9676SOL     OW29926   0.990   3.452   5.235
 9676SOL    HW129927   0.936   3.511   5.175
 9676SOL    HW229928   1.050   3.507   5.291
 9677SOL     OW29929   2.534   4.211   5.830
 9677SOL    HW129930   2.602   4.142   5.855
 9677SOL    HW229931   2.501   4.194   5.737
 9678SOL     OW29932   4.081   3.760   3.038
 9678SOL    HW129933   4.065   3.678   2.984
 9678SOL    HW229934   4.123   3.735   3.126
 9679SOL     OW29935   1.379   2.873   1.938
 9679SOL    HW129936   1.310   2.874   2.010
 9679SOL    HW229937   1.448   2.803   1.958
 9680SOL     OW29938   5.692   5.808   3.324
 9680SOL    HW129939   5.764   5.815   3.393
 9680SOL    HW229940   5.732   5.778   3.238
 9681SOL     OW29941   2.021   0.591   1.036
 9681SOL    HW129942   2.015   0.682   0.993
 9681SOL    HW229943   2.094   0.592   1.104
 9682SOL     OW29944   5.174   5.020   3.384
 9682SOL    HW129945   5.244   4.953   3.358
 9682SOL    HW229946   5.168   5.025   3.484
 9683SOL     OW29947   3.850   5.380   0.025
 9683SOL    HW129948   3.867   5.286   0.056
 9683SOL    HW229949   3.863   5.443   0.102
 9684SOL     OW29950   0.286   4.015   4.706
 9684SOL    HW129951   0.249   4.059   4.625
 9684SOL    HW229952   0.267   4.071   4.787
 9685SOL     OW29953   2.452   3.096   1.000
 9685SOL    HW129954   2.503   3.045   1.069
 9685SOL    HW229955   2.378   3.038   0.964
 9686SOL     OW29956   6.840   0.883   1.397
 9686SOL    HW129957   6.935   0.853   1.399
 9686SOL    HW229958   6.836   0.981   1.416
 9687SOL     OW29959   2.641   0.392   3.034
 9687SOL    HW129960   2.625   0.487   3.006
 9687SOL    HW229961   2.678   0.340   2.958
 9688SOL     OW29962   0.161   2.067   2.976
 9688SOL    HW129963   0.095   2.009   3.023
 9688SOL    HW229964   0.216   2.117   3.043
 9689SOL     OW29965   2.391   6.340   6.824
 9689SOL    HW129966   2.429   6.283   6.897
 9689SOL    HW229967   2.461   6.403   6.791
 9690SOL     OW29968   6.308   4.925   0.157
 9690SOL    HW129969   6.365   4.857   0.204
 9690SOL    HW229970   6.319   5.014   0.201
 9691SOL     OW29971   1.919   5.528   1.749
 9691SOL    HW129972   1.993   5.468   1.719
 9691SOL    HW229973   1.918   5.611   1.692
 9692SOL     OW29974   2.831   5.157   1.954
 9692SOL    HW129975   2.876   5.239   1.990
 9692SOL    HW229976   2.824   5.165   1.855
 9693SOL     OW29977   6.482   5.541   1.812
 9693SOL    HW129978   6.526   5.503   1.894
 9693SOL    HW229979   6.432   5.468   1.766
 9694SOL     OW29980   1.853   2.200   0.226
 9694SOL    HW129981   1.835   2.206   0.324
 9694SOL    HW229982   1.928   2.136   0.209
 9695SOL     OW29983   5.946   4.230   0.641
 9695SOL    HW129984   5.967   4.150   0.585
 9695SOL    HW229985   6.030   4.280   0.662
 9696SOL     OW29986   3.685   2.670   1.772
 9696SOL    HW129987   3.681   2.735   1.848
 9696SOL    HW229988   3.777   2.669   1.734
 9697SOL     OW29989   0.740   4.865   0.221
 9697SOL    HW129990   0.729   4.775   0.262
 9697SOL    HW229991   0.832   4.874   0.183
 9698SOL     OW29992   5.955   0.751   4.938
 9698SOL    HW129993   5.949   0.848   4.914
 9698SOL    HW229994   6.017   0.740   5.016
 9699SOL     OW29995   1.129   3.460   6.744
 9699SOL    HW129996   1.181   3.375   6.744
 9699SOL    HW229997   1.052   3.452   6.808
 9700SOL     OW29998   3.432   4.857   5.391
 9700SOL    HW129999   3.523   4.827   5.362
 9700SOL    HW230000   3.372   4.864   5.312
 9701SOL     OW30001   3.539   5.465   5.063
 9701SOL    HW130002   3.575   5.539   5.007
 9701SOL    HW230003   3.448   5.491   5.097
 9702SOL     OW30004   5.162   1.139   0.453
 9702SOL    HW130005   5.125   1.225   0.487
 9702SOL    HW230006   5.089   1.070   0.452
 9703SOL     OW30007   3.396   5.906   4.190
 9703SOL    HW130008   3.313   5.950   4.223
 9703SOL    HW230009   3.413   5.933   4.095
 9704SOL     OW30010   3.389   6.835   3.009
 9704SOL    HW130011   3.359   6.821   3.103
 9704SOL    HW230012   3.488   6.853   3.007
 9705SOL     OW30013   3.843   4.976   0.423
 9705SOL    HW130014   3.802   5.067   0.413
 9705SOL    HW230015   3.930   4.973   0.374
 9706SOL     OW30016   6.649   2.929   1.113
 9706SOL    HW130017   6.710   2.996   1.156
 9706SOL    HW230018   6.562   2.928   1.161
 9707SOL     OW30019   0.944   3.895   2.224
 9707SOL    HW130020   0.951   3.801   2.255
 9707SOL    HW230021   0.850   3.913   2.193
 9708SOL     OW30022   1.882   2.224   4.022
 9708SOL    HW130023   1.918   2.293   4.085
 9708SOL    HW230024   1.934   2.226   3.937
 9709SOL     OW30025   0.868   6.457   3.397
 9709SOL    HW130026   0.862   6.379   3.460
 9709SOL    HW230027   0.839   6.429   3.306
 9710SOL     OW30028   0.289   1.048   2.956
 9710SOL    HW130029   0.264   1.049   2.859
 9710SOL    HW230030   0.338   0.963   2.976
 9711SOL     OW30031   1.415   3.023   6.042
 9711SOL    HW130032   1.377   3.058   6.127
 9711SOL    HW230033   1.444   2.928   6.054
 9712SOL     OW30034   5.716   2.194   4.801
 9712SOL    HW130035   5.674   2.123   4.858
 9712SOL    HW230036   5.681   2.284   4.827
 9713SOL     OW30037   0.640   4.559   3.477
 9713SOL    HW130038   0.661   4.594   3.386
 9713SOL    HW230039   0.724   4.531   3.523
 9714SOL     OW30040   2.193   1.299   1.733
 9714SOL    HW130041   2.254   1.240   1.786
 9714SOL    HW230042   2.112   1.321   1.788
 9715SOL     OW30043   5.948   5.359   4.897
 9715SOL    HW130044   5.995   5.303   4.828
 9715SOL    HW230045   6.016   5.409   4.950
 9716SOL     OW30046   4.169   1.876   6.666
 9716SOL    HW130047   4.086   1.926   6.644
 9716SOL    HW230048   4.231   1.878   6.588
 9717SOL     OW30049   5.337   5.732   4.294
 9717SOL    HW130050   5.316   5.659   4.230
 9717SOL    HW230051   5.252   5.773   4.327
 9718SOL     OW30052   3.913   3.489   1.352
 9718SOL    HW130053   3.978   3.492   1.428
 9718SOL    HW230054   3.821   3.506   1.387
 9719SOL     OW30055   0.790   2.207   0.530
 9719SOL    HW130056   0.797   2.296   0.486
 9719SOL    HW230057   0.709   2.159   0.495
 9720SOL     OW30058   0.287   6.111   2.312
 9720SOL    HW130059   0.335   6.199   2.316
 9720SOL    HW230060   0.258   6.093   2.218
 9721SOL     OW30061   0.563   3.445   2.139
 9721SOL    HW130062   0.652   3.485   2.120
 9721SOL    HW230063   0.572   3.378   2.213
 9722SOL     OW30064   0.191   1.083   3.397
 9722SOL    HW130065   0.189   0.985   3.376
 9722SOL    HW230066   0.212   1.135   3.314
 9723SOL     OW30067   0.639   6.828   2.601
 9723SOL    HW130068   0.659   6.843   2.698
 9723SOL    HW230069   0.645   6.731   2.580
 9724SOL     OW30070   2.932   2.527   1.688
 9724SOL    HW130071   2.951   2.624   1.707
 9724SOL    HW230072   2.939   2.474   1.773
 9725SOL     OW30073   4.582   3.324   6.352
 9725SOL    HW130074   4.493   3.324   6.307
 9725SOL    HW230075   4.653   3.353   6.287
 9726SOL     OW30076   5.499   0.018   4.811
 9726SOL    HW130077   5.567   0.071   4.761
 9726SOL    HW230078   5.418   0.005   4.754
 9727SOL     OW30079   1.161   3.374   5.622
 9727SOL    HW130080   1.124   3.450   5.569
 9727SOL    HW230081   1.096   3.298   5.622
 9728SOL     OW30082   1.551   6.404   6.295
 9728SOL    HW130083   1.642   6.444   6.284
 9728SOL    HW230084   1.529   6.349   6.215
 9729SOL     OW30085   1.427   4.459   2.875
 9729SOL    HW130086   1.429   4.433   2.779
 9729SOL    HW230087   1.446   4.378   2.932
 9730SOL     OW30088   6.825   3.397   2.548
 9730SOL    HW130089   6.810   3.454   2.467
 9730SOL    HW230090   6.891   3.442   2.608
 9731SOL     OW30091   4.073   5.120   0.765
 9731SOL    HW130092   4.088   5.041   0.705
 9731SOL    HW230093   3.975   5.130   0.783
 9732SOL     OW30094   0.200   5.565   2.523
 9732SOL    HW130095   0.123   5.628   2.536
 9732SOL    HW230096   0.281   5.616   2.497
 9733SOL     OW30097   5.615   4.882   5.313
 9733SOL    HW130098   5.545   4.917   5.375
 9733SOL    HW230099   5.682   4.954   5.294
 9734SOL     OW30100   5.732   1.827   4.117
 9734SOL    HW130101   5.701   1.917   4.089
 9734SOL    HW230102   5.680   1.756   4.069
 9735SOL     OW30103   2.403   5.198   2.578
 9735SOL    HW130104   2.489   5.156   2.550
 9735SOL    HW230105   2.422   5.268   2.647
 9736SOL     OW30106   5.471   1.091   6.838
 9736SOL    HW130107   5.552   1.146   6.857
 9736SOL    HW230108   5.471   1.063   6.742
 9737SOL     OW30109   4.135   2.232   4.960
 9737SOL    HW130110   4.143   2.328   4.986
 9737SOL    HW230111   4.157   2.174   5.038
 9738SOL     OW30112   1.472   0.897   3.767
 9738SOL    HW130113   1.527   0.875   3.848
 9738SOL    HW230114   1.463   0.815   3.709
 9739SOL     OW30115   6.773   4.961   1.511
 9739SOL    HW130116   6.699   4.929   1.571
 9739SOL    HW230117   6.848   4.996   1.567
 9740SOL     OW30118   6.048   3.792   2.737
 9740SOL    HW130119   6.012   3.835   2.654
 9740SOL    HW230120   6.084   3.863   2.799
 9741SOL     OW30121   4.291   1.405   2.369
 9741SOL    HW130122   4.335   1.384   2.457
 9741SOL    HW230123   4.343   1.363   2.295
 9742SOL     OW30124   5.329   0.902   2.819
 9742SOL    HW130125   5.390   0.936   2.890
 9742SOL    HW230126   5.301   0.978   2.760
 9743SOL     OW30127   1.778   2.800   5.904
 9743SOL    HW130128   1.680   2.784   5.908
 9743SOL    HW230129   1.824   2.718   5.870
 9744SOL     OW30130   1.552   0.898   2.058
 9744SOL    HW130131   1.617   0.973   2.060
 9744SOL    HW230132   1.490   0.909   1.980
 9745SOL     OW30133   0.894   2.427   4.927
 9745SOL    HW130134   0.982   2.435   4.882
 9745SOL    HW230135   0.822   2.414   4.859
 9746SOL     OW30136   5.448   0.941   5.288
 9746SOL    HW130137   5.512   0.869   5.263
 9746SOL    HW230138   5.408   0.921   5.378
 9747SOL     OW30139   1.147   0.703   0.733
 9747SOL    HW130140   1.065   0.752   0.763
 9747SOL    HW230141   1.173   0.636   0.802
 9748SOL     OW30142   1.277   6.195   4.243
 9748SOL    HW130143   1.372   6.203   4.214
 9748SOL    HW230144   1.246   6.281   4.282
 9749SOL     OW30145   1.289   3.380   4.982
 9749SOL    HW130146   1.214   3.443   4.963
 9749SOL    HW230147   1.286   3.353   5.078
 9750SOL     OW30148   4.935   4.611   3.874
 9750SOL    HW130149   4.961   4.681   3.940
 9750SOL    HW230150   4.961   4.640   3.782
 9751SOL     OW30151   1.352   1.850   1.047
 9751SOL    HW130152   1.285   1.879   0.979
 9751SOL    HW230153   1.438   1.827   1.002
 9752SOL     OW30154   4.249   0.435   5.986
 9752SOL    HW130155   4.227   0.463   6.079
 9752SOL    HW230156   4.229   0.510   5.922
 9753SOL     OW30157   6.892   5.794   5.101
 9753SOL    HW130158   6.927   5.731   5.032
 9753SOL    HW230159   6.805   5.831   5.071
 9754SOL     OW30160   1.197   1.508   6.999
 9754SOL    HW130161   1.208   1.606   7.017
 9754SOL    HW230162   1.119   1.474   0.028
 9755SOL     OW30163   4.100   3.378   5.204
 9755SOL    HW130164   4.055   3.291   5.224
 9755SOL    HW230165   4.127   3.422   5.289
 9756SOL     OW30166   6.145   3.184   6.959
 9756SOL    HW130167   6.167   3.168   0.032
 9756SOL    HW230168   6.115   3.279   6.947
 9757SOL     OW30169   5.267   2.532   3.475
 9757SOL    HW130170   5.232   2.521   3.568
 9757SOL    HW230171   5.267   2.630   3.451
 9758SOL     OW30172   2.215   7.007   6.525
 9758SOL    HW130173   2.138   6.974   6.580
 9758SOL    HW230174   2.288   6.939   6.525
 9759SOL     OW30175   2.046   6.291   1.741
 9759SOL    HW130176   2.050   6.222   1.814
 9759SOL    HW230177   2.022   6.248   1.655
 9760SOL     OW30178   5.598   4.618   5.187
 9760SOL    HW130179   5.621   4.631   5.090
 9760SOL    HW230180   5.600   4.707   5.233
 9761SOL     OW30181   5.440   4.615   1.816
 9761SOL    HW130182   5.408   4.545   1.753
 9761SOL    HW230183   5.533   4.592   1.846
 9762SOL     OW30184   2.210   1.650   4.687
 9762SOL    HW130185   2.254   1.737   4.707
 9762SOL    HW230186   2.173   1.611   4.772
 9763SOL     OW30187   3.979   0.839   1.897
 9763SOL    HW130188   4.075   0.812   1.887
 9763SOL    HW230189   3.966   0.931   1.859
 9764SOL     OW30190   1.219   2.969   3.291
 9764SOL    HW130191   1.221   2.876   3.328
 9764SOL    HW230192   1.289   2.977   3.220
 9765SOL     OW30193   6.529   2.241   5.521
 9765SOL    HW130194   6.519   2.249   5.620
 9765SOL    HW230195   6.611   2.187   5.499
 9766SOL     OW30196   3.370   0.771   3.367
 9766SOL    HW130197   3.291   0.829   3.384
 9766SOL    HW230198   3.437   0.784   3.440
 9767SOL     OW30199   5.444   0.960   5.590
 9767SOL    HW130200   5.379   0.969   5.665
 9767SOL    HW230201   5.479   0.866   5.587
 9768SOL     OW30202   4.465   1.964   2.457
 9768SOL    HW130203   4.455   1.882   2.400
 9768SOL    HW230204   4.425   2.043   2.408
 9769SOL     OW30205   1.148   2.240   1.097
 9769SOL    HW130206   1.164   2.284   1.186
 9769SOL    HW230207   1.228   2.255   1.038
 9770SOL     OW30208   5.588   5.407   5.713
 9770SOL    HW130209   5.569   5.385   5.808
 9770SOL    HW230210   5.520   5.472   5.679
 9771SOL     OW30211   4.840   4.641   0.553
 9771SOL    HW130212   4.815   4.545   0.561
 9771SOL    HW230213   4.936   4.652   0.576
 9772SOL     OW30214   0.001   6.879   1.899
 9772SOL    HW130215   0.061   6.810   1.859
 9772SOL    HW230216   6.947   6.897   1.837
 9773SOL     OW30217   5.621   5.545   3.719
 9773SOL    HW130218   5.594   5.602   3.797
 9773SOL    HW230219   5.582   5.582   3.635
 9774SOL     OW30220   5.740   5.254   3.923
 9774SOL    HW130221   5.811   5.206   3.973
 9774SOL    HW230222   5.717   5.339   3.970
 9775SOL     OW30223   2.076   2.712   4.545
 9775SOL    HW130224   2.082   2.618   4.511
 9775SOL    HW230225   2.023   2.767   4.481
 9776SOL     OW30226   6.779   5.442   4.240
 9776SOL    HW130227   6.723   5.479   4.314
 9776SOL    HW230228   6.832   5.515   4.198
 9777SOL     OW30229   5.868   3.992   6.019
 9777SOL    HW130230   5.965   3.975   6.005
 9777SOL    HW230231   5.818   3.905   6.011
 9778SOL     OW30232   4.850   6.527   2.948
 9778SOL    HW130233   4.751   6.522   2.963
 9778SOL    HW230234   4.884   6.615   2.979
 9779SOL     OW30235   2.989   1.712   5.019
 9779SOL    HW130236   2.889   1.723   5.022
 9779SOL    HW230237   3.016   1.639   5.082
 9780SOL     OW30238   2.390   2.979   0.440
 9780SOL    HW130239   2.316   3.043   0.421
 9780SOL    HW230240   2.464   3.027   0.488
 9781SOL     OW30241   2.511   4.621   5.043
 9781SOL    HW130242   2.505   4.541   5.102
 9781SOL    HW230243   2.608   4.641   5.024
 9782SOL     OW30244   6.612   0.381   1.230
 9782SOL    HW130245   6.636   0.308   1.294
 9782SOL    HW230246   6.676   0.457   1.240
 9783SOL     OW30247   6.448   1.426   2.633
 9783SOL    HW130248   6.455   1.326   2.636
 9783SOL    HW230249   6.411   1.454   2.544
 9784SOL     OW30250   4.398   1.440   3.109
 9784SOL    HW130251   4.304   1.419   3.081
 9784SOL    HW230252   4.400   1.528   3.156
 9785SOL     OW30253   0.212   2.603   2.869
 9785SOL    HW130254   0.170   2.632   2.955
 9785SOL    HW230255   0.274   2.674   2.836
 9786SOL     OW30256   2.388   5.245   6.009
 9786SOL    HW130257   2.408   5.324   5.950
 9786SOL    HW230258   2.466   5.182   6.007
 9787SOL     OW30259   4.831   4.049   1.843
 9787SOL    HW130260   4.817   4.089   1.934
 9787SOL    HW230261   4.865   3.956   1.852
 9788SOL     OW30262   6.715   0.207   4.102
 9788SOL    HW130263   6.695   0.114   4.131
 9788SOL    HW230264   6.630   0.259   4.095
 9789SOL     OW30265   2.330   6.148   4.892
 9789SOL    HW130266   2.316   6.050   4.906
 9789SOL    HW230267   2.409   6.162   4.832
 9790SOL     OW30268   5.988   1.776   4.181
 9790SOL    HW130269   5.890   1.788   4.165
 9790SOL    HW230270   6.035   1.763   4.093
 9791SOL     OW30271   1.504   1.075   1.092
 9791SOL    HW130272   1.431   1.088   1.159
 9791SOL    HW230273   1.479   1.001   1.030
 9792SOL     OW30274   4.587   4.710   1.218
 9792SOL    HW130275   4.502   4.657   1.208
 9792SOL    HW230276   4.663   4.647   1.235
 9793SOL     OW30277   5.815   5.885   2.211
 9793SOL    HW130278   5.816   5.935   2.124
 9793SOL    HW230279   5.808   5.950   2.287
 9794SOL     OW30280   5.233   3.039   6.009
 9794SOL    HW130281   5.274   3.046   5.918
 9794SOL    HW230282   5.148   2.987   6.002
 9795SOL     OW30283   1.857   3.604   4.331
 9795SOL    HW130284   1.952   3.632   4.317
 9795SOL    HW230285   1.801   3.633   4.253
 9796SOL     OW30286   2.701   5.208   0.615
 9796SOL    HW130287   2.770   5.137   0.631
 9796SOL    HW230288   2.700   5.233   0.518
 9797SOL     OW30289   4.877   3.641   6.559
 9797SOL    HW130290   4.883   3.561   6.501
 9797SOL    HW230291   4.842   3.719   6.507
 9798SOL     OW30292   3.139   0.527   1.148
 9798SOL    HW130293   3.057   0.500   1.199
 9798SOL    HW230294   3.114   0.543   1.052
 9799SOL     OW30295   3.032   3.094   2.573
 9799SOL    HW130296   3.104   3.036   2.610
 9799SOL    HW230297   2.959   3.037   2.535
 9800SOL     OW30298   4.667   5.437   6.936
 9800SOL    HW130299   4.663   5.386   7.021
 9800SOL    HW230300   4.708   5.527   6.952
 9801SOL     OW30301   4.455   5.997   0.055
 9801SOL    HW130302   4.357   5.985   0.040
 9801SOL    HW230303   4.504   5.917   0.022
 9802SOL     OW30304   0.939   3.174   1.123
 9802SOL    HW130305   0.970   3.093   1.172
 9802SOL    HW230306   1.017   3.230   1.097
 9803SOL     OW30307   6.620   0.293   6.961
 9803SOL    HW130308   6.564   0.376   6.956
 9803SOL    HW230309   6.657   0.284   0.030
 9804SOL     OW30310   6.685   5.618   4.007
 9804SOL    HW130311   6.705   5.682   3.933
 9804SOL    HW230312   6.625   5.546   3.974
 9805SOL     OW30313   1.408   5.404   6.799
 9805SOL    HW130314   1.413   5.395   6.699
 9805SOL    HW230315   1.500   5.399   6.837
 9806SOL     OW30316   6.895   2.790   1.633
 9806SOL    HW130317   6.862   2.757   1.722
 9806SOL    HW230318   6.942   2.878   1.646
 9807SOL     OW30319   4.243   2.166   0.439
 9807SOL    HW130320   4.156   2.122   0.464
 9807SOL    HW230321   4.310   2.096   0.414
 9808SOL     OW30322   6.862   1.787   4.952
 9808SOL    HW130323   6.838   1.777   5.049
 9808SOL    HW230324   6.901   1.701   4.918
 9809SOL     OW30325   0.200   1.453   4.235
 9809SOL    HW130326   0.272   1.483   4.298
 9809SOL    HW230327   0.137   1.393   4.282
 9810SOL     OW30328   2.680   1.189   3.116
 9810SOL    HW130329   2.626   1.172   3.034
 9810SOL    HW230330   2.706   1.286   3.119
 9811SOL     OW30331   6.550   6.078   2.641
 9811SOL    HW130332   6.576   6.017   2.716
 9811SOL    HW230333   6.616   6.153   2.635
 9812SOL     OW30334   4.922   2.320   6.078
 9812SOL    HW130335   4.990   2.391   6.095
 9812SOL    HW230336   4.880   2.293   6.164
 9813SOL     OW30337   6.573   4.966   6.907
 9813SOL    HW130338   6.626   5.015   6.838
 9813SOL    HW230339   6.634   4.915   6.967
 9814SOL     OW30340   6.990   6.874   5.686
 9814SOL    HW130341   6.901   6.885   5.641
 9814SOL    HW230342   0.019   6.959   5.677
 9815SOL     OW30343   6.441   3.299   1.510
 9815SOL    HW130344   6.398   3.276   1.598
 9815SOL    HW230345   6.512   3.368   1.525
 9816SOL     OW30346   6.947   0.379   6.786
 9816SOL    HW130347   0.003   0.324   6.808
 9816SOL    HW230348   6.973   0.454   6.726
 9817SOL     OW30349   3.791   5.943   1.349
 9817SOL    HW130350   3.887   5.966   1.336
 9817SOL    HW230351   3.777   5.909   1.443
 9818SOL     OW30352   1.205   0.028   3.613
 9818SOL    HW130353   1.142   0.020   3.536
 9818SOL    HW230354   1.288   0.076   3.584
 9819SOL     OW30355   6.506   4.227   4.898
 9819SOL    HW130356   6.418   4.213   4.944
 9819SOL    HW230357   6.557   4.141   4.899
 9820SOL     OW30358   3.453   1.786   5.990
 9820SOL    HW130359   3.470   1.858   6.057
 9820SOL    HW230360   3.518   1.795   5.914
 9821SOL     OW30361   4.689   2.729   1.332
 9821SOL    HW130362   4.746   2.748   1.252
 9821SOL    HW230363   4.747   2.723   1.413
 9822SOL     OW30364   4.034   6.119   5.121
 9822SOL    HW130365   4.020   6.206   5.075
 9822SOL    HW230366   3.979   6.116   5.205
 9823SOL     OW30367   1.742   0.596   3.126
 9823SOL    HW130368   1.713   0.504   3.097
 9823SOL    HW230369   1.830   0.590   3.171
 9824SOL     OW30370   1.277   5.916   5.644
 9824SOL    HW130371   1.288   6.007   5.685
 9824SOL    HW230372   1.358   5.893   5.592
 9825SOL     OW30373   5.184   6.058   6.326
 9825SOL    HW130374   5.253   6.092   6.263
 9825SOL    HW230375   5.126   5.992   6.279
 9826SOL     OW30376   2.669   6.223   5.688
 9826SOL    HW130377   2.630   6.315   5.684
 9826SOL    HW230378   2.621   6.164   5.623
 9827SOL     OW30379   1.815   5.330   2.179
 9827SOL    HW130380   1.870   5.342   2.096
 9827SOL    HW230381   1.807   5.233   2.200
 9828SOL     OW30382   3.456   1.933   5.030
 9828SOL    HW130383   3.393   1.858   5.048
 9828SOL    HW230384   3.429   2.013   5.084
 9829SOL     OW30385   4.662   5.244   5.580
 9829SOL    HW130386   4.563   5.254   5.590
 9829SOL    HW230387   4.699   5.196   5.659
 9830SOL     OW30388   5.850   1.895   2.751
 9830SOL    HW130389   5.884   1.826   2.814
 9830SOL    HW230390   5.868   1.986   2.788
 9831SOL     OW30391   0.750   3.936   1.778
 9831SOL    HW130392   0.728   4.021   1.826
 9831SOL    HW230393   0.848   3.934   1.758
 9832SOL     OW30394   4.388   4.745   4.496
 9832SOL    HW130395   4.386   4.664   4.438
 9832SOL    HW230396   4.440   4.817   4.451
 9833SOL     OW30397   3.652   3.871   4.604
 9833SOL    HW130398   3.555   3.866   4.626
 9833SOL    HW230399   3.692   3.780   4.611
 9834SOL     OW30400   2.505   5.433   5.344
 9834SOL    HW130401   2.547   5.441   5.254
 9834SOL    HW230402   2.552   5.361   5.396
 9835SOL     OW30403   3.634   4.212   4.937
 9835SOL    HW130404   3.606   4.186   4.845
 9835SOL    HW230405   3.657   4.310   4.939
 9836SOL     OW30406   0.652   3.625   5.349
 9836SOL    HW130407   0.663   3.526   5.340
 9836SOL    HW230408   0.557   3.645   5.373
 9837SOL     OW30409   4.796   2.180   1.705
 9837SOL    HW130410   4.836   2.188   1.796
 9837SOL    HW230411   4.868   2.164   1.638
 9838SOL     OW30412   0.603   6.615   1.904
 9838SOL    HW130413   0.697   6.625   1.871
 9838SOL    HW230414   0.562   6.706   1.914
 9839SOL     OW30415   4.346   0.570   2.852
 9839SOL    HW130416   4.402   0.614   2.782
 9839SOL    HW230417   4.328   0.634   2.927
 9840SOL     OW30418   6.137   0.933   0.007
 9840SOL    HW130419   6.195   1.013   7.016
 9840SOL    HW230420   6.146   0.871   6.952
 9841SOL     OW30421   6.867   6.342   3.771
 9841SOL    HW130422   6.879   6.259   3.825
 9841SOL    HW230423   6.925   6.415   3.809
 9842SOL     OW30424   2.887   2.289   6.468
 9842SOL    HW130425   2.804   2.336   6.500
 9842SOL    HW230426   2.898   2.305   6.370
 9843SOL     OW30427   6.988   6.842   1.373
 9843SOL    HW130428   6.919   6.815   1.306
 9843SOL    HW230429   0.051   6.860   1.326
 9844SOL     OW30430   5.054   0.076   4.190
 9844SOL    HW130431   5.094   0.161   4.154
 9844SOL    HW230432   5.055   0.006   4.119
 9845SOL     OW30433   1.830   3.402   1.457
 9845SOL    HW130434   1.775   3.441   1.531
 9845SOL    HW230435   1.834   3.467   1.381
 9846SOL     OW30436   5.227   1.333   1.109
 9846SOL    HW130437   5.194   1.266   1.175
 9846SOL    HW230438   5.162   1.408   1.102
 9847SOL     OW30439   4.322   4.397   0.439
 9847SOL    HW130440   4.294   4.383   0.344
 9847SOL    HW230441   4.372   4.316   0.471
 9848SOL     OW30442   3.300   3.725   5.218
 9848SOL    HW130443   3.226   3.790   5.198
 9848SOL    HW230444   3.375   3.773   5.262
 9849SOL     OW30445   0.737   1.817   4.860
 9849SOL    HW130446   0.806   1.875   4.904
 9849SOL    HW230447   0.648   1.835   4.900
 9850SOL     OW30448   0.594   0.645   4.460
 9850SOL    HW130449   0.686   0.631   4.498
 9850SOL    HW230450   0.596   0.627   4.361
 9851SOL     OW30451   4.002   4.842   4.653
 9851SOL    HW130452   4.055   4.909   4.705
 9851SOL    HW230453   4.011   4.752   4.696
 9852SOL     OW30454   2.177   1.443   0.036
 9852SOL    HW130455   2.256   1.471   0.092
 9852SOL    HW230456   2.108   1.400   0.095
 9853SOL     OW30457   6.709   4.696   3.723
 9853SOL    HW130458   6.786   4.646   3.686
 9853SOL    HW230459   6.648   4.632   3.772
 9854SOL     OW30460   0.893   5.258   6.222
 9854SOL    HW130461   0.922   5.352   6.209
 9854SOL    HW230462   0.912   5.228   6.315
 9855SOL     OW30463   1.823   4.175   1.823
 9855SOL    HW130464   1.813   4.079   1.797
 9855SOL    HW230465   1.796   4.187   1.918
 9856SOL     OW30466   5.449   4.049   3.333
 9856SOL    HW130467   5.356   4.052   3.296
 9856SOL    HW230468   5.503   4.125   3.295
 9857SOL     OW30469   4.049   1.128   4.464
 9857SOL    HW130470   4.148   1.113   4.457
 9857SOL    HW230471   4.017   1.176   4.383
 9858SOL     OW30472   6.374   6.473   2.485
 9858SOL    HW130473   6.447   6.541   2.480
 9858SOL    HW230474   6.405   6.388   2.441
 9859SOL     OW30475   6.983   5.503   3.612
 9859SOL    HW130476   6.987   5.497   3.712
 9859SOL    HW230477   6.970   5.599   3.585
 9860SOL     OW30478   1.727   3.324   4.666
 9860SOL    HW130479   1.759   3.419   4.663
 9860SOL    HW230480   1.642   3.320   4.719
 9861SOL     OW30481   3.675   1.301   4.538
 9861SOL    HW130482   3.597   1.362   4.531
 9861SOL    HW230483   3.644   1.206   4.529
 9862SOL     OW30484   1.106   5.544   0.711
 9862SOL    HW130485   1.159   5.462   0.690
 9862SOL    HW230486   1.168   5.619   0.734
 9863SOL     OW30487   4.136   6.371   0.670
 9863SOL    HW130488   4.040   6.399   0.676
 9863SOL    HW230489   4.179   6.381   0.760
 9864SOL     OW30490   2.409   5.776   5.374
 9864SOL    HW130491   2.420   5.718   5.293
 9864SOL    HW230492   2.497   5.788   5.419
 9865SOL     OW30493   0.561   6.229   5.270
 9865SOL    HW130494   0.646   6.271   5.242
 9865SOL    HW230495   0.577   6.172   5.352
 9866SOL     OW30496   6.001   5.561   4.236
 9866SOL    HW130497   6.016   5.539   4.140
 9866SOL    HW230498   6.048   5.646   4.259
 9867SOL     OW30499   4.744   2.418   1.539
 9867SOL    HW130500   4.802   2.492   1.572
 9867SOL    HW230501   4.732   2.350   1.611
 9868SOL     OW30502   1.821   4.249   3.276
 9868SOL    HW130503   1.794   4.292   3.190
 9868SOL    HW230504   1.739   4.230   3.331
 9869SOL     OW30505   6.841   2.428   0.771
 9869SOL    HW130506   6.805   2.437   0.678
 9869SOL    HW230507   6.780   2.475   0.835
 9870SOL     OW30508   3.049   1.256   2.461
 9870SOL    HW130509   3.076   1.291   2.372
 9870SOL    HW230510   2.950   1.261   2.470
 9871SOL     OW30511   0.261   4.148   4.448
 9871SOL    HW130512   0.267   4.204   4.365
 9871SOL    HW230513   0.217   4.060   4.425
 9872SOL     OW30514   1.630   4.830   5.471
 9872SOL    HW130515   1.676   4.795   5.552
 9872SOL    HW230516   1.543   4.784   5.459
 9873SOL     OW30517   1.882   1.497   5.511
 9873SOL    HW130518   1.886   1.485   5.411
 9873SOL    HW230519   1.947   1.568   5.538
 9874SOL     OW30520   0.413   3.015   5.107
 9874SOL    HW130521   0.318   3.008   5.079
 9874SOL    HW230522   0.450   2.923   5.123
 9875SOL     OW30523   6.647   5.449   0.643
 9875SOL    HW130524   6.625   5.452   0.546
 9875SOL    HW230525   6.564   5.458   0.697
 9876SOL     OW30526   1.975   6.703   3.544
 9876SOL    HW130527   1.933   6.701   3.453
 9876SOL    HW230528   2.066   6.664   3.540
 9877SOL     OW30529   0.873   5.567   5.304
 9877SOL    HW130530   0.876   5.536   5.399
 9877SOL    HW230531   0.917   5.657   5.297
 9878SOL     OW30532   2.163   2.923   0.121
 9878SOL    HW130533   2.239   2.881   0.170
 9878SOL    HW230534   2.190   3.012   0.086
 9879SOL     OW30535   0.366   5.132   6.305
 9879SOL    HW130536   0.402   5.049   6.348
 9879SOL    HW230537   0.349   5.115   6.208
 9880SOL     OW30538   2.771   1.384   0.264
 9880SOL    HW130539   2.851   1.324   0.258
 9880SOL    HW230540   2.721   1.365   0.349
 9881SOL     OW30541   5.740   0.304   4.252
 9881SOL    HW130542   5.799   0.268   4.325
 9881SOL    HW230543   5.796   0.351   4.184
 9882SOL     OW30544   3.885   3.242   4.858
 9882SOL    HW130545   3.962   3.304   4.843
 9882SOL    HW230546   3.876   3.180   4.781
 9883SOL     OW30547   2.228   6.920   1.661
 9883SOL    HW130548   2.143   6.972   1.671
 9883SOL    HW230549   2.282   6.956   1.585
 9884SOL     OW30550   2.059   3.687   5.745
 9884SOL    HW130551   2.087   3.689   5.649
 9884SOL    HW230552   2.036   3.593   5.771
 9885SOL     OW30553   6.331   3.316   4.235
 9885SOL    HW130554   6.423   3.306   4.275
 9885SOL    HW230555   6.263   3.288   4.302
 9886SOL     OW30556   4.725   5.682   1.209
 9886SOL    HW130557   4.639   5.642   1.241
 9886SOL    HW230558   4.706   5.763   1.154
 9887SOL     OW30559   3.749   0.500   6.729
 9887SOL    HW130560   3.772   0.486   6.633
 9887SOL    HW230561   3.774   0.419   6.782
 9888SOL     OW30562   6.104   5.304   2.639
 9888SOL    HW130563   6.115   5.224   2.698
 9888SOL    HW230564   6.105   5.387   2.693
 9889SOL     OW30565   6.808   5.157   3.364
 9889SOL    HW130566   6.789   5.214   3.444
 9889SOL    HW230567   6.874   5.204   3.304
 9890SOL     OW30568   6.753   4.049   1.945
 9890SOL    HW130569   6.705   4.041   2.033
 9890SOL    HW230570   6.695   4.013   1.872
 9891SOL     OW30571   6.199   4.733   0.941
 9891SOL    HW130572   6.179   4.636   0.957
 9891SOL    HW230573   6.294   4.751   0.967
 9892SOL     OW30574   2.427   5.181   4.252
 9892SOL    HW130575   2.480   5.129   4.319
 9892SOL    HW230576   2.366   5.244   4.300
 9893SOL     OW30577   5.333   5.305   3.594
 9893SOL    HW130578   5.264   5.257   3.648
 9893SOL    HW230579   5.308   5.401   3.586
 9894SOL     OW30580   3.967   3.241   5.948
 9894SOL    HW130581   3.892   3.296   5.912
 9894SOL    HW230582   4.051   3.261   5.899
 9895SOL     OW30583   5.369   2.238   0.223
 9895SOL    HW130584   5.410   2.271   0.139
 9895SOL    HW230585   5.375   2.138   0.226
 9896SOL     OW30586   4.282   4.051   0.866
 9896SOL    HW130587   4.190   4.082   0.890
 9896SOL    HW230588   4.347   4.088   0.932
 9897SOL     OW30589   5.918   2.288   3.245
 9897SOL    HW130590   5.836   2.253   3.199
 9897SOL    HW230591   5.894   2.369   3.298
 9898SOL     OW30592   1.530   5.083   5.449
 9898SOL    HW130593   1.551   5.138   5.530
 9898SOL    HW230594   1.577   4.995   5.456
 9899SOL     OW30595   4.895   5.332   1.706
 9899SOL    HW130596   4.862   5.427   1.708
 9899SOL    HW230597   4.932   5.312   1.615
 9900SOL     OW30598   1.575   2.869   4.069
 9900SOL    HW130599   1.513   2.895   3.996
 9900SOL    HW230600   1.612   2.951   4.113
 9901SOL     OW30601   3.323   2.758   5.531
 9901SOL    HW130602   3.373   2.731   5.449
 9901SOL    HW230603   3.384   2.751   5.610
 9902SOL     OW30604   4.262   3.243   0.083
 9902SOL    HW130605   4.309   3.222   7.021
 9902SOL    HW230606   4.288   3.177   0.154
 9903SOL     OW30607   4.329   2.299   1.614
 9903SOL    HW130608   4.381   2.329   1.535
 9903SOL    HW230609   4.337   2.367   1.687
 9904SOL     OW30610   6.679   1.413   1.285
 9904SOL    HW130611   6.763   1.436   1.334
 9904SOL    HW230612   6.603   1.469   1.319
 9905SOL     OW30613   1.473   0.297   5.132
 9905SOL    HW130614   1.379   0.273   5.156
 9905SOL    HW230615   1.487   0.283   5.034
 9906SOL     OW30616   2.762   3.111   6.393
 9906SOL    HW130617   2.716   3.055   6.324
 9906SOL    HW230618   2.757   3.207   6.368
 9907SOL     OW30619   2.623   6.329   2.811
 9907SOL    HW130620   2.525   6.342   2.825
 9907SOL    HW230621   2.645   6.338   2.714
 9908SOL     OW30622   1.265   3.553   5.813
 9908SOL    HW130623   1.209   3.636   5.818
 9908SOL    HW230624   1.241   3.501   5.731
 9909SOL     OW30625   3.729   0.604   2.744
 9909SOL    HW130626   3.700   0.599   2.649
 9909SOL    HW230627   3.668   0.549   2.801
 9910SOL     OW30628   6.894   3.904   0.979
 9910SOL    HW130629   6.818   3.963   1.007
 9910SOL    HW230630   6.981   3.948   1.001
 9911SOL     OW30631   3.522   4.936   3.544
 9911SOL    HW130632   3.475   4.855   3.581
 9911SOL    HW230633   3.460   5.014   3.548
 9912SOL     OW30634   5.104   0.299   1.093
 9912SOL    HW130635   5.046   0.218   1.095
 9912SOL    HW230636   5.131   0.323   1.187
 9913SOL     OW30637   4.632   1.783   2.798
 9913SOL    HW130638   4.718   1.765   2.847
 9913SOL    HW230639   4.627   1.723   2.718
 9914SOL     OW30640   0.962   0.086   4.812
 9914SOL    HW130641   0.969   0.023   4.735
 9914SOL    HW230642   0.891   0.154   4.793
 9915SOL     OW30643   5.472   3.275   4.401
 9915SOL    HW130644   5.463   3.234   4.310
 9915SOL    HW230645   5.388   3.262   4.452
 9916SOL     OW30646   2.343   2.764   2.190
 9916SOL    HW130647   2.411   2.748   2.118
 9916SOL    HW230648   2.378   2.730   2.277
 9917SOL     OW30649   2.401   3.496   6.054
 9917SOL    HW130650   2.403   3.587   6.094
 9917SOL    HW230651   2.495   3.463   6.041
 9918SOL     OW30652   2.112   1.364   5.918
 9918SOL    HW130653   2.083   1.291   5.856
 9918SOL    HW230654   2.152   1.439   5.866
 9919SOL     OW30655   0.855   5.830   2.808
 9919SOL    HW130656   0.873   5.747   2.860
 9919SOL    HW230657   0.805   5.806   2.724
 9920SOL     OW30658   4.341   6.295   1.225
 9920SOL    HW130659   4.330   6.394   1.229
 9920SOL    HW230660   4.357   6.267   1.130
 9921SOL     OW30661   5.558   0.565   3.280
 9921SOL    HW130662   5.599   0.655   3.299
 9921SOL    HW230663   5.629   0.501   3.250
 9922SOL     OW30664   4.261   4.555   0.921
 9922SOL    HW130665   4.320   4.562   0.841
 9922SOL    HW230666   4.227   4.461   0.928
 9923SOL     OW30667   6.390   2.113   6.442
 9923SOL    HW130668   6.421   2.058   6.519
 9923SOL    HW230669   6.300   2.151   6.463
 9924SOL     OW30670   6.618   1.190   3.454
 9924SOL    HW130671   6.593   1.096   3.430
 9924SOL    HW230672   6.681   1.226   3.385
 9925SOL     OW30673   2.696   2.575   5.603
 9925SOL    HW130674   2.791   2.557   5.576
 9925SOL    HW230675   2.635   2.529   5.538
 9926SOL     OW30676   1.493   0.761   0.005
 9926SOL    HW130677   1.521   0.797   0.094
 9926SOL    HW230678   1.444   0.832   6.978
 9927SOL     OW30679   0.686   1.492   1.840
 9927SOL    HW130680   0.692   1.394   1.857
 9927SOL    HW230681   0.678   1.541   1.927
 9928SOL     OW30682   0.253   3.865   2.761
 9928SOL    HW130683   0.191   3.836   2.688
 9928SOL    HW230684   0.348   3.845   2.735
 9929SOL     OW30685   2.728   4.214   0.228
 9929SOL    HW130686   2.740   4.222   0.129
 9929SOL    HW230687   2.645   4.261   0.255
 9930SOL     OW30688   6.992   6.464   6.046
 9930SOL    HW130689   6.936   6.541   6.074
 9930SOL    HW230690   7.021   6.477   5.951
 9931SOL     OW30691   1.540   5.557   5.674
 9931SOL    HW130692   1.463   5.606   5.717
 9931SOL    HW230693   1.516   5.461   5.664
 9932SOL     OW30694   1.345   1.579   0.439
 9932SOL    HW130695   1.344   1.517   0.360
 9932SOL    HW230696   1.289   1.540   0.512
 9933SOL     OW30697   1.510   1.553   3.723
 9933SOL    HW130698   1.514   1.650   3.746
 9933SOL    HW230699   1.424   1.533   3.677
 9934SOL     OW30700   4.109   1.297   6.009
 9934SOL    HW130701   4.018   1.257   6.002
 9934SOL    HW230702   4.171   1.249   5.948
 9935SOL     OW30703   2.872   1.926   0.970
 9935SOL    HW130704   2.855   2.024   0.961
 9935SOL    HW230705   2.894   1.905   1.065
 9936SOL     OW30706   5.917   5.830   6.028
 9936SOL    HW130707   5.946   5.825   5.932
 9936SOL    HW230708   5.967   5.903   6.074
 9937SOL     OW30709   0.476   0.288   3.330
 9937SOL    HW130710   0.496   0.199   3.289
 9937SOL    HW230711   0.422   0.275   3.414
 9938SOL     OW30712   6.571   1.633   4.431
 9938SOL    HW130713   6.605   1.678   4.513
 9938SOL    HW230714   6.474   1.656   4.418
 9939SOL     OW30715   2.453   4.340   1.466
 9939SOL    HW130716   2.453   4.290   1.380
 9939SOL    HW230717   2.492   4.283   1.538
 9940SOL     OW30718   0.423   0.910   3.226
 9940SOL    HW130719   0.399   0.821   3.187
 9940SOL    HW230720   0.341   0.965   3.236
 9941SOL     OW30721   5.237   4.770   6.281
 9941SOL    HW130722   5.199   4.680   6.259
 9941SOL    HW230723   5.244   4.779   6.380
 9942SOL     OW30724   4.822   5.133   3.345
 9942SOL    HW130725   4.739   5.126   3.290
 9942SOL    HW230726   4.855   5.228   3.344
 9943SOL     OW30727   2.563   4.083   6.897
 9943SOL    HW130728   2.574   4.029   6.814
 9943SOL    HW230729   2.644   4.141   6.909
 9944SOL     OW30730   1.250   4.779   0.285
 9944SOL    HW130731   1.341   4.819   0.280
 9944SOL    HW230732   1.213   4.770   0.192
 9945SOL     OW30733   5.740   3.401   6.402
 9945SOL    HW130734   5.775   3.308   6.391
 9945SOL    HW230735   5.799   3.451   6.466
 9946SOL     OW30736   5.643   1.594   2.485
 9946SOL    HW130737   5.604   1.509   2.451
 9946SOL    HW230738   5.728   1.573   2.534
 9947SOL     OW30739   1.291   1.510   4.011
 9947SOL    HW130740   1.214   1.554   3.965
 9947SOL    HW230741   1.266   1.489   4.105
 9948SOL     OW30742   6.093   6.641   4.320
 9948SOL    HW130743   6.081   6.638   4.419
 9948SOL    HW230744   6.069   6.732   4.286
 9949SOL     OW30745   6.046   4.810   4.087
 9949SOL    HW130746   5.951   4.793   4.064
 9949SOL    HW230747   6.052   4.864   4.171
 9950SOL     OW30748   6.387   5.149   5.089
 9950SOL    HW130749   6.482   5.177   5.103
 9950SOL    HW230750   6.354   5.104   5.172
 9951SOL     OW30751   0.767   2.313   2.009
 9951SOL    HW130752   0.856   2.317   2.054
 9951SOL    HW230753   0.743   2.218   1.988
 9952SOL     OW30754   0.575   4.442   1.945
 9952SOL    HW130755   0.513   4.365   1.934
 9952SOL    HW230756   0.632   4.451   1.863
 9953SOL     OW30757   6.232   2.632   3.469
 9953SOL    HW130758   6.195   2.609   3.559
 9953SOL    HW230759   6.332   2.630   3.473
 9954SOL     OW30760   3.448   1.936   5.710
 9954SOL    HW130761   3.420   1.856   5.657
 9954SOL    HW230762   3.529   1.915   5.764
 9955SOL     OW30763   5.944   3.322   0.218
 9955SOL    HW130764   5.946   3.390   0.292
 9955SOL    HW230765   5.854   3.279   0.215
 9956SOL     OW30766   1.889   3.843   3.380
 9956SOL    HW130767   1.973   3.792   3.396
 9956SOL    HW230768   1.810   3.787   3.407
 9957SOL     OW30769   5.062   0.015   0.920
 9957SOL    HW130770   5.122   6.962   0.897
 9957SOL    HW230771   5.052   0.022   1.019
 9958SOL     OW30772   5.041   4.594   0.207
 9958SOL    HW130773   5.024   4.690   0.225
 9958SOL    HW230774   4.990   4.538   0.273
 9959SOL     OW30775   4.884   4.409   0.344
 9959SOL    HW130776   4.788   4.404   0.316
 9959SOL    HW230777   4.891   4.385   0.441
 9960SOL     OW30778   0.959   0.451   6.766
 9960SOL    HW130779   0.936   0.498   6.681
 9960SOL    HW230780   1.051   0.479   6.795
 9961SOL     OW30781   2.938   4.869   1.560
 9961SOL    HW130782   2.942   4.905   1.653
 9961SOL    HW230783   2.940   4.944   1.494
 9962SOL     OW30784   3.229   6.421   1.495
 9962SOL    HW130785   3.278   6.476   1.427
 9962SOL    HW230786   3.189   6.482   1.564
 9963SOL     OW30787   1.111   1.550   6.122
 9963SOL    HW130788   1.017   1.525   6.097
 9963SOL    HW230789   1.174   1.523   6.049
 9964SOL     OW30790   4.819   3.605   5.675
 9964SOL    HW130791   4.812   3.579   5.579
 9964SOL    HW230792   4.856   3.528   5.728
 9965SOL     OW30793   3.233   5.702   4.620
 9965SOL    HW130794   3.223   5.693   4.719
 9965SOL    HW230795   3.308   5.764   4.599
 9966SOL     OW30796   3.750   4.865   2.439
 9966SOL    HW130797   3.810   4.836   2.515
 9966SOL    HW230798   3.664   4.899   2.476
 9967SOL     OW30799   6.433   0.115   3.178
 9967SOL    HW130800   6.480   0.190   3.132
 9967SOL    HW230801   6.355   0.086   3.123
 9968SOL     OW30802   3.902   6.580   0.638
 9968SOL    HW130803   3.863   6.612   0.551
 9968SOL    HW230804   3.857   6.495   0.665
 9969SOL     OW30805   1.504   5.162   3.593
 9969SOL    HW130806   1.589   5.117   3.618
 9969SOL    HW230807   1.490   5.242   3.652
 9970SOL     OW30808   6.046   4.029   1.692
 9970SOL    HW130809   5.984   4.084   1.635
 9970SOL    HW230810   6.141   4.050   1.667
 9971SOL     OW30811   0.822   4.395   2.179
 9971SOL    HW130812   0.830   4.476   2.121
 9971SOL    HW230813   0.912   4.372   2.216
 9972SOL     OW30814   3.152   3.539   0.100
 9972SOL    HW130815   3.095   3.590   0.165
 9972SOL    HW230816   3.093   3.489   0.037
 9973SOL     OW30817   3.641   1.608   3.623
 9973SOL    HW130818   3.558   1.596   3.677
 9973SOL    HW230819   3.721   1.606   3.683
 9974SOL     OW30820   0.748   2.776   2.931
 9974SOL    HW130821   0.692   2.743   3.007
 9974SOL    HW230822   0.843   2.786   2.961
 9975SOL     OW30823   1.494   5.124   6.866
 9975SOL    HW130824   1.508   5.050   6.932
 9975SOL    HW230825   1.582   5.164   6.842
 9976SOL     OW30826   3.028   3.993   6.385
 9976SOL    HW130827   3.013   3.950   6.296
 9976SOL    HW230828   3.011   4.091   6.378
 9977SOL     OW30829   5.121   6.238   5.121
 9977SOL    HW130830   5.075   6.251   5.208
 9977SOL    HW230831   5.055   6.244   5.046
 9978SOL     OW30832   0.511   2.984   6.106
 9978SOL    HW130833   0.497   2.885   6.108
 9978SOL    HW230834   0.579   3.007   6.035
 9979SOL     OW30835   4.309   3.173   5.425
 9979SOL    HW130836   4.249   3.195   5.502
 9979SOL    HW230837   4.346   3.258   5.387
 9980SOL     OW30838   1.476   0.688   0.276
 9980SOL    HW130839   1.522   0.599   0.277
 9980SOL    HW230840   1.415   0.695   0.354
 9981SOL     OW30841   0.421   2.625   1.452
 9981SOL    HW130842   0.518   2.607   1.435
 9981SOL    HW230843   0.410   2.720   1.483
 9982SOL     OW30844   2.269   1.902   5.483
 9982SOL    HW130845   2.347   1.854   5.525
 9982SOL    HW230846   2.250   1.985   5.535
 9983SOL     OW30847   6.936   3.406   2.191
 9983SOL    HW130848   0.003   3.385   2.152
 9983SOL    HW230849   6.892   3.320   2.220
 9984SOL     OW30850   6.400   6.215   0.418
 9984SOL    HW130851   6.366   6.174   0.334
 9984SOL    HW230852   6.337   6.287   0.447
 9985SOL     OW30853   4.458   5.546   0.636
 9985SOL    HW130854   4.410   5.550   0.549
 9985SOL    HW230855   4.413   5.605   0.703
 9986SOL     OW30856   4.998   4.130   0.345
 9986SOL    HW130857   5.098   4.126   0.346
 9986SOL    HW230858   4.968   4.224   0.356
 9987SOL     OW30859   5.684   2.910   2.019
 9987SOL    HW130860   5.772   2.957   2.023
 9987SOL    HW230861   5.668   2.876   1.927
 9988SOL     OW30862   5.247   6.120   4.624
 9988SOL    HW130863   5.250   6.212   4.663
 9988SOL    HW230864   5.325   6.107   4.563
 9989SOL     OW30865   6.268   5.137   2.010
 9989SOL    HW130866   6.171   5.159   2.019
 9989SOL    HW230867   6.322   5.221   2.009
 9990SOL     OW30868   0.479   0.355   3.818
 9990SOL    HW130869   0.449   0.287   3.886
 9990SOL    HW230870   0.488   0.311   3.729
 9991SOL     OW30871   1.717   4.273   4.329
 9991SOL    HW130872   1.764   4.188   4.353
 9991SOL    HW230873   1.778   4.329   4.273
 9992SOL     OW30874   3.201   4.616   1.010
 9992SOL    HW130875   3.164   4.702   1.046
 9992SOL    HW230876   3.274   4.636   0.944
 9993SOL     OW30877   3.503   6.947   3.741
 9993SOL    HW130878   3.509   6.849   3.761
 9993SOL    HW230879   3.425   6.986   3.790
 9994SOL     OW30880   6.404   4.847   3.936
 9994SOL    HW130881   6.385   4.751   3.955
 9994SOL    HW230882   6.429   4.894   4.021
 9995SOL     OW30883   3.112   0.815   5.246
 9995SOL    HW130884   3.018   0.780   5.248
 9995SOL    HW230885   3.170   0.752   5.195
 9996SOL     OW30886   1.720   4.151   0.766
 9996SOL    HW130887   1.720   4.250   0.754
 9996SOL    HW230888   1.796   4.111   0.715
 9997SOL     OW30889   6.285   2.903   4.063
 9997SOL    HW130890   6.373   2.930   4.103
 9997SOL    HW230891   6.220   2.979   4.071
 9998SOL     OW30892   4.871   3.901   2.670
 9998SOL    HW130893   4.921   3.826   2.626
 9998SOL    HW230894   4.866   3.884   2.769
 9999SOL     OW30895   0.085   6.491   4.312
 9999SOL    HW130896   0.009   6.489   4.376
 9999SOL    HW230897   0.051   6.482   4.219
10000SOL     OW30898   4.958   1.917   1.472
10000SOL    HW130899   4.958   1.973   1.390
10000SOL    HW230900   4.901   1.836   1.457
10001SOL     OW30901   3.121   6.155   2.109
10001SOL    HW130902   3.047   6.213   2.076
10001SOL    HW230903   3.171   6.202   2.182
10002SOL     OW30904   2.141   0.840   1.381
10002SOL    HW130905   2.152   0.745   1.351
10002SOL    HW230906   2.231   0.880   1.399
10003SOL     OW30907   1.673   1.249   3.084
10003SOL    HW130908   1.699   1.336   3.043
10003SOL    HW230909   1.751   1.209   3.132
10004SOL     OW30910   6.436   4.785   4.684
10004SOL    HW130911   6.443   4.808   4.781
10004SOL    HW230912   6.493   4.848   4.631
10005SOL     OW30913   2.184   5.969   3.560
10005SOL    HW130914   2.168   5.913   3.641
10005SOL    HW230915   2.100   5.972   3.505
10006SOL     OW30916   5.359   0.226   5.763
10006SOL    HW130917   5.343   0.175   5.679
10006SOL    HW230918   5.287   0.206   5.829
10007SOL     OW30919   1.091   4.596   4.931
10007SOL    HW130920   1.030   4.527   4.892
10007SOL    HW230921   1.183   4.582   4.896
10008SOL     OW30922   4.134   1.865   4.891
10008SOL    HW130923   4.144   1.949   4.944
10008SOL    HW230924   4.190   1.792   4.931
10009SOL     OW30925   1.565   4.816   1.691
10009SOL    HW130926   1.491   4.750   1.699
10009SOL    HW230927   1.528   4.906   1.665
10010SOL     OW30928   2.397   4.932   6.814
10010SOL    HW130929   2.473   4.945   6.750
10010SOL    HW230930   2.311   4.938   6.764
10011SOL     OW30931   0.799   3.314   0.598
10011SOL    HW130932   0.888   3.316   0.553
10011SOL    HW230933   0.764   3.220   0.599
10012SOL     OW30934   5.289   1.183   1.644
10012SOL    HW130935   5.331   1.158   1.556
10012SOL    HW230936   5.244   1.272   1.635
10013SOL     OW30937   1.040   6.147   5.060
10013SOL    HW130938   1.005   6.071   5.005
10013SOL    HW230939   1.115   6.115   5.117
10014SOL     OW30940   0.468   6.753   3.418
10014SOL    HW130941   0.421   6.698   3.487
10014SOL    HW230942   0.556   6.710   3.395
10015SOL     OW30943   3.755   4.715   5.582
10015SOL    HW130944   3.751   4.615   5.581
10015SOL    HW230945   3.742   4.749   5.489
10016SOL     OW30946   1.933   6.876   3.746
10016SOL    HW130947   1.959   6.793   3.696
10016SOL    HW230948   2.001   6.895   3.817
10017SOL     OW30949   2.625   1.802   2.904
10017SOL    HW130950   2.640   1.897   2.878
10017SOL    HW230951   2.633   1.793   3.004
10018SOL     OW30952   6.407   3.602   5.805
10018SOL    HW130953   6.329   3.627   5.747
10018SOL    HW230954   6.464   3.535   5.758
10019SOL     OW30955   0.667   1.601   2.824
10019SOL    HW130956   0.736   1.586   2.896
10019SOL    HW230957   0.714   1.618   2.737
10020SOL     OW30958   6.875   0.537   2.268
10020SOL    HW130959   6.814   0.532   2.189
10020SOL    HW230960   6.822   0.563   2.349
10021SOL     OW30961   1.583   4.158   1.674
10021SOL    HW130962   1.669   4.152   1.725
10021SOL    HW230963   1.517   4.212   1.726
10022SOL     OW30964   2.922   6.479   0.625
10022SOL    HW130965   2.831   6.507   0.657
10022SOL    HW230966   2.913   6.399   0.566
10023SOL     OW30967   2.670   6.857   6.043
10023SOL    HW130968   2.580   6.839   6.083
10023SOL    HW230969   2.665   6.938   5.984
10024SOL     OW30970   1.559   4.625   3.066
10024SOL    HW130971   1.517   4.561   3.003
10024SOL    HW230972   1.492   4.655   3.134
10025SOL     OW30973   1.484   4.132   1.421
10025SOL    HW130974   1.504   4.138   1.518
10025SOL    HW230975   1.481   4.224   1.382
10026SOL     OW30976   4.865   1.345   2.836
10026SOL    HW130977   4.831   1.387   2.920
10026SOL    HW230978   4.881   1.415   2.767
10027SOL     OW30979   1.953   2.085   5.718
10027SOL    HW130980   1.888   2.071   5.643
10027SOL    HW230981   1.904   2.084   5.805
10028SOL     OW30982   4.016   0.314   1.595
10028SOL    HW130983   3.947   0.271   1.537
10028SOL    HW230984   3.986   0.312   1.690
10029SOL     OW30985   0.241   3.289   4.417
10029SOL    HW130986   0.188   3.329   4.492
10029SOL    HW230987   0.206   3.197   4.396
10030SOL     OW30988   2.709   6.593   5.010
10030SOL    HW130989   2.737   6.677   4.964
10030SOL    HW230990   2.648   6.541   4.951
10031SOL     OW30991   3.934   5.304   4.309
10031SOL    HW130992   3.970   5.359   4.385
10031SOL    HW230993   4.010   5.261   4.260
10032SOL     OW30994   3.149   5.965   5.233
10032SOL    HW130995   3.080   6.035   5.214
10032SOL    HW230996   3.161   5.907   5.152
10033SOL     OW30997   4.378   1.722   3.253
10033SOL    HW130998   4.423   1.777   3.183
10033SOL    HW230999   4.288   1.762   3.274
10034SOL     OW31000   2.081   0.685   3.308
10034SOL    HW131001   2.073   0.764   3.247
10034SOL    HW231002   2.140   0.709   3.386
10035SOL     OW31003   6.332   3.015   0.430
10035SOL    HW131004   6.391   3.060   0.364
10035SOL    HW231005   6.383   2.943   0.478
10036SOL     OW31006   6.510   0.897   6.372
10036SOL    HW131007   6.447   0.821   6.360
10036SOL    HW231008   6.594   0.864   6.416
10037SOL     OW31009   6.379   0.133   6.352
10037SOL    HW131010   6.436   0.094   6.425
10037SOL    HW231011   6.393   0.232   6.348
10038SOL     OW31012   4.073   0.356   0.165
10038SOL    HW131013   4.046   0.376   0.259
10038SOL    HW231014   4.097   0.440   0.118
10039SOL     OW31015   5.239   5.103   4.555
10039SOL    HW131016   5.235   5.096   4.456
10039SOL    HW231017   5.283   5.190   4.580
10040SOL     OW31018   4.091   0.380   0.448
10040SOL    HW131019   4.112   0.292   0.491
10040SOL    HW231020   4.072   0.447   0.519
10041SOL     OW31021   6.301   4.723   5.729
10041SOL    HW131022   6.234   4.776   5.780
10041SOL    HW231023   6.363   4.784   5.680
10042SOL     OW31024   0.634   1.180   5.279
10042SOL    HW131025   0.576   1.099   5.288
10042SOL    HW231026   0.594   1.242   5.211
10043SOL     OW31027   1.165   0.672   3.049
10043SOL    HW131028   1.243   0.702   2.993
10043SOL    HW231029   1.182   0.697   3.144
10044SOL     OW31030   1.990   1.043   4.952
10044SOL    HW131031   1.900   1.011   4.982
10044SOL    HW231032   2.034   0.971   4.898
10045SOL     OW31033   4.459   6.864   4.616
10045SOL    HW131034   4.476   6.930   4.688
10045SOL    HW231035   4.546   6.841   4.571
10046SOL     OW31036   7.016   2.255   1.556
10046SOL    HW131037   0.031   2.323   1.493
10046SOL    HW231038   0.025   2.164   1.531
10047SOL     OW31039   6.116   2.365   4.907
10047SOL    HW131040   6.157   2.330   4.823
10047SOL    HW231041   6.145   2.308   4.984
10048SOL     OW31042   3.198   1.381   1.753
10048SOL    HW131043   3.249   1.457   1.794
10048SOL    HW231044   3.245   1.295   1.771
10049SOL     OW31045   1.721   6.983   6.656
10049SOL    HW131046   1.657   6.982   6.733
10049SOL    HW231047   1.670   7.000   6.572
10050SOL     OW31048   5.191   3.120   4.877
10050SOL    HW131049   5.099   3.128   4.915
10050SOL    HW231050   5.255   3.171   4.935
10051SOL     OW31051   6.851   2.932   4.378
10051SOL    HW131052   6.835   3.006   4.312
10051SOL    HW231053   6.769   2.876   4.387
10052SOL     OW31054   2.018   3.338   1.658
10052SOL    HW131055   1.999   3.391   1.575
10052SOL    HW231056   1.948   3.267   1.668
10053SOL     OW31057   3.766   5.086   3.526
10053SOL    HW131058   3.684   5.031   3.539
10053SOL    HW231059   3.753   5.149   3.449
10054SOL     OW31060   4.521   5.865   6.247
10054SOL    HW131061   4.533   5.844   6.345
10054SOL    HW231062   4.498   5.962   6.237
10055SOL     OW31063   6.499   2.251   5.068
10055SOL    HW131064   6.453   2.195   5.000
10055SOL    HW231065   6.492   2.347   5.042
10056SOL     OW31066   5.998   4.892   1.014
10056SOL    HW131067   5.942   4.955   0.959
10056SOL    HW231068   6.058   4.840   0.954
10057SOL     OW31069   4.086   1.895   4.196
10057SOL    HW131070   4.052   1.809   4.234
10057SOL    HW231071   4.066   1.969   4.260
10058SOL     OW31072   6.038   4.976   3.652
10058SOL    HW131073   5.978   4.913   3.701
10058SOL    HW231074   5.990   5.013   3.573
10059SOL     OW31075   5.237   6.832   0.884
10059SOL    HW131076   5.237   6.753   0.945
10059SOL    HW231077   5.330   6.847   0.849
10060SOL     OW31078   3.103   2.119   1.946
10060SOL    HW131079   3.059   2.184   2.009
10060SOL    HW231080   3.050   2.114   1.861
10061SOL     OW31081   6.137   1.246   4.261
10061SOL    HW131082   6.175   1.250   4.169
10061SOL    HW231083   6.058   1.184   4.262
10062SOL     OW31084   6.125   6.429   3.795
10062SOL    HW131085   6.122   6.337   3.835
10062SOL    HW231086   6.069   6.491   3.850
10063SOL     OW31087   1.252   2.346   3.177
10063SOL    HW131088   1.328   2.397   3.218
10063SOL    HW231089   1.175   2.408   3.162
10064SOL     OW31090   5.119   5.200   4.898
10064SOL    HW131091   5.052   5.138   4.859
10064SOL    HW231092   5.139   5.273   4.833
10065SOL     OW31093   1.524   0.141   2.004
10065SOL    HW131094   1.458   0.074   2.037
10065SOL    HW231095   1.595   0.155   2.073
10066SOL     OW31096   0.364   1.182   3.806
10066SOL    HW131097   0.450   1.179   3.857
10066SOL    HW231098   0.351   1.274   3.768
10067SOL     OW31099   5.433   4.766   4.395
10067SOL    HW131100   5.385   4.849   4.369
10067SOL    HW231101   5.470   4.776   4.487
10068SOL     OW31102   5.479   2.795   5.003
10068SOL    HW131103   5.570   2.777   4.964
10068SOL    HW231104   5.410   2.785   4.932
10069SOL     OW31105   2.241   0.761   3.525
10069SOL    HW131106   2.254   0.857   3.548
10069SOL    HW231107   2.316   0.707   3.563
10070SOL     OW31108   0.220   6.112   4.879
10070SOL    HW131109   0.311   6.133   4.916
10070SOL    HW231110   0.156   6.100   4.955
10071SOL     OW31111   4.634   5.300   4.056
10071SOL    HW131112   4.629   5.375   3.990
10071SOL    HW231113   4.582   5.222   4.021
10072SOL     OW31114   0.334   6.467   4.021
10072SOL    HW131115   0.348   6.531   3.946
10072SOL    HW231116   0.236   6.464   4.043
10073SOL     OW31117   6.193   4.614   4.649
10073SOL    HW131118   6.269   4.657   4.697
10073SOL    HW231119   6.124   4.585   4.715
10074SOL     OW31120   1.231   6.625   5.630
10074SOL    HW131121   1.262   6.658   5.719
10074SOL    HW231122   1.236   6.526   5.627
10075SOL     OW31123   1.266   2.465   2.897
10075SOL    HW131124   1.339   2.422   2.949
10075SOL    HW231125   1.226   2.398   2.834
10076SOL     OW31126   5.163   0.051   4.688
10076SOL    HW131127   5.200   0.069   4.596
10076SOL    HW231128   5.083   7.015   4.680
10077SOL     OW31129   3.846   2.241   6.647
10077SOL    HW131130   3.767   2.235   6.586
10077SOL    HW231131   3.878   2.148   6.669
10078SOL     OW31132   6.376   6.035   4.911
10078SOL    HW131133   6.381   6.055   4.813
10078SOL    HW231134   6.281   6.034   4.940
10079SOL     OW31135   1.582   3.039   2.012
10079SOL    HW131136   1.655   3.107   2.007
10079SOL    HW231137   1.515   3.056   1.940
10080SOL     OW31138   2.628   2.649   0.338
10080SOL    HW131139   2.631   2.712   0.416
10080SOL    HW231140   2.719   2.610   0.323
10081SOL     OW31141   0.846   0.160   6.210
10081SOL    HW131142   0.928   0.104   6.218
10081SOL    HW231143   0.766   0.108   6.238
10082SOL     OW31144   6.700   2.240   2.045
10082SOL    HW131145   6.685   2.229   1.947
10082SOL    HW231146   6.631   2.302   2.083
10083SOL     OW31147   4.679   1.290   3.726
10083SOL    HW131148   4.582   1.282   3.705
10083SOL    HW231149   4.707   1.211   3.781
10084SOL     OW31150   3.277   0.499   6.414
10084SOL    HW131151   3.359   0.493   6.471
10084SOL    HW231152   3.252   0.407   6.383
10085SOL     OW31153   0.595   5.118   3.055
10085SOL    HW131154   0.552   5.162   3.134
10085SOL    HW231155   0.581   5.174   2.974
10086SOL     OW31156   5.915   5.090   2.254
10086SOL    HW131157   5.940   5.012   2.310
10086SOL    HW231158   5.924   5.174   2.308
10087SOL     OW31159   1.010   1.141   4.583
10087SOL    HW131160   0.991   1.067   4.647
10087SOL    HW231161   0.957   1.127   4.499
10088SOL     OW31162   0.489   6.974   5.540
10088SOL    HW131163   0.567   6.936   5.589
10088SOL    HW231164   0.519   0.026   5.482
10089SOL     OW31165   2.522   1.574   2.819
10089SOL    HW131166   2.508   1.500   2.884
10089SOL    HW231167   2.601   1.629   2.847
10090SOL     OW31168   1.200   4.449   0.833
10090SOL    HW131169   1.132   4.509   0.792
10090SOL    HW231170   1.154   4.387   0.898
10091SOL     OW31171   1.283   3.655   4.751
10091SOL    HW131172   1.208   3.602   4.792
10091SOL    HW231173   1.324   3.714   4.821
10092SOL     OW31174   1.567   3.903   5.247
10092SOL    HW131175   1.487   3.851   5.279
10092SOL    HW231176   1.597   3.967   5.317
10093SOL     OW31177   0.518   5.225   5.186
10093SOL    HW131178   0.613   5.208   5.212
10093SOL    HW231179   0.492   5.163   5.112
10094SOL     OW31180   2.415   0.248   2.559
10094SOL    HW131181   2.397   0.289   2.470
10094SOL    HW231182   2.512   0.223   2.566
10095SOL     OW31183   5.894   1.678   5.362
10095SOL    HW131184   5.797   1.670   5.337
10095SOL    HW231185   5.929   1.588   5.387
10096SOL     OW31186   6.735   5.006   2.616
10096SOL    HW131187   6.764   5.024   2.710
10096SOL    HW231188   6.809   4.962   2.566
10097SOL     OW31189   1.150   0.828   6.998
10097SOL    HW131190   1.227   0.885   6.971
10097SOL    HW231191   1.083   0.882   0.025
10098SOL     OW31192   1.910   6.020   5.883
10098SOL    HW131193   1.992   5.965   5.867
10098SOL    HW231194   1.896   6.083   5.806
10099SOL     OW31195   0.338   4.003   6.089
10099SOL    HW131196   0.244   4.008   6.122
10099SOL    HW231197   0.338   3.990   5.990
10100SOL     OW31198   4.961   0.482   5.183
10100SOL    HW131199   5.031   0.414   5.204
10100SOL    HW231200   4.902   0.448   5.110
10101SOL     OW31201   0.100   4.363   2.025
10101SOL    HW131202   0.080   4.273   1.986
10101SOL    HW231203   0.043   4.378   2.106
10102SOL     OW31204   2.843   0.979   3.213
10102SOL    HW131205   2.779   1.055   3.210
10102SOL    HW231206   2.904   0.983   3.134
10103SOL     OW31207   3.589   1.341   4.969
10103SOL    HW131208   3.523   1.318   4.898
10103SOL    HW231209   3.567   1.431   5.007
10104SOL     OW31210   0.407   4.465   5.109
10104SOL    HW131211   0.372   4.533   5.045
10104SOL    HW231212   0.506   4.475   5.118
10105SOL     OW31213   1.347   1.382   5.968
10105SOL    HW131214   1.391   1.387   5.879
10105SOL    HW231215   1.414   1.402   6.040
10106SOL     OW31216   5.474   4.617   0.849
10106SOL    HW131217   5.516   4.639   0.761
10106SOL    HW231218   5.489   4.521   0.870
10107SOL     OW31219   6.400   1.739   6.067
10107SOL    HW131220   6.321   1.793   6.097
10107SOL    HW231221   6.378   1.642   6.074
10108SOL     OW31222   5.996   6.465   6.892
10108SOL    HW131223   5.972   6.477   6.989
10108SOL    HW231224   6.079   6.408   6.886
10109SOL     OW31225   4.270   6.385   2.558
10109SOL    HW131226   4.366   6.371   2.533
10109SOL    HW231227   4.242   6.314   2.622
10110SOL     OW31228   4.148   6.635   5.491
10110SOL    HW131229   4.120   6.698   5.564
10110SOL    HW231230   4.096   6.550   5.499
10111SOL     OW31231   7.022   3.731   3.576
10111SOL    HW131232   0.089   3.708   3.613
10111SOL    HW231233   7.013   3.692   3.484
10112SOL     OW31234   5.888   3.981   5.372
10112SOL    HW131235   5.894   4.075   5.339
10112SOL    HW231236   5.821   3.930   5.317
10113SOL     OW31237   4.213   1.322   0.013
10113SOL    HW131238   4.127   1.295   0.056
10113SOL    HW231239   4.203   1.320   6.937
10114SOL     OW31240   5.667   1.016   0.598
10114SOL    HW131241   5.669   0.948   0.672
10114SOL    HW231242   5.580   1.065   0.599
10115SOL     OW31243   2.561   2.004   3.176
10115SOL    HW131244   2.619   2.079   3.142
10115SOL    HW231245   2.512   2.035   3.257
10116SOL     OW31246   0.895   6.822   1.486
10116SOL    HW131247   0.934   6.911   1.507
10116SOL    HW231248   0.809   6.833   1.436
10117SOL     OW31249   6.438   0.309   4.593
10117SOL    HW131250   6.473   0.398   4.566
10117SOL    HW231251   6.464   0.290   4.688
10118SOL     OW31252   6.939   4.864   2.523
10118SOL    HW131253   0.005   4.879   2.566
10118SOL    HW231254   6.925   4.766   2.508
10119SOL     OW31255   2.459   6.684   4.255
10119SOL    HW131256   2.454   6.784   4.262
10119SOL    HW231257   2.407   6.643   4.331
10120SOL     OW31258   0.956   3.201   4.080
10120SOL    HW131259   1.046   3.215   4.039
10120SOL    HW231260   0.928   3.284   4.128
10121SOL     OW31261   6.718   5.066   4.946
10121SOL    HW131262   6.734   5.140   4.880
10121SOL    HW231263   6.695   5.105   5.035
10122SOL     OW31264   6.015   2.743   0.230
10122SOL    HW131265   5.999   2.812   0.159
10122SOL    HW231266   6.029   2.788   0.318
10123SOL     OW31267   6.282   6.102   0.182
10123SOL    HW131268   6.286   6.003   0.169
10123SOL    HW231269   6.187   6.130   0.194
10124SOL     OW31270   2.608   3.838   0.022
10124SOL    HW131271   2.621   3.756   6.990
10124SOL    HW231272   2.639   3.918   6.994
10125SOL     OW31273   1.843   0.519   2.743
10125SOL    HW131274   1.943   0.507   2.739
10125SOL    HW231275   1.801   0.460   2.674
10126SOL     OW31276   6.548   5.466   6.021
10126SOL    HW131277   6.535   5.370   6.043
10126SOL    HW231278   6.607   5.509   6.090
10127SOL     OW31279   3.126   5.394   6.071
10127SOL    HW131280   3.102   5.429   5.980
10127SOL    HW231281   3.064   5.434   6.139
10128SOL     OW31282   0.805   1.023   1.591
10128SOL    HW131283   0.863   1.097   1.626
10128SOL    HW231284   0.782   1.042   1.496
10129SOL     OW31285   4.659   2.703   3.701
10129SOL    HW131286   4.698   2.675   3.789
10129SOL    HW231287   4.574   2.654   3.685
10130SOL     OW31288   1.815   4.855   2.150
10130SOL    HW131289   1.784   4.763   2.171
10130SOL    HW231290   1.891   4.850   2.085
10131SOL     OW31291   0.593   1.895   2.945
10131SOL    HW131292   0.638   1.855   3.025
10131SOL    HW231293   0.597   1.831   2.868
10132SOL     OW31294   3.528   6.169   3.050
10132SOL    HW131295   3.571   6.079   3.041
10132SOL    HW231296   3.570   6.232   2.986
10133SOL     OW31297   4.781   6.342   2.323
10133SOL    HW131298   4.833   6.336   2.409
10133SOL    HW231299   4.728   6.258   2.310
10134SOL     OW31300   6.322   0.089   4.088
10134SOL    HW131301   6.381   0.008   4.078
10134SOL    HW231302   6.332   0.147   4.008
10135SOL     OW31303   5.181   3.625   2.714
10135SOL    HW131304   5.186   3.667   2.805
10135SOL    HW231305   5.189   3.696   2.644
10136SOL     OW31306   5.648   0.072   2.949
10136SOL    HW131307   5.649   0.154   3.005
10136SOL    HW231308   5.586   0.005   2.990
10137SOL     OW31309   6.767   5.312   3.562
10137SOL    HW131310   6.765   5.264   3.650
10137SOL    HW231311   6.852   5.364   3.554
10138SOL     OW31312   4.600   2.460   0.870
10138SOL    HW131313   4.632   2.520   0.796
10138SOL    HW231314   4.587   2.368   0.835
10139SOL     OW31315   4.022   3.530   2.808
10139SOL    HW131316   4.016   3.469   2.887
10139SOL    HW231317   4.104   3.507   2.754
10140SOL     OW31318   6.040   6.220   5.936
10140SOL    HW131319   6.045   6.192   5.840
10140SOL    HW231320   6.103   6.297   5.951
10141SOL     OW31321   3.384   2.099   4.521
10141SOL    HW131322   3.342   2.146   4.444
10141SOL    HW231323   3.318   2.092   4.596
10142SOL     OW31324   5.529   6.331   5.183
10142SOL    HW131325   5.521   6.288   5.273
10142SOL    HW231326   5.606   6.395   5.183
10143SOL     OW31327   4.874   0.179   1.320
10143SOL    HW131328   4.803   0.248   1.300
10143SOL    HW231329   4.899   0.184   1.417
10144SOL     OW31330   4.499   6.264   5.912
10144SOL    HW131331   4.524   6.200   5.840
10144SOL    HW231332   4.404   6.247   5.940
10145SOL     OW31333   3.113   6.434   5.812
10145SOL    HW131334   3.069   6.358   5.763
10145SOL    HW231335   3.053   6.514   5.810
10146SOL     OW31336   3.546   5.129   5.482
10146SOL    HW131337   3.463   5.080   5.509
10146SOL    HW231338   3.626   5.072   5.500
10147SOL     OW31339   5.494   4.709   4.657
10147SOL    HW131340   5.466   4.613   4.662
10147SOL    HW231341   5.493   4.749   4.749
10148SOL     OW31342   6.399   5.342   6.911
10148SOL    HW131343   6.499   5.337   6.900
10148SOL    HW231344   6.360   5.251   6.900
10149SOL     OW31345   5.028   2.057   0.289
10149SOL    HW131346   5.031   2.134   0.225
10149SOL    HW231347   5.076   2.081   0.373
10150SOL     OW31348   4.903   3.927   0.529
10150SOL    HW131349   4.858   3.850   0.484
10150SOL    HW231350   4.929   3.995   0.461
10151SOL     OW31351   1.243   0.266   5.937
10151SOL    HW131352   1.207   0.344   5.989
10151SOL    HW231353   1.318   0.223   5.988
10152SOL     OW31354   1.727   5.859   4.050
10152SOL    HW131355   1.663   5.828   4.121
10152SOL    HW231356   1.760   5.951   4.074
10153SOL     OW31357   4.465   5.858   4.084
10153SOL    HW131358   4.430   5.890   3.996
10153SOL    HW231359   4.552   5.904   4.103
10154SOL     OW31360   6.048   6.891   5.697
10154SOL    HW131361   6.042   6.972   5.755
10154SOL    HW231362   5.981   6.897   5.623
10155SOL     OW31363   4.403   1.651   5.874
10155SOL    HW131364   4.433   1.718   5.807
10155SOL    HW231365   4.474   1.641   5.945
10156SOL     OW31366   6.192   0.349   1.790
10156SOL    HW131367   6.226   0.263   1.830
10156SOL    HW231368   6.095   0.360   1.813
10157SOL     OW31369   5.648   2.262   5.783
10157SOL    HW131370   5.554   2.264   5.750
10157SOL    HW231371   5.671   2.170   5.815
10158SOL     OW31372   4.545   3.611   6.965
10158SOL    HW131373   4.474   3.592   6.897
10158SOL    HW231374   4.626   3.649   6.920
10159SOL     OW31375   2.755   3.388   6.363
10159SOL    HW131376   2.833   3.415   6.419
10159SOL    HW231377   2.771   3.415   6.268
10160SOL     OW31378   1.321   4.123   2.526
10160SOL    HW131379   1.311   4.101   2.623
10160SOL    HW231380   1.234   4.108   2.479
10161SOL     OW31381   3.278   4.590   0.699
10161SOL    HW131382   3.190   4.628   0.673
10161SOL    HW231383   3.346   4.664   0.707
10162SOL     OW31384   2.873   4.404   0.660
10162SOL    HW131385   2.953   4.386   0.717
10162SOL    HW231386   2.818   4.476   0.702
10163SOL     OW31387   5.774   4.254   6.509
10163SOL    HW131388   5.781   4.185   6.437
10163SOL    HW231389   5.851   4.318   6.502
10164SOL     OW31390   6.062   3.216   5.077
10164SOL    HW131391   6.118   3.135   5.059
10164SOL    HW231392   6.121   3.295   5.091
10165SOL     OW31393   1.656   2.433   3.972
10165SOL    HW131394   1.592   2.396   3.905
10165SOL    HW231395   1.715   2.359   4.006
10166SOL     OW31396   3.479   0.932   1.944
10166SOL    HW131397   3.539   0.987   2.003
10166SOL    HW231398   3.527   0.849   1.917
10167SOL     OW31399   4.178   1.406   6.346
10167SOL    HW131400   4.239   1.328   6.362
10167SOL    HW231401   4.190   1.439   6.252
10168SOL     OW31402   6.851   3.750   4.745
10168SOL    HW131403   6.829   3.847   4.738
10168SOL    HW231404   6.921   3.736   4.815
10169SOL     OW31405   6.504   3.832   3.201
10169SOL    HW131406   6.490   3.928   3.227
10169SOL    HW231407   6.566   3.789   3.266
10170SOL     OW31408   0.925   4.315   6.028
10170SOL    HW131409   0.958   4.250   5.959
10170SOL    HW231410   1.001   4.371   6.059
10171SOL     OW31411   6.453   3.789   6.496
10171SOL    HW131412   6.395   3.745   6.428
10171SOL    HW231413   6.547   3.795   6.460
10172SOL     OW31414   6.119   6.863   3.390
10172SOL    HW131415   6.117   6.773   3.348
10172SOL    HW231416   6.177   6.860   3.472
10173SOL     OW31417   1.666   2.637   0.768
10173SOL    HW131418   1.705   2.678   0.686
10173SOL    HW231419   1.709   2.547   0.783
10174SOL     OW31420   5.560   5.103   1.799
10174SOL    HW131421   5.519   5.175   1.742
10174SOL    HW231422   5.537   5.014   1.762
10175SOL     OW31423   6.695   2.529   3.904
10175SOL    HW131424   6.619   2.586   3.873
10175SOL    HW231425   6.738   2.571   3.984
10176SOL     OW31426   1.138   3.649   5.371
10176SOL    HW131427   1.180   3.727   5.325
10176SOL    HW231428   1.070   3.681   5.437
10177SOL     OW31429   2.199   0.544   0.267
10177SOL    HW131430   2.196   0.522   0.169
10177SOL    HW231431   2.284   0.593   0.287
10178SOL     OW31432   6.472   3.080   4.918
10178SOL    HW131433   6.532   3.043   4.989
10178SOL    HW231434   6.498   3.043   4.829
10179SOL     OW31435   0.987   1.923   5.653
10179SOL    HW131436   1.036   1.923   5.740
10179SOL    HW231437   0.911   1.859   5.657
10180SOL     OW31438   4.319   6.266   6.868
10180SOL    HW131439   4.302   6.346   6.925
10180SOL    HW231440   4.301   6.183   6.921
10181SOL     OW31441   4.986   3.364   2.005
10181SOL    HW131442   5.078   3.333   1.983
10181SOL    HW231443   4.944   3.300   2.071
10182SOL     OW31444   5.670   1.744   2.253
10182SOL    HW131445   5.578   1.777   2.234
10182SOL    HW231446   5.670   1.695   2.340
10183SOL     OW31447   0.889   1.997   6.326
10183SOL    HW131448   0.814   2.043   6.373
10183SOL    HW231449   0.875   2.004   6.227
10184SOL     OW31450   4.497   1.209   6.050
10184SOL    HW131451   4.419   1.201   5.988
10184SOL    HW231452   4.495   1.298   6.095
10185SOL     OW31453   5.220   5.878   1.442
10185SOL    HW131454   5.292   5.819   1.404
10185SOL    HW231455   5.196   5.947   1.374
10186SOL     OW31456   5.685   3.230   2.917
10186SOL    HW131457   5.642   3.164   2.855
10186SOL    HW231458   5.625   3.248   2.995
10187SOL     OW31459   0.556   2.068   1.253
10187SOL    HW131460   0.645   2.022   1.247
10187SOL    HW231461   0.551   2.122   1.336
10188SOL     OW31462   3.862   6.303   0.705
10188SOL    HW131463   3.860   6.259   0.795
10188SOL    HW231464   3.781   6.274   0.653
10189SOL     OW31465   2.266   0.805   5.063
10189SOL    HW131466   2.332   0.869   5.025
10189SOL    HW231467   2.292   0.783   5.157
10190SOL     OW31468   5.104   2.825   1.243
10190SOL    HW131469   5.061   2.736   1.226
10190SOL    HW231470   5.072   2.890   1.174
10191SOL     OW31471   4.585   4.109   7.016
10191SOL    HW131472   4.545   4.074   0.077
10191SOL    HW231473   4.543   4.063   6.937
10192SOL     OW31474   4.728   0.922   5.459
10192SOL    HW131475   4.737   0.995   5.528
10192SOL    HW231476   4.631   0.899   5.448
10193SOL     OW31477   4.286   3.856   1.777
10193SOL    HW131478   4.386   3.849   1.781
10193SOL    HW231479   4.246   3.788   1.839
10194SOL     OW31480   6.242   4.595   5.170
10194SOL    HW131481   6.251   4.663   5.244
10194SOL    HW231482   6.232   4.643   5.083
10195SOL     OW31483   6.293   4.367   1.272
10195SOL    HW131484   6.225   4.323   1.214
10195SOL    HW231485   6.340   4.439   1.221
10196SOL     OW31486   5.424   1.680   4.782
10196SOL    HW131487   5.348   1.705   4.842
10196SOL    HW231488   5.403   1.594   4.736
10197SOL     OW31489   0.042   2.051   4.914
10197SOL    HW131490   7.011   1.968   4.903
10197SOL    HW231491   7.013   2.130   4.881
10198SOL     OW31492   4.057   0.562   1.707
10198SOL    HW131493   4.082   0.479   1.658
10198SOL    HW231494   3.982   0.541   1.770
10199SOL     OW31495   2.054   3.116   6.332
10199SOL    HW131496   2.043   3.025   6.290
10199SOL    HW231497   2.093   3.179   6.265
10200SOL     OW31498   4.909   2.412   0.969
10200SOL    HW131499   4.861   2.379   1.051
10200SOL    HW231500   4.883   2.356   0.890
10201SOL     OW31501   0.702   4.684   0.805
10201SOL    HW131502   0.710   4.590   0.837
10201SOL    HW231503   0.610   4.719   0.826
10202SOL     OW31504   3.770   2.251   6.141
10202SOL    HW131505   3.752   2.295   6.228
10202SOL    HW231506   3.856   2.284   6.103
10203SOL     OW31507   5.892   3.118   4.183
10203SOL    HW131508   5.844   3.158   4.104
10203SOL    HW231509   5.825   3.095   4.254
10204SOL     OW31510   5.689   0.155   6.939
10204SOL    HW131511   5.744   0.237   6.925
10204SOL    HW231512   5.645   0.129   6.853
10205SOL     OW31513   0.458   1.635   0.650
10205SOL    HW131514   0.478   1.711   0.712
10205SOL    HW231515   0.526   1.633   0.577
10206SOL     OW31516   0.857   0.553   5.963
10206SOL    HW131517   0.923   0.627   5.957
10206SOL    HW231518   0.834   0.521   5.871
10207SOL     OW31519   0.985   1.879   6.751
10207SOL    HW131520   1.008   1.806   6.816
10207SOL    HW231521   0.964   1.963   6.801
10208SOL     OW31522   5.581   5.011   3.959
10208SOL    HW131523   5.486   5.038   3.978
10208SOL    HW231524   5.634   5.091   3.931
10209SOL     OW31525   6.721   7.019   6.169
10209SOL    HW131526   6.774   6.983   6.246
10209SOL    HW231527   6.623   7.003   6.185
10210SOL     OW31528   4.686   6.470   1.228
10210SOL    HW131529   4.761   6.498   1.288
10210SOL    HW231530   4.624   6.548   1.214
10211SOL     OW31531   3.477   6.766   4.647
10211SOL    HW131532   3.546   6.815   4.594
10211SOL    HW231533   3.456   6.679   4.602
10212SOL     OW31534   1.070   0.349   5.001
10212SOL    HW131535   0.978   0.316   5.021
10212SOL    HW231536   1.127   0.343   5.083
10213SOL     OW31537   4.507   2.978   1.300
10213SOL    HW131538   4.468   2.903   1.247
10213SOL    HW231539   4.605   2.962   1.313
10214SOL     OW31540   1.219   2.217   1.611
10214SOL    HW131541   1.155   2.140   1.619
10214SOL    HW231542   1.310   2.187   1.638
10215SOL     OW31543   4.107   3.383   3.031
10215SOL    HW131544   4.100   3.338   3.120
10215SOL    HW231545   4.201   3.375   2.998
10216SOL     OW31546   6.648   0.707   1.374
10216SOL    HW131547   6.713   0.783   1.381
10216SOL    HW231548   6.563   0.740   1.332
10217SOL     OW31549   2.495   0.948   3.519
10217SOL    HW131550   2.509   0.922   3.424
10217SOL    HW231551   2.405   0.989   3.530
10218SOL     OW31552   1.271   3.422   1.797
10218SOL    HW131553   1.289   3.404   1.894
10218SOL    HW231554   1.302   3.514   1.774
10219SOL     OW31555   0.233   1.735   2.200
10219SOL    HW131556   0.251   1.824   2.241
10219SOL    HW231557   0.309   1.673   2.220
10220SOL     OW31558   3.870   2.988   1.242
10220SOL    HW131559   3.788   3.009   1.296
10220SOL    HW231560   3.947   3.043   1.275
10221SOL     OW31561   0.819   5.589   2.978
10221SOL    HW131562   0.760   5.581   3.059
10221SOL    HW231563   0.800   5.512   2.916
10222SOL     OW31564   2.996   3.628   5.077
10222SOL    HW131565   3.089   3.619   5.041
10222SOL    HW231566   2.942   3.548   5.051
10223SOL     OW31567   0.325   5.260   0.867
10223SOL    HW131568   0.245   5.307   0.905
10223SOL    HW231569   0.408   5.310   0.891
10224SOL     OW31570   5.966   3.202   3.379
10224SOL    HW131571   5.936   3.132   3.445
10224SOL    HW231572   6.049   3.246   3.412
10225SOL     OW31573   1.674   4.242   5.629
10225SOL    HW131574   1.745   4.188   5.673
10225SOL    HW231575   1.599   4.257   5.694
10226SOL     OW31576   3.441   1.061   0.154
10226SOL    HW131577   3.504   1.068   0.076
10226SOL    HW231578   3.467   0.984   0.211
10227SOL     OW31579   5.196   3.670   0.601
10227SOL    HW131580   5.203   3.701   0.506
10227SOL    HW231581   5.106   3.694   0.637
10228SOL     OW31582   6.750   0.339   0.421
10228SOL    HW131583   6.845   0.341   0.391
10228SOL    HW231584   6.739   0.398   0.501
10229SOL     OW31585   0.318   3.561   5.003
10229SOL    HW131586   0.342   3.633   4.938
10229SOL    HW231587   0.402   3.520   5.040
10230SOL     OW31588   6.512   5.441   2.354
10230SOL    HW131589   6.511   5.541   2.344
10230SOL    HW231590   6.484   5.399   2.268
10231SOL     OW31591   1.602   6.126   3.915
10231SOL    HW131592   1.554   6.212   3.901
10231SOL    HW231593   1.622   6.084   3.827
10232SOL     OW31594   3.224   1.009   3.415
10232SOL    HW131595   3.231   1.096   3.465
10232SOL    HW231596   3.127   0.984   3.408
10233SOL     OW31597   3.756   3.994   5.751
10233SOL    HW131598   3.782   4.083   5.787
10233SOL    HW231599   3.829   3.958   5.693
10234SOL     OW31600   5.913   0.236   0.794
10234SOL    HW131601   5.820   0.230   0.832
10234SOL    HW231602   5.980   0.226   0.868
10235SOL     OW31603   1.227   1.443   3.079
10235SOL    HW131604   1.230   1.541   3.057
10235SOL    HW231605   1.132   1.412   3.078
10236SOL     OW31606   2.392   6.787   0.123
10236SOL    HW131607   2.410   6.705   0.068
10236SOL    HW231608   2.294   6.810   0.117
10237SOL     OW31609   0.348   3.323   7.017
10237SOL    HW131610   0.320   3.255   6.949
10237SOL    HW231611   0.320   3.294   0.085
10238SOL     OW31612   4.197   5.125   1.271
10238SOL    HW131613   4.192   5.028   1.292
10238SOL    HW231614   4.138   5.176   1.335
10239SOL     OW31615   1.646   2.581   4.738
10239SOL    HW131616   1.733   2.626   4.757
10239SOL    HW231617   1.605   2.549   4.823
10240SOL     OW31618   2.581   7.021   1.881
10240SOL    HW131619   2.546   6.940   1.929
10240SOL    HW231620   2.521   0.075   1.901
10241SOL     OW31621   5.214   1.834   1.867
10241SOL    HW131622   5.194   1.885   1.784
10241SOL    HW231623   5.134   1.838   1.928
10242SOL     OW31624   0.205   2.303   1.109
10242SOL    HW131625   0.165   2.326   1.020
10242SOL    HW231626   0.181   2.374   1.175
10243SOL     OW31627   2.185   4.668   1.304
10243SOL    HW131628   2.231   4.593   1.352
10243SOL    HW231629   2.086   4.659   1.313
10244SOL     OW31630   2.296   3.942   1.308
10244SOL    HW131631   2.287   3.906   1.215
10244SOL    HW231632   2.206   3.956   1.348
10245SOL     OW31633   3.329   3.856   1.075
10245SOL    HW131634   3.372   3.834   1.162
10245SOL    HW231635   3.309   3.772   1.025
10246SOL     OW31636   2.985   3.161   4.536
10246SOL    HW131637   2.983   3.134   4.439
10246SOL    HW231638   3.014   3.257   4.543
10247SOL     OW31639   0.677   4.630   4.840
10247SOL    HW131640   0.624   4.660   4.919
10247SOL    HW231641   0.668   4.531   4.829
10248SOL     OW31642   1.161   6.745   3.636
10248SOL    HW131643   1.212   6.780   3.714
10248SOL    HW231644   1.072   6.711   3.666
10249SOL     OW31645   1.833   4.803   6.859
10249SOL    HW131646   1.827   4.721   6.915
10249SOL    HW231647   1.909   4.860   6.891
10250SOL     OW31648   6.098   3.170   0.737
10250SOL    HW131649   6.121   3.077   0.768
10250SOL    HW231650   6.003   3.173   0.707
10251SOL     OW31651   1.810   0.394   3.936
10251SOL    HW131652   1.888   0.342   3.903
10251SOL    HW231653   1.839   0.486   3.962
10252SOL     OW31654   4.875   3.659   5.347
10252SOL    HW131655   4.839   3.613   5.266
10252SOL    HW231656   4.857   3.757   5.340
10253SOL     OW31657   4.136   6.789   0.431
10253SOL    HW131658   4.047   6.827   0.456
10253SOL    HW231659   4.157   6.711   0.490
10254SOL     OW31660   5.006   1.581   5.071
10254SOL    HW131661   5.012   1.494   5.023
10254SOL    HW231662   5.058   1.576   5.157
10255SOL     OW31663   2.615   5.927   1.241
10255SOL    HW131664   2.662   5.961   1.160
10255SOL    HW231665   2.519   5.956   1.239
10256SOL     OW31666   5.538   1.135   1.719
10256SOL    HW131667   5.542   1.088   1.807
10256SOL    HW231668   5.443   1.147   1.692
10257SOL     OW31669   2.911   4.768   3.515
10257SOL    HW131670   2.891   4.708   3.593
10257SOL    HW231671   2.984   4.832   3.540
10258SOL     OW31672   3.362   1.962   3.094
10258SOL    HW131673   3.346   1.869   3.127
10258SOL    HW231674   3.418   2.012   3.160
10259SOL     OW31675   1.125   4.408   3.987
10259SOL    HW131676   1.037   4.367   4.010
10259SOL    HW231677   1.179   4.421   4.071
10260SOL     OW31678   1.470   1.267   3.583
10260SOL    HW131679   1.465   1.173   3.548
10260SOL    HW231680   1.442   1.268   3.679
10261SOL     OW31681   0.550   3.697   0.764
10261SOL    HW131682   0.596   3.608   0.762
10261SOL    HW231683   0.536   3.730   0.671
10262SOL     OW31684   4.012   0.709   6.596
10262SOL    HW131685   4.047   0.675   6.509
10262SOL    HW231686   4.082   0.701   6.667
10263SOL     OW31687   5.994   0.707   0.620
10263SOL    HW131688   5.927   0.761   0.570
10263SOL    HW231689   5.949   0.630   0.665
10264SOL     OW31690   5.804   4.876   6.578
10264SOL    HW131691   5.825   4.783   6.609
10264SOL    HW231692   5.717   4.876   6.529
10265SOL     OW31693   2.021   2.334   0.508
10265SOL    HW131694   2.075   2.343   0.424
10265SOL    HW231695   1.965   2.415   0.521
10266SOL     OW31696   3.331   2.975   2.925
10266SOL    HW131697   3.413   2.931   2.890
10266SOL    HW231698   3.317   2.948   3.021
10267SOL     OW31699   5.234   0.959   0.801
10267SOL    HW131700   5.269   1.047   0.835
10267SOL    HW231701   5.142   0.971   0.765
10268SOL     OW31702   5.510   6.761   1.589
10268SOL    HW131703   5.454   6.709   1.525
10268SOL    HW231704   5.540   6.846   1.546
10269SOL     OW31705   1.372   2.749   6.595
10269SOL    HW131706   1.415   2.785   6.512
10269SOL    HW231707   1.313   2.672   6.571
10270SOL     OW31708   3.500   6.305   2.328
10270SOL    HW131709   3.414   6.342   2.363
10270SOL    HW231710   3.519   6.217   2.372
10271SOL     OW31711   3.026   2.524   0.941
10271SOL    HW131712   2.937   2.571   0.939
10271SOL    HW231713   3.052   2.507   1.036
10272SOL     OW31714   6.836   1.218   4.232
10272SOL    HW131715   6.759   1.270   4.270
10272SOL    HW231716   6.856   1.251   4.140
10273SOL     OW31717   3.034   5.092   4.371
10273SOL    HW131718   3.039   5.010   4.315
10273SOL    HW231719   3.118   5.101   4.425
10274SOL     OW31720   0.367   5.191   5.619
10274SOL    HW131721   0.310   5.264   5.581
10274SOL    HW231722   0.441   5.232   5.673
10275SOL     OW31723   0.053   0.723   2.977
10275SOL    HW131724   7.008   0.774   3.029
10275SOL    HW231725   0.140   0.724   3.027
10276SOL     OW31726   4.443   5.706   5.626
10276SOL    HW131727   4.535   5.695   5.589
10276SOL    HW231728   4.418   5.803   5.625
10277SOL     OW31729   1.004   0.188   4.466
10277SOL    HW131730   0.925   0.128   4.483
10277SOL    HW231731   0.974   0.269   4.417
10278SOL     OW31732   7.008   0.673   4.881
10278SOL    HW131733   6.963   0.590   4.847
10278SOL    HW231734   0.081   0.654   4.898
10279SOL     OW31735   2.422   5.624   4.206
10279SOL    HW131736   2.334   5.577   4.201
10279SOL    HW231737   2.427   5.677   4.290
10280SOL     OW31738   5.323   3.486   0.309
10280SOL    HW131739   5.278   3.574   0.326
10280SOL    HW231740   5.257   3.412   0.319
10281SOL     OW31741   0.013   2.522   3.183
10281SOL    HW131742   6.976   2.594   3.218
10281SOL    HW231743   0.108   2.544   3.204
10282SOL     OW31744   5.114   3.190   3.256
10282SOL    HW131745   5.179   3.215   3.328
10282SOL    HW231746   5.037   3.140   3.296
10283SOL     OW31747   0.504   3.211   1.005
10283SOL    HW131748   0.425   3.190   0.948
10283SOL    HW231749   0.518   3.310   1.007
10284SOL     OW31750   0.007   2.241   4.166
10284SOL    HW131751   0.025   2.152   4.207
10284SOL    HW231752   6.945   2.236   4.113
10285SOL     OW31753   4.183   0.080   3.093
10285SOL    HW131754   4.242   0.054   3.017
10285SOL    HW231755   4.110   0.013   3.104
10286SOL     OW31756   3.202   0.907   3.701
10286SOL    HW131757   3.229   0.990   3.652
10286SOL    HW231758   3.102   0.905   3.709
10287SOL     OW31759   1.652   5.823   1.947
10287SOL    HW131760   1.686   5.752   2.009
10287SOL    HW231761   1.613   5.780   1.865
10288SOL     OW31762   3.331   0.027   4.866
10288SOL    HW131763   3.347   6.955   4.891
10288SOL    HW231764   3.415   0.065   4.826
10289SOL     OW31765   3.440   5.833   0.740
10289SOL    HW131766   3.370   5.889   0.783
10289SOL    HW231767   3.413   5.737   0.744
10290SOL     OW31768   3.142   3.342   2.489
10290SOL    HW131769   3.118   3.253   2.529
10290SOL    HW231770   3.059   3.395   2.472
10291SOL     OW31771   3.520   1.335   3.337
10291SOL    HW131772   3.576   1.272   3.283
10291SOL    HW231773   3.519   1.306   3.433
10292SOL     OW31774   0.370   1.365   5.814
10292SOL    HW131775   0.468   1.351   5.799
10292SOL    HW231776   0.343   1.322   5.899
10293SOL     OW31777   0.539   3.442   3.598
10293SOL    HW131778   0.519   3.536   3.627
10293SOL    HW231779   0.597   3.398   3.667
10294SOL     OW31780   3.658   1.689   2.953
10294SOL    HW131781   3.561   1.666   2.954
10294SOL    HW231782   3.668   1.786   2.930
10295SOL     OW31783   0.946   2.532   6.230
10295SOL    HW131784   0.982   2.476   6.155
10295SOL    HW231785   0.997   2.617   6.236
10296SOL     OW31786   5.772   1.115   5.908
10296SOL    HW131787   5.761   1.214   5.921
10296SOL    HW231788   5.706   1.066   5.965
10297SOL     OW31789   2.624   1.477   0.055
10297SOL    HW131790   2.583   1.548   0.111
10297SOL    HW231791   2.692   1.427   0.109
10298SOL     OW31792   1.597   4.578   2.062
10298SOL    HW131793   1.516   4.624   2.097
10298SOL    HW231794   1.643   4.529   2.136
10299SOL     OW31795   4.422   6.590   2.266
10299SOL    HW131796   4.397   6.518   2.202
10299SOL    HW231797   4.460   6.550   2.349
10300SOL     OW31798   1.153   4.045   1.793
10300SOL    HW131799   1.202   3.973   1.842
10300SOL    HW231800   1.138   4.016   1.698
10301SOL     OW31801   4.224   1.628   5.032
10301SOL    HW131802   4.268   1.595   4.949
10301SOL    HW231803   4.258   1.577   5.111
10302SOL     OW31804   2.660   6.403   3.952
10302SOL    HW131805   2.584   6.401   3.887
10302SOL    HW231806   2.678   6.497   3.980
10303SOL     OW31807   0.876   5.872   3.735
10303SOL    HW131808   0.889   5.942   3.665
10303SOL    HW231809   0.941   5.886   3.810
10304SOL     OW31810   6.108   0.212   1.001
10304SOL    HW131811   6.097   0.230   1.099
10304SOL    HW231812   6.151   0.122   0.988
10305SOL     OW31813   3.140   4.090   5.989
10305SOL    HW131814   3.141   4.058   5.894
10305SOL    HW231815   3.104   4.017   6.048
10306SOL     OW31816   5.263   6.531   0.590
10306SOL    HW131817   5.263   6.501   0.686
10306SOL    HW231818   5.317   6.615   0.582
10307SOL     OW31819   3.233   1.641   4.551
10307SOL    HW131820   3.170   1.580   4.502
10307SOL    HW231821   3.194   1.664   4.640
10308SOL     OW31822   2.195   4.056   2.577
10308SOL    HW131823   2.242   3.987   2.522
10308SOL    HW231824   2.098   4.032   2.583
10309SOL     OW31825   6.505   1.022   5.986
10309SOL    HW131826   6.434   1.092   5.993
10309SOL    HW231827   6.530   1.009   5.890
10310SOL     OW31828   3.011   3.897   0.052
10310SOL    HW131829   3.109   3.904   0.033
10310SOL    HW231830   2.994   3.818   0.111
10311SOL     OW31831   6.534   5.341   0.145
10311SOL    HW131832   6.534   5.248   0.181
10311SOL    HW231833   6.469   5.348   0.069
10312SOL     OW31834   5.108   0.637   2.231
10312SOL    HW131835   5.136   0.631   2.327
10312SOL    HW231836   5.026   0.581   2.218
10313SOL     OW31837   4.006   6.044   2.967
10313SOL    HW131838   4.013   5.997   2.880
10313SOL    HW231839   4.018   5.978   3.042
10314SOL     OW31840   0.304   0.359   0.215
10314SOL    HW131841   0.270   0.270   0.187
10314SOL    HW231842   0.287   0.426   0.143
10315SOL     OW31843   5.224   6.797   4.300
10315SOL    HW131844   5.282   6.769   4.224
10315SOL    HW231845   5.181   6.717   4.341
10316SOL     OW31846   5.893   2.582   5.859
10316SOL    HW131847   5.990   2.580   5.884
10316SOL    HW231848   5.858   2.675   5.867
10317SOL     OW31849   3.734   5.799   6.386
10317SOL    HW131850   3.805   5.736   6.415
10317SOL    HW231851   3.693   5.842   6.467
10318SOL     OW31852   4.896   0.513   6.294
10318SOL    HW131853   4.840   0.554   6.366
10318SOL    HW231854   4.863   0.545   6.205
10319SOL     OW31855   0.566   4.686   5.601
10319SOL    HW131856   0.487   4.633   5.571
10319SOL    HW231857   0.642   4.670   5.538
10320SOL     OW31858   6.880   6.221   2.910
10320SOL    HW131859   6.834   6.282   2.846
10320SOL    HW231860   6.926   6.274   2.981
10321SOL     OW31861   6.037   2.007   2.459
10321SOL    HW131862   6.086   1.948   2.524
10321SOL    HW231863   5.978   2.070   2.510
10322SOL     OW31864   4.064   5.023   5.151
10322SOL    HW131865   4.068   5.077   5.235
10322SOL    HW231866   4.010   5.072   5.083
10323SOL     OW31867   6.131   5.265   4.700
10323SOL    HW131868   6.188   5.296   4.776
10323SOL    HW231869   6.143   5.166   4.688
10324SOL     OW31870   3.319   3.441   2.675
10324SOL    HW131871   3.250   3.420   2.605
10324SOL    HW231872   3.278   3.499   2.745
10325SOL     OW31873   0.478   5.151   2.611
10325SOL    HW131874   0.513   5.194   2.694
10325SOL    HW231875   0.525   5.064   2.596
10326SOL     OW31876   5.794   3.954   6.661
10326SOL    HW131877   5.872   3.963   6.599
10326SOL    HW231878   5.812   3.884   6.729
10327SOL     OW31879   2.370   3.357   1.627
10327SOL    HW131880   2.362   3.391   1.721
10327SOL    HW231881   2.386   3.258   1.630
10328SOL     OW31882   6.241   2.724   1.870
10328SOL    HW131883   6.164   2.775   1.910
10328SOL    HW231884   6.320   2.785   1.862
10329SOL     OW31885   3.124   0.731   2.856
10329SOL    HW131886   3.116   0.672   2.937
10329SOL    HW231887   3.049   0.710   2.793
10330SOL     OW31888   4.489   0.580   1.697
10330SOL    HW131889   4.437   0.584   1.612
10330SOL    HW231890   4.481   0.667   1.746
10331SOL     OW31891   6.242   6.071   6.509
10331SOL    HW131892   6.236   5.973   6.490
10331SOL    HW231893   6.186   6.094   6.589
10332SOL     OW31894   0.618   0.045   6.513
10332SOL    HW131895   0.592   0.089   6.427
10332SOL    HW231896   0.662   6.981   6.494
10333SOL     OW31897   0.297   5.886   4.762
10333SOL    HW131898   0.264   5.971   4.804
10333SOL    HW231899   0.318   5.820   4.834
10334SOL     OW31900   3.269   0.218   4.329
10334SOL    HW131901   3.267   0.125   4.364
10334SOL    HW231902   3.293   0.217   4.232
10335SOL     OW31903   1.697   4.486   6.438
10335SOL    HW131904   1.619   4.543   6.464
10335SOL    HW231905   1.709   4.414   6.506
10336SOL     OW31906   6.761   6.798   2.102
10336SOL    HW131907   6.845   6.795   2.047
10336SOL    HW231908   6.706   6.716   2.083
10337SOL     OW31909   0.290   5.451   6.695
10337SOL    HW131910   0.370   5.481   6.746
10337SOL    HW231911   0.276   5.352   6.708
10338SOL     OW31912   1.311   6.651   2.225
10338SOL    HW131913   1.248   6.632   2.150
10338SOL    HW231914   1.266   6.630   2.312
10339SOL     OW31915   6.432   3.304   6.340
10339SOL    HW131916   6.433   3.326   6.242
10339SOL    HW231917   6.364   3.361   6.386
10340SOL     OW31918   1.945   2.394   6.807
10340SOL    HW131919   1.950   2.456   6.886
10340SOL    HW231920   1.916   2.304   6.838
10341SOL     OW31921   2.063   3.523   2.250
10341SOL    HW131922   1.966   3.513   2.225
10341SOL    HW231923   2.119   3.524   2.167
10342SOL     OW31924   1.474   0.435   3.554
10342SOL    HW131925   1.524   0.415   3.638
10342SOL    HW231926   1.536   0.431   3.475
10343SOL     OW31927   2.633   5.378   0.810
10343SOL    HW131928   2.647   5.315   0.734
10343SOL    HW231929   2.711   5.441   0.816
10344SOL     OW31930   3.736   4.042   0.065
10344SOL    HW131931   3.662   4.093   0.109
10344SOL    HW231932   3.797   4.107   0.019
10345SOL     OW31933   1.614   3.295   5.609
10345SOL    HW131934   1.528   3.307   5.559
10345SOL    HW231935   1.631   3.198   5.625
10346SOL     OW31936   6.900   5.451   1.095
10346SOL    HW131937   6.931   5.543   1.120
10346SOL    HW231938   6.953   5.383   1.147
10347SOL     OW31939   4.603   1.270   3.107
10347SOL    HW131940   4.516   1.319   3.105
10347SOL    HW231941   4.603   1.200   3.036
10348SOL     OW31942   6.045   2.356   0.439
10348SOL    HW131943   6.074   2.326   0.530
10348SOL    HW231944   6.125   2.369   0.381
10349SOL     OW31945   0.423   0.222   6.699
10349SOL    HW131946   0.433   0.290   6.627
10349SOL    HW231947   0.481   0.248   6.777
10350SOL     OW31948   2.995   5.707   5.345
10350SOL    HW131949   2.923   5.714   5.276
10350SOL    HW231950   3.047   5.792   5.348
10351SOL     OW31951   5.071   5.085   6.572
10351SOL    HW131952   4.981   5.129   6.567
10351SOL    HW231953   5.139   5.143   6.528
10352SOL     OW31954   3.489   0.751   6.460
10352SOL    HW131955   3.586   0.773   6.470
10352SOL    HW231956   3.475   0.655   6.487
10353SOL     OW31957   6.610   2.984   4.695
10353SOL    HW131958   6.581   2.935   4.612
10353SOL    HW231959   6.707   2.968   4.711
10354SOL     OW31960   5.830   0.834   1.222
10354SOL    HW131961   5.900   0.801   1.158
10354SOL    HW231962   5.842   0.933   1.236
10355SOL     OW31963   2.652   6.149   2.054
10355SOL    HW131964   2.600   6.234   2.069
10355SOL    HW231965   2.589   6.073   2.039
10356SOL     OW31966   0.043   4.276   6.459
10356SOL    HW131967   0.073   4.342   6.390
10356SOL    HW231968   6.989   4.313   6.510
10357SOL     OW31969   2.272   2.387   6.316
10357SOL    HW131970   2.331   2.467   6.309
10357SOL    HW231971   2.190   2.401   6.261
10358SOL     OW31972   6.888   2.650   2.910
10358SOL    HW131973   6.941   2.609   2.835
10358SOL    HW231974   6.870   2.580   2.979
10359SOL     OW31975   0.497   1.373   1.178
10359SOL    HW131976   0.463   1.283   1.205
10359SOL    HW231977   0.588   1.365   1.139
10360SOL     OW31978   4.579   5.084   3.207
10360SOL    HW131979   4.491   5.054   3.243
10360SOL    HW231980   4.577   5.083   3.107
10361SOL     OW31981   2.763   5.826   2.574
10361SOL    HW131982   2.699   5.829   2.651
10361SOL    HW231983   2.712   5.815   2.489
10362SOL     OW31984   1.543   5.139   4.564
10362SOL    HW131985   1.545   5.107   4.469
10362SOL    HW231986   1.544   5.061   4.626
10363SOL     OW31987   4.664   1.168   3.373
10363SOL    HW131988   4.568   1.195   3.366
10363SOL    HW231989   4.710   1.188   3.287
10364SOL     OW31990   2.680   3.704   1.375
10364SOL    HW131991   2.606   3.664   1.429
10364SOL    HW231992   2.766   3.659   1.397
10365SOL     OW31993   4.158   5.426   0.064
10365SOL    HW131994   4.165   5.487   7.008
10365SOL    HW231995   4.142   5.333   0.032
10366SOL     OW31996   2.809   0.159   3.565
10366SOL    HW131997   2.720   0.204   3.569
10366SOL    HW231998   2.817   0.106   3.480
10367SOL     OW31999   5.876   1.615   2.834
10367SOL    HW132000   5.910   1.527   2.866
10367SOL    HW232001   5.796   1.642   2.887
10368SOL     OW32002   2.921   1.117   1.526
10368SOL    HW132003   2.953   1.023   1.517
10368SOL    HW232004   2.949   1.170   1.445
10369SOL     OW32005   3.699   1.360   0.771
10369SOL    HW132006   3.609   1.391   0.801
10369SOL    HW232007   3.699   1.261   0.761
10370SOL     OW32008   4.528   0.876   5.138
10370SOL    HW132009   4.620   0.914   5.145
10370SOL    HW232010   4.499   0.875   5.042
10371SOL     OW32011   3.761   5.775   5.961
10371SOL    HW132012   3.838   5.789   5.897
10371SOL    HW232013   3.723   5.863   5.988
10372SOL     OW32014   2.433   0.983   4.676
10372SOL    HW132015   2.423   1.079   4.704
10372SOL    HW232016   2.523   0.949   4.704
10373SOL     OW32017   1.003   6.828   4.718
10373SOL    HW132018   0.907   6.856   4.726
10373SOL    HW232019   1.041   6.813   4.809
10374SOL     OW32020   2.589   1.794   3.627
10374SOL    HW132021   2.616   1.880   3.671
10374SOL    HW232022   2.670   1.746   3.594
10375SOL     OW32023   5.224   2.132   0.508
10375SOL    HW132024   5.240   2.225   0.542
10375SOL    HW232025   5.311   2.090   0.484
10376SOL     OW32026   0.222   1.417   3.765
10376SOL    HW132027   0.161   1.424   3.845
10376SOL    HW232028   0.224   1.505   3.718
10377SOL     OW32029   0.607   0.560   3.379
10377SOL    HW132030   0.557   0.496   3.321
10377SOL    HW232031   0.543   0.605   3.442
10378SOL     OW32032   0.042   0.427   5.791
10378SOL    HW132033   0.028   0.396   5.697
10378SOL    HW232034   0.011   0.356   5.854
10379SOL     OW32035   5.542   0.317   5.465
10379SOL    HW132036   5.549   0.349   5.560
10379SOL    HW232037   5.502   0.388   5.409
10380SOL     OW32038   5.646   0.768   2.924
10380SOL    HW132039   5.676   0.807   2.837
10380SOL    HW232040   5.610   0.840   2.983
10381SOL     OW32041   5.005   5.397   6.147
10381SOL    HW132042   5.094   5.406   6.190
10381SOL    HW232043   5.016   5.370   6.051
10382SOL     OW32044   2.856   5.599   5.847
10382SOL    HW132045   2.936   5.541   5.865
10382SOL    HW232046   2.793   5.550   5.788
10383SOL     OW32047   1.175   3.525   0.787
10383SOL    HW132048   1.125   3.504   0.703
10383SOL    HW232049   1.116   3.577   0.849
10384SOL     OW32050   6.640   0.235   0.993
10384SOL    HW132051   6.714   0.191   1.044
10384SOL    HW232052   6.592   0.300   1.052
10385SOL     OW32053   6.074   0.512   6.273
10385SOL    HW132054   6.000   0.565   6.314
10385SOL    HW232055   6.052   0.415   6.278
10386SOL     OW32056   6.399   3.329   4.959
10386SOL    HW132057   6.434   3.235   4.956
10386SOL    HW232058   6.331   3.337   5.031
10387SOL     OW32059   1.994   2.448   2.971
10387SOL    HW132060   1.956   2.420   3.060
10387SOL    HW232061   1.919   2.476   2.911
10388SOL     OW32062   1.294   4.827   3.053
10388SOL    HW132063   1.341   4.810   3.139
10388SOL    HW232064   1.268   4.924   3.048
10389SOL     OW32065   1.394   4.910   3.596
10389SOL    HW132066   1.436   4.869   3.676
10389SOL    HW232067   1.409   5.009   3.597
10390SOL     OW32068   1.524   3.434   3.226
10390SOL    HW132069   1.610   3.480   3.202
10390SOL    HW232070   1.531   3.396   3.318
10391SOL     OW32071   1.417   6.046   6.609
10391SOL    HW132072   1.484   5.992   6.660
10391SOL    HW232073   1.325   6.020   6.637
10392SOL     OW32074   6.099   5.017   0.348
10392SOL    HW132075   6.176   5.009   0.411
10392SOL    HW232076   6.098   4.937   0.288
10393SOL     OW32077   0.545   1.479   3.824
10393SOL    HW132078   0.594   1.566   3.833
10393SOL    HW232079   0.469   1.477   3.889
10394SOL     OW32080   2.659   6.625   6.855
10394SOL    HW132081   2.739   6.653   6.908
10394SOL    HW232082   2.662   6.668   6.764
10395SOL     OW32083   6.865   0.913   4.247
10395SOL    HW132084   6.779   0.869   4.221
10395SOL    HW232085   6.847   1.008   4.273
10396SOL     OW32086   0.434   0.361   4.525
10396SOL    HW132087   0.385   0.424   4.463
10396SOL    HW232088   0.369   0.319   4.587
10397SOL     OW32089   3.887   0.781   3.599
10397SOL    HW132090   3.921   0.831   3.679
10397SOL    HW232091   3.840   0.698   3.628
10398SOL     OW32092   6.407   2.837   1.188
10398SOL    HW132093   6.320   2.844   1.140
10398SOL    HW232094   6.395   2.866   1.283
10399SOL     OW32095   4.863   2.344   5.323
10399SOL    HW132096   4.872   2.442   5.343
10399SOL    HW232097   4.785   2.330   5.262
10400SOL     OW32098   2.921   5.626   2.700
10400SOL    HW132099   2.866   5.682   2.638
10400SOL    HW232100   2.892   5.641   2.794
10401SOL     OW32101   0.016   5.802   2.248
10401SOL    HW132102   0.004   5.901   2.243
10401SOL    HW232103   0.088   5.774   2.185
10402SOL     OW32104   0.900   3.677   5.074
10402SOL    HW132105   0.824   3.718   5.024
10402SOL    HW232106   0.969   3.747   5.094
10403SOL     OW32107   5.747   1.546   2.068
10403SOL    HW132108   5.714   1.548   1.974
10403SOL    HW232109   5.740   1.637   2.108
10404SOL     OW32110   0.534   6.867   4.078
10404SOL    HW132111   0.590   6.786   4.061
10404SOL    HW232112   0.501   6.904   3.991
10405SOL     OW32113   1.712   6.564   5.585
10405SOL    HW132114   1.667   6.494   5.528
10405SOL    HW232115   1.791   6.523   5.631
10406SOL     OW32116   2.822   4.408   6.149
10406SOL    HW132117   2.897   4.425   6.085
10406SOL    HW232118   2.735   4.430   6.105
10407SOL     OW32119   0.910   2.117   6.072
10407SOL    HW132120   0.915   2.217   6.065
10407SOL    HW232121   0.824   2.086   6.030
10408SOL     OW32122   4.912   4.871   3.664
10408SOL    HW132123   4.829   4.926   3.647
10408SOL    HW232124   4.943   4.887   3.758
10409SOL     OW32125   0.313   3.833   1.931
10409SOL    HW132126   0.413   3.828   1.929
10409SOL    HW232127   0.275   3.741   1.941
10410SOL     OW32128   5.191   0.687   1.165
10410SOL    HW132129   5.116   0.751   1.154
10410SOL    HW232130   5.203   0.634   1.080
10411SOL     OW32131   2.189   4.675   2.622
10411SOL    HW132132   2.089   4.676   2.625
10411SOL    HW232133   2.223   4.767   2.607
10412SOL     OW32134   1.487   2.204   0.259
10412SOL    HW132135   1.516   2.161   0.174
10412SOL    HW232136   1.468   2.132   0.327
10413SOL     OW32137   6.988   2.346   6.909
10413SOL    HW132138   7.021   2.428   6.955
10413SOL    HW232139   6.889   2.352   6.897
10414SOL     OW32140   5.573   6.557   6.838
10414SOL    HW132141   5.484   6.598   6.859
10414SOL    HW232142   5.580   6.469   6.886
10415SOL     OW32143   0.183   6.089   3.809
10415SOL    HW132144   0.188   6.159   3.880
10415SOL    HW232145   0.256   6.022   3.824
10416SOL     OW32146   5.692   1.989   4.984
10416SOL    HW132147   5.764   1.993   5.053
10416SOL    HW232148   5.700   1.902   4.934
10417SOL     OW32149   3.966   4.945   3.701
10417SOL    HW132150   3.887   4.973   3.645
10417SOL    HW232151   4.014   5.026   3.734
10418SOL     OW32152   6.991   4.262   6.831
10418SOL    HW132153   7.022   4.178   6.786
10418SOL    HW232154   6.997   4.338   6.766
10419SOL     OW32155   3.719   1.081   5.071
10419SOL    HW132156   3.667   1.160   5.038
10419SOL    HW232157   3.789   1.112   5.135
10420SOL     OW32158   0.072   3.132   3.569
10420SOL    HW132159   0.116   3.044   3.550
10420SOL    HW232160   0.131   3.206   3.538
10421SOL     OW32161   1.187   4.762   3.920
10421SOL    HW132162   1.112   4.778   3.984
10421SOL    HW232163   1.156   4.703   3.846
10422SOL     OW32164   6.596   3.684   4.601
10422SOL    HW132165   6.552   3.622   4.665
10422SOL    HW232166   6.688   3.706   4.633
10423SOL     OW32167   3.534   4.885   4.113
10423SOL    HW132168   3.446   4.861   4.153
10423SOL    HW232169   3.558   4.819   4.042
10424SOL     OW32170   3.415   0.780   6.947
10424SOL    HW132171   3.356   0.861   6.945
10424SOL    HW232172   3.508   0.805   6.922
10425SOL     OW32173   1.837   1.037   0.443
10425SOL    HW132174   1.839   1.133   0.469
10425SOL    HW232175   1.744   1.013   0.414
10426SOL     OW32176   5.892   2.202   6.100
10426SOL    HW132177   5.835   2.166   6.174
10426SOL    HW232178   5.880   2.146   6.018
10427SOL     OW32179   5.921   6.473   4.952
10427SOL    HW132180   5.970   6.553   4.986
10427SOL    HW232181   5.901   6.485   4.855
10428SOL     OW32182   1.952   0.636   4.013
10428SOL    HW132183   1.967   0.676   3.923
10428SOL    HW232184   1.874   0.680   4.057
10429SOL     OW32185   1.056   2.870   2.693
10429SOL    HW132186   1.008   2.852   2.606
10429SOL    HW232187   1.106   2.788   2.720
10430SOL     OW32188   3.239   0.445   3.754
10430SOL    HW132189   3.252   0.348   3.770
10430SOL    HW232190   3.292   0.474   3.674
10431SOL     OW32191   2.928   1.574   3.720
10431SOL    HW132192   2.906   1.488   3.673
10431SOL    HW232193   2.913   1.562   3.818
10432SOL     OW32194   0.680   6.148   5.639
10432SOL    HW132195   0.702   6.245   5.649
10432SOL    HW232196   0.673   6.106   5.730
10433SOL     OW32197   1.805   6.938   2.305
10433SOL    HW132198   1.707   6.957   2.309
10433SOL    HW232199   1.846   6.954   2.394
10434SOL     OW32200   4.204   6.708   5.033
10434SOL    HW132201   4.195   6.616   4.993
10434SOL    HW232202   4.284   6.753   4.995
10435SOL     OW32203   1.535   2.392   6.733
10435SOL    HW132204   1.582   2.478   6.751
10435SOL    HW232205   1.520   2.382   6.635
10436SOL     OW32206   0.233   4.937   5.153
10436SOL    HW132207   0.149   4.884   5.138
10436SOL    HW232208   0.292   4.888   5.217
10437SOL     OW32209   5.356   5.545   5.654
10437SOL    HW132210   5.393   5.634   5.626
10437SOL    HW232211   5.317   5.499   5.574
10438SOL     OW32212   6.434   5.738   6.131
10438SOL    HW132213   6.502   5.810   6.118
10438SOL    HW232214   6.430   5.680   6.050
10439SOL     OW32215   6.307   6.636   4.711
10439SOL    HW132216   6.362   6.717   4.727
10439SOL    HW232217   6.275   6.599   4.799
10440SOL     OW32218   0.021   2.188   6.690
10440SOL    HW132219   7.013   2.234   6.607
10440SOL    HW232220   7.010   2.237   6.770
10441SOL     OW32221   3.805   2.016   1.052
10441SOL    HW132222   3.901   1.990   1.063
10441SOL    HW232223   3.792   2.111   1.079
10442SOL     OW32224   2.196   1.585   5.747
10442SOL    HW132225   2.264   1.651   5.777
10442SOL    HW232226   2.107   1.629   5.741
10443SOL     OW32227   0.722   1.713   3.161
10443SOL    HW132228   0.770   1.644   3.107
10443SOL    HW232229   0.719   1.686   3.257
10444SOL     OW32230   3.940   5.754   4.387
10444SOL    HW132231   3.867   5.686   4.391
10444SOL    HW232232   4.022   5.717   4.432
10445SOL     OW32233   1.587   3.950   2.958
10445SOL    HW132234   1.636   4.007   2.892
10445SOL    HW232235   1.624   3.966   3.050
10446SOL     OW32236   1.751   4.511   5.571
10446SOL    HW132237   1.822   4.523   5.501
10446SOL    HW232238   1.716   4.418   5.568
10447SOL     OW32239   0.299   1.824   2.911
10447SOL    HW132240   0.392   1.854   2.932
10447SOL    HW232241   0.235   1.898   2.930
10448SOL     OW32242   2.779   6.189   3.147
10448SOL    HW132243   2.683   6.212   3.134
10448SOL    HW232244   2.804   6.115   3.086
10449SOL     OW32245   4.101   5.564   5.976
10449SOL    HW132246   4.044   5.610   6.044
10449SOL    HW232247   4.197   5.584   5.994
10450SOL     OW32248   0.138   0.726   6.267
10450SOL    HW132249   0.153   0.770   6.178
10450SOL    HW232250   0.163   0.790   6.340
10451SOL     OW32251   2.403   0.777   3.119
10451SOL    HW132252   2.379   0.680   3.122
10451SOL    HW232253   2.416   0.811   3.213
10452SOL     OW32254   6.912   3.700   4.426
10452SOL    HW132255   6.927   3.611   4.383
10452SOL    HW232256   6.898   3.687   4.524
10453SOL     OW32257   4.450   5.718   3.566
10453SOL    HW132258   4.380   5.782   3.596
10453SOL    HW232259   4.412   5.626   3.563
10454SOL     OW32260   6.979   0.329   5.559
10454SOL    HW132261   6.888   0.302   5.526
10454SOL    HW232262   0.005   0.248   5.589
10455SOL     OW32263   5.912   6.188   3.876
10455SOL    HW132264   5.828   6.146   3.844
10455SOL    HW232265   5.890   6.262   3.939
10456SOL     OW32266   0.663   5.251   7.002
10456SOL    HW132267   0.749   5.211   0.009
10456SOL    HW232268   0.598   5.252   0.054
10457SOL     OW32269   3.167   2.416   0.030
10457SOL    HW132270   3.264   2.418   0.054
10457SOL    HW232271   3.151   2.347   6.982
10458SOL     OW32272   6.773   5.804   6.361
10458SOL    HW132273   6.847   5.870   6.375
10458SOL    HW232274   6.688   5.841   6.398
10459SOL     OW32275   0.270   5.502   0.527
10459SOL    HW132276   0.233   5.417   0.565
10459SOL    HW232277   0.322   5.482   0.445
10460SOL     OW32278   0.724   2.805   0.591
10460SOL    HW132279   0.763   2.734   0.532
10460SOL    HW232280   0.646   2.768   0.640
10461SOL     OW32281   0.396   5.589   5.135
10461SOL    HW132282   0.485   5.576   5.092
10461SOL    HW232283   0.367   5.684   5.123
10462SOL     OW32284   3.837   1.620   0.606
10462SOL    HW132285   3.928   1.633   0.566
10462SOL    HW232286   3.832   1.528   0.646
10463SOL     OW32287   4.815   2.979   5.999
10463SOL    HW132288   4.747   2.977   6.073
10463SOL    HW232289   4.812   3.067   5.953
10464SOL     OW32290   6.291   4.932   2.883
10464SOL    HW132291   6.324   4.996   2.952
10464SOL    HW232292   6.200   4.959   2.852
10465SOL     OW32293   5.695   4.147   2.436
10465SOL    HW132294   5.665   4.222   2.377
10465SOL    HW232295   5.795   4.141   2.434
10466SOL     OW32296   6.022   4.562   6.271
10466SOL    HW132297   5.925   4.570   6.298
10466SOL    HW232298   6.049   4.645   6.222
10467SOL     OW32299   1.658   3.003   0.029
10467SOL    HW132300   1.600   3.002   6.971
10467SOL    HW232301   1.610   3.049   0.103
10468SOL     OW32302   2.845   4.897   4.126
10468SOL    HW132303   2.844   4.866   4.031
10468SOL    HW232304   2.864   4.996   4.128
10469SOL     OW32305   6.201   1.543   5.017
10469SOL    HW132306   6.175   1.469   4.955
10469SOL    HW232307   6.144   1.624   4.997
10470SOL     OW32308   2.641   2.471   3.809
10470SOL    HW132309   2.571   2.468   3.881
10470SOL    HW232310   2.597   2.478   3.720
10471SOL     OW32311   3.066   6.732   0.640
10471SOL    HW132312   3.060   6.635   0.619
10471SOL    HW232313   3.160   6.763   0.625
10472SOL     OW32314   2.717   5.086   0.341
10472SOL    HW132315   2.678   4.994   0.351
10472SOL    HW232316   2.686   5.125   0.254
10473SOL     OW32317   5.020   4.365   0.008
10473SOL    HW132318   4.934   4.356   6.981
10473SOL    HW232319   5.001   4.404   0.099
10474SOL     OW32320   5.091   1.169   3.941
10474SOL    HW132321   5.005   1.189   3.987
10474SOL    HW232322   5.077   1.169   3.842
10475SOL     OW32323   0.844   6.681   1.786
10475SOL    HW132324   0.942   6.696   1.773
10475SOL    HW232325   0.802   6.661   1.697
10476SOL     OW32326   3.984   6.161   0.130
10476SOL    HW132327   3.979   6.117   0.040
10476SOL    HW232328   4.078   6.187   0.149
10477SOL     OW32329   6.182   6.461   3.539
10477SOL    HW132330   6.143   6.459   3.632
10477SOL    HW232331   6.281   6.458   3.545
10478SOL     OW32332   6.428   0.535   0.419
10478SOL    HW132333   6.448   0.464   0.351
10478SOL    HW232334   6.407   0.492   0.507
10479SOL     OW32335   0.152   2.010   2.204
10479SOL    HW132336   0.144   1.985   2.108
10479SOL    HW232337   0.070   2.058   2.233
10480SOL     OW32338   1.951   0.203   2.429
10480SOL    HW132339   1.888   0.166   2.360
10480SOL    HW232340   1.913   0.191   2.520
10481SOL     OW32341   0.335   0.700   3.061
10481SOL    HW132342   0.379   0.715   2.973
10481SOL    HW232343   0.330   0.602   3.081
10482SOL     OW32344   5.479   3.552   4.062
10482SOL    HW132345   5.437   3.502   3.986
10482SOL    HW232346   5.411   3.565   4.134
10483SOL     OW32347   6.256   5.507   0.518
10483SOL    HW132348   6.175   5.448   0.515
10483SOL    HW232349   6.254   5.562   0.602
10484SOL     OW32350   6.351   1.311   1.279
10484SOL    HW132351   6.312   1.224   1.310
10484SOL    HW232352   6.282   1.383   1.287
10485SOL     OW32353   5.541   3.442   5.647
10485SOL    HW132354   5.553   3.372   5.576
10485SOL    HW232355   5.547   3.398   5.737
10486SOL     OW32356   6.004   2.583   1.281
10486SOL    HW132357   5.904   2.579   1.276
10486SOL    HW232358   6.032   2.668   1.325
10487SOL     OW32359   5.973   6.493   1.439
10487SOL    HW132360   6.071   6.476   1.446
10487SOL    HW232361   5.953   6.587   1.469
10488SOL     OW32362   2.935   2.850   6.701
10488SOL    HW132363   2.916   2.847   6.799
10488SOL    HW232364   2.853   2.880   6.652
10489SOL     OW32365   6.793   5.627   6.598
10489SOL    HW132366   6.820   5.695   6.530
10489SOL    HW232367   6.875   5.590   6.642
10490SOL     OW32368   6.924   0.917   3.463
10490SOL    HW132369   6.966   0.921   3.554
10490SOL    HW232370   6.861   0.839   3.459
10491SOL     OW32371   2.282   4.527   6.210
10491SOL    HW132372   2.264   4.624   6.194
10491SOL    HW232373   2.279   4.478   6.123
10492SOL     OW32374   4.771   3.388   5.364
10492SOL    HW132375   4.828   3.469   5.354
10492SOL    HW232376   4.679   3.408   5.329
10493SOL     OW32377   3.807   0.645   1.756
10493SOL    HW132378   3.869   0.689   1.822
10493SOL    HW232379   3.713   0.672   1.778
10494SOL     OW32380   6.046   2.063   4.242
10494SOL    HW132381   5.987   2.107   4.309
10494SOL    HW232382   6.032   1.964   4.245
10495SOL     OW32383   1.967   6.641   0.715
10495SOL    HW132384   1.881   6.693   0.721
10495SOL    HW232385   1.987   6.620   0.620
10496SOL     OW32386   0.245   6.393   6.614
10496SOL    HW132387   0.206   6.317   6.667
10496SOL    HW232388   0.326   6.428   6.661
10497SOL     OW32389   1.419   0.828   0.973
10497SOL    HW132390   1.337   0.884   0.971
10497SOL    HW232391   1.417   0.761   0.898
10498SOL     OW32392   1.629   6.635   5.817
10498SOL    HW132393   1.663   6.607   5.727
10498SOL    HW232394   1.672   6.721   5.844
10499SOL     OW32395   2.873   5.567   3.417
10499SOL    HW132396   2.820   5.486   3.442
10499SOL    HW232397   2.875   5.575   3.317
10500SOL     OW32398   1.066   2.411   6.018
10500SOL    HW132399   1.165   2.415   6.030
10500SOL    HW232400   1.038   2.474   5.945
10501SOL     OW32401   2.007   3.580   2.710
10501SOL    HW132402   2.021   3.619   2.620
10501SOL    HW232403   1.946   3.639   2.763
10502SOL     OW32404   3.210   6.293   0.455
10502SOL    HW132405   3.269   6.212   0.460
10502SOL    HW232406   3.114   6.264   0.454
10503SOL     OW32407   3.331   3.011   0.544
10503SOL    HW132408   3.365   3.051   0.629
10503SOL    HW232409   3.399   3.022   0.472
10504SOL     OW32410   2.677   3.041   0.511
10504SOL    HW132411   2.746   3.091   0.563
10504SOL    HW232412   2.680   3.071   0.415
10505SOL     OW32413   6.317   6.044   1.390
10505SOL    HW132414   6.375   5.965   1.370
10505SOL    HW232415   6.271   6.030   1.478
10506SOL     OW32416   0.750   3.655   6.319
10506SOL    HW132417   0.844   3.629   6.296
10506SOL    HW232418   0.748   3.752   6.344
10507SOL     OW32419   1.195   0.460   6.114
10507SOL    HW132420   1.096   0.447   6.118
10507SOL    HW232421   1.217   0.557   6.128
10508SOL     OW32422   5.567   4.686   3.797
10508SOL    HW132423   5.519   4.615   3.849
10508SOL    HW232424   5.575   4.657   3.702
10509SOL     OW32425   0.805   6.610   6.630
10509SOL    HW132426   0.902   6.595   6.650
10509SOL    HW232427   0.774   6.542   6.563
10510SOL     OW32428   5.805   5.354   6.796
10510SOL    HW132429   5.882   5.418   6.794
10510SOL    HW232430   5.839   5.260   6.789
10511SOL     OW32431   3.944   3.024   0.442
10511SOL    HW132432   3.950   2.952   0.511
10511SOL    HW232433   4.034   3.043   0.405
10512SOL     OW32434   4.317   0.617   5.768
10512SOL    HW132435   4.406   0.582   5.798
10512SOL    HW232436   4.315   0.622   5.668
10513SOL     OW32437   0.746   2.427   5.926
10513SOL    HW132438   0.715   2.375   6.005
10513SOL    HW232439   0.690   2.510   5.917
10514SOL     OW32440   6.622   4.408   0.531
10514SOL    HW132441   6.574   4.463   0.463
10514SOL    HW232442   6.671   4.334   0.485
10515SOL     OW32443   6.530   1.692   3.617
10515SOL    HW132444   6.482   1.690   3.528
10515SOL    HW232445   6.621   1.730   3.604
10516SOL     OW32446   4.349   0.860   6.499
10516SOL    HW132447   4.256   0.889   6.475
10516SOL    HW232448   4.391   0.816   6.421
10517SOL     OW32449   0.033   1.543   2.608
10517SOL    HW132450   0.040   1.609   2.533
10517SOL    HW232451   0.122   1.533   2.652
10518SOL     OW32452   1.333   6.681   0.611
10518SOL    HW132453   1.284   6.594   0.618
10518SOL    HW232454   1.358   6.714   0.702
10519SOL     OW32455   3.476   2.937   5.900
10519SOL    HW132456   3.485   2.846   5.861
10519SOL    HW232457   3.462   3.004   5.827
10520SOL     OW32458   3.077   2.652   6.622
10520SOL    HW132459   3.138   2.708   6.566
10520SOL    HW232460   3.002   2.708   6.657
10521SOL     OW32461   6.590   6.085   1.578
10521SOL    HW132462   6.612   6.075   1.481
10521SOL    HW232463   6.674   6.079   1.632
10522SOL     OW32464   6.588   1.303   0.684
10522SOL    HW132465   6.530   1.377   0.652
10522SOL    HW232466   6.621   1.323   0.776
10523SOL     OW32467   6.937   5.245   5.975
10523SOL    HW132468   6.879   5.325   5.992
10523SOL    HW232469   0.009   5.269   5.989
10524SOL     OW32470   1.887   0.252   4.519
10524SOL    HW132471   1.971   0.200   4.508
10524SOL    HW232472   1.823   0.229   4.446
10525SOL     OW32473   2.004   6.759   5.106
10525SOL    HW132474   2.087   6.770   5.052
10525SOL    HW232475   1.970   6.666   5.097
10526SOL     OW32476   0.695   0.925   2.373
10526SOL    HW132477   0.787   0.964   2.380
10526SOL    HW232478   0.639   0.960   2.448
10527SOL     OW32479   0.966   2.251   4.525
10527SOL    HW132480   0.963   2.283   4.431
10527SOL    HW232481   0.927   2.321   4.585
10528SOL     OW32482   0.240   5.516   4.853
10528SOL    HW132483   0.339   5.518   4.838
10528SOL    HW232484   0.216   5.433   4.903
10529SOL     OW32485   0.261   6.650   3.577
10529SOL    HW132486   0.208   6.733   3.593
10529SOL    HW232487   0.229   6.606   3.493
10530SOL     OW32488   2.599   2.351   6.137
10530SOL    HW132489   2.505   2.317   6.130
10530SOL    HW232490   2.659   2.296   6.079
10531SOL     OW32491   1.555   3.626   4.854
10531SOL    HW132492   1.511   3.540   4.830
10531SOL    HW232493   1.631   3.609   4.917
10532SOL     OW32494   3.706   2.497   6.306
10532SOL    HW132495   3.745   2.540   6.387
10532SOL    HW232496   3.720   2.556   6.227
10533SOL     OW32497   3.065   1.493   5.190
10533SOL    HW132498   3.141   1.455   5.137
10533SOL    HW232499   3.092   1.503   5.286
10534SOL     OW32500   6.984   6.003   0.625
10534SOL    HW132501   6.975   6.058   0.708
10534SOL    HW232502   6.975   6.062   0.545
10535SOL     OW32503   0.420   1.185   2.286
10535SOL    HW132504   0.506   1.227   2.257
10535SOL    HW232505   0.370   1.249   2.344
10536SOL     OW32506   4.910   0.381   3.275
10536SOL    HW132507   4.872   0.299   3.231
10536SOL    HW232508   4.843   0.419   3.339
10537SOL     OW32509   3.184   5.320   2.927
10537SOL    HW132510   3.192   5.319   3.026
10537SOL    HW232511   3.128   5.243   2.897
10538SOL     OW32512   4.348   3.825   0.037
10538SOL    HW132513   4.405   3.766   0.094
10538SOL    HW232514   4.258   3.783   0.025
10539SOL     OW32515   0.796   3.198   6.204
10539SOL    HW132516   0.801   3.127   6.133
10539SOL    HW232517   0.888   3.228   6.227
10540SOL     OW32518   1.906   0.659   5.542
10540SOL    HW132519   1.829   0.597   5.524
10540SOL    HW232520   1.879   0.753   5.521
10541SOL     OW32521   3.676   3.860   0.899
10541SOL    HW132522   3.708   3.874   0.993
10541SOL    HW232523   3.731   3.788   0.856
10542SOL     OW32524   0.221   2.414   0.507
10542SOL    HW132525   0.302   2.421   0.449
10542SOL    HW232526   0.191   2.506   0.533
10543SOL     OW32527   0.335   2.166   5.741
10543SOL    HW132528   0.303   2.202   5.654
10543SOL    HW232529   0.428   2.131   5.730
10544SOL     OW32530   2.404   1.970   2.309
10544SOL    HW132531   2.353   2.055   2.299
10544SOL    HW232532   2.345   1.901   2.352
10545SOL     OW32533   6.804   0.056   2.355
10545SOL    HW132534   6.858   0.031   2.275
10545SOL    HW232535   6.791   0.155   2.358
10546SOL     OW32536   2.327   0.128   4.518
10546SOL    HW132537   2.319   0.108   4.616
10546SOL    HW232538   2.416   0.096   4.485
10547SOL     OW32539   4.315   1.364   1.730
10547SOL    HW132540   4.373   1.427   1.782
10547SOL    HW232541   4.230   1.410   1.703
10548SOL     OW32542   5.133   3.405   4.666
10548SOL    HW132543   5.093   3.476   4.608
10548SOL    HW232544   5.192   3.447   4.735
10549SOL     OW32545   1.120   0.128   2.736
10549SOL    HW132546   1.118   0.205   2.672
10549SOL    HW232547   1.203   0.134   2.791
10550SOL     OW32548   5.393   0.300   3.950
10550SOL    HW132549   5.461   0.370   3.974
10550SOL    HW232550   5.406   0.272   3.855
10551SOL     OW32551   1.270   1.952   5.303
10551SOL    HW132552   1.312   2.030   5.350
10551SOL    HW232553   1.171   1.964   5.301
10552SOL     OW32554   3.405   2.138   5.960
10552SOL    HW132555   3.414   2.061   5.896
10552SOL    HW232556   3.330   2.197   5.930
10553SOL     OW32557   0.441   5.697   0.319
10553SOL    HW132558   0.437   5.614   0.264
10553SOL    HW232559   0.348   5.727   0.341
10554SOL     OW32560   6.865   4.581   0.354
10554SOL    HW132561   6.805   4.660   0.369
10554SOL    HW232562   6.936   4.580   0.425
10555SOL     OW32563   3.179   1.465   2.277
10555SOL    HW132564   3.096   1.468   2.222
10555SOL    HW232565   3.247   1.406   2.233
10556SOL     OW32566   2.061   3.374   4.987
10556SOL    HW132567   2.108   3.438   5.047
10556SOL    HW232568   2.106   3.285   4.992
10557SOL     OW32569   0.283   2.566   3.262
10557SOL    HW132570   0.367   2.615   3.239
10557SOL    HW232571   0.276   2.556   3.361
10558SOL     OW32572   4.025   6.860   5.151
10558SOL    HW132573   4.081   6.796   5.098
10558SOL    HW232574   4.076   6.889   5.232
10559SOL     OW32575   4.080   1.806   0.931
10559SOL    HW132576   4.072   1.900   0.965
10559SOL    HW232577   4.000   1.783   0.876
10560SOL     OW32578   1.503   4.357   5.233
10560SOL    HW132579   1.574   4.405   5.182
10560SOL    HW232580   1.426   4.337   5.172
10561SOL     OW32581   2.011   4.915   6.493
10561SOL    HW132582   2.058   4.830   6.467
10561SOL    HW232583   1.912   4.901   6.486
10562SOL     OW32584   4.504   0.839   0.688
10562SOL    HW132585   4.526   0.898   0.766
10562SOL    HW232586   4.416   0.868   0.650
10563SOL     OW32587   2.055   2.133   5.237
10563SOL    HW132588   1.966   2.119   5.279
10563SOL    HW232589   2.089   2.046   5.200
10564SOL     OW32590   6.227   0.947   1.663
10564SOL    HW132591   6.252   0.941   1.567
10564SOL    HW232592   6.178   0.865   1.690
10565SOL     OW32593   6.639   0.555   5.553
10565SOL    HW132594   6.710   0.619   5.584
10565SOL    HW232595   6.549   0.588   5.582
10566SOL     OW32596   3.514   4.087   6.443
10566SOL    HW132597   3.445   4.035   6.492
10566SOL    HW232598   3.499   4.185   6.457
10567SOL     OW32599   2.019   3.535   4.080
10567SOL    HW132600   2.028   3.441   4.114
10567SOL    HW232601   1.930   3.545   4.035
10568SOL     OW32602   5.998   1.297   2.457
10568SOL    HW132603   5.965   1.381   2.500
10568SOL    HW232604   5.934   1.270   2.384
10569SOL     OW32605   6.046   3.107   2.981
10569SOL    HW132606   6.073   3.050   2.904
10569SOL    HW232607   5.953   3.083   3.008
10570SOL     OW32608   1.903   4.367   2.521
10570SOL    HW132609   1.852   4.305   2.461
10570SOL    HW232610   2.000   4.343   2.519
10571SOL     OW32611   6.441   5.589   2.785
10571SOL    HW132612   6.346   5.589   2.754
10571SOL    HW232613   6.496   5.536   2.720
10572SOL     OW32614   5.536   3.514   2.381
10572SOL    HW132615   5.530   3.610   2.406
10572SOL    HW232616   5.543   3.459   2.464
10573SOL     OW32617   6.233   5.668   3.948
10573SOL    HW132618   6.300   5.616   3.895
10573SOL    HW232619   6.279   5.714   4.023
10574SOL     OW32620   1.284   1.882   3.752
10574SOL    HW132621   1.226   1.845   3.679
10574SOL    HW232622   1.380   1.869   3.728
10575SOL     OW32623   1.157   1.215   4.877
10575SOL    HW132624   1.119   1.265   4.799
10575SOL    HW232625   1.101   1.233   4.958
10576SOL     OW32626   1.771   5.777   5.064
10576SOL    HW132627   1.748   5.722   4.983
10576SOL    HW232628   1.766   5.720   5.146
10577SOL     OW32629   1.788   3.191   6.133
10577SOL    HW132630   1.820   3.273   6.086
10577SOL    HW232631   1.768   3.213   6.229
10578SOL     OW32632   5.806   0.126   5.201
10578SOL    HW132633   5.770   0.072   5.277
10578SOL    HW232634   5.900   0.153   5.221
10579SOL     OW32635   3.826   1.729   0.870
10579SOL    HW132636   3.752   1.792   0.848
10579SOL    HW232637   3.835   1.661   0.797
10580SOL     OW32638   6.513   5.993   6.494
10580SOL    HW132639   6.538   5.929   6.567
10580SOL    HW232640   6.421   6.028   6.511
10581SOL     OW32641   5.687   0.670   3.740
10581SOL    HW132642   5.785   0.668   3.720
10581SOL    HW232643   5.637   0.621   3.668
10582SOL     OW32644   3.365   5.241   6.944
10582SOL    HW132645   3.387   5.144   6.953
10582SOL    HW232646   3.319   5.256   6.857
10583SOL     OW32647   3.663   1.037   0.028
10583SOL    HW132648   3.724   1.065   6.977
10583SOL    HW232649   3.697   0.951   0.068
10584SOL     OW32650   5.266   6.247   1.335
10584SOL    HW132651   5.301   6.242   1.429
10584SOL    HW232652   5.169   6.273   1.337
10585SOL     OW32653   1.113   2.791   5.628
10585SOL    HW132654   1.123   2.879   5.581
10585SOL    HW232655   1.202   2.746   5.631
10586SOL     OW32656   2.714   6.225   6.053
10586SOL    HW132657   2.648   6.163   6.095
10586SOL    HW232658   2.666   6.302   6.012
10587SOL     OW32659   5.736   3.673   0.433
10587SOL    HW132660   5.676   3.597   0.457
10587SOL    HW232661   5.736   3.740   0.507
10588SOL     OW32662   0.650   4.593   2.611
10588SOL    HW132663   0.666   4.622   2.705
10588SOL    HW232664   0.648   4.493   2.606
10589SOL     OW32665   6.045   2.875   4.281
10589SOL    HW132666   6.052   2.796   4.220
10589SOL    HW232667   5.978   2.939   4.244
10590SOL     OW32668   1.043   0.358   3.450
10590SOL    HW132669   0.969   0.408   3.496
10590SOL    HW232670   1.080   0.415   3.376
10591SOL     OW32671   1.465   1.719   5.874
10591SOL    HW132672   1.411   1.705   5.791
10591SOL    HW232673   1.519   1.638   5.893
10592SOL     OW32674   6.839   1.542   0.310
10592SOL    HW132675   6.885   1.470   0.260
10592SOL    HW232676   6.906   1.592   0.365
10593SOL     OW32677   2.168   5.392   2.129
10593SOL    HW132678   2.156   5.420   2.225
10593SOL    HW232679   2.123   5.304   2.114
10594SOL     OW32680   6.356   1.903   4.145
10594SOL    HW132681   6.371   1.962   4.065
10594SOL    HW232682   6.425   1.924   4.215
10595SOL     OW32683   3.907   6.647   6.192
10595SOL    HW132684   3.961   6.635   6.109
10595SOL    HW232685   3.818   6.687   6.168
10596SOL     OW32686   4.280   6.969   1.996
10596SOL    HW132687   4.353   6.943   1.933
10596SOL    HW232688   4.304   6.941   2.089
10597SOL     OW32689   2.274   0.772   4.642
10597SOL    HW132690   2.299   0.698   4.704
10597SOL    HW232691   2.323   0.855   4.667
10598SOL     OW32692   2.250   2.586   6.798
10598SOL    HW132693   2.207   2.568   6.709
10598SOL    HW232694   2.200   2.660   6.844
10599SOL     OW32695   6.270   1.159   6.955
10599SOL    HW132696   6.363   1.185   6.928
10599SOL    HW232697   6.221   1.240   6.988
10600SOL     OW32698   3.013   2.726   5.928
10600SOL    HW132699   3.048   2.785   5.856
10600SOL    HW232700   2.944   2.776   5.981
10601SOL     OW32701   3.071   6.513   6.442
10601SOL    HW132702   3.049   6.499   6.345
10601SOL    HW232703   2.993   6.485   6.498
10602SOL     OW32704   4.933   1.124   0.990
10602SOL    HW132705   4.848   1.126   1.043
10602SOL    HW232706   4.936   1.202   0.928
10603SOL     OW32707   2.015   5.472   3.809
10603SOL    HW132708   1.999   5.509   3.717
10603SOL    HW232709   2.078   5.395   3.803
10604SOL     OW32710   6.585   4.642   4.408
10604SOL    HW132711   6.624   4.583   4.479
10604SOL    HW232712   6.644   4.721   4.395
10605SOL     OW32713   0.927   5.125   0.694
10605SOL    HW132714   0.859   5.124   0.620
10605SOL    HW232715   0.926   5.037   0.741
10606SOL     OW32716   0.109   0.565   1.608
10606SOL    HW132717   0.100   0.661   1.580
10606SOL    HW232718   0.023   0.534   1.647
10607SOL     OW32719   4.600   4.585   6.451
10607SOL    HW132720   4.674   4.534   6.495
10607SOL    HW232721   4.637   4.667   6.407
10608SOL     OW32722   5.769   1.563   4.276
10608SOL    HW132723   5.695   1.560   4.343
10608SOL    HW232724   5.751   1.634   4.208
10609SOL     OW32725   4.033   6.271   1.161
10609SOL    HW132726   3.986   6.329   1.227
10609SOL    HW232727   4.115   6.233   1.203
10610SOL     OW32728   1.278   3.332   5.991
10610SOL    HW132729   1.277   3.401   5.918
10610SOL    HW232730   1.362   3.279   5.984
10611SOL     OW32731   5.167   2.534   6.704
10611SOL    HW132732   5.156   2.616   6.649
10611SOL    HW232733   5.144   2.453   6.650
10612SOL     OW32734   2.350   6.584   6.138
10612SOL    HW132735   2.381   6.667   6.186
10612SOL    HW232736   2.422   6.552   6.077
10613SOL     OW32737   0.765   6.936   5.217
10613SOL    HW132738   0.715   6.994   5.152
10613SOL    HW232739   0.856   6.976   5.234
10614SOL     OW32740   6.185   1.051   4.673
10614SOL    HW132741   6.186   0.975   4.608
10614SOL    HW232742   6.197   1.138   4.623
10615SOL     OW32743   5.018   5.519   5.077
10615SOL    HW132744   4.954   5.583   5.034
10615SOL    HW232745   5.063   5.564   5.154
10616SOL     OW32746   3.230   6.003   0.813
10616SOL    HW132747   3.220   6.089   0.864
10616SOL    HW232748   3.183   6.011   0.725
10617SOL     OW32749   2.183   2.788   0.477
10617SOL    HW132750   2.234   2.704   0.459
10617SOL    HW232751   2.246   2.866   0.480
10618SOL     OW32752   5.734   2.388   0.155
10618SOL    HW132753   5.743   2.428   0.246
10618SOL    HW232754   5.770   2.453   0.087
10619SOL     OW32755   0.798   4.027   3.097
10619SOL    HW132756   0.856   4.105   3.073
10619SOL    HW232757   0.718   4.059   3.148
10620SOL     OW32758   1.469   6.193   4.693
10620SOL    HW132759   1.378   6.163   4.723
10620SOL    HW232760   1.460   6.243   4.607
10621SOL     OW32761   1.839   5.921   6.750
10621SOL    HW132762   1.845   6.003   6.808
10621SOL    HW232763   1.745   5.888   6.748
10622SOL     OW32764   3.809   6.767   1.640
10622SOL    HW132765   3.749   6.827   1.587
10622SOL    HW232766   3.839   6.814   1.723
10623SOL     OW32767   5.900   2.836   3.827
10623SOL    HW132768   5.984   2.788   3.851
10623SOL    HW232769   5.825   2.770   3.818
10624SOL     OW32770   2.030   1.309   5.105
10624SOL    HW132771   2.035   1.218   5.063
10624SOL    HW232772   2.002   1.299   5.201
10625SOL     OW32773   0.616   3.403   6.997
10625SOL    HW132774   0.634   3.484   6.942
10625SOL    HW232775   0.517   3.392   7.010
10626SOL     OW32776   1.120   1.964   1.335
10626SOL    HW132777   1.219   1.955   1.334
10626SOL    HW232778   1.095   2.058   1.357
10627SOL     OW32779   6.583   6.683   2.505
10627SOL    HW132780   6.593   6.750   2.432
10627SOL    HW232781   6.613   6.723   2.592
10628SOL     OW32782   6.611   5.542   5.593
10628SOL    HW132783   6.602   5.636   5.626
10628SOL    HW232784   6.650   5.485   5.666
10629SOL     OW32785   2.411   4.991   5.650
10629SOL    HW132786   2.321   4.974   5.691
10629SOL    HW232787   2.474   5.022   5.721
10630SOL     OW32788   5.891   0.792   3.411
10630SOL    HW132789   5.792   0.804   3.407
10630SOL    HW232790   5.936   0.878   3.388
10631SOL     OW32791   0.381   6.652   3.837
10631SOL    HW132792   0.373   6.626   3.741
10631SOL    HW232793   0.384   6.752   3.844
10632SOL     OW32794   6.489   2.516   4.967
10632SOL    HW132795   6.547   2.579   4.915
10632SOL    HW232796   6.419   2.567   5.016
10633SOL     OW32797   2.763   5.477   1.428
10633SOL    HW132798   2.776   5.520   1.518
10633SOL    HW232799   2.829   5.402   1.418
10634SOL     OW32800   3.033   5.991   1.313
10634SOL    HW132801   3.058   5.905   1.357
10634SOL    HW232802   3.015   5.975   1.216
10635SOL     OW32803   2.829   1.077   0.978
10635SOL    HW132804   2.739   1.036   0.965
10635SOL    HW232805   2.893   1.037   0.913
10636SOL     OW32806   0.831   1.915   0.983
10636SOL    HW132807   0.782   1.831   1.007
10636SOL    HW232808   0.861   1.961   1.066
10637SOL     OW32809   3.719   4.009   5.407
10637SOL    HW132810   3.709   4.059   5.493
10637SOL    HW232811   3.792   4.050   5.353
10638SOL     OW32812   6.509   6.141   4.652
10638SOL    HW132813   6.451   6.211   4.609
10638SOL    HW232814   6.599   6.180   4.672
10639SOL     OW32815   1.124   0.814   5.065
10639SOL    HW132816   1.109   0.847   4.972
10639SOL    HW232817   1.181   0.732   5.063
10640SOL     OW32818   4.817   1.263   6.932
10640SOL    HW132819   4.829   1.170   6.896
10640SOL    HW232820   4.889   1.281   6.999
10641SOL     OW32821   5.555   1.398   6.968
10641SOL    HW132822   5.512   1.484   6.996
10641SOL    HW232823   5.548   1.389   6.868
10642SOL     OW32824   0.177   2.322   1.796
10642SOL    HW132825   0.123   2.308   1.713
10642SOL    HW232826   0.201   2.233   1.835
10643SOL     OW32827   2.345   3.672   5.288
10643SOL    HW132828   2.392   3.737   5.228
10643SOL    HW232829   2.364   3.695   5.383
10644SOL     OW32830   4.544   1.610   4.129
10644SOL    HW132831   4.515   1.646   4.040
10644SOL    HW232832   4.555   1.686   4.193
10645SOL     OW32833   2.095   0.161   4.395
10645SOL    HW132834   2.084   0.171   4.296
10645SOL    HW232835   2.192   0.146   4.416
10646SOL     OW32836   1.283   3.003   5.812
10646SOL    HW132837   1.357   2.985   5.749
10646SOL    HW232838   1.320   3.020   5.904
10647SOL     OW32839   6.613   4.864   0.643
10647SOL    HW132840   6.527   4.914   0.645
10647SOL    HW232841   6.594   4.766   0.640
10648SOL     OW32842   4.835   2.800   6.884
10648SOL    HW132843   4.925   2.764   6.905
10648SOL    HW232844   4.767   2.728   6.893
10649SOL     OW32845   6.732   4.824   5.658
10649SOL    HW132846   6.764   4.839   5.752
10649SOL    HW232847   6.634   4.838   5.653
10650SOL     OW32848   2.762   6.688   4.008
10650SOL    HW132849   2.739   6.785   4.004
10650SOL    HW232850   2.839   6.675   4.070
10651SOL     OW32851   5.131   6.685   5.389
10651SOL    HW132852   5.034   6.708   5.383
10651SOL    HW232853   5.157   6.628   5.311
10652SOL     OW32854   3.502   0.392   6.271
10652SOL    HW132855   3.453   0.478   6.257
10652SOL    HW232856   3.591   0.396   6.225
10653SOL     OW32857   5.215   4.334   4.311
10653SOL    HW132858   5.155   4.259   4.341
10653SOL    HW232859   5.213   4.407   4.379
10654SOL     OW32860   3.427   0.827   0.971
10654SOL    HW132861   3.410   0.892   1.045
10654SOL    HW232862   3.341   0.805   0.925
10655SOL     OW32863   2.985   6.473   1.182
10655SOL    HW132864   3.064   6.424   1.146
10655SOL    HW232865   2.932   6.511   1.107
10656SOL     OW32866   6.279   2.166   0.268
10656SOL    HW132867   6.305   2.123   0.355
10656SOL    HW232868   6.310   2.262   0.268
10657SOL     OW32869   5.592   0.547   0.943
10657SOL    HW132870   5.593   0.461   0.994
10657SOL    HW232871   5.535   0.536   0.861
10658SOL     OW32872   0.886   5.223   3.888
10658SOL    HW132873   0.900   5.246   3.984
10658SOL    HW232874   0.866   5.125   3.880
10659SOL     OW32875   6.143   0.200   0.632
10659SOL    HW132876   6.061   0.235   0.678
10659SOL    HW232877   6.209   0.273   0.621
10660SOL     OW32878   4.329   4.650   5.505
10660SOL    HW132879   4.277   4.687   5.582
10660SOL    HW232880   4.426   4.668   5.519
10661SOL     OW32881   0.370   6.473   2.697
10661SOL    HW132882   0.282   6.500   2.658
10661SOL    HW232883   0.357   6.397   2.760
10662SOL     OW32884   6.968   1.477   0.820
10662SOL    HW132885   7.000   1.559   0.868
10662SOL    HW232886   6.892   1.436   0.872
10663SOL     OW32887   0.301   0.076   0.299
10663SOL    HW132888   0.312   0.025   0.384
10663SOL    HW232889   0.288   0.012   0.223
10664SOL     OW32890   2.114   5.097   6.988
10664SOL    HW132891   2.196   5.092   0.023
10664SOL    HW232892   2.133   5.051   6.901
10665SOL     OW32893   6.437   2.088   1.092
10665SOL    HW132894   6.465   2.018   1.157
10665SOL    HW232895   6.388   2.161   1.140
10666SOL     OW32896   2.240   5.955   7.014
10666SOL    HW132897   2.182   5.876   6.995
10666SOL    HW232898   2.184   6.029   0.027
10667SOL     OW32899   3.696   1.889   5.807
10667SOL    HW132900   3.750   1.956   5.858
10667SOL    HW232901   3.749   1.805   5.797
10668SOL     OW32902   1.647   1.579   6.622
10668SOL    HW132903   1.627   1.547   6.529
10668SOL    HW232904   1.668   1.677   6.619
10669SOL     OW32905   1.640   6.787   0.030
10669SOL    HW132906   1.618   6.884   0.017
10669SOL    HW232907   1.586   6.750   0.105
10670SOL     OW32908   5.678   4.182   5.949
10670SOL    HW132909   5.711   4.096   5.988
10670SOL    HW232910   5.579   4.177   5.936
10671SOL     OW32911   2.397   2.208   2.944
10671SOL    HW132912   2.418   2.110   2.937
10671SOL    HW232913   2.323   2.231   2.881
10672SOL     OW32914   0.302   2.618   1.182
10672SOL    HW132915   0.328   2.706   1.141
10672SOL    HW232916   0.300   2.627   1.281
10673SOL     OW32917   2.759   3.036   5.331
10673SOL    HW132918   2.819   3.095   5.277
10673SOL    HW232919   2.669   3.032   5.289
10674SOL     OW32920   4.119   3.506   1.529
10674SOL    HW132921   4.119   3.419   1.579
10674SOL    HW232922   4.213   3.536   1.514
10675SOL     OW32923   0.383   0.271   5.594
10675SOL    HW132924   0.310   0.261   5.526
10675SOL    HW232925   0.362   0.213   5.673
10676SOL     OW32926   6.387   6.815   6.512
10676SOL    HW132927   6.445   6.882   6.558
10676SOL    HW232928   6.441   6.764   6.446
10677SOL     OW32929   0.611   0.636   0.761
10677SOL    HW132930   0.553   0.637   0.843
10677SOL    HW232931   0.554   0.624   0.680
10678SOL     OW32932   2.161   5.883   2.331
10678SOL    HW132933   2.068   5.906   2.300
10678SOL    HW232934   2.205   5.966   2.366
10679SOL     OW32935   5.301   5.166   3.949
10679SOL    HW132936   5.281   5.128   3.859
10679SOL    HW232937   5.350   5.253   3.938
10680SOL     OW32938   1.546   3.359   2.682
10680SOL    HW132939   1.639   3.394   2.666
10680SOL    HW232940   1.543   3.262   2.662
10681SOL     OW32941   6.350   2.500   5.684
10681SOL    HW132942   6.396   2.461   5.604
10681SOL    HW232943   6.251   2.491   5.673
10682SOL     OW32944   0.220   1.389   2.772
10682SOL    HW132945   0.133   1.339   2.772
10682SOL    HW232946   0.295   1.323   2.769
10683SOL     OW32947   1.643   1.769   5.231
10683SOL    HW132948   1.640   1.810   5.140
10683SOL    HW232949   1.551   1.741   5.259
10684SOL     OW32950   6.462   4.763   0.324
10684SOL    HW132951   6.461   4.663   0.324
10684SOL    HW232952   6.552   4.795   0.350
10685SOL     OW32953   0.576   2.683   3.144
10685SOL    HW132954   0.530   2.604   3.103
10685SOL    HW232955   0.508   2.745   3.183
10686SOL     OW32956   2.794   5.382   0.369
10686SOL    HW132957   2.864   5.338   0.426
10686SOL    HW232958   2.773   5.323   0.291
10687SOL     OW32959   0.331   4.623   2.923
10687SOL    HW132960   0.343   4.695   2.854
10687SOL    HW232961   0.258   4.650   2.986
10688SOL     OW32962   6.590   4.896   1.687
10688SOL    HW132963   6.569   4.951   1.768
10688SOL    HW232964   6.508   4.847   1.658
10689SOL     OW32965   0.858   0.575   2.772
10689SOL    HW132966   0.819   0.585   2.680
10689SOL    HW232967   0.797   0.520   2.828
10690SOL     OW32968   4.103   4.870   1.998
10690SOL    HW132969   4.028   4.860   2.064
10690SOL    HW232970   4.112   4.785   1.946
10691SOL     OW32971   6.939   1.041   1.751
10691SOL    HW132972   6.843   1.067   1.745
10691SOL    HW232973   6.990   1.085   1.678
10692SOL     OW32974   3.826   5.964   3.530
10692SOL    HW132975   3.823   6.052   3.483
10692SOL    HW232976   3.768   5.899   3.482
10693SOL     OW32977   6.787   1.409   1.724
10693SOL    HW132978   6.874   1.409   1.773
10693SOL    HW232979   6.756   1.315   1.712
10694SOL     OW32980   4.292   6.556   0.545
10694SOL    HW132981   4.244   6.483   0.594
10694SOL    HW232982   4.339   6.615   0.610
10695SOL     OW32983   0.318   2.685   4.060
10695SOL    HW132984   0.226   2.646   4.060
10695SOL    HW232985   0.367   2.654   3.979
10696SOL     OW32986   6.939   5.794   1.634
10696SOL    HW132987   6.848   5.754   1.630
10696SOL    HW232988   6.997   5.739   1.695
10697SOL     OW32989   1.750   5.789   3.781
10697SOL    HW132990   1.737   5.825   3.873
10697SOL    HW232991   1.755   5.865   3.716
10698SOL     OW32992   2.855   6.608   3.684
10698SOL    HW132993   2.827   6.637   3.775
10698SOL    HW232994   2.871   6.509   3.684
10699SOL     OW32995   2.782   2.192   3.085
10699SOL    HW132996   2.858   2.129   3.073
10699SOL    HW232997   2.754   2.229   2.996
10700SOL     OW32998   6.338   6.636   0.868
10700SOL    HW132999   6.367   6.545   0.896
10700SOL    HW233000   6.238   6.641   0.868
10701SOL     OW33001   2.620   6.601   1.192
10701SOL    HW133002   2.591   6.517   1.146
10701SOL    HW233003   2.543   6.642   1.240
10702SOL     OW33004   6.179   2.943   1.079
10702SOL    HW133005   6.102   2.941   1.143
10702SOL    HW233006   6.145   2.929   0.986
10703SOL     OW33007   3.860   3.997   4.459
10703SOL    HW133008   3.784   3.941   4.493
10703SOL    HW233009   3.876   4.072   4.523
10704SOL     OW33010   4.999   0.243   2.164
10704SOL    HW133011   4.947   0.165   2.199
10704SOL    HW233012   4.959   0.328   2.200
10705SOL     OW33013   6.904   2.896   5.850
10705SOL    HW133014   6.842   2.955   5.797
10705SOL    HW233015   6.935   2.820   5.793
10706SOL     OW33016   3.263   1.173   2.140
10706SOL    HW133017   3.164   1.186   2.143
10706SOL    HW233018   3.287   1.126   2.055
10707SOL     OW33019   6.101   0.079   6.177
10707SOL    HW133020   6.188   0.087   6.225
10707SOL    HW233021   6.117   0.038   6.087
10708SOL     OW33022   4.363   1.282   0.986
10708SOL    HW133023   4.331   1.351   0.921
10708SOL    HW233024   4.437   1.319   1.042
10709SOL     OW33025   6.170   6.528   5.545
10709SOL    HW133026   6.155   6.469   5.625
10709SOL    HW233027   6.083   6.571   5.519
10710SOL     OW33028   5.990   5.510   3.072
10710SOL    HW133029   5.978   5.488   3.169
10710SOL    HW233030   5.925   5.581   3.046
10711SOL     OW33031   1.691   0.069   3.889
10711SOL    HW133032   1.782   0.110   3.878
10711SOL    HW233033   1.626   0.141   3.914
10712SOL     OW33034   3.552   1.605   5.038
10712SOL    HW133035   3.469   1.654   5.012
10712SOL    HW233036   3.628   1.635   4.980
10713SOL     OW33037   1.137   5.796   1.709
10713SOL    HW133038   1.154   5.798   1.808
10713SOL    HW233039   1.041   5.776   1.692
10714SOL     OW33040   6.773   5.111   5.772
10714SOL    HW133041   6.833   5.170   5.826
10714SOL    HW233042   6.816   5.021   5.759
10715SOL     OW33043   5.455   1.248   4.310
10715SOL    HW133044   5.394   1.325   4.291
10715SOL    HW233045   5.513   1.232   4.231
10716SOL     OW33046   6.516   0.136   3.667
10716SOL    HW133047   6.491   0.192   3.746
10716SOL    HW233048   6.569   0.057   3.697
10717SOL     OW33049   6.919   0.250   1.427
10717SOL    HW133050   6.881   0.342   1.437
10717SOL    HW233051   7.018   0.253   1.435
10718SOL     OW33052   0.057   4.951   0.284
10718SOL    HW133053   0.066   4.967   0.383
10718SOL    HW233054   0.124   4.881   0.256
10719SOL     OW33055   5.653   0.675   2.069
10719SOL    HW133056   5.559   0.658   2.096
10719SOL    HW233057   5.708   0.698   2.149
10720SOL     OW33058   0.551   3.390   6.620
10720SOL    HW133059   0.523   3.298   6.589
10720SOL    HW233060   0.634   3.417   6.571
10721SOL     OW33061   4.829   2.567   4.307
10721SOL    HW133062   4.827   2.488   4.368
10721SOL    HW233063   4.915   2.566   4.254
10722SOL     OW33064   0.266   3.813   6.921
10722SOL    HW133065   0.264   3.734   6.982
10722SOL    HW233066   0.343   3.805   6.857
10723SOL     OW33067   6.114   3.968   6.693
10723SOL    HW133068   6.214   3.962   6.698
10723SOL    HW233069   6.085   3.960   6.597
10724SOL     OW33070   4.265   6.461   5.683
10724SOL    HW133071   4.241   6.526   5.611
10724SOL    HW233072   4.182   6.416   5.717
10725SOL     OW33073   6.868   6.147   5.062
10725SOL    HW133074   6.944   6.093   5.097
10725SOL    HW233075   6.899   6.240   5.042
10726SOL     OW33076   5.018   1.203   4.425
10726SOL    HW133077   5.076   1.181   4.347
10726SOL    HW233078   4.950   1.131   4.438
10727SOL     OW33079   2.151   6.131   6.023
10727SOL    HW133080   2.063   6.109   5.980
10727SOL    HW233081   2.153   6.229   6.047
10728SOL     OW33082   5.128   5.795   3.057
10728SOL    HW133083   5.208   5.760   3.010
10728SOL    HW233084   5.045   5.768   3.007
10729SOL     OW33085   5.779   2.770   2.841
10729SOL    HW133086   5.782   2.856   2.892
10729SOL    HW233087   5.873   2.738   2.826
10730SOL     OW33088   2.250   6.117   2.847
10730SOL    HW133089   2.303   6.076   2.922
10730SOL    HW233090   2.297   6.100   2.760
10731SOL     OW33091   4.422   0.103   6.445
10731SOL    HW133092   4.457   0.077   6.355
10731SOL    HW233093   4.499   0.129   6.504
10732SOL     OW33094   5.869   6.450   2.912
10732SOL    HW133095   5.815   6.532   2.889
10732SOL    HW233096   5.807   6.375   2.935
10733SOL     OW33097   0.561   0.711   6.233
10733SOL    HW133098   0.463   0.691   6.228
10733SOL    HW233099   0.611   0.627   6.256
10734SOL     OW33100   0.890   1.373   5.509
10734SOL    HW133101   0.940   1.335   5.587
10734SOL    HW233102   0.947   1.442   5.464
10735SOL     OW33103   1.367   5.452   2.084
10735SOL    HW133104   1.338   5.394   2.160
10735SOL    HW233105   1.396   5.395   2.007
10736SOL     OW33106   5.770   6.997   3.578
10736SOL    HW133107   5.700   7.011   3.648
10736SOL    HW233108   5.838   6.933   3.612
10737SOL     OW33109   6.593   1.322   2.284
10737SOL    HW133110   6.509   1.351   2.239
10737SOL    HW233111   6.639   1.402   2.324
10738SOL     OW33112   3.310   1.129   1.844
10738SOL    HW133113   3.241   1.091   1.782
10738SOL    HW233114   3.370   1.056   1.877
10739SOL     OW33115   5.695   2.166   3.091
10739SOL    HW133116   5.653   2.093   3.036
10739SOL    HW233117   5.642   2.250   3.080
10740SOL     OW33118   1.827   6.536   6.221
10740SOL    HW133119   1.914   6.488   6.227
10740SOL    HW233120   1.790   6.529   6.129
10741SOL     OW33121   2.498   2.404   3.590
10741SOL    HW133122   2.519   2.445   3.501
10741SOL    HW233123   2.410   2.358   3.586
10742SOL     OW33124   6.034   6.769   2.521
10742SOL    HW133125   6.064   6.848   2.468
10742SOL    HW233126   6.076   6.771   2.611
10743SOL     OW33127   3.539   1.258   5.931
10743SOL    HW133128   3.443   1.284   5.939
10743SOL    HW233129   3.548   1.181   5.868
10744SOL     OW33130   1.799   6.991   0.372
10744SOL    HW133131   1.884   0.005   0.409
10744SOL    HW233132   1.797   7.005   0.273
10745SOL     OW33133   1.708   4.977   1.431
10745SOL    HW133134   1.770   5.003   1.504
10745SOL    HW233135   1.620   5.023   1.444
10746SOL     OW33136   1.405   5.985   6.354
10746SOL    HW133137   1.412   6.040   6.437
10746SOL    HW233138   1.455   5.900   6.367
10747SOL     OW33139   6.030   1.243   5.142
10747SOL    HW133140   5.940   1.259   5.182
10747SOL    HW233141   6.061   1.151   5.166
10748SOL     OW33142   4.123   6.152   0.930
10748SOL    HW133143   4.089   6.209   1.005
10748SOL    HW233144   4.050   6.137   0.863
10749SOL     OW33145   5.415   5.996   2.157
10749SOL    HW133146   5.378   6.087   2.177
10749SOL    HW233147   5.373   5.959   2.075
10750SOL     OW33148   5.107   2.274   4.059
10750SOL    HW133149   5.015   2.279   4.097
10750SOL    HW233150   5.118   2.344   3.989
10751SOL     OW33151   0.201   5.268   4.995
10751SOL    HW133152   0.275   5.216   5.037
10751SOL    HW233153   0.113   5.237   5.033
10752SOL     OW33154   5.894   6.398   0.506
10752SOL    HW133155   5.835   6.454   0.565
10752SOL    HW233156   5.915   6.312   0.552
10753SOL     OW33157   4.784   6.706   4.049
10753SOL    HW133158   4.799   6.755   3.963
10753SOL    HW233159   4.711   6.750   4.101
10754SOL     OW33160   1.439   3.654   1.417
10754SOL    HW133161   1.436   3.600   1.333
10754SOL    HW233162   1.415   3.749   1.396
10755SOL     OW33163   6.111   3.349   1.199
10755SOL    HW133164   6.162   3.266   1.178
10755SOL    HW233165   6.175   3.424   1.217
10756SOL     OW33166   0.620   1.721   0.957
10756SOL    HW133167   0.600   1.807   0.909
10756SOL    HW233168   0.540   1.662   0.953
10757SOL     OW33169   0.606   3.836   1.525
10757SOL    HW133170   0.651   3.862   1.611
10757SOL    HW233171   0.673   3.792   1.465
10758SOL     OW33172   0.672   0.323   6.545
10758SOL    HW133173   0.648   0.228   6.566
10758SOL    HW233174   0.765   0.341   6.577
10759SOL     OW33175   2.661   2.457   6.411
10759SOL    HW133176   2.673   2.421   6.319
10759SOL    HW233177   2.566   2.440   6.441
10760SOL     OW33178   0.702   5.384   0.754
10760SOL    HW133179   0.617   5.435   0.763
10760SOL    HW233180   0.689   5.292   0.791
10761SOL     OW33181   0.544   1.515   6.190
10761SOL    HW133182   0.578   1.522   6.097
10761SOL    HW233183   0.523   1.420   6.212
10762SOL     OW33184   3.451   6.207   5.970
10762SOL    HW133185   3.363   6.249   5.990
10762SOL    HW233186   3.440   6.136   5.900
10763SOL     OW33187   5.455   0.295   3.087
10763SOL    HW133188   5.366   0.255   3.107
10763SOL    HW233189   5.444   0.379   3.034
10764SOL     OW33190   4.277   0.531   4.714
10764SOL    HW133191   4.328   0.550   4.630
10764SOL    HW233192   4.181   0.515   4.692
10765SOL     OW33193   6.639   1.740   2.723
10765SOL    HW133194   6.569   1.691   2.776
10765SOL    HW233195   6.730   1.714   2.757
10766SOL     OW33196   1.582   5.092   6.471
10766SOL    HW133197   1.615   5.007   6.512
10766SOL    HW233198   1.560   5.076   6.375
10767SOL     OW33199   1.879   5.962   0.399
10767SOL    HW133200   1.941   5.992   0.327
10767SOL    HW233201   1.824   5.885   0.367
10768SOL     OW33202   5.606   5.881   0.387
10768SOL    HW133203   5.536   5.943   0.423
10768SOL    HW233204   5.643   5.919   0.302
10769SOL     OW33205   3.658   3.086   4.492
10769SOL    HW133206   3.758   3.092   4.497
10769SOL    HW233207   3.618   3.152   4.555
10770SOL     OW33208   5.367   7.000   3.977
10770SOL    HW133209   5.383   0.051   4.042
10770SOL    HW233210   5.422   6.921   4.003
10771SOL     OW33211   4.706   6.108   5.782
10771SOL    HW133212   4.728   6.143   5.692
10771SOL    HW233213   4.782   6.126   5.844
10772SOL     OW33214   5.894   4.786   2.740
10772SOL    HW133215   5.924   4.691   2.744
10772SOL    HW233216   5.896   4.818   2.645
10773SOL     OW33217   6.820   4.003   1.500
10773SOL    HW133218   6.761   3.999   1.419
10773SOL    HW233219   6.876   4.085   1.497
10774SOL     OW33220   1.157   3.084   0.453
10774SOL    HW133221   1.158   2.984   0.447
10774SOL    HW233222   1.193   3.112   0.542
10775SOL     OW33223   1.411   4.285   0.753
10775SOL    HW133224   1.443   4.236   0.834
10775SOL    HW233225   1.333   4.343   0.777
10776SOL     OW33226   1.178   1.753   3.521
10776SOL    HW133227   1.208   1.659   3.506
10776SOL    HW233228   1.089   1.767   3.477
10777SOL     OW33229   3.556   1.622   1.907
10777SOL    HW133230   3.457   1.612   1.898
10777SOL    HW233231   3.602   1.559   1.845
10778SOL     OW33232   6.085   6.604   3.322
10778SOL    HW133233   6.104   6.537   3.394
10778SOL    HW233234   6.054   6.556   3.240
10779SOL     OW33235   5.171   3.924   4.524
10779SOL    HW133236   5.269   3.942   4.512
10779SOL    HW233237   5.146   3.940   4.620
10780SOL     OW33238   1.626   6.028   4.993
10780SOL    HW133239   1.676   5.941   5.001
10780SOL    HW233240   1.597   6.041   4.898
10781SOL     OW33241   5.925   2.264   5.294
10781SOL    HW133242   5.842   2.258   5.238
10781SOL    HW233243   5.899   2.287   5.388
10782SOL     OW33244   1.499   2.498   4.950
10782SOL    HW133245   1.482   2.445   5.033
10782SOL    HW233246   1.469   2.593   4.965
10783SOL     OW33247   1.441   2.800   2.814
10783SOL    HW133248   1.441   2.900   2.800
10783SOL    HW233249   1.368   2.760   2.759
10784SOL     OW33250   3.874   6.067   2.389
10784SOL    HW133251   3.889   6.159   2.353
10784SOL    HW233252   3.957   6.035   2.435
10785SOL     OW33253   2.144   5.611   2.378
10785SOL    HW133254   2.050   5.577   2.378
10785SOL    HW233255   2.146   5.702   2.336
10786SOL     OW33256   3.914   1.130   1.911
10786SOL    HW133257   3.856   1.168   1.838
10786SOL    HW233258   3.972   1.202   1.948
10787SOL     OW33259   3.972   1.128   3.473
10787SOL    HW133260   3.992   1.116   3.376
10787SOL    HW233261   3.873   1.118   3.488
10788SOL     OW33262   0.887   4.857   0.799
10788SOL    HW133263   0.964   4.838   0.861
10788SOL    HW233264   0.817   4.787   0.811
10789SOL     OW33265   6.470   1.603   0.995
10789SOL    HW133266   6.552   1.660   0.985
10789SOL    HW233267   6.406   1.648   1.057
10790SOL     OW33268   0.629   2.313   4.867
10790SOL    HW133269   0.566   2.272   4.801
10790SOL    HW233270   0.702   2.248   4.888
10791SOL     OW33271   1.450   1.945   3.391
10791SOL    HW133272   1.361   1.984   3.411
10791SOL    HW233273   1.446   1.845   3.402
10792SOL     OW33274   4.094   1.954   1.308
10792SOL    HW133275   4.115   2.020   1.380
10792SOL    HW233276   4.009   1.906   1.330
10793SOL     OW33277   4.383   1.487   4.852
10793SOL    HW133278   4.293   1.480   4.808
10793SOL    HW233279   4.451   1.514   4.784
10794SOL     OW33280   4.357   2.611   0.859
10794SOL    HW133281   4.386   2.698   0.821
10794SOL    HW233282   4.435   2.548   0.861
10795SOL     OW33283   0.593   3.862   3.462
10795SOL    HW133284   0.511   3.821   3.422
10795SOL    HW233285   0.602   3.956   3.432
10796SOL     OW33286   0.191   6.678   6.564
10796SOL    HW133287   0.155   6.750   6.623
10796SOL    HW233288   0.126   6.602   6.562
10797SOL     OW33289   4.093   3.649   0.165
10797SOL    HW133290   4.139   3.619   0.249
10797SOL    HW233291   4.025   3.718   0.188
10798SOL     OW33292   2.472   6.872   6.578
10798SOL    HW133293   2.549   6.934   6.568
10798SOL    HW233294   2.428   6.887   6.667
10799SOL     OW33295   2.547   1.154   2.858
10799SOL    HW133296   2.483   1.077   2.853
10799SOL    HW233297   2.609   1.152   2.779
10800SOL     OW33298   2.095   0.460   5.582
10800SOL    HW133299   2.083   0.417   5.671
10800SOL    HW233300   2.014   0.515   5.560
10801SOL     OW33301   2.774   6.667   5.893
10801SOL    HW133302   2.743   6.573   5.912
10801SOL    HW233303   2.742   6.728   5.965
10802SOL     OW33304   0.504   4.461   4.232
10802SOL    HW133305   0.513   4.487   4.136
10802SOL    HW233306   0.585   4.412   4.262
10803SOL     OW33307   0.043   4.560   4.806
10803SOL    HW133308   6.991   4.520   4.859
10803SOL    HW233309   0.101   4.487   4.770
10804SOL     OW33310   5.125   4.572   1.673
10804SOL    HW133311   5.126   4.671   1.684
10804SOL    HW233312   5.056   4.547   1.606
10805SOL     OW33313   4.316   6.951   0.583
10805SOL    HW133314   4.247   6.915   0.520
10805SOL    HW233315   4.386   6.999   0.532
10806SOL     OW33316   5.175   3.649   6.960
10806SOL    HW133317   5.171   3.743   6.993
10806SOL    HW233318   5.146   3.646   6.864
10807SOL     OW33319   4.472   6.656   3.225
10807SOL    HW133320   4.506   6.747   3.246
10807SOL    HW233321   4.373   6.653   3.237
10808SOL     OW33322   0.043   2.899   6.257
10808SOL    HW133323   0.095   2.981   6.234
10808SOL    HW233324   0.089   2.851   6.332
10809SOL     OW33325   2.571   0.723   3.343
10809SOL    HW133326   2.640   0.778   3.295
10809SOL    HW233327   2.604   0.629   3.354
10810SOL     OW33328   0.295   1.438   5.539
10810SOL    HW133329   0.289   1.416   5.637
10810SOL    HW233330   0.390   1.437   5.510
10811SOL     OW33331   4.611   4.554   5.603
10811SOL    HW133332   4.612   4.511   5.693
10811SOL    HW233333   4.593   4.652   5.613
10812SOL     OW33334   6.747   2.154   3.309
10812SOL    HW133335   6.734   2.087   3.382
10812SOL    HW233336   6.668   2.214   3.305
10813SOL     OW33337   2.694   6.380   1.496
10813SOL    HW133338   2.742   6.323   1.429
10813SOL    HW233339   2.750   6.387   1.579
10814SOL     OW33340   1.652   6.951   4.883
10814SOL    HW133341   1.604   6.919   4.801
10814SOL    HW233342   1.725   7.014   4.857
10815SOL     OW33343   5.042   2.417   2.824
10815SOL    HW133344   5.010   2.506   2.855
10815SOL    HW233345   4.970   2.374   2.768
10816SOL     OW33346   2.198   1.627   2.145
10816SOL    HW133347   2.107   1.618   2.185
10816SOL    HW233348   2.267   1.616   2.217
10817SOL     OW33349   4.645   6.837   2.143
10817SOL    HW133350   4.661   6.739   2.142
10817SOL    HW233351   4.552   6.856   2.177
10818SOL     OW33352   4.834   3.418   6.877
10818SOL    HW133353   4.758   3.354   6.865
10818SOL    HW233354   4.914   3.384   6.829
10819SOL     OW33355   0.207   3.951   6.451
10819SOL    HW133356   0.251   3.947   6.361
10819SOL    HW233357   0.167   3.862   6.473
10820SOL     OW33358   0.363   0.056   4.355
10820SOL    HW133359   0.286   0.108   4.317
10820SOL    HW233360   0.445   0.112   4.352
10821SOL     OW33361   0.013   0.212   0.384
10821SOL    HW133362   0.021   0.208   0.284
10821SOL    HW233363   0.097   0.175   0.425
10822SOL     OW33364   1.411   4.352   1.194
10822SOL    HW133365   1.463   4.409   1.130
10822SOL    HW233366   1.412   4.257   1.163
10823SOL     OW33367   1.591   0.635   1.120
10823SOL    HW133368   1.567   0.718   1.071
10823SOL    HW233369   1.509   0.592   1.156
10824SOL     OW33370   5.423   0.481   2.651
10824SOL    HW133371   5.412   0.544   2.728
10824SOL    HW233372   5.457   0.393   2.684
10825SOL     OW33373   3.302   1.193   1.325
10825SOL    HW133374   3.397   1.213   1.351
10825SOL    HW233375   3.241   1.215   1.401
10826SOL     OW33376   6.700   3.009   1.678
10826SOL    HW133377   6.766   3.028   1.605
10826SOL    HW233378   6.638   2.937   1.648
10827SOL     OW33379   0.080   2.680   4.500
10827SOL    HW133380   0.073   2.598   4.444
10827SOL    HW233381   0.131   2.750   4.451
10828SOL     OW33382   0.892   5.886   0.573
10828SOL    HW133383   0.926   5.973   0.606
10828SOL    HW233384   0.865   5.829   0.650
10829SOL     OW33385   2.833   3.274   1.383
10829SOL    HW133386   2.772   3.237   1.313
10829SOL    HW233387   2.912   3.317   1.338
10830SOL     OW33388   4.636   2.325   3.773
10830SOL    HW133389   4.728   2.302   3.741
10830SOL    HW233390   4.594   2.390   3.711
10831SOL     OW33391   5.463   1.918   3.213
10831SOL    HW133392   5.471   1.945   3.309
10831SOL    HW233393   5.510   1.985   3.155
10832SOL     OW33394   0.189   1.843   1.249
10832SOL    HW133395   0.227   1.925   1.206
10832SOL    HW233396   0.261   1.776   1.264
10833SOL     OW33397   3.193   6.775   4.709
10833SOL    HW133398   3.161   6.693   4.660
10833SOL    HW233399   3.289   6.792   4.686
10834SOL     OW33400   0.445   0.981   5.357
10834SOL    HW133401   0.406   0.950   5.270
10834SOL    HW233402   0.508   0.912   5.392
10835SOL     OW33403   6.992   1.657   2.293
10835SOL    HW133404   6.952   1.748   2.296
10835SOL    HW233405   0.056   1.660   2.245
10836SOL     OW33406   1.929   2.391   6.534
10836SOL    HW133407   1.923   2.404   6.633
10836SOL    HW233408   1.902   2.298   6.511
10837SOL     OW33409   0.653   5.062   0.831
10837SOL    HW133410   0.615   5.049   0.923
10837SOL    HW233411   0.747   5.028   0.829
10838SOL     OW33412   6.163   0.355   0.208
10838SOL    HW133413   6.253   0.316   0.228
10838SOL    HW233414   6.138   0.421   0.278
10839SOL     OW33415   1.906   2.053   0.716
10839SOL    HW133416   1.913   2.124   0.786
10839SOL    HW233417   1.955   1.971   0.746
10840SOL     OW33418   3.580   5.664   2.564
10840SOL    HW133419   3.488   5.633   2.541
10840SOL    HW233420   3.635   5.585   2.592
10841SOL     OW33421   4.035   4.331   6.073
10841SOL    HW133422   4.020   4.277   5.990
10841SOL    HW233423   3.951   4.379   6.097
10842SOL     OW33424   6.272   3.057   1.424
10842SOL    HW133425   6.353   3.005   1.453
10842SOL    HW233426   6.292   3.155   1.429
10843SOL     OW33427   0.417   1.057   1.741
10843SOL    HW133428   0.485   1.036   1.811
10843SOL    HW233429   0.403   1.156   1.737
10844SOL     OW33430   3.965   6.738   3.579
10844SOL    HW133431   3.923   6.744   3.489
10844SOL    HW233432   3.975   6.641   3.605
10845SOL     OW33433   2.167   2.447   0.739
10845SOL    HW133434   2.136   2.433   0.645
10845SOL    HW233435   2.131   2.533   0.773
10846SOL     OW33436   3.421   1.880   1.735
10846SOL    HW133437   3.432   1.956   1.798
10846SOL    HW233438   3.507   1.862   1.688
10847SOL     OW33439   4.393   2.811   6.205
10847SOL    HW133440   4.394   2.732   6.143
10847SOL    HW233441   4.346   2.887   6.162
10848SOL     OW33442   1.583   1.178   6.572
10848SOL    HW133443   1.571   1.241   6.496
10848SOL    HW233444   1.587   1.230   6.658
10849SOL     OW33445   2.588   4.869   4.187
10849SOL    HW133446   2.686   4.877   4.171
10849SOL    HW233447   2.564   4.916   4.272
10850SOL     OW33448   4.803   6.866   1.040
10850SOL    HW133449   4.881   6.893   0.983
10850SOL    HW233450   4.816   6.771   1.070
10851SOL     OW33451   4.348   1.899   6.435
10851SOL    HW133452   4.427   1.844   6.408
10851SOL    HW233453   4.283   1.903   6.360
10852SOL     OW33454   0.567   0.137   6.254
10852SOL    HW133455   0.574   0.181   6.164
10852SOL    HW233456   0.486   0.080   6.257
10853SOL     OW33457   2.542   1.257   4.691
10853SOL    HW133458   2.581   1.225   4.604
10853SOL    HW233459   2.612   1.308   4.741
10854SOL     OW33460   6.652   6.590   0.436
10854SOL    HW133461   6.628   6.577   0.340
10854SOL    HW233462   6.743   6.631   0.442
10855SOL     OW33463   0.815   6.533   1.245
10855SOL    HW133464   0.867   6.546   1.330
10855SOL    HW233465   0.720   6.511   1.267
10856SOL     OW33466   6.393   0.344   6.587
10856SOL    HW133467   6.294   0.335   6.585
10856SOL    HW233468   6.425   0.340   6.682
10857SOL     OW33469   6.189   0.838   4.516
10857SOL    HW133470   6.286   0.823   4.534
10857SOL    HW233471   6.148   0.754   4.479
10858SOL     OW33472   2.011   1.935   0.982
10858SOL    HW133473   2.111   1.935   0.973
10858SOL    HW233474   1.986   1.960   1.076
10859SOL     OW33475   0.784   4.748   2.418
10859SOL    HW133476   0.715   4.811   2.382
10859SOL    HW233477   0.739   4.674   2.469
10860SOL     OW33478   6.316   2.095   0.697
10860SOL    HW133479   6.308   2.020   0.762
10860SOL    HW233480   6.363   2.064   0.615
10861SOL     OW33481   3.482   2.817   2.131
10861SOL    HW133482   3.441   2.827   2.222
10861SOL    HW233483   3.523   2.726   2.123
10862SOL     OW33484   3.980   3.042   5.671
10862SOL    HW133485   3.968   2.959   5.616
10862SOL    HW233486   3.901   3.053   5.732
10863SOL     OW33487   1.948   1.632   3.114
10863SOL    HW133488   1.913   1.667   3.200
10863SOL    HW233489   2.047   1.649   3.109
10864SOL     OW33490   3.229   4.882   2.166
10864SOL    HW133491   3.206   4.796   2.213
10864SOL    HW233492   3.275   4.861   2.080
10865SOL     OW33493   3.346   1.427   3.150
10865SOL    HW133494   3.390   1.393   3.067
10865SOL    HW233495   3.402   1.404   3.229
10866SOL     OW33496   0.304   3.784   3.399
10866SOL    HW133497   0.273   3.773   3.304
10866SOL    HW233498   0.253   3.721   3.458
10867SOL     OW33499   4.459   3.434   0.751
10867SOL    HW133500   4.491   3.340   0.748
10867SOL    HW233501   4.534   3.496   0.725
10868SOL     OW33502   1.010   1.307   5.090
10868SOL    HW133503   0.963   1.221   5.111
10868SOL    HW233504   0.946   1.370   5.048
10869NA      NA33505   6.534   2.514   5.826
10870NA      NA33506   4.394   4.698   5.134
10871NA      NA33507   1.059   4.726   2.785
10872NA      NA33508   5.577   3.960   3.512
10873NA      NA33509   3.875   2.124   5.304
10874NA      NA33510   2.214   4.845   0.266
10875NA      NA33511   1.323   5.263   6.973
10876NA      NA33512   3.363   4.118   1.144
10877NA      NA33513   4.524   5.288   0.694
10878NA      NA33514   3.275   0.866   6.474
10879NA      NA33515   5.511   6.746   1.841
10880NA      NA33516   1.877   6.882   5.256
10881NA      NA33517   3.925   5.217   1.898
10882NA      NA33518   3.713   3.249   6.653
   7.02333   7.02333   7.02333
