Generated by trjconv : CNT in water t= 117.00000
33518
    1C        C    1   2.841   2.769   4.749
    1C        C    2   2.899   2.722   4.869
    1C        C    3   2.844   2.782   4.983
    1C        C    4   2.851   2.774   4.262
    1C        C    5   2.900   2.726   4.385
    1C        C    6   2.843   2.769   4.507
    1C        C    7   3.008   2.635   4.627
    1C        C    8   2.894   2.718   4.628
    1C        C    9   3.078   2.607   4.746
    1C        C   10   3.010   2.635   4.867
    1C        C   11   3.181   2.491   4.977
    1C        C   12   3.061   2.563   4.976
    1C        C   13   2.849   2.770   3.776
    1C        C   14   2.903   2.721   3.897
    1C        C   15   2.854   2.775   4.018
    1C        C   16   3.019   2.642   4.142
    1C        C   17   2.908   2.730   4.140
    1C        C   18   3.083   2.616   4.266
    1C        C   19   3.018   2.648   4.387
    1C        C   20   3.210   2.556   4.506
    1C        C   21   3.076   2.603   4.507
    1C        C   22   3.278   2.540   4.629
    1C        C   23   3.208   2.551   4.752
    1C        C   24   3.415   2.484   4.866
    1C        C   25   3.273   2.499   4.867
    1C        C   26   3.492   2.476   4.983
    1C        C   27   2.849   2.767   3.284
    1C        C   28   2.905   2.723   3.406
    1C        C   29   2.857   2.773   3.530
    1C        C   30   3.020   2.643   3.654
    1C        C   31   2.909   2.730   3.654
    1C        C   32   3.080   2.604   3.776
    1C        C   33   3.019   2.642   3.898
    1C        C   34   3.211   2.552   4.021
    1C        C   35   3.080   2.605   4.020
    1C        C   36   3.280   2.535   4.143
    1C        C   37   3.214   2.565   4.264
    1C        C   38   3.420   2.509   4.384
    1C        C   39   3.281   2.539   4.386
    1C        C   40   3.487   2.504   4.508
    1C        C   41   3.416   2.509   4.630
    1C        C   42   3.634   2.478   4.745
    1C        C   43   3.492   2.486   4.746
    1C        C   44   3.705   2.485   4.867
    1C        C   45   3.630   2.485   4.985
    1C        C   46   2.839   2.755   2.795
    1C        C   47   2.897   2.712   2.917
    1C        C   48   2.845   2.759   3.039
    1C        C   49   3.017   2.638   3.165
    1C        C   50   2.903   2.721   3.162
    1C        C   51   3.079   2.603   3.287
    1C        C   52   3.022   2.644   3.410
    1C        C   53   3.212   2.553   3.528
    1C        C   54   3.082   2.607   3.532
    1C        C   55   3.278   2.532   3.651
    1C        C   56   3.210   2.548   3.774
    1C        C   57   3.416   2.511   3.897
    1C        C   58   3.276   2.531   3.897
    1C        C   59   3.488   2.498   4.018
    1C        C   60   3.418   2.505   4.140
    1C        C   61   3.630   2.495   4.259
    1C        C   62   3.489   2.494   4.262
    1C        C   63   3.702   2.502   4.381
    1C        C   64   3.628   2.501   4.501
    1C        C   65   3.836   2.539   4.622
    1C        C   66   3.701   2.499   4.622
    1C        C   67   3.906   2.556   4.743
    1C        C   68   3.841   2.522   4.864
    1C        C   69   4.047   2.587   4.978
    1C        C   70   3.922   2.524   4.979
    1C        C   71   2.824   2.736   2.312
    1C        C   72   2.883   2.690   2.433
    1C        C   73   2.839   2.747   2.554
    1C        C   74   3.015   2.628   2.675
    1C        C   75   2.897   2.706   2.676
    1C        C   76   3.077   2.600   2.798
    1C        C   77   3.014   2.633   2.920
    1C        C   78   3.208   2.548   3.040
    1C        C   79   3.077   2.599   3.042
    1C        C   80   3.279   2.531   3.162
    1C        C   81   3.211   2.553   3.284
    1C        C   82   3.416   2.497   3.405
    1C        C   83   3.277   2.525   3.405
    1C        C   84   3.486   2.496   3.527
    1C        C   85   3.417   2.507   3.650
    1C        C   86   3.627   2.502   3.771
    1C        C   87   3.485   2.504   3.774
    1C        C   88   3.698   2.512   3.892
    1C        C   89   3.629   2.500   4.015
    1C        C   90   3.837   2.541   4.134
    1C        C   91   3.701   2.504   4.137
    1C        C   92   3.903   2.568   4.256
    1C        C   93   3.838   2.541   4.378
    1C        C   94   4.030   2.628   4.502
    1C        C   95   3.904   2.564   4.501
    1C        C   96   4.088   2.671   4.624
    1C        C   97   4.029   2.626   4.745
    1C        C   98   4.191   2.768   4.865
    1C        C   99   4.097   2.660   4.865
    1C        C  100   4.213   2.844   4.981
    1C        C  101   2.823   2.732   2.071
    1C        C  102   2.988   2.593   2.189
    1C        C  103   2.877   2.684   2.191
    1C        C  104   3.059   2.571   2.310
    1C        C  105   3.003   2.616   2.432
    1C        C  106   3.202   2.531   2.551
    1C        C  107   3.074   2.592   2.552
    1C        C  108   3.273   2.520   2.672
    1C        C  109   3.207   2.543   2.795
    1C        C  110   3.412   2.496   2.914
    1C        C  111   3.273   2.519   2.917
    1C        C  112   3.484   2.490   3.036
    1C        C  113   3.416   2.500   3.159
    1C        C  114   3.627   2.493   3.281
    1C        C  115   3.486   2.495   3.282
    1C        C  116   3.697   2.502   3.403
    1C        C  117   3.627   2.498   3.526
    1C        C  118   3.835   2.535   3.645
    1C        C  119   3.697   2.504   3.648
    1C        C  120   3.899   2.566   3.767
    1C        C  121   3.835   2.547   3.891
    1C        C  122   4.030   2.630   4.011
    1C        C  123   3.904   2.567   4.013
    1C        C  124   4.091   2.666   4.133
    1C        C  125   4.028   2.634   4.256
    1C        C  126   4.193   2.762   4.377
    1C        C  127   4.087   2.669   4.379
    1C        C  128   4.237   2.820   4.499
    1C        C  129   4.191   2.768   4.621
    1C        C  130   4.321   2.938   4.741
    1C        C  131   4.239   2.822   4.743
    1C        C  132   4.352   3.007   4.861
    1C        C  133   4.284   2.963   4.975
    1C        C  134   3.174   2.472   2.081
    1C        C  135   3.040   2.513   2.082
    1C        C  136   3.258   2.481   2.193
    1C        C  137   3.190   2.516   2.311
    1C        C  138   3.406   2.480   2.428
    1C        C  139   3.266   2.499   2.429
    1C        C  140   3.480   2.480   2.548
    1C        C  141   3.411   2.491   2.671
    1C        C  142   3.624   2.491   2.790
    1C        C  143   3.483   2.481   2.793
    1C        C  144   3.695   2.494   2.912
    1C        C  145   3.626   2.487   3.035
    1C        C  146   3.831   2.534   3.155
    1C        C  147   3.695   2.495   3.157
    1C        C  148   3.899   2.555   3.277
    1C        C  149   3.836   2.531   3.401
    1C        C  150   4.026   2.623   3.521
    1C        C  151   3.904   2.552   3.523
    1C        C  152   4.080   2.671   3.643
    1C        C  153   4.025   2.631   3.767
    1C        C  154   4.191   2.765   3.890
    1C        C  155   4.086   2.671   3.888
    1C        C  156   4.240   2.818   4.012
    1C        C  157   4.193   2.764   4.134
    1C        C  158   4.331   2.924   4.254
    1C        C  159   4.246   2.812   4.256
    1C        C  160   4.371   2.986   4.375
    1C        C  161   4.327   2.929   4.496
    1C        C  162   4.430   3.117   4.615
    1C        C  163   4.361   2.994   4.617
    1C        C  164   4.462   3.183   4.736
    1C        C  165   4.431   3.124   4.860
    1C        C  166   4.518   3.321   4.973
    1C        C  167   4.478   3.188   4.975
    1C        C  168   3.473   2.428   2.075
    1C        C  169   3.397   2.454   2.190
    1C        C  170   3.618   2.467   2.306
    1C        C  171   3.476   2.462   2.306
    1C        C  172   3.693   2.486   2.424
    1C        C  173   3.621   2.481   2.545
    1C        C  174   3.828   2.535   2.663
    1C        C  175   3.691   2.501   2.666
    1C        C  176   3.892   2.560   2.787
    1C        C  177   3.830   2.534   2.911
    1C        C  178   4.026   2.619   3.032
    1C        C  179   3.898   2.559   3.033
    1C        C  180   4.083   2.656   3.156
    1C        C  181   4.025   2.618   3.279
    1C        C  182   4.195   2.750   3.397
    1C        C  183   4.089   2.656   3.399
    1C        C  184   4.242   2.805   3.519
    1C        C  185   4.192   2.757   3.642
    1C        C  186   4.332   2.915   3.763
    1C        C  187   4.241   2.808   3.765
    1C        C  188   4.372   2.975   3.885
    1C        C  189   4.334   2.923   4.010
    1C        C  190   4.440   3.107   4.128
    1C        C  191   4.375   2.981   4.132
    1C        C  192   4.460   3.176   4.250
    1C        C  193   4.435   3.112   4.373
    1C        C  194   4.504   3.315   4.491
    1C        C  195   4.466   3.179   4.494
    1C        C  196   4.517   3.387   4.612
    1C        C  197   4.504   3.319   4.735
    1C        C  198   4.551   3.535   4.850
    1C        C  199   4.529   3.394   4.853
    1C        C  200   4.576   3.618   4.964
    1C        C  201   3.612   2.416   2.074
    1C        C  202   3.827   2.507   2.178
    1C        C  203   3.692   2.460   2.185
    1C        C  204   3.895   2.540   2.298
    1C        C  205   3.830   2.521   2.422
    1C        C  206   4.027   2.611   2.541
    1C        C  207   3.899   2.550   2.542
    1C        C  208   4.083   2.654   2.663
    1C        C  209   4.018   2.624   2.785
    1C        C  210   4.190   2.748   2.907
    1C        C  211   4.079   2.661   2.908
    1C        C  212   4.242   2.795   3.030
    1C        C  213   4.193   2.744   3.152
    1C        C  214   4.325   2.913   3.272
    1C        C  215   4.243   2.798   3.273
    1C        C  216   4.365   2.972   3.393
    1C        C  217   4.326   2.919   3.518
    1C        C  218   4.428   3.104   3.639
    1C        C  219   4.366   2.977   3.641
    1C        C  220   4.455   3.170   3.761
    1C        C  221   4.432   3.103   3.883
    1C        C  222   4.497   3.308   4.004
    1C        C  223   4.461   3.171   4.004
    1C        C  224   4.516   3.379   4.125
    1C        C  225   4.504   3.310   4.248
    1C        C  226   4.525   3.524   4.365
    1C        C  227   4.519   3.383   4.368
    1C        C  228   4.519   3.598   4.485
    1C        C  229   4.522   3.528   4.607
    1C        C  230   4.500   3.740   4.726
    1C        C  231   4.540   3.603   4.725
    1C        C  232   4.496   3.820   4.842
    1C        C  233   4.543   3.754   4.957
    1C        C  234   4.018   2.606   2.059
    1C        C  235   3.895   2.542   2.060
    1C        C  236   4.084   2.646   2.176
    1C        C  237   4.020   2.609   2.296
    1C        C  238   4.195   2.735   2.421
    1C        C  239   4.082   2.649   2.417
    1C        C  240   4.251   2.785   2.540
    1C        C  241   4.192   2.744   2.662
    1C        C  242   4.330   2.905   2.787
    1C        C  243   4.241   2.796   2.784
    1C        C  244   4.374   2.962   2.908
    1C        C  245   4.333   2.903   3.030
    1C        C  246   4.428   3.098   3.148
    1C        C  247   4.367   2.970   3.149
    1C        C  248   4.454   3.161   3.271
    1C        C  249   4.429   3.098   3.395
    1C        C  250   4.487   3.305   3.511
    1C        C  251   4.453   3.168   3.516
    1C        C  252   4.504   3.371   3.635
    1C        C  253   4.494   3.306   3.760
    1C        C  254   4.519   3.518   3.877
    1C        C  255   4.507   3.377   3.881
    1C        C  256   4.516   3.589   3.999
    1C        C  257   4.516   3.520   4.122
    1C        C  258   4.498   3.733   4.241
    1C        C  259   4.522   3.594   4.243
    1C        C  260   4.476   3.806   4.360
    1C        C  261   4.493   3.737   4.482
    1C        C  262   4.427   3.939   4.603
    1C        C  263   4.477   3.807   4.604
    1C        C  264   4.399   4.010   4.722
    1C        C  265   4.435   3.946   4.843
    1C        C  266   4.325   4.133   4.961
    1C        C  267   4.392   4.011   4.959
    1C        C  268   4.266   2.772   2.064
    1C        C  269   4.199   2.728   2.179
    1C        C  270   4.344   2.888   2.298
    1C        C  271   4.251   2.780   2.299
    1C        C  272   4.379   2.951   2.419
    1C        C  273   4.341   2.894   2.543
    1C        C  274   4.444   3.082   2.660
    1C        C  275   4.377   2.957   2.664
    1C        C  276   4.466   3.154   2.780
    1C        C  277   4.435   3.089   2.902
    1C        C  278   4.499   3.293   3.024
    1C        C  279   4.459   3.157   3.023
    1C        C  280   4.509   3.367   3.145
    1C        C  281   4.496   3.296   3.267
    1C        C  282   4.512   3.511   3.390
    1C        C  283   4.504   3.370   3.387
    1C        C  284   4.513   3.581   3.512
    1C        C  285   4.510   3.512   3.636
    1C        C  286   4.492   3.728   3.754
    1C        C  287   4.508   3.588   3.755
    1C        C  288   4.476   3.797   3.876
    1C        C  289   4.498   3.729   3.999
    1C        C  290   4.429   3.934   4.118
    1C        C  291   4.482   3.802   4.119
    1C        C  292   4.393   4.000   4.237
    1C        C  293   4.426   3.938   4.359
    1C        C  294   4.332   4.129   4.477
    1C        C  295   4.399   4.005   4.481
    1C        C  296   4.287   4.186   4.598
    1C        C  297   4.324   4.131   4.722
    1C        C  298   4.201   4.312   4.838
    1C        C  299   4.280   4.193   4.842
    1C        C  300   4.168   4.399   4.947
    1C        C  301   4.345   2.886   2.062
    1C        C  302   4.466   3.070   2.179
    1C        C  303   4.391   2.948   2.178
    1C        C  304   4.474   3.145   2.299
    1C        C  305   4.438   3.079   2.420
    1C        C  306   4.503   3.286   2.537
    1C        C  307   4.470   3.148   2.539
    1C        C  308   4.508   3.360   2.657
    1C        C  309   4.495   3.292   2.780
    1C        C  310   4.517   3.504   2.900
    1C        C  311   4.508   3.363   2.902
    1C        C  312   4.517   3.574   3.022
    1C        C  313   4.520   3.507   3.146
    1C        C  314   4.493   3.720   3.263
    1C        C  315   4.512   3.580   3.267
    1C        C  316   4.480   3.790   3.385
    1C        C  317   4.493   3.721   3.508
    1C        C  318   4.435   3.927   3.629
    1C        C  319   4.481   3.794   3.629
    1C        C  320   4.396   3.990   3.749
    1C        C  321   4.424   3.928   3.873
    1C        C  322   4.327   4.116   3.991
    1C        C  323   4.402   3.996   3.994
    1C        C  324   4.281   4.175   4.111
    1C        C  325   4.325   4.124   4.235
    1C        C  326   4.186   4.286   4.354
    1C        C  327   4.286   4.187   4.356
    1C        C  328   4.134   4.335   4.475
    1C        C  329   4.191   4.290   4.597
    1C        C  330   4.028   4.435   4.713
    1C        C  331   4.141   4.350   4.714
    1C        C  332   3.969   4.492   4.828
    1C        C  333   4.049   4.472   4.942
    1C        C  334   4.562   3.265   2.066
    1C        C  335   4.535   3.127   2.066
    1C        C  336   4.541   3.350   2.175
    1C        C  337   4.510   3.282   2.295
    1C        C  338   4.527   3.497   2.411
    1C        C  339   4.518   3.356   2.415
    1C        C  340   4.527   3.570   2.532
    1C        C  341   4.520   3.501   2.655
    1C        C  342   4.496   3.713   2.774
    1C        C  343   4.517   3.573   2.776
    1C        C  344   4.482   3.783   2.896
    1C        C  345   4.496   3.714   3.018
    1C        C  346   4.430   3.919   3.139
    1C        C  347   4.471   3.784   3.139
    1C        C  348   4.402   3.985   3.261
    1C        C  349   4.432   3.922   3.384
    1C        C  350   4.323   4.105   3.504
    1C        C  351   4.405   3.989   3.506
    1C        C  352   4.279   4.165   3.624
    1C        C  353   4.323   4.112   3.747
    1C        C  354   4.179   4.266   3.868
    1C        C  355   4.282   4.169   3.869
    1C        C  356   4.123   4.315   3.988
    1C        C  357   4.177   4.271   4.110
    1C        C  358   4.009   4.401   4.231
    1C        C  359   4.129   4.326   4.231
    1C        C  360   3.950   4.443   4.352
    1C        C  361   4.019   4.417   4.473
    1C        C  362   3.827   4.513   4.592
    1C        C  363   3.958   4.459   4.593
    1C        C  364   3.761   4.545   4.713
    1C        C  365   3.837   4.541   4.832
    1C        C  366   3.629   4.595   4.954
    1C        C  367   3.767   4.579   4.947
    1C        C  368   4.505   3.566   2.056
    1C        C  369   4.532   3.491   2.171
    1C        C  370   4.508   3.708   2.290
    1C        C  371   4.521   3.567   2.289
    1C        C  372   4.493   3.781   2.410
    1C        C  373   4.509   3.710   2.532
    1C        C  374   4.433   3.913   2.650
    1C        C  375   4.486   3.782   2.652
    1C        C  376   4.406   3.981   2.770
    1C        C  377   4.435   3.917   2.893
    1C        C  378   4.327   4.099   3.013
    1C        C  379   4.406   3.982   3.015
    1C        C  380   4.279   4.151   3.135
    1C        C  381   4.323   4.102   3.259
    1C        C  382   4.178   4.258   3.378
    1C        C  383   4.278   4.158   3.381
    1C        C  384   4.123   4.305   3.499
    1C        C  385   4.178   4.264   3.622
    1C        C  386   4.004   4.383   3.741
    1C        C  387   4.125   4.310   3.745
    1C        C  388   3.942   4.421   3.862
    1C        C  389   4.005   4.394   3.985
    1C        C  390   3.815   4.484   4.108
    1C        C  391   3.947   4.432   4.108
    1C        C  392   3.750   4.515   4.230
    1C        C  393   3.822   4.503   4.350
    1C        C  394   3.616   4.551   4.474
    1C        C  395   3.756   4.532   4.472
    1C        C  396   3.545   4.564   4.596
    1C        C  397   3.621   4.564   4.715
    1C        C  398   3.414   4.549   4.838
    1C        C  399   3.553   4.573   4.838
    1C        C  400   3.344   4.511   4.954
    1C        C  401   4.511   3.705   2.051
    1C        C  402   4.456   3.914   2.169
    1C        C  403   4.499   3.780   2.169
    1C        C  404   4.413   3.978   2.288
    1C        C  405   4.445   3.914   2.409
    1C        C  406   4.334   4.101   2.527
    1C        C  407   4.403   3.977   2.528
    1C        C  408   4.283   4.155   2.647
    1C        C  409   4.326   4.097   2.768
    1C        C  410   4.178   4.250   2.890
    1C        C  411   4.279   4.151   2.890
    1C        C  412   4.126   4.298   3.012
    1C        C  413   4.181   4.254   3.135
    1C        C  414   4.001   4.370   3.252
    1C        C  415   4.123   4.301   3.255
    1C        C  416   3.941   4.410   3.374
    1C        C  417   4.005   4.382   3.497
    1C        C  418   3.813   4.474   3.617
    1C        C  419   3.942   4.418   3.619
    1C        C  420   3.748   4.501   3.740
    1C        C  421   3.813   4.480   3.863
    1C        C  422   3.610   4.534   3.987
    1C        C  423   3.749   4.507   3.986
    1C        C  424   3.540   4.539   4.110
    1C        C  425   3.612   4.544   4.231
    1C        C  426   3.401   4.553   4.358
    1C        C  427   3.542   4.551   4.354
    1C        C  428   3.329   4.552   4.480
    1C        C  429   3.404   4.558   4.600
    1C        C  430   3.194   4.521   4.724
    1C        C  431   3.334   4.544   4.722
    1C        C  432   3.122   4.496   4.844
    1C        C  433   3.206   4.493   4.956
    1C        C  434   4.385   4.116   2.051
    1C        C  435   4.451   3.993   2.053
    1C        C  436   4.309   4.164   2.163
    1C        C  437   4.340   4.100   2.286
    1C        C  438   4.187   4.254   2.404
    1C        C  439   4.290   4.157   2.405
    1C        C  440   4.124   4.296   2.523
    1C        C  441   4.175   4.246   2.645
    1C        C  442   4.002   4.368   2.768
    1C        C  443   4.121   4.291   2.768
    1C        C  444   3.940   4.405   2.889
    1C        C  445   4.003   4.367   3.010
    1C        C  446   3.809   4.462   3.131
    1C        C  447   3.939   4.406   3.130
    1C        C  448   3.744   4.490   3.253
    1C        C  449   3.813   4.468   3.374
    1C        C  450   3.608   4.528   3.498
    1C        C  451   3.746   4.497   3.495
    1C        C  452   3.540   4.542   3.621
    1C        C  453   3.610   4.532   3.743
    1C        C  454   3.398   4.538   3.865
    1C        C  455   3.539   4.540   3.865
    1C        C  456   3.330   4.534   3.989
    1C        C  457   3.398   4.539   4.112
    1C        C  458   3.194   4.507   4.237
    1C        C  459   3.332   4.536   4.236
    1C        C  460   3.127   4.485   4.360
    1C        C  461   3.194   4.512   4.482
    1C        C  462   2.999   4.431   4.605
    1C        C  463   3.125   4.493   4.604
    1C        C  464   2.929   4.401   4.723
    1C        C  465   2.989   4.442   4.845
    1C        C  466   2.803   4.336   4.962
    1C        C  467   2.910   4.426   4.963
    1C        C  468   4.129   4.288   2.042
    1C        C  469   4.192   4.246   2.160
    1C        C  470   4.009   4.365   2.280
    1C        C  471   4.133   4.296   2.280
    1C        C  472   3.944   4.403   2.400
    1C        C  473   4.005   4.371   2.523
    1C        C  474   3.813   4.460   2.645
    1C        C  475   3.941   4.400   2.646
    1C        C  476   3.746   4.489   2.766
    1C        C  477   3.813   4.467   2.888
    1C        C  478   3.605   4.519   3.008
    1C        C  479   3.744   4.491   3.009
    1C        C  480   3.537   4.529   3.131
    1C        C  481   3.605   4.518   3.254
    1C        C  482   3.395   4.535   3.378
    1C        C  483   3.536   4.532   3.377
    1C        C  484   3.325   4.536   3.501
    1C        C  485   3.398   4.547   3.622
    1C        C  486   3.191   4.496   3.748
    1C        C  487   3.327   4.532   3.743
    1C        C  488   3.125   4.477   3.871
    1C        C  489   3.192   4.501   3.993
    1C        C  490   3.002   4.414   4.116
    1C        C  491   3.126   4.480   4.116
    1C        C  492   2.942   4.382   4.240
    1C        C  493   3.002   4.421   4.362
    1C        C  494   2.826   4.303   4.483
    1C        C  495   2.939   4.388   4.484
    1C        C  496   2.771   4.257   4.605
    1C        C  497   2.815   4.315   4.726
    1C        C  498   2.663   4.166   4.846
    1C        C  499   2.752   4.276   4.846
    1C        C  500   2.595   4.119   4.958
    1C        C  501   4.008   4.356   2.044
    1C        C  502   3.814   4.457   2.159
    1C        C  503   3.944   4.400   2.160
    1C        C  504   3.745   4.480   2.280
    1C        C  505   3.813   4.457   2.401
    1C        C  506   3.607   4.511   2.521
    1C        C  507   3.745   4.480   2.522
    1C        C  508   3.535   4.521   2.642
    1C        C  509   3.607   4.513   2.764
    1C        C  510   3.394   4.528   2.888
    1C        C  511   3.535   4.525   2.885
    1C        C  512   3.323   4.520   3.011
    1C        C  513   3.396   4.531   3.132
    1C        C  514   3.189   4.493   3.257
    1C        C  515   3.326   4.528   3.255
    1C        C  516   3.122   4.469   3.380
    1C        C  517   3.188   4.501   3.500
    1C        C  518   2.997   4.417   3.627
    1C        C  519   3.125   4.477   3.624
    1C        C  520   2.938   4.380   3.749
    1C        C  521   2.998   4.415   3.872
    1C        C  522   2.831   4.286   3.996
    1C        C  523   2.938   4.378   3.995
    1C        C  524   2.780   4.242   4.120
    1C        C  525   2.829   4.296   4.241
    1C        C  526   2.692   4.136   4.364
    1C        C  527   2.776   4.249   4.363
    1C        C  528   2.654   4.076   4.486
    1C        C  529   2.684   4.146   4.606
    1C        C  530   2.585   3.960   4.730
    1C        C  531   2.639   4.092   4.728
    1C        C  532   2.545   3.903   4.854
    1C        C  533   2.534   3.993   4.964
    1C        C  534   3.619   4.555   2.042
    1C        C  535   3.752   4.512   2.046
    1C        C  536   3.537   4.533   2.157
    1C        C  537   3.606   4.509   2.279
    1C        C  538   3.393   4.514   2.402
    1C        C  539   3.535   4.518   2.400
    1C        C  540   3.322   4.508   2.524
    1C        C  541   3.394   4.518   2.645
    1C        C  542   3.185   4.484   2.765
    1C        C  543   3.323   4.513   2.767
    1C        C  544   3.119   4.467   2.890
    1C        C  545   3.186   4.488   3.013
    1C        C  546   2.994   4.404   3.134
    1C        C  547   3.122   4.465   3.136
    1C        C  548   2.933   4.374   3.258
    1C        C  549   2.995   4.409   3.380
    1C        C  550   2.830   4.283   3.505
    1C        C  551   2.939   4.374   3.505
    1C        C  552   2.783   4.233   3.628
    1C        C  553   2.833   4.286   3.750
    1C        C  554   2.698   4.125   3.873
    1C        C  555   2.779   4.241   3.872
    1C        C  556   2.664   4.063   3.996
    1C        C  557   2.698   4.127   4.117
    1C        C  558   2.603   3.943   4.246
    1C        C  559   2.662   4.071   4.242
    1C        C  560   2.575   3.877   4.368
    1C        C  561   2.595   3.948   4.489
    1C        C  562   2.532   3.748   4.615
    1C        C  563   2.569   3.884   4.612
    1C        C  564   2.514   3.682   4.739
    1C        C  565   2.520   3.762   4.856
    1C        C  566   2.536   3.547   4.980
    1C        C  567   2.523   3.686   4.974
    1C        C  568   3.330   4.475   2.040
    1C        C  569   3.396   4.509   2.159
    1C        C  570   3.186   4.472   2.280
    1C        C  571   3.323   4.511   2.280
    1C        C  572   3.115   4.459   2.402
    1C        C  573   3.183   4.482   2.524
    1C        C  574   2.988   4.396   2.647
    1C        C  575   3.114   4.461   2.645
    1C        C  576   2.932   4.361   2.772
    1C        C  577   2.996   4.398   2.892
    1C        C  578   2.822   4.277   3.018
    1C        C  579   2.933   4.364   3.014
    1C        C  580   2.771   4.228   3.141
    1C        C  581   2.827   4.280   3.260
    1C        C  582   2.700   4.114   3.385
    1C        C  583   2.783   4.228   3.384
    1C        C  584   2.666   4.058   3.510
    1C        C  585   2.697   4.121   3.633
    1C        C  586   2.591   3.937   3.757
    1C        C  587   2.655   4.062   3.754
    1C        C  588   2.570   3.870   3.880
    1C        C  589   2.602   3.936   4.000
    1C        C  590   2.537   3.740   4.127
    1C        C  591   2.572   3.877   4.125
    1C        C  592   2.516   3.673   4.250
    1C        C  593   2.527   3.744   4.371
    1C        C  594   2.505   3.536   4.497
    1C        C  595   2.514   3.677   4.494
    1C        C  596   2.520   3.467   4.620
    1C        C  597   2.518   3.540   4.741
    1C        C  598   2.535   3.329   4.864
    1C        C  599   2.526   3.470   4.863
    1C        C  600   2.532   3.249   4.978
    1C        C  601   3.197   4.436   2.044
    1C        C  602   2.984   4.389   2.158
    1C        C  603   3.118   4.438   2.160
    1C        C  604   2.925   4.357   2.283
    1C        C  605   2.987   4.398   2.403
    1C        C  606   2.816   4.273   2.529
    1C        C  607   2.930   4.356   2.525
    1C        C  608   2.769   4.224   2.653
    1C        C  609   2.822   4.272   2.774
    1C        C  610   2.687   4.111   2.894
    1C        C  611   2.772   4.223   2.897
    1C        C  612   2.652   4.053   3.018
    1C        C  613   2.687   4.115   3.140
    1C        C  614   2.595   3.927   3.270
    1C        C  615   2.655   4.055   3.264
    1C        C  616   2.572   3.863   3.394
    1C        C  617   2.603   3.932   3.514
    1C        C  618   2.530   3.733   3.637
    1C        C  619   2.567   3.869   3.635
    1C        C  620   2.519   3.664   3.760
    1C        C  621   2.534   3.734   3.882
    1C        C  622   2.511   3.526   4.007
    1C        C  623   2.527   3.667   4.007
    1C        C  624   2.517   3.459   4.131
    1C        C  625   2.509   3.532   4.252
    1C        C  626   2.539   3.325   4.380
    1C        C  627   2.511   3.464   4.376
    1C        C  628   2.554   3.255   4.501
    1C        C  629   2.544   3.328   4.622
    1C        C  630   2.595   3.121   4.745
    1C        C  631   2.553   3.257   4.744
    1C        C  632   2.614   3.051   4.867
    1C        C  633   2.557   3.111   4.983
    1C        C  634   2.781   4.307   2.056
    1C        C  635   2.893   4.392   2.047
    1C        C  636   2.748   4.232   2.169
    1C        C  637   2.807   4.278   2.289
    1C        C  638   2.678   4.108   2.407
    1C        C  639   2.757   4.225   2.410
    1C        C  640   2.642   4.050   2.531
    1C        C  641   2.686   4.110   2.651
    1C        C  642   2.588   3.921   2.779
    1C        C  643   2.646   4.050   2.773
    1C        C  644   2.561   3.856   2.901
    1C        C  645   2.590   3.926   3.020
    1C        C  646   2.534   3.729   3.150
    1C        C  647   2.569   3.866   3.146
    1C        C  648   2.517   3.659   3.272
    1C        C  649   2.528   3.729   3.394
    1C        C  650   2.511   3.518   3.518
    1C        C  651   2.517   3.660   3.517
    1C        C  652   2.515   3.450   3.642
    1C        C  653   2.514   3.523   3.763
    1C        C  654   2.531   3.315   3.891
    1C        C  655   2.509   3.454   3.886
    1C        C  656   2.553   3.250   4.015
    1C        C  657   2.542   3.320   4.137
    1C        C  658   2.612   3.122   4.260
    1C        C  659   2.560   3.253   4.260
    1C        C  660   2.634   3.055   4.382
    1C        C  661   2.601   3.121   4.502
    1C        C  662   2.711   2.940   4.625
    1C        C  663   2.634   3.058   4.624
    1C        C  664   2.750   2.878   4.745
    1C        C  665   2.694   2.932   4.864
    1C        C  666   2.743   2.877   4.983
    1C        C  667   2.678   4.027   2.052
    1C        C  668   2.682   4.107   2.167
    1C        C  669   2.584   3.914   2.293
    1C        C  670   2.639   4.046   2.287
    1C        C  671   2.556   3.850   2.415
    1C        C  672   2.580   3.923   2.534
    1C        C  673   2.520   3.721   2.659
    1C        C  674   2.557   3.857   2.657
    1C        C  675   2.508   3.652   2.782
    1C        C  676   2.518   3.721   2.905
    1C        C  677   2.507   3.515   3.031
    1C        C  678   2.517   3.656   3.031
    1C        C  679   2.511   3.445   3.154
    1C        C  680   2.513   3.518   3.275
    1C        C  681   2.535   3.307   3.402
    1C        C  682   2.511   3.446   3.397
    1C        C  683   2.557   3.241   3.525
    1C        C  684   2.536   3.311   3.647
    1C        C  685   2.609   3.115   3.770
    1C        C  686   2.554   3.245   3.771
    1C        C  687   2.638   3.054   3.894
    1C        C  688   2.607   3.119   4.016
    1C        C  689   2.719   2.940   4.141
    1C        C  690   2.639   3.056   4.138
    1C        C  691   2.757   2.879   4.262
    1C        C  692   2.713   2.938   4.383
    1C        C  693   2.751   2.877   4.505
    1C        C  694   2.625   3.897   2.058
    1C        C  695   2.528   3.705   2.175
    1C        C  696   2.576   3.837   2.175
    1C        C  697   2.505   3.639   2.298
    1C        C  698   2.519   3.714   2.416
    1C        C  699   2.496   3.506   2.543
    1C        C  700   2.505   3.646   2.540
    1C        C  701   2.507   3.439   2.667
    1C        C  702   2.503   3.511   2.789
    1C        C  703   2.530   3.301   2.914
    1C        C  704   2.509   3.440   2.911
    1C        C  705   2.547   3.232   3.037
    1C        C  706   2.537   3.306   3.157
    1C        C  707   2.596   3.104   3.280
    1C        C  708   2.554   3.239   3.280
    1C        C  709   2.630   3.043   3.403
    1C        C  710   2.609   3.110   3.526
    1C        C  711   2.714   2.928   3.650
    1C        C  712   2.640   3.048   3.649
    1C        C  713   2.756   2.876   3.775
    1C        C  714   2.716   2.936   3.896
    1C        C  715   2.759   2.880   4.019
    1C        C  716   2.450   3.496   2.061
    1C        C  717   2.490   3.630   2.062
    1C        C  718   2.469   3.422   2.183
    1C        C  719   2.487   3.498   2.302
    1C        C  720   2.521   3.291   2.428
    1C        C  721   2.490   3.428   2.425
    1C        C  722   2.537   3.223   2.551
    1C        C  723   2.525   3.299   2.669
    1C        C  724   2.601   3.101   2.793
    1C        C  725   2.548   3.232   2.792
    1C        C  726   2.627   3.036   2.915
    1C        C  727   2.594   3.099   3.037
    1C        C  728   2.711   2.925   3.161
    1C        C  729   2.622   3.035   3.160
    1C        C  730   2.752   2.870   3.284
    1C        C  731   2.706   2.924   3.406
    1C        C  732   2.755   2.871   3.528
    1C        C  733   2.489   3.197   2.074
    1C        C  734   2.493   3.281   2.185
    1C        C  735   2.585   3.086   2.306
    1C        C  736   2.530   3.218   2.307
    1C        C  737   2.614   3.022   2.428
    1C        C  738   2.588   3.091   2.548
    1C        C  739   2.703   2.914   2.671
    1C        C  740   2.626   3.033   2.671
    1C        C  741   2.744   2.860   2.794
    1C        C  742   2.705   2.918   2.917
    1C        C  743   2.751   2.865   3.040
    1C        C  744   2.542   3.068   2.076
    1C        C  745   2.689   2.899   2.189
    1C        C  746   2.615   3.019   2.185
    1C        C  747   2.728   2.840   2.311
    1C        C  748   2.690   2.903   2.432
    1C        C  749   2.739   2.847   2.552
    1C        C  750   2.734   2.839   2.070
    1C        C  751   3.639   2.299   1.989
    1C        O  752   3.708   2.197   2.017
    1C        O  753   3.636   2.320   1.850
    1C        C  754   4.619   3.048   1.974
    1C        O  755   4.615   3.050   1.848
    1C        O  756   4.746   3.005   2.014
    1C        C  757   4.458   4.197   1.951
    1C        O  758   4.530   4.292   1.992
    1C        O  759   4.384   4.253   1.846
    1C        C  760   3.601   4.685   1.973
    1C        O  761   3.575   4.792   2.034
    1C        O  762   3.584   4.692   1.834
    1C        C  763   2.917   4.467   1.922
    1C        O  764   2.919   4.407   1.811
    1C        O  765   2.857   4.591   1.894
    1C        C  766   2.331   3.465   1.979
    1C        O  767   2.328   3.486   1.855
    1C        O  768   2.202   3.489   2.029
    1C        C  769   4.683   3.592   5.063
    1C        O  770   4.674   3.639   5.180
    1C        O  771   4.811   3.560   5.017
    1C        C  772   4.278   4.465   5.021
    1C        O  773   4.331   4.423   5.128
    1C        O  774   4.368   4.546   4.950
    1C        C  775   4.135   2.531   5.083
    1C        O  776   4.209   2.436   5.048
    1C        O  777   4.115   2.562   5.219
    1C        C  778   2.895   4.535   5.063
    1C        O  779   2.861   4.654   5.040
    1C        O  780   2.877   4.521   5.201
    1C        C  781   2.449   3.042   5.058
    1C        O  782   2.341   2.993   5.015
    1C        O  783   2.454   3.016   5.195
    1C        C  784   2.407   3.993   5.041
    1C        O  785   2.303   3.941   4.993
    1C        O  786   2.399   3.983   5.181
    1C        C  787   2.956   2.414   2.011
    1C        O  788   2.903   2.438   1.899
    1C        O  789   2.907   2.291   2.053
    1C        C  790   3.168   2.363   5.049
    1C        O  791   3.178   2.252   4.989
    1C        O  792   3.216   2.364   5.181
    1C        H  793   4.241   3.042   5.034
    1C        H  794   4.191   2.809   5.080
    1C        H  795   4.515   3.133   5.059
    1C        H  796   4.524   3.372   5.067
    1C        H  797   4.594   3.821   5.023
    1C        H  798   4.448   3.993   5.049
    1C        H  799   4.272   4.162   5.049
    1C        H  800   4.033   4.539   5.024
    1C        H  801   3.815   4.653   5.008
    1C        H  802   3.588   4.653   5.034
    1C        H  803   3.386   4.537   5.049
    1C        H  804   3.180   4.419   5.028
    1C        H  805   3.891   2.469   5.066
    1C        H  806   3.672   2.522   5.076
    1C        H  807   2.987   2.536   5.048
    1C        H  808   3.445   2.434   5.070
    1C        H  809   2.875   2.747   5.080
    1C        H  810   2.678   2.881   5.068
    1C        H  811   2.545   3.302   5.070
    1C        H  812   2.598   3.511   5.058
    1C        H  813   2.518   3.733   5.070
    1C        H  814   2.593   4.181   5.045
    1C        H  815   2.765   4.306   5.057
    1C        H  816   2.668   2.833   1.986
    1C        H  817   2.807   2.665   1.990
    1C        H  818   3.211   2.438   1.987
    1C        H  819   3.426   2.444   1.980
    1C        H  820   3.874   2.490   1.969
    1C        H  821   4.073   2.598   1.967
    1C        H  822   4.274   2.706   1.980
    1C        H  823   4.353   2.938   1.969
    1C        H  824   4.621   3.302   1.985
    1C        H  825   4.437   3.523   1.985
    1C        H  826   4.539   3.744   1.955
    1C        H  827   3.797   4.507   1.949
    1C        H  828   3.947   4.348   1.957
    1C        H  829   4.167   4.256   1.948
    1C        H  830   4.531   3.976   1.984
    1C        H  831   2.606   3.857   1.961
    1C        H  832   2.711   4.073   1.961
    1C        H  833   2.701   4.336   1.991
    1C        H  834   3.362   4.523   1.950
    1C        H  835   3.168   4.360   1.976
    1C        H  836   2.488   2.995   2.019
    1C        H  837   2.412   3.216   2.002
    1C        H  838   2.459   3.680   1.973
    2V3OU   H29  839   2.807   3.551   1.549
    2V3OU   C27  840   2.781   3.505   1.648
    2V3OU   H27  841   2.715   3.570   1.710
    2V3OU   H28  842   2.728   3.407   1.633
    2V3OU   O11  843   2.908   3.476   1.706
    2V3OU   C15  844   2.921   3.398   1.819
    2V3OU   C13  845   3.050   3.378   1.873
    2V3OU   C14  846   3.077   3.273   1.961
    2V3OU   C16  847   2.972   3.188   1.995
    2V3OU    H6  848   2.991   3.104   2.064
    2V3OU   C12  849   3.214   3.234   1.999
    2V3OU    O2  850   3.233   3.122   2.053
    2V3OU   C10  851   3.323   3.307   1.933
    2V3OU    C8  852   3.455   3.269   1.954
    2V3OU   O10  853   3.486   3.149   2.010
    2V3OU   H26  854   3.398   3.110   2.020
    2V3OU    C6  855   3.562   3.351   1.907
    2V3OU    C5  856   3.537   3.472   1.843
    2V3OU    C4  857   3.699   3.293   1.911
    2V3OU    H4  858   3.724   3.225   1.998
    2V3OU    H5  859   3.713   3.229   1.818
    2V3OU    C2  860   3.814   3.394   1.905
    2V3OU    O6  861   3.812   3.480   2.019
    2V3OU   H21  862   3.764   3.560   1.991
    2V3OU    C3  863   3.783   3.493   1.793
    2V3OU    H2  864   3.865   3.569   1.787
    2V3OU    H3  865   3.784   3.437   1.696
    2V3OU   C25  866   3.951   3.327   1.887
    2V3OU    O7  867   3.994   3.294   1.777
    2V3OU   C26  868   4.030   3.297   2.014
    2V3OU   H22  869   4.072   3.385   2.067
    2V3OU   H23  870   4.111   3.224   1.990
    2V3OU    O8  871   3.956   3.207   2.094
    2V3OU   H24  872   3.925   3.267   2.164
    2V3OU    C1  873   3.649   3.564   1.803
    2V3OU    H1  874   3.625   3.618   1.707
    2V3OU    O3  875   3.660   3.655   1.913
    2V3OU   C19  876   3.621   3.790   1.886
    2V3OU    H9  877   3.524   3.799   1.829
    2V3OU    O4  878   3.714   3.844   1.796
    2V3OU   C20  879   3.842   3.870   1.854
    2V3OU   H10  880   3.897   3.772   1.870
    2V3OU   C24  881   3.608   3.858   2.023
    2V3OU   H16  882   3.541   3.793   2.085
    2V3OU   H17  883   3.562   3.959   2.009
    2V3OU   C23  884   3.746   3.877   2.086
    2V3OU   H15  885   3.784   3.772   2.112
    2V3OU    N1  886   3.739   3.957   2.207
    2V3OU   H19  887   3.814   3.926   2.266
    2V3OU   H20  888   3.654   3.933   2.254
    2V3OU   C21  889   3.843   3.947   1.987
    2V3OU   H11  890   3.945   3.931   2.033
    2V3OU    O5  891   3.817   4.087   1.989
    2V3OU   H18  892   3.782   4.097   2.079
    2V3OU   C22  893   3.914   3.949   1.746
    2V3OU   H12  894   3.859   4.045   1.726
    2V3OU   H13  895   3.913   3.891   1.650
    2V3OU   H14  896   4.020   3.970   1.777
    2V3OU   C11  897   3.159   3.473   1.846
    2V3OU    O1  898   3.134   3.584   1.793
    2V3OU    C9  899   3.298   3.427   1.861
    2V3OU    C7  900   3.401   3.507   1.814
    2V3OU    O9  901   3.381   3.614   1.728
    2V3OU   H25  902   3.285   3.629   1.730
    2V3OU   C17  903   2.818   3.312   1.862
    2V3OU    H7  904   2.716   3.338   1.836
    2V3OU   C18  905   2.841   3.207   1.951
    2V3OU    H8  906   2.762   3.143   1.992
    3SOL     OW  907   2.141   4.247   1.352
    3SOL    HW1  908   2.129   4.150   1.373
    3SOL    HW2  909   2.177   4.256   1.259
    4SOL     OW  910   6.136   0.067   1.537
    4SOL    HW1  911   6.225   0.021   1.539
    4SOL    HW2  912   6.071   0.015   1.592
    5SOL     OW  913   4.399   1.203   1.366
    5SOL    HW1  914   4.417   1.241   1.275
    5SOL    HW2  915   4.301   1.200   1.383
    6SOL     OW  916   3.353   2.068   2.081
    6SOL    HW1  917   3.400   2.085   1.994
    6SOL    HW2  918   3.255   2.054   2.063
    7SOL     OW  919   6.009   2.278   2.043
    7SOL    HW1  920   5.964   2.229   2.117
    7SOL    HW2  921   6.105   2.250   2.039
    8SOL     OW  922   2.451   6.466   4.292
    8SOL    HW1  923   2.392   6.541   4.262
    8SOL    HW2  924   2.395   6.385   4.311
    9SOL     OW  925   1.839   5.511   5.751
    9SOL    HW1  926   1.926   5.468   5.727
    9SOL    HW2  927   1.800   5.467   5.832
   10SOL     OW  928   0.450   4.291   6.263
   10SOL    HW1  929   0.525   4.224   6.263
   10SOL    HW2  930   0.487   4.383   6.248
   11SOL     OW  931   3.731   6.709   0.145
   11SOL    HW1  932   3.734   6.613   0.116
   11SOL    HW2  933   3.640   6.746   0.126
   12SOL     OW  934   5.116   5.755   3.214
   12SOL    HW1  935   5.124   5.848   3.178
   12SOL    HW2  936   5.029   5.746   3.263
   13SOL     OW  937   2.799   6.348   4.386
   13SOL    HW1  938   2.715   6.299   4.361
   13SOL    HW2  939   2.859   6.354   4.307
   14SOL     OW  940   3.546   5.770   0.046
   14SOL    HW1  941   3.617   5.743   0.111
   14SOL    HW2  942   3.586   5.828   6.999
   15SOL     OW  943   0.960   6.365   0.160
   15SOL    HW1  944   0.958   6.300   0.236
   15SOL    HW2  945   0.978   6.457   0.195
   16SOL     OW  946   6.441   2.059   6.094
   16SOL    HW1  947   6.449   2.157   6.076
   16SOL    HW2  948   6.433   2.010   6.007
   17SOL     OW  949   5.243   6.506   4.240
   17SOL    HW1  950   5.327   6.543   4.201
   17SOL    HW2  951   5.197   6.577   4.293
   18SOL     OW  952   2.509   2.110   6.070
   18SOL    HW1  953   2.599   2.070   6.090
   18SOL    HW2  954   2.499   2.121   5.971
   19SOL     OW  955   0.013   6.923   3.146
   19SOL    HW1  956   0.091   6.934   3.207
   19SOL    HW2  957   0.022   6.986   3.069
   20SOL     OW  958   3.638   1.298   4.425
   20SOL    HW1  959   3.685   1.377   4.465
   20SOL    HW2  960   3.621   1.230   4.496
   21SOL     OW  961   3.252   1.681   1.968
   21SOL    HW1  962   3.226   1.685   2.065
   21SOL    HW2  963   3.173   1.706   1.912
   22SOL     OW  964   2.025   6.702   6.012
   22SOL    HW1  965   1.937   6.736   6.044
   22SOL    HW2  966   2.012   6.617   5.962
   23SOL     OW  967   4.258   6.480   3.794
   23SOL    HW1  968   4.236   6.549   3.725
   23SOL    HW2  969   4.357   6.463   3.794
   24SOL     OW  970   5.552   1.098   4.207
   24SOL    HW1  971   5.618   1.164   4.172
   24SOL    HW2  972   5.463   1.142   4.217
   25SOL     OW  973   3.029   5.412   0.194
   25SOL    HW1  974   3.000   5.449   0.106
   25SOL    HW2  975   3.129   5.408   0.197
   26SOL     OW  976   6.394   1.354   1.946
   26SOL    HW1  977   6.354   1.329   1.857
   26SOL    HW2  978   6.340   1.312   2.019
   27SOL     OW  979   6.401   0.469   2.477
   27SOL    HW1  980   6.305   0.445   2.490
   27SOL    HW2  981   6.455   0.385   2.467
   28SOL     OW  982   4.227   0.730   5.983
   28SOL    HW1  983   4.183   0.641   5.985
   28SOL    HW2  984   4.321   0.720   5.950
   29SOL     OW  985   5.357   2.469   2.230
   29SOL    HW1  986   5.413   2.420   2.298
   29SOL    HW2  987   5.337   2.407   2.154
   30SOL     OW  988   2.766   0.039   5.494
   30SOL    HW1  989   2.804   0.038   5.587
   30SOL    HW2  990   2.835   0.074   5.430
   31SOL     OW  991   0.790   1.002   5.365
   31SOL    HW1  992   0.882   1.036   5.346
   31SOL    HW2  993   0.796   0.908   5.400
   32SOL     OW  994   0.728   1.970   2.822
   32SOL    HW1  995   0.720   2.008   2.914
   32SOL    HW2  996   0.825   1.957   2.800
   33SOL     OW  997   1.687   2.987   5.887
   33SOL    HW1  998   1.720   2.944   5.803
   33SOL    HW2  999   1.706   3.085   5.883
   34SOL     OW 1000   2.220   0.151   4.816
   34SOL    HW1 1001   2.127   0.166   4.782
   34SOL    HW2 1002   2.285   0.161   4.740
   35SOL     OW 1003   4.119   1.897   6.713
   35SOL    HW1 1004   4.112   1.991   6.678
   35SOL    HW2 1005   4.149   1.836   6.639
   36SOL     OW 1006   1.233   0.438   6.301
   36SOL    HW1 1007   1.150   0.382   6.303
   36SOL    HW2 1008   1.285   0.423   6.384
   37SOL     OW 1009   2.558   6.736   1.174
   37SOL    HW1 1010   2.537   6.741   1.076
   37SOL    HW2 1011   2.474   6.752   1.227
   38SOL     OW 1012   6.981   5.939   2.664
   38SOL    HW1 1013   0.001   5.911   2.578
   38SOL    HW2 1014   6.990   6.037   2.676
   39SOL     OW 1015   6.371   3.859   6.128
   39SOL    HW1 1016   6.363   3.920   6.207
   39SOL    HW2 1017   6.413   3.908   6.052
   40SOL     OW 1018   6.357   1.470   2.783
   40SOL    HW1 1019   6.415   1.552   2.788
   40SOL    HW2 1020   6.388   1.413   2.707
   41SOL     OW 1021   1.694   6.713   3.943
   41SOL    HW1 1022   1.666   6.638   4.002
   41SOL    HW2 1023   1.788   6.740   3.964
   42SOL     OW 1024   3.315   0.001   6.645
   42SOL    HW1 1025   3.237   0.052   6.608
   42SOL    HW2 1026   3.305   6.928   6.621
   43SOL     OW 1027   5.814   6.319   5.710
   43SOL    HW1 1028   5.905   6.358   5.696
   43SOL    HW2 1029   5.745   6.384   5.679
   44SOL     OW 1030   0.208   2.769   6.564
   44SOL    HW1 1031   0.165   2.858   6.547
   44SOL    HW2 1032   0.147   2.697   6.531
   45SOL     OW 1033   2.910   0.518   2.639
   45SOL    HW1 1034   2.835   0.503   2.576
   45SOL    HW2 1035   2.928   0.616   2.647
   46SOL     OW 1036   1.139   3.799   4.529
   46SOL    HW1 1037   1.215   3.799   4.464
   46SOL    HW2 1038   1.144   3.881   4.586
   47SOL     OW 1039   6.245   3.998   3.683
   47SOL    HW1 1040   6.200   4.087   3.696
   47SOL    HW2 1041   6.181   3.925   3.707
   48SOL     OW 1042   0.524   2.514   4.685
   48SOL    HW1 1043   0.591   2.573   4.639
   48SOL    HW2 1044   0.519   2.427   4.636
   49SOL     OW 1045   4.836   4.096   1.025
   49SOL    HW1 1046   4.889   4.129   1.103
   49SOL    HW2 1047   4.740   4.087   1.051
   50SOL     OW 1048   6.758   3.308   4.641
   50SOL    HW1 1049   6.848   3.349   4.655
   50SOL    HW2 1050   6.689   3.362   4.689
   51SOL     OW 1051   3.417   4.861   2.781
   51SOL    HW1 1052   3.463   4.874   2.693
   51SOL    HW2 1053   3.318   4.870   2.769
   52SOL     OW 1054   3.100   1.669   2.823
   52SOL    HW1 1055   3.087   1.570   2.818
   52SOL    HW2 1056   3.011   1.713   2.836
   53SOL     OW 1057   4.464   6.809   3.847
   53SOL    HW1 1058   4.509   6.735   3.898
   53SOL    HW2 1059   4.459   6.784   3.750
   54SOL     OW 1060   3.099   5.091   6.061
   54SOL    HW1 1061   3.042   5.098   5.979
   54SOL    HW2 1062   3.195   5.091   6.035
   55SOL     OW 1063   3.497   0.979   5.799
   55SOL    HW1 1064   3.401   0.951   5.796
   55SOL    HW2 1065   3.554   0.907   5.759
   56SOL     OW 1066   2.026   0.683   2.232
   56SOL    HW1 1067   2.041   0.779   2.210
   56SOL    HW2 1068   2.053   0.666   2.326
   57SOL     OW 1069   5.050   0.505   0.566
   57SOL    HW1 1070   4.953   0.489   0.578
   57SOL    HW2 1071   5.066   0.601   0.544
   58SOL     OW 1072   0.262   6.098   6.972
   58SOL    HW1 1073   0.268   6.152   6.888
   58SOL    HW2 1074   0.216   6.152   0.019
   59SOL     OW 1075   1.644   0.353   5.995
   59SOL    HW1 1076   1.688   0.442   5.998
   59SOL    HW2 1077   1.545   0.364   6.007
   60SOL     OW 1078   4.439   0.169   5.873
   60SOL    HW1 1079   4.408   0.263   5.853
   60SOL    HW2 1080   4.360   0.108   5.874
   61SOL     OW 1081   4.799   0.045   4.010
   61SOL    HW1 1082   4.829   0.000   4.095
   61SOL    HW2 1083   4.702   0.026   3.994
   62SOL     OW 1084   1.062   0.489   3.755
   62SOL    HW1 1085   1.110   0.557   3.701
   62SOL    HW2 1086   0.966   0.514   3.763
   63SOL     OW 1087   6.307   2.096   3.359
   63SOL    HW1 1088   6.256   2.100   3.445
   63SOL    HW2 1089   6.329   2.001   3.338
   64SOL     OW 1090   6.614   3.723   6.223
   64SOL    HW1 1091   6.682   3.789   6.255
   64SOL    HW2 1092   6.542   3.771   6.172
   65SOL     OW 1093   6.903   4.713   5.239
   65SOL    HW1 1094   6.959   4.665   5.306
   65SOL    HW2 1095   6.960   4.743   5.163
   66SOL     OW 1096   3.574   0.783   6.797
   66SOL    HW1 1097   3.486   0.737   6.811
   66SOL    HW2 1098   3.647   0.715   6.796
   67SOL     OW 1099   5.808   6.518   5.255
   67SOL    HW1 1100   5.903   6.522   5.286
   67SOL    HW2 1101   5.806   6.496   5.157
   68SOL     OW 1102   6.208   1.661   6.909
   68SOL    HW1 1103   6.169   1.604   6.982
   68SOL    HW2 1104   6.237   1.602   6.834
   69SOL     OW 1105   1.901   4.333   6.495
   69SOL    HW1 1106   1.981   4.276   6.518
   69SOL    HW2 1107   1.837   4.280   6.439
   70SOL     OW 1108   6.551   5.769   2.808
   70SOL    HW1 1109   6.485   5.722   2.867
   70SOL    HW2 1110   6.513   5.857   2.780
   71SOL     OW 1111   2.947   2.205   3.901
   71SOL    HW1 1112   2.881   2.130   3.904
   71SOL    HW2 1113   2.933   2.265   3.979
   72SOL     OW 1114   3.036   5.827   3.739
   72SOL    HW1 1115   3.082   5.830   3.650
   72SOL    HW2 1116   3.066   5.745   3.789
   73SOL     OW 1117   3.148   2.547   0.115
   73SOL    HW1 1118   3.126   2.565   0.211
   73SOL    HW2 1119   3.179   2.452   0.106
   74SOL     OW 1120   5.252   6.951   0.309
   74SOL    HW1 1121   5.310   6.885   0.356
   74SOL    HW2 1122   5.307   0.005   0.278
   75SOL     OW 1123   3.529   5.353   4.890
   75SOL    HW1 1124   3.597   5.342   4.962
   75SOL    HW2 1125   3.469   5.273   4.890
   76SOL     OW 1126   2.082   2.258   1.111
   76SOL    HW1 1127   2.180   2.277   1.112
   76SOL    HW2 1128   2.037   2.313   1.181
   77SOL     OW 1129   5.438   5.696   5.014
   77SOL    HW1 1130   5.373   5.621   5.003
   77SOL    HW2 1131   5.531   5.660   5.016
   78SOL     OW 1132   6.725   6.664   6.055
   78SOL    HW1 1133   6.791   6.677   5.982
   78SOL    HW2 1134   6.641   6.623   6.018
   79SOL     OW 1135   3.389   0.196   0.660
   79SOL    HW1 1136   3.356   0.107   0.693
   79SOL    HW2 1137   3.317   0.264   0.669
   80SOL     OW 1138   6.353   0.748   5.299
   80SOL    HW1 1139   6.433   0.808   5.299
   80SOL    HW2 1140   6.288   0.780   5.367
   81SOL     OW 1141   2.265   0.825   2.758
   81SOL    HW1 1142   2.190   0.772   2.797
   81SOL    HW2 1143   2.310   0.877   2.831
   82SOL     OW 1144   0.030   4.937   7.003
   82SOL    HW1 1145   0.071   4.962   6.915
   82SOL    HW2 1146   6.966   4.982   7.014
   83SOL     OW 1147   6.895   6.844   0.540
   83SOL    HW1 1148   6.949   6.916   0.585
   83SOL    HW2 1149   6.810   6.830   0.590
   84SOL     OW 1150   5.359   3.541   2.341
   84SOL    HW1 1151   5.437   3.604   2.342
   84SOL    HW2 1152   5.363   3.482   2.422
   85SOL     OW 1153   0.642   1.107   5.099
   85SOL    HW1 1154   0.635   1.119   5.198
   85SOL    HW2 1155   0.556   1.135   5.056
   86SOL     OW 1156   0.215   0.496   5.617
   86SOL    HW1 1157   0.134   0.550   5.592
   86SOL    HW2 1158   0.186   0.404   5.645
   87SOL     OW 1159   4.645   2.695   0.293
   87SOL    HW1 1160   4.611   2.789   0.285
   87SOL    HW2 1161   4.736   2.689   0.253
   88SOL     OW 1162   4.883   1.476   7.008
   88SOL    HW1 1163   4.884   1.493   0.082
   88SOL    HW2 1164   4.863   1.379   6.991
   89SOL     OW 1165   1.728   2.558   6.876
   89SOL    HW1 1166   1.644   2.596   6.915
   89SOL    HW2 1167   1.791   2.632   6.854
   90SOL     OW 1168   5.132   6.684   4.003
   90SOL    HW1 1169   5.119   6.602   4.059
   90SOL    HW2 1170   5.043   6.716   3.971
   91SOL     OW 1171   4.536   4.481   3.720
   91SOL    HW1 1172   4.550   4.403   3.781
   91SOL    HW2 1173   4.555   4.454   3.626
   92SOL     OW 1174   2.881   5.462   0.460
   92SOL    HW1 1175   2.839   5.476   0.371
   92SOL    HW2 1176   2.894   5.364   0.475
   93SOL     OW 1177   2.995   4.259   5.954
   93SOL    HW1 1178   2.939   4.341   5.968
   93SOL    HW2 1179   2.981   4.225   5.861
   94SOL     OW 1180   3.419   5.419   6.757
   94SOL    HW1 1181   3.366   5.348   6.802
   94SOL    HW2 1182   3.372   5.449   6.673
   95SOL     OW 1183   0.517   1.369   3.259
   95SOL    HW1 1184   0.520   1.428   3.340
   95SOL    HW2 1185   0.591   1.395   3.196
   96SOL     OW 1186   2.517   6.963   5.556
   96SOL    HW1 1187   2.613   6.983   5.538
   96SOL    HW2 1188   2.466   0.025   5.564
   97SOL     OW 1189   6.593   4.106   5.056
   97SOL    HW1 1190   6.502   4.099   5.016
   97SOL    HW2 1191   6.616   4.020   5.102
   98SOL     OW 1192   5.775   3.219   6.128
   98SOL    HW1 1193   5.826   3.195   6.210
   98SOL    HW2 1194   5.833   3.272   6.066
   99SOL     OW 1195   4.306   2.873   1.180
   99SOL    HW1 1196   4.289   2.791   1.126
   99SOL    HW2 1197   4.404   2.890   1.185
  100SOL     OW 1198   0.279   6.813   6.866
  100SOL    HW1 1199   0.245   6.907   6.870
  100SOL    HW2 1200   0.377   6.812   6.888
  101SOL     OW 1201   0.694   5.584   3.432
  101SOL    HW1 1202   0.750   5.637   3.370
  101SOL    HW2 1203   0.737   5.581   3.522
  102SOL     OW 1204   4.315   0.572   3.124
  102SOL    HW1 1205   4.250   0.647   3.109
  102SOL    HW2 1206   4.402   0.594   3.080
  103SOL     OW 1207   4.469   1.244   1.850
  103SOL    HW1 1208   4.505   1.298   1.926
  103SOL    HW2 1209   4.386   1.197   1.879
  104SOL     OW 1210   6.380   5.624   2.954
  104SOL    HW1 1211   6.383   5.528   2.925
  104SOL    HW2 1212   6.355   5.630   3.050
  105SOL     OW 1213   6.857   0.827   6.824
  105SOL    HW1 1214   6.869   0.887   6.902
  105SOL    HW2 1215   6.767   0.843   6.783
  106SOL     OW 1216   2.591   6.482   6.422
  106SOL    HW1 1217   2.493   6.492   6.402
  106SOL    HW2 1218   2.610   6.515   6.514
  107SOL     OW 1219   1.717   2.036   1.481
  107SOL    HW1 1220   1.756   2.064   1.569
  107SOL    HW2 1221   1.782   1.978   1.432
  108SOL     OW 1222   4.591   4.008   0.307
  108SOL    HW1 1223   4.660   4.071   0.345
  108SOL    HW2 1224   4.637   3.931   0.264
  109SOL     OW 1225   1.005   0.391   1.529
  109SOL    HW1 1226   1.073   0.321   1.504
  109SOL    HW2 1227   1.040   0.481   1.505
  110SOL     OW 1228   4.037   5.488   5.526
  110SOL    HW1 1229   4.073   5.414   5.583
  110SOL    HW2 1230   4.088   5.572   5.545
  111SOL     OW 1231   3.960   0.588   3.878
  111SOL    HW1 1232   4.000   0.669   3.921
  111SOL    HW2 1233   3.921   0.529   3.949
  112SOL     OW 1234   5.774   5.949   5.605
  112SOL    HW1 1235   5.838   6.015   5.566
  112SOL    HW2 1236   5.820   5.861   5.617
  113SOL     OW 1237   6.202   4.999   3.597
  113SOL    HW1 1238   6.142   4.968   3.671
  113SOL    HW2 1239   6.261   5.072   3.631
  114SOL     OW 1240   0.786   0.136   0.684
  114SOL    HW1 1241   0.876   0.140   0.641
  114SOL    HW2 1242   0.715   0.154   0.616
  115SOL     OW 1243   4.744   1.127   4.040
  115SOL    HW1 1244   4.671   1.179   3.996
  115SOL    HW2 1245   4.705   1.055   4.097
  116SOL     OW 1246   6.295   5.121   2.450
  116SOL    HW1 1247   6.393   5.124   2.465
  116SOL    HW2 1248   6.271   5.173   2.368
  117SOL     OW 1249   0.776   1.071   6.472
  117SOL    HW1 1250   0.757   1.084   6.374
  117SOL    HW2 1251   0.767   1.158   6.519
  118SOL     OW 1252   0.282   1.100   1.508
  118SOL    HW1 1253   0.371   1.054   1.507
  118SOL    HW2 1254   0.288   1.186   1.457
  119SOL     OW 1255   0.162   2.072   6.732
  119SOL    HW1 1256   0.072   2.115   6.717
  119SOL    HW2 1257   0.163   2.028   6.822
  120SOL     OW 1258   6.550   7.018   0.793
  120SOL    HW1 1259   6.484   0.043   0.737
  120SOL    HW2 1260   6.603   6.955   0.736
  121SOL     OW 1261   2.437   3.614   0.065
  121SOL    HW1 1262   2.400   3.667   7.013
  121SOL    HW2 1263   2.388   3.636   0.149
  122SOL     OW 1264   1.413   4.106   5.428
  122SOL    HW1 1265   1.405   4.206   5.432
  122SOL    HW2 1266   1.331   4.064   5.467
  123SOL     OW 1267   0.217   2.114   0.996
  123SOL    HW1 1268   0.142   2.120   0.929
  123SOL    HW2 1269   0.256   2.205   1.010
  124SOL     OW 1270   5.193   3.251   0.885
  124SOL    HW1 1271   5.259   3.216   0.818
  124SOL    HW2 1272   5.101   3.220   0.861
  125SOL     OW 1273   2.168   2.235   2.704
  125SOL    HW1 1274   2.092   2.271   2.759
  125SOL    HW2 1275   2.199   2.148   2.742
  126SOL     OW 1276   3.397   4.436   0.782
  126SOL    HW1 1277   3.384   4.377   0.862
  126SOL    HW2 1278   3.404   4.531   0.812
  127SOL     OW 1279   0.070   4.949   6.034
  127SOL    HW1 1280   0.013   4.988   6.106
  127SOL    HW2 1281   0.011   4.924   5.956
  128SOL     OW 1282   4.754   2.488   1.906
  128SOL    HW1 1283   4.704   2.562   1.951
  128SOL    HW2 1284   4.850   2.512   1.899
  129SOL     OW 1285   3.914   3.354   6.134
  129SOL    HW1 1286   3.869   3.435   6.098
  129SOL    HW2 1287   3.881   3.273   6.085
  130SOL     OW 1288   0.765   0.788   4.370
  130SOL    HW1 1289   0.693   0.821   4.431
  130SOL    HW2 1290   0.819   0.864   4.336
  131SOL     OW 1291   4.531   1.337   3.401
  131SOL    HW1 1292   4.615   1.319   3.349
  131SOL    HW2 1293   4.544   1.418   3.458
  132SOL     OW 1294   1.534   2.627   0.811
  132SOL    HW1 1295   1.542   2.564   0.888
  132SOL    HW2 1296   1.459   2.692   0.829
  133SOL     OW 1297   5.427   6.681   3.046
  133SOL    HW1 1298   5.425   6.636   2.956
  133SOL    HW2 1299   5.473   6.769   3.038
  134SOL     OW 1300   5.700   2.451   2.692
  134SOL    HW1 1301   5.791   2.451   2.734
  134SOL    HW2 1302   5.709   2.456   2.593
  135SOL     OW 1303   5.262   1.665   3.033
  135SOL    HW1 1304   5.259   1.681   3.132
  135SOL    HW2 1305   5.233   1.571   3.014
  136SOL     OW 1306   4.716   4.451   5.985
  136SOL    HW1 1307   4.709   4.356   6.014
  136SOL    HW2 1308   4.726   4.454   5.885
  137SOL     OW 1309   4.442   6.857   5.520
  137SOL    HW1 1310   4.531   6.891   5.551
  137SOL    HW2 1311   4.389   6.932   5.480
  138SOL     OW 1312   0.114   5.200   4.392
  138SOL    HW1 1313   0.036   5.210   4.329
  138SOL    HW2 1314   0.186   5.147   4.347
  139SOL     OW 1315   2.534   5.736   5.548
  139SOL    HW1 1316   2.622   5.737   5.500
  139SOL    HW2 1317   2.528   5.815   5.609
  140SOL     OW 1318   6.448   5.134   4.294
  140SOL    HW1 1319   6.366   5.191   4.283
  140SOL    HW2 1320   6.444   5.058   4.229
  141SOL     OW 1321   1.038   1.818   5.765
  141SOL    HW1 1322   0.983   1.785   5.842
  141SOL    HW2 1323   1.017   1.914   5.748
  142SOL     OW 1324   1.844   6.268   1.445
  142SOL    HW1 1325   1.939   6.245   1.425
  142SOL    HW2 1326   1.817   6.346   1.388
  143SOL     OW 1327   5.523   4.310   2.354
  143SOL    HW1 1328   5.616   4.279   2.375
  143SOL    HW2 1329   5.527   4.398   2.308
  144SOL     OW 1330   1.672   6.557   6.308
  144SOL    HW1 1331   1.646   6.582   6.215
  144SOL    HW2 1332   1.674   6.639   6.365
  145SOL     OW 1333   1.088   5.220   0.574
  145SOL    HW1 1334   1.073   5.217   0.673
  145SOL    HW2 1335   1.162   5.284   0.553
  146SOL     OW 1336   4.731   6.230   7.015
  146SOL    HW1 1337   4.803   6.299   7.020
  146SOL    HW2 1338   4.750   6.158   0.058
  147SOL     OW 1339   6.216   2.786   0.474
  147SOL    HW1 1340   6.155   2.722   0.427
  147SOL    HW2 1341   6.290   2.811   0.412
  148SOL     OW 1342   0.354   4.959   5.380
  148SOL    HW1 1343   0.373   5.054   5.403
  148SOL    HW2 1344   0.438   4.905   5.388
  149SOL     OW 1345   2.851   1.304   4.161
  149SOL    HW1 1346   2.808   1.371   4.222
  149SOL    HW2 1347   2.860   1.217   4.209
  150SOL     OW 1348   6.982   5.128   6.203
  150SOL    HW1 1349   0.001   5.111   6.292
  150SOL    HW2 1350   6.886   5.151   6.215
  151SOL     OW 1351   3.990   2.046   1.395
  151SOL    HW1 1352   3.954   2.139   1.400
  151SOL    HW2 1353   4.088   2.047   1.416
  152SOL     OW 1354   2.005   0.721   4.229
  152SOL    HW1 1355   1.929   0.665   4.260
  152SOL    HW2 1356   2.090   0.691   4.274
  153SOL     OW 1357   2.314   0.088   2.064
  153SOL    HW1 1358   2.311   0.129   1.973
  153SOL    HW2 1359   2.305   0.160   2.133
  154SOL     OW 1360   6.824   2.939   1.896
  154SOL    HW1 1361   6.879   2.860   1.870
  154SOL    HW2 1362   6.794   2.988   1.815
  155SOL     OW 1363   0.298   1.327   3.730
  155SOL    HW1 1364   0.274   1.420   3.703
  155SOL    HW2 1365   0.397   1.314   3.721
  156SOL     OW 1366   6.511   1.964   1.279
  156SOL    HW1 1367   6.521   1.865   1.281
  156SOL    HW2 1368   6.600   2.007   1.299
  157SOL     OW 1369   6.266   3.177   2.113
  157SOL    HW1 1370   6.215   3.193   2.029
  157SOL    HW2 1371   6.352   3.229   2.111
  158SOL     OW 1372   3.089   0.304   2.529
  158SOL    HW1 1373   3.050   0.276   2.441
  158SOL    HW2 1374   3.020   0.357   2.580
  159SOL     OW 1375   4.855   4.293   1.305
  159SOL    HW1 1376   4.871   4.371   1.244
  159SOL    HW2 1377   4.885   4.316   1.397
  160SOL     OW 1378   6.790   4.366   6.757
  160SOL    HW1 1379   6.810   4.390   6.852
  160SOL    HW2 1380   6.848   4.289   6.730
  161SOL     OW 1381   1.966   5.354   4.873
  161SOL    HW1 1382   2.031   5.364   4.798
  161SOL    HW2 1383   2.005   5.392   4.957
  162SOL     OW 1384   4.224   6.405   0.380
  162SOL    HW1 1385   4.126   6.401   0.399
  162SOL    HW2 1386   4.243   6.364   0.291
  163SOL     OW 1387   4.156   6.067   1.460
  163SOL    HW1 1388   4.228   6.136   1.449
  163SOL    HW2 1389   4.128   6.035   1.369
  164SOL     OW 1390   6.571   4.246   1.400
  164SOL    HW1 1391   6.635   4.268   1.474
  164SOL    HW2 1392   6.484   4.292   1.417
  165SOL     OW 1393   4.882   3.028   0.376
  165SOL    HW1 1394   4.920   3.047   0.285
  165SOL    HW2 1395   4.790   2.991   0.367
  166SOL     OW 1396   0.241   5.682   3.564
  166SOL    HW1 1397   0.255   5.593   3.608
  166SOL    HW2 1398   0.312   5.698   3.496
  167SOL     OW 1399   5.907   2.067   0.200
  167SOL    HW1 1400   5.959   2.130   0.257
  167SOL    HW2 1401   5.809   2.087   0.208
  168SOL     OW 1402   2.690   3.700   0.978
  168SOL    HW1 1403   2.747   3.778   1.004
  168SOL    HW2 1404   2.744   3.616   0.983
  169SOL     OW 1405   2.970   0.025   1.728
  169SOL    HW1 1406   2.884   0.009   1.680
  169SOL    HW2 1407   3.041   0.052   1.663
  170SOL     OW 1408   0.478   1.629   3.785
  170SOL    HW1 1409   0.400   1.629   3.723
  170SOL    HW2 1410   0.465   1.700   3.854
  171SOL     OW 1411   3.479   4.018   0.467
  171SOL    HW1 1412   3.418   3.940   0.481
  171SOL    HW2 1413   3.442   4.078   0.397
  172SOL     OW 1414   6.633   1.714   4.857
  172SOL    HW1 1415   6.552   1.688   4.909
  172SOL    HW2 1416   6.610   1.790   4.795
  173SOL     OW 1417   6.672   0.128   4.297
  173SOL    HW1 1418   6.731   0.201   4.332
  173SOL    HW2 1419   6.710   0.040   4.325
  174SOL     OW 1420   3.164   5.497   3.293
  174SOL    HW1 1421   3.113   5.583   3.294
  174SOL    HW2 1422   3.109   5.425   3.335
  175SOL     OW 1423   1.836   6.485   1.711
  175SOL    HW1 1424   1.816   6.388   1.698
  175SOL    HW2 1425   1.865   6.501   1.805
  176SOL     OW 1426   2.331   4.027   1.117
  176SOL    HW1 1427   2.323   3.960   1.191
  176SOL    HW2 1428   2.398   4.097   1.143
  177SOL     OW 1429   5.535   2.715   3.245
  177SOL    HW1 1430   5.536   2.781   3.170
  177SOL    HW2 1431   5.557   2.761   3.331
  178SOL     OW 1432   5.081   4.257   6.227
  178SOL    HW1 1433   5.065   4.336   6.167
  178SOL    HW2 1434   5.002   4.245   6.288
  179SOL     OW 1435   3.088   0.681   0.036
  179SOL    HW1 1436   3.103   0.600   0.093
  179SOL    HW2 1437   3.111   0.763   0.088
  180SOL     OW 1438   0.921   1.244   6.838
  180SOL    HW1 1439   0.885   1.193   6.916
  180SOL    HW2 1440   0.947   1.180   6.766
  181SOL     OW 1441   3.734   1.861   6.542
  181SOL    HW1 1442   3.778   1.883   6.455
  181SOL    HW2 1443   3.747   1.763   6.562
  182SOL     OW 1444   4.623   2.110   4.157
  182SOL    HW1 1445   4.643   2.015   4.183
  182SOL    HW2 1446   4.600   2.162   4.239
  183SOL     OW 1447   3.952   0.324   2.217
  183SOL    HW1 1448   4.008   0.288   2.292
  183SOL    HW2 1449   3.923   0.249   2.158
  184SOL     OW 1450   1.284   5.790   3.758
  184SOL    HW1 1451   1.311   5.886   3.766
  184SOL    HW2 1452   1.366   5.733   3.749
  185SOL     OW 1453   1.221   3.185   6.653
  185SOL    HW1 1454   1.245   3.242   6.574
  185SOL    HW2 1455   1.242   3.235   6.737
  186SOL     OW 1456   6.362   0.564   3.555
  186SOL    HW1 1457   6.416   0.603   3.630
  186SOL    HW2 1458   6.279   0.523   3.592
  187SOL     OW 1459   5.561   0.967   3.965
  187SOL    HW1 1460   5.544   1.033   3.892
  187SOL    HW2 1461   5.539   1.009   4.054
  188SOL     OW 1462   5.666   2.495   3.198
  188SOL    HW1 1463   5.602   2.435   3.149
  188SOL    HW2 1464   5.624   2.584   3.212
  189SOL     OW 1465   1.943   5.831   3.025
  189SOL    HW1 1466   2.019   5.836   2.960
  189SOL    HW2 1467   1.866   5.783   2.983
  190SOL     OW 1468   3.740   1.236   4.917
  190SOL    HW1 1469   3.774   1.304   4.982
  190SOL    HW2 1470   3.817   1.182   4.882
  191SOL     OW 1471   5.906   5.389   5.980
  191SOL    HW1 1472   5.809   5.366   5.989
  191SOL    HW2 1473   5.952   5.317   5.927
  192SOL     OW 1474   0.185   6.808   2.155
  192SOL    HW1 1475   0.253   6.735   2.150
  192SOL    HW2 1476   0.152   6.828   2.062
  193SOL     OW 1477   5.041   2.970   6.567
  193SOL    HW1 1478   4.992   2.977   6.480
  193SOL    HW2 1479   5.133   3.008   6.556
  194SOL     OW 1480   3.618   0.721   2.924
  194SOL    HW1 1481   3.706   0.763   2.949
  194SOL    HW2 1482   3.611   0.631   2.966
  195SOL     OW 1483   1.503   5.751   3.137
  195SOL    HW1 1484   1.569   5.785   3.204
  195SOL    HW2 1485   1.439   5.689   3.182
  196SOL     OW 1486   1.948   2.058   6.616
  196SOL    HW1 1487   1.864   2.101   6.649
  196SOL    HW2 1488   1.930   1.962   6.595
  197SOL     OW 1489   2.431   1.433   1.083
  197SOL    HW1 1490   2.440   1.532   1.095
  197SOL    HW2 1491   2.516   1.396   1.046
  198SOL     OW 1492   4.189   0.805   3.352
  198SOL    HW1 1493   4.203   0.815   3.254
  198SOL    HW2 1494   4.114   0.865   3.381
  199SOL     OW 1495   1.676   2.892   3.961
  199SOL    HW1 1496   1.650   2.878   3.866
  199SOL    HW2 1497   1.612   2.844   4.021
  200SOL     OW 1498   0.734   2.561   0.659
  200SOL    HW1 1499   0.799   2.488   0.678
  200SOL    HW2 1500   0.781   2.649   0.659
  201SOL     OW 1501   0.541   1.161   5.964
  201SOL    HW1 1502   0.627   1.205   5.991
  201SOL    HW2 1503   0.559   1.065   5.941
  202SOL     OW 1504   4.732   0.547   6.350
  202SOL    HW1 1505   4.791   0.475   6.312
  202SOL    HW2 1506   4.668   0.507   6.415
  203SOL     OW 1507   5.893   2.766   5.441
  203SOL    HW1 1508   5.911   2.696   5.372
  203SOL    HW2 1509   5.980   2.808   5.470
  204SOL     OW 1510   0.023   0.203   5.569
  204SOL    HW1 1511   6.977   0.136   5.593
  204SOL    HW2 1512   0.001   0.245   5.481
  205SOL     OW 1513   1.040   2.516   2.566
  205SOL    HW1 1514   1.040   2.587   2.636
  205SOL    HW2 1515   1.079   2.432   2.604
  206SOL     OW 1516   0.755   3.364   1.747
  206SOL    HW1 1517   0.683   3.295   1.740
  206SOL    HW2 1518   0.844   3.319   1.751
  207SOL     OW 1519   4.993   1.747   3.215
  207SOL    HW1 1520   4.962   1.841   3.199
  207SOL    HW2 1521   5.091   1.741   3.198
  208SOL     OW 1522   0.179   4.100   5.313
  208SOL    HW1 1523   0.082   4.118   5.294
  208SOL    HW2 1524   0.221   4.182   5.352
  209SOL     OW 1525   6.432   4.599   2.566
  209SOL    HW1 1526   6.336   4.574   2.548
  209SOL    HW2 1527   6.470   4.644   2.486
  210SOL     OW 1528   4.505   1.969   0.627
  210SOL    HW1 1529   4.498   1.962   0.528
  210SOL    HW2 1530   4.414   1.957   0.668
  211SOL     OW 1531   1.703   0.586   3.292
  211SOL    HW1 1532   1.656   0.609   3.207
  211SOL    HW2 1533   1.638   0.591   3.368
  212SOL     OW 1534   1.322   3.624   2.728
  212SOL    HW1 1535   1.278   3.578   2.651
  212SOL    HW2 1536   1.380   3.560   2.777
  213SOL     OW 1537   1.974   5.958   1.194
  213SOL    HW1 1538   2.046   5.951   1.125
  213SOL    HW2 1539   1.897   6.011   1.157
  214SOL     OW 1540   4.246   5.437   2.217
  214SOL    HW1 1541   4.213   5.372   2.149
  214SOL    HW2 1542   4.341   5.462   2.197
  215SOL     OW 1543   2.591   5.037   1.306
  215SOL    HW1 1544   2.545   5.024   1.218
  215SOL    HW2 1545   2.602   5.135   1.322
  216SOL     OW 1546   1.657   0.512   2.631
  216SOL    HW1 1547   1.724   0.585   2.646
  216SOL    HW2 1548   1.698   0.442   2.572
  217SOL     OW 1549   1.210   3.162   5.518
  217SOL    HW1 1550   1.297   3.112   5.522
  217SOL    HW2 1551   1.150   3.130   5.592
  218SOL     OW 1552   0.771   2.689   5.249
  218SOL    HW1 1553   0.859   2.735   5.238
  218SOL    HW2 1554   0.785   2.601   5.295
  219SOL     OW 1555   3.698   0.802   0.266
  219SOL    HW1 1556   3.764   0.803   0.342
  219SOL    HW2 1557   3.745   0.779   0.181
  220SOL     OW 1558   3.045   0.619   1.064
  220SOL    HW1 1559   3.035   0.715   1.039
  220SOL    HW2 1560   3.024   0.606   1.161
  221SOL     OW 1561   6.166   5.322   1.242
  221SOL    HW1 1562   6.151   5.309   1.340
  221SOL    HW2 1563   6.122   5.407   1.212
  222SOL     OW 1564   1.981   4.678   6.764
  222SOL    HW1 1565   2.030   4.753   6.810
  222SOL    HW2 1566   1.984   4.692   6.665
  223SOL     OW 1567   6.936   2.731   5.545
  223SOL    HW1 1568   6.843   2.768   5.542
  223SOL    HW2 1569   6.935   2.636   5.516
  224SOL     OW 1570   3.157   2.128   5.990
  224SOL    HW1 1571   3.088   2.123   5.918
  224SOL    HW2 1572   3.195   2.221   5.994
  225SOL     OW 1573   4.676   3.678   5.940
  225SOL    HW1 1574   4.630   3.740   5.876
  225SOL    HW2 1575   4.764   3.717   5.966
  226SOL     OW 1576   0.913   1.672   6.528
  226SOL    HW1 1577   0.904   1.664   6.627
  226SOL    HW2 1578   1.010   1.671   6.504
  227SOL     OW 1579   2.057   4.161   2.495
  227SOL    HW1 1580   2.080   4.237   2.434
  227SOL    HW2 1581   2.039   4.079   2.441
  228SOL     OW 1582   2.040   0.654   2.948
  228SOL    HW1 1583   1.956   0.606   2.924
  228SOL    HW2 1584   2.053   0.652   3.047
  229SOL     OW 1585   5.132   4.528   6.790
  229SOL    HW1 1586   5.119   4.626   6.804
  229SOL    HW2 1587   5.211   4.513   6.731
  230SOL     OW 1588   4.502   6.241   4.464
  230SOL    HW1 1589   4.516   6.254   4.562
  230SOL    HW2 1590   4.415   6.281   4.437
  231SOL     OW 1591   5.347   1.167   6.900
  231SOL    HW1 1592   5.435   1.195   6.860
  231SOL    HW2 1593   5.291   1.248   6.917
  232SOL     OW 1594   0.434   2.696   6.781
  232SOL    HW1 1595   0.335   2.696   6.786
  232SOL    HW2 1596   0.473   2.668   6.869
  233SOL     OW 1597   3.183   2.196   3.750
  233SOL    HW1 1598   3.108   2.191   3.816
  233SOL    HW2 1599   3.147   2.214   3.659
  234SOL     OW 1600   5.532   0.881   5.909
  234SOL    HW1 1601   5.451   0.885   5.968
  234SOL    HW2 1602   5.607   0.930   5.953
  235SOL     OW 1603   4.863   3.093   2.510
  235SOL    HW1 1604   4.806   3.072   2.430
  235SOL    HW2 1605   4.958   3.069   2.489
  236SOL     OW 1606   4.637   3.455   6.583
  236SOL    HW1 1607   4.676   3.527   6.527
  236SOL    HW2 1608   4.634   3.370   6.531
  237SOL     OW 1609   6.664   4.449   2.507
  237SOL    HW1 1610   6.658   4.354   2.475
  237SOL    HW2 1611   6.572   4.481   2.532
  238SOL     OW 1612   6.592   1.085   0.438
  238SOL    HW1 1613   6.538   1.081   0.522
  238SOL    HW2 1614   6.633   1.176   0.429
  239SOL     OW 1615   1.157   4.291   0.560
  239SOL    HW1 1616   1.232   4.281   0.625
  239SOL    HW2 1617   1.070   4.298   0.609
  240SOL     OW 1618   6.661   3.567   3.235
  240SOL    HW1 1619   6.688   3.600   3.325
  240SOL    HW2 1620   6.732   3.591   3.168
  241SOL     OW 1621   2.705   2.411   4.210
  241SOL    HW1 1622   2.750   2.406   4.299
  241SOL    HW2 1623   2.720   2.326   4.159
  242SOL     OW 1624   3.619   3.754   3.615
  242SOL    HW1 1625   3.567   3.688   3.670
  242SOL    HW2 1626   3.690   3.706   3.564
  243SOL     OW 1627   4.635   1.622   6.950
  243SOL    HW1 1628   4.725   1.580   6.960
  243SOL    HW2 1629   4.566   1.550   6.943
  244SOL     OW 1630   5.966   3.318   6.589
  244SOL    HW1 1631   6.042   3.369   6.630
  244SOL    HW2 1632   5.993   3.288   6.498
  245SOL     OW 1633   3.657   1.884   3.668
  245SOL    HW1 1634   3.617   1.947   3.734
  245SOL    HW2 1635   3.699   1.807   3.716
  246SOL     OW 1636   5.519   1.684   3.463
  246SOL    HW1 1637   5.581   1.613   3.430
  246SOL    HW2 1638   5.571   1.750   3.517
  247SOL     OW 1639   2.640   1.902   0.503
  247SOL    HW1 1640   2.719   1.841   0.499
  247SOL    HW2 1641   2.556   1.850   0.489
  248SOL     OW 1642   2.495   1.296   2.940
  248SOL    HW1 1643   2.543   1.374   2.899
  248SOL    HW2 1644   2.509   1.215   2.883
  249SOL     OW 1645   5.153   0.194   5.261
  249SOL    HW1 1646   5.198   0.251   5.331
  249SOL    HW2 1647   5.221   0.133   5.219
  250SOL     OW 1648   3.456   2.966   0.926
  250SOL    HW1 1649   3.430   2.965   1.022
  250SOL    HW2 1650   3.483   3.059   0.900
  251SOL     OW 1651   4.889   3.614   5.360
  251SOL    HW1 1652   4.977   3.644   5.323
  251SOL    HW2 1653   4.817   3.632   5.292
  252SOL     OW 1654   6.428   0.148   5.533
  252SOL    HW1 1655   6.349   0.095   5.502
  252SOL    HW2 1656   6.460   0.111   5.620
  253SOL     OW 1657   3.829   4.668   5.942
  253SOL    HW1 1658   3.782   4.607   6.006
  253SOL    HW2 1659   3.766   4.695   5.869
  254SOL     OW 1660   0.086   2.656   3.843
  254SOL    HW1 1661   0.003   2.638   3.896
  254SOL    HW2 1662   0.098   2.755   3.832
  255SOL     OW 1663   1.341   4.578   6.068
  255SOL    HW1 1664   1.368   4.649   6.133
  255SOL    HW2 1665   1.260   4.530   6.103
  256SOL     OW 1666   5.443   3.195   5.713
  256SOL    HW1 1667   5.437   3.118   5.650
  256SOL    HW2 1668   5.503   3.171   5.790
  257SOL     OW 1669   4.845   6.688   2.847
  257SOL    HW1 1670   4.919   6.694   2.780
  257SOL    HW2 1671   4.867   6.617   2.914
  258SOL     OW 1672   2.212   3.951   5.567
  258SOL    HW1 1673   2.122   3.943   5.525
  258SOL    HW2 1674   2.268   4.016   5.514
  259SOL     OW 1675   5.243   1.011   2.139
  259SOL    HW1 1676   5.281   0.928   2.179
  259SOL    HW2 1677   5.242   1.084   2.207
  260SOL     OW 1678   3.658   5.116   2.887
  260SOL    HW1 1679   3.612   5.087   2.803
  260SOL    HW2 1680   3.692   5.035   2.936
  261SOL     OW 1681   5.415   5.069   1.371
  261SOL    HW1 1682   5.386   5.120   1.290
  261SOL    HW2 1683   5.349   4.998   1.392
  262SOL     OW 1684   1.896   3.640   1.248
  262SOL    HW1 1685   1.821   3.586   1.211
  262SOL    HW2 1686   1.911   3.720   1.189
  263SOL     OW 1687   1.013   0.362   3.391
  263SOL    HW1 1688   1.050   0.442   3.438
  263SOL    HW2 1689   1.016   0.283   3.452
  264SOL     OW 1690   6.443   2.818   0.314
  264SOL    HW1 1691   6.492   2.851   0.395
  264SOL    HW2 1692   6.466   2.875   0.235
  265SOL     OW 1693   6.349   6.837   3.059
  265SOL    HW1 1694   6.371   6.935   3.067
  265SOL    HW2 1695   6.271   6.816   3.119
  266SOL     OW 1696   4.719   2.912   5.833
  266SOL    HW1 1697   4.727   2.827   5.782
  266SOL    HW2 1698   4.646   2.968   5.794
  267SOL     OW 1699   1.255   0.821   5.087
  267SOL    HW1 1700   1.155   0.828   5.088
  267SOL    HW2 1701   1.286   0.777   5.171
  268SOL     OW 1702   3.709   1.133   6.369
  268SOL    HW1 1703   3.676   1.201   6.304
  268SOL    HW2 1704   3.809   1.131   6.366
  269SOL     OW 1705   3.001   2.130   0.013
  269SOL    HW1 1706   2.904   2.119   7.016
  269SOL    HW2 1707   3.013   2.135   0.112
  270SOL     OW 1708   0.741   6.119   0.321
  270SOL    HW1 1709   0.798   6.045   0.284
  270SOL    HW2 1710   0.658   6.127   0.266
  271SOL     OW 1711   0.616   1.855   6.244
  271SOL    HW1 1712   0.640   1.792   6.319
  271SOL    HW2 1713   0.591   1.802   6.163
  272SOL     OW 1714   3.536   6.048   4.072
  272SOL    HW1 1715   3.611   5.987   4.046
  272SOL    HW2 1716   3.548   6.078   4.166
  273SOL     OW 1717   1.788   5.174   5.894
  273SOL    HW1 1718   1.877   5.129   5.890
  273SOL    HW2 1719   1.743   5.166   5.805
  274SOL     OW 1720   4.079   0.935   3.679
  274SOL    HW1 1721   4.083   0.962   3.776
  274SOL    HW2 1722   4.008   0.867   3.667
  275SOL     OW 1723   7.016   6.223   2.698
  275SOL    HW1 1724   6.944   6.269   2.750
  275SOL    HW2 1725   0.082   6.250   2.734
  276SOL     OW 1726   0.391   6.908   4.014
  276SOL    HW1 1727   0.384   6.854   4.098
  276SOL    HW2 1728   0.300   6.944   3.991
  277SOL     OW 1729   1.552   2.805   0.427
  277SOL    HW1 1730   1.645   2.773   0.444
  277SOL    HW2 1731   1.509   2.830   0.513
  278SOL     OW 1732   0.002   3.452   3.305
  278SOL    HW1 1733   7.023   3.537   3.358
  278SOL    HW2 1734   0.070   3.390   3.345
  279SOL     OW 1735   5.439   2.860   4.227
  279SOL    HW1 1736   5.500   2.920   4.279
  279SOL    HW2 1737   5.394   2.796   4.289
  280SOL     OW 1738   2.165   5.321   1.666
  280SOL    HW1 1739   2.085   5.360   1.711
  280SOL    HW2 1740   2.143   5.299   1.571
  281SOL     OW 1741   2.177   4.390   1.572
  281SOL    HW1 1742   2.163   4.317   1.505
  281SOL    HW2 1743   2.183   4.351   1.663
  282SOL     OW 1744   3.342   0.719   5.425
  282SOL    HW1 1745   3.312   0.799   5.373
  282SOL    HW2 1746   3.298   0.718   5.514
  283SOL     OW 1747   5.544   2.703   6.449
  283SOL    HW1 1748   5.580   2.654   6.370
  283SOL    HW2 1749   5.448   2.726   6.434
  284SOL     OW 1750   0.762   3.949   3.550
  284SOL    HW1 1751   0.704   4.015   3.503
  284SOL    HW2 1752   0.715   3.861   3.556
  285SOL     OW 1753   5.365   4.761   3.997
  285SOL    HW1 1754   5.415   4.713   4.070
  285SOL    HW2 1755   5.398   4.731   3.908
  286SOL     OW 1756   3.148   4.032   0.028
  286SOL    HW1 1757   3.176   3.940   0.002
  286SOL    HW2 1758   3.150   4.092   6.972
  287SOL     OW 1759   1.639   3.469   1.154
  287SOL    HW1 1760   1.582   3.527   1.212
  287SOL    HW2 1761   1.626   3.373   1.179
  288SOL     OW 1762   3.751   1.279   6.649
  288SOL    HW1 1763   3.845   1.263   6.619
  288SOL    HW2 1764   3.698   1.194   6.637
  289SOL     OW 1765   1.994   4.647   5.610
  289SOL    HW1 1766   2.092   4.653   5.632
  289SOL    HW2 1767   1.955   4.566   5.655
  290SOL     OW 1768   0.095   1.961   5.660
  290SOL    HW1 1769   0.085   1.893   5.734
  290SOL    HW2 1770   0.165   2.027   5.686
  291SOL     OW 1771   0.719   1.597   3.641
  291SOL    HW1 1772   0.644   1.610   3.705
  291SOL    HW2 1773   0.782   1.675   3.648
  292SOL     OW 1774   2.180   0.428   3.332
  292SOL    HW1 1775   2.124   0.352   3.363
  292SOL    HW2 1776   2.130   0.479   3.262
  293SOL     OW 1777   4.642   5.471   4.096
  293SOL    HW1 1778   4.548   5.450   4.123
  293SOL    HW2 1779   4.683   5.534   4.162
  294SOL     OW 1780   5.489   5.981   6.574
  294SOL    HW1 1781   5.500   6.040   6.494
  294SOL    HW2 1782   5.392   5.970   6.595
  295SOL     OW 1783   4.982   0.679   3.558
  295SOL    HW1 1784   5.038   0.683   3.475
  295SOL    HW2 1785   4.964   0.771   3.590
  296SOL     OW 1786   3.065   1.389   2.803
  296SOL    HW1 1787   3.139   1.344   2.753
  296SOL    HW2 1788   3.064   1.356   2.898
  297SOL     OW 1789   1.679   3.792   3.457
  297SOL    HW1 1790   1.660   3.891   3.460
  297SOL    HW2 1791   1.765   3.774   3.506
  298SOL     OW 1792   6.393   5.686   1.012
  298SOL    HW1 1793   6.473   5.679   0.954
  298SOL    HW2 1794   6.328   5.750   0.972
  299SOL     OW 1795   6.159   2.704   4.569
  299SOL    HW1 1796   6.222   2.659   4.632
  299SOL    HW2 1797   6.173   2.667   4.477
  300SOL     OW 1798   6.006   0.412   3.037
  300SOL    HW1 1799   6.082   0.441   2.978
  300SOL    HW2 1800   5.925   0.393   2.982
  301SOL     OW 1801   5.949   3.556   0.104
  301SOL    HW1 1802   5.881   3.511   0.162
  301SOL    HW2 1803   5.951   3.654   0.124
  302SOL     OW 1804   0.617   0.099   3.893
  302SOL    HW1 1805   0.666   0.144   3.968
  302SOL    HW2 1806   0.551   0.034   3.931
  303SOL     OW 1807   4.601   0.615   3.178
  303SOL    HW1 1808   4.563   0.695   3.224
  303SOL    HW2 1809   4.625   0.546   3.246
  304SOL     OW 1810   2.291   6.893   3.084
  304SOL    HW1 1811   2.200   6.929   3.104
  304SOL    HW2 1812   2.345   6.891   3.168
  305SOL     OW 1813   1.211   4.070   0.149
  305SOL    HW1 1814   1.217   4.009   0.227
  305SOL    HW2 1815   1.178   4.160   0.179
  306SOL     OW 1816   2.152   0.786   3.609
  306SOL    HW1 1817   2.175   0.730   3.689
  306SOL    HW2 1818   2.189   0.878   3.622
  307SOL     OW 1819   4.570   0.353   1.137
  307SOL    HW1 1820   4.482   0.350   1.089
  307SOL    HW2 1821   4.555   0.366   1.235
  308SOL     OW 1822   1.057   6.331   3.063
  308SOL    HW1 1823   0.996   6.295   2.992
  308SOL    HW2 1824   1.025   6.421   3.092
  309SOL     OW 1825   3.638   4.747   5.499
  309SOL    HW1 1826   3.707   4.808   5.459
  309SOL    HW2 1827   3.550   4.763   5.454
  310SOL     OW 1828   0.156   6.532   5.740
  310SOL    HW1 1829   0.223   6.513   5.812
  310SOL    HW2 1830   0.089   6.457   5.736
  311SOL     OW 1831   0.708   5.855   1.614
  311SOL    HW1 1832   0.771   5.846   1.692
  311SOL    HW2 1833   0.618   5.884   1.648
  312SOL     OW 1834   4.870   1.808   5.316
  312SOL    HW1 1835   4.929   1.772   5.388
  312SOL    HW2 1836   4.825   1.892   5.349
  313SOL     OW 1837   2.150   4.209   1.779
  313SOL    HW1 1838   2.231   4.165   1.817
  313SOL    HW2 1839   2.079   4.141   1.762
  314SOL     OW 1840   3.715   5.690   0.240
  314SOL    HW1 1841   3.653   5.646   0.305
  314SOL    HW2 1842   3.809   5.680   0.271
  315SOL     OW 1843   0.329   3.059   3.655
  315SOL    HW1 1844   0.401   3.113   3.699
  315SOL    HW2 1845   0.349   3.050   3.558
  316SOL     OW 1846   2.287   2.898   3.804
  316SOL    HW1 1847   2.281   2.834   3.881
  316SOL    HW2 1848   2.264   2.990   3.835
  317SOL     OW 1849   6.620   1.532   6.824
  317SOL    HW1 1850   6.526   1.503   6.844
  317SOL    HW2 1851   6.684   1.465   6.862
  318SOL     OW 1852   2.004   3.888   0.814
  318SOL    HW1 1853   2.093   3.925   0.841
  318SOL    HW2 1854   1.974   3.930   0.728
  319SOL     OW 1855   1.566   6.921   1.216
  319SOL    HW1 1856   1.599   6.985   1.147
  319SOL    HW2 1857   1.467   6.929   1.224
  320SOL     OW 1858   6.405   3.205   0.957
  320SOL    HW1 1859   6.393   3.281   0.893
  320SOL    HW2 1860   6.502   3.181   0.963
  321SOL     OW 1861   2.277   2.545   1.869
  321SOL    HW1 1862   2.358   2.604   1.872
  321SOL    HW2 1863   2.257   2.512   1.961
  322SOL     OW 1864   3.928   3.095   5.012
  322SOL    HW1 1865   3.852   3.158   5.021
  322SOL    HW2 1866   3.895   3.009   4.973
  323SOL     OW 1867   6.639   4.075   1.175
  323SOL    HW1 1868   6.661   4.103   1.269
  323SOL    HW2 1869   6.567   4.134   1.139
  324SOL     OW 1870   0.864   3.054   4.832
  324SOL    HW1 1871   0.919   3.045   4.749
  324SOL    HW2 1872   0.915   3.106   4.900
  325SOL     OW 1873   2.007   2.601   1.792
  325SOL    HW1 1874   1.953   2.583   1.710
  325SOL    HW2 1875   2.104   2.589   1.772
  326SOL     OW 1876   2.269   5.876   6.652
  326SOL    HW1 1877   2.265   5.779   6.673
  326SOL    HW2 1878   2.198   5.898   6.584
  327SOL     OW 1879   6.303   4.968   5.495
  327SOL    HW1 1880   6.282   4.879   5.536
  327SOL    HW2 1881   6.313   5.036   5.568
  328SOL     OW 1882   4.020   4.767   2.034
  328SOL    HW1 1883   3.947   4.816   2.082
  328SOL    HW2 1884   3.983   4.723   1.953
  329SOL     OW 1885   3.771   3.600   3.416
  329SOL    HW1 1886   3.792   3.502   3.415
  329SOL    HW2 1887   3.849   3.650   3.453
  330SOL     OW 1888   3.304   6.837   1.446
  330SOL    HW1 1889   3.340   6.805   1.534
  330SOL    HW2 1890   3.248   6.765   1.405
  331SOL     OW 1891   5.140   5.101   5.576
  331SOL    HW1 1892   5.193   5.178   5.613
  331SOL    HW2 1893   5.155   5.021   5.634
  332SOL     OW 1894   2.950   1.907   4.097
  332SOL    HW1 1895   2.961   1.884   4.000
  332SOL    HW2 1896   2.855   1.889   4.124
  333SOL     OW 1897   3.843   6.125   6.141
  333SOL    HW1 1898   3.758   6.169   6.114
  333SOL    HW2 1899   3.848   6.034   6.099
  334SOL     OW 1900   3.442   0.062   2.280
  334SOL    HW1 1901   3.420   0.096   2.372
  334SOL    HW2 1902   3.371   7.021   2.251
  335SOL     OW 1903   2.989   6.682   3.515
  335SOL    HW1 1904   3.067   6.622   3.498
  335SOL    HW2 1905   3.009   6.741   3.594
  336SOL     OW 1906   3.414   1.318   3.731
  336SOL    HW1 1907   3.327   1.341   3.775
  336SOL    HW2 1908   3.397   1.256   3.655
  337SOL     OW 1909   0.161   3.494   1.495
  337SOL    HW1 1910   0.153   3.436   1.413
  337SOL    HW2 1911   0.074   3.539   1.512
  338SOL     OW 1912   2.981   2.665   1.438
  338SOL    HW1 1913   2.964   2.650   1.535
  338SOL    HW2 1914   3.079   2.663   1.420
  339SOL     OW 1915   4.070   6.220   2.655
  339SOL    HW1 1916   4.070   6.197   2.752
  339SOL    HW2 1917   4.163   6.211   2.618
  340SOL     OW 1918   5.056   3.725   4.642
  340SOL    HW1 1919   4.997   3.650   4.671
  340SOL    HW2 1920   5.135   3.689   4.593
  341SOL     OW 1921   5.355   5.581   4.242
  341SOL    HW1 1922   5.350   5.662   4.184
  341SOL    HW2 1923   5.273   5.525   4.228
  342SOL     OW 1924   6.463   5.288   0.421
  342SOL    HW1 1925   6.426   5.231   0.494
  342SOL    HW2 1926   6.519   5.360   0.460
  343SOL     OW 1927   3.750   6.952   1.577
  343SOL    HW1 1928   3.849   6.937   1.582
  343SOL    HW2 1929   3.722   7.011   1.653
  344SOL     OW 1930   2.161   4.749   0.615
  344SOL    HW1 1931   2.192   4.654   0.621
  344SOL    HW2 1932   2.066   4.754   0.645
  345SOL     OW 1933   0.978   0.531   5.157
  345SOL    HW1 1934   0.901   0.592   5.178
  345SOL    HW2 1935   1.006   0.544   5.062
  346SOL     OW 1936   1.633   0.051   2.399
  346SOL    HW1 1937   1.661   0.074   2.306
  346SOL    HW2 1938   1.537   0.024   2.399
  347SOL     OW 1939   5.327   6.759   6.646
  347SOL    HW1 1940   5.346   6.800   6.735
  347SOL    HW2 1941   5.236   6.787   6.615
  348SOL     OW 1942   3.104   5.241   1.016
  348SOL    HW1 1943   3.198   5.269   0.996
  348SOL    HW2 1944   3.106   5.152   1.062
  349SOL     OW 1945   0.779   4.815   2.597
  349SOL    HW1 1946   0.848   4.748   2.572
  349SOL    HW2 1947   0.791   4.898   2.542
  350SOL     OW 1948   3.826   3.352   1.408
  350SOL    HW1 1949   3.893   3.308   1.469
  350SOL    HW2 1950   3.743   3.372   1.458
  351SOL     OW 1951   2.727   1.681   6.908
  351SOL    HW1 1952   2.789   1.699   6.984
  351SOL    HW2 1953   2.639   1.726   6.925
  352SOL     OW 1954   3.282   0.542   6.130
  352SOL    HW1 1955   3.187   0.551   6.102
  352SOL    HW2 1956   3.304   0.614   6.197
  353SOL     OW 1957   1.594   6.135   0.475
  353SOL    HW1 1958   1.647   6.168   0.553
  353SOL    HW2 1959   1.537   6.210   0.440
  354SOL     OW 1960   4.224   1.480   0.393
  354SOL    HW1 1961   4.161   1.463   0.469
  354SOL    HW2 1962   4.314   1.505   0.430
  355SOL     OW 1963   6.944   3.664   2.805
  355SOL    HW1 1964   6.911   3.662   2.899
  355SOL    HW2 1965   6.885   3.724   2.751
  356SOL     OW 1966   3.976   5.265   3.578
  356SOL    HW1 1967   4.057   5.273   3.635
  356SOL    HW2 1968   3.985   5.185   3.518
  357SOL     OW 1969   6.987   5.775   5.319
  357SOL    HW1 1970   0.018   5.692   5.310
  357SOL    HW2 1971   6.913   5.759   5.385
  358SOL     OW 1972   5.546   0.491   1.732
  358SOL    HW1 1973   5.586   0.510   1.821
  358SOL    HW2 1974   5.582   0.556   1.664
  359SOL     OW 1975   1.328   1.640   2.298
  359SOL    HW1 1976   1.249   1.677   2.248
  359SOL    HW2 1977   1.412   1.679   2.260
  360SOL     OW 1978   3.950   6.994   0.225
  360SOL    HW1 1979   3.996   7.007   0.313
  360SOL    HW2 1980   3.853   7.019   0.235
  361SOL     OW 1981   4.775   6.552   2.269
  361SOL    HW1 1982   4.835   6.528   2.194
  361SOL    HW2 1983   4.815   6.628   2.321
  362SOL     OW 1984   3.036   3.134   1.115
  362SOL    HW1 1985   2.971   3.209   1.100
  362SOL    HW2 1986   3.027   3.068   1.040
  363SOL     OW 1987   3.976   4.962   3.822
  363SOL    HW1 1988   4.032   5.036   3.860
  363SOL    HW2 1989   4.035   4.893   3.781
  364SOL     OW 1990   1.076   5.326   6.261
  364SOL    HW1 1991   1.119   5.239   6.285
  364SOL    HW2 1992   1.143   5.384   6.213
  365SOL     OW 1993   4.902   6.469   2.052
  365SOL    HW1 1994   4.990   6.485   2.007
  365SOL    HW2 1995   4.901   6.378   2.092
  366SOL     OW 1996   5.574   1.055   0.065
  366SOL    HW1 1997   5.477   1.036   0.079
  366SOL    HW2 1998   5.599   1.140   0.112
  367SOL     OW 1999   5.586   2.905   1.383
  367SOL    HW1 2000   5.487   2.917   1.383
  367SOL    HW2 2001   5.627   2.963   1.313
  368SOL     OW 2002   1.358   4.693   5.206
  368SOL    HW1 2003   1.384   4.727   5.115
  368SOL    HW2 2004   1.296   4.758   5.249
  369SOL     OW 2005   0.618   3.979   1.841
  369SOL    HW1 2006   0.539   3.940   1.794
  369SOL    HW2 2007   0.683   4.015   1.774
  370SOL     OW 2008   3.261   1.326   5.632
  370SOL    HW1 2009   3.191   1.390   5.601
  370SOL    HW2 2010   3.234   1.287   5.720
  371SOL     OW 2011   3.233   3.282   0.473
  371SOL    HW1 2012   3.168   3.212   0.445
  371SOL    HW2 2013   3.282   3.316   0.393
  372SOL     OW 2014   6.926   6.679   6.240
  372SOL    HW1 2015   6.853   6.676   6.171
  372SOL    HW2 2016   6.943   6.775   6.266
  373SOL     OW 2017   6.968   6.693   0.326
  373SOL    HW1 2018   6.936   6.598   0.334
  373SOL    HW2 2019   6.935   6.746   0.404
  374SOL     OW 2020   3.688   0.553   1.676
  374SOL    HW1 2021   3.720   0.644   1.702
  374SOL    HW2 2022   3.589   0.553   1.669
  375SOL     OW 2023   6.547   5.142   3.359
  375SOL    HW1 2024   6.562   5.151   3.457
  375SOL    HW2 2025   6.494   5.060   3.341
  376SOL     OW 2026   2.143   2.703   4.262
  376SOL    HW1 2027   2.137   2.629   4.330
  376SOL    HW2 2028   2.167   2.788   4.307
  377SOL     OW 2029   4.783   2.125   3.401
  377SOL    HW1 2030   4.882   2.137   3.398
  377SOL    HW2 2031   4.761   2.049   3.462
  378SOL     OW 2032   4.829   3.043   5.084
  378SOL    HW1 2033   4.901   3.046   5.153
  378SOL    HW2 2034   4.780   3.130   5.083
  379SOL     OW 2035   5.709   3.645   1.016
  379SOL    HW1 2036   5.791   3.683   0.975
  379SOL    HW2 2037   5.654   3.599   0.946
  380SOL     OW 2038   1.655   1.630   1.174
  380SOL    HW1 2039   1.651   1.718   1.127
  380SOL    HW2 2040   1.720   1.636   1.250
  381SOL     OW 2041   3.515   3.776   1.102
  381SOL    HW1 2042   3.454   3.700   1.128
  381SOL    HW2 2043   3.507   3.793   1.004
  382SOL     OW 2044   2.755   6.021   0.345
  382SOL    HW1 2045   2.792   5.944   0.397
  382SOL    HW2 2046   2.710   6.085   0.407
  383SOL     OW 2047   6.444   2.535   0.291
  383SOL    HW1 2048   6.346   2.514   0.292
  383SOL    HW2 2049   6.457   2.633   0.299
  384SOL     OW 2050   1.283   5.371   4.904
  384SOL    HW1 2051   1.341   5.377   4.823
  384SOL    HW2 2052   1.306   5.289   4.957
  385SOL     OW 2053   4.872   6.070   0.585
  385SOL    HW1 2054   4.894   6.114   0.498
  385SOL    HW2 2055   4.807   5.995   0.570
  386SOL     OW 2056   3.393   6.278   5.943
  386SOL    HW1 2057   3.453   6.221   6.000
  386SOL    HW2 2058   3.400   6.373   5.973
  387SOL     OW 2059   0.140   0.842   5.132
  387SOL    HW1 2060   0.185   0.914   5.185
  387SOL    HW2 2061   0.165   0.753   5.168
  388SOL     OW 2062   6.326   2.675   5.070
  388SOL    HW1 2063   6.340   2.774   5.078
  388SOL    HW2 2064   6.410   2.627   5.096
  389SOL     OW 2065   4.275   5.065   1.497
  389SOL    HW1 2066   4.207   5.074   1.569
  389SOL    HW2 2067   4.232   5.029   1.414
  390SOL     OW 2068   3.401   2.005   0.393
  390SOL    HW1 2069   3.327   1.956   0.346
  390SOL    HW2 2070   3.361   2.072   0.456
  391SOL     OW 2071   3.517   4.329   5.958
  391SOL    HW1 2072   3.440   4.338   5.894
  391SOL    HW2 2073   3.513   4.240   6.003
  392SOL     OW 2074   0.973   3.909   1.934
  392SOL    HW1 2075   0.956   3.852   1.854
  392SOL    HW2 2076   1.010   3.852   2.008
  393SOL     OW 2077   1.092   4.429   1.478
  393SOL    HW1 2078   1.097   4.333   1.505
  393SOL    HW2 2079   1.075   4.435   1.380
  394SOL     OW 2080   6.514   0.968   6.207
  394SOL    HW1 2081   6.594   1.000   6.257
  394SOL    HW2 2082   6.444   0.939   6.273
  395SOL     OW 2083   5.800   4.683   1.057
  395SOL    HW1 2084   5.812   4.628   1.140
  395SOL    HW2 2085   5.829   4.777   1.075
  396SOL     OW 2086   2.762   1.431   2.169
  396SOL    HW1 2087   2.857   1.419   2.198
  396SOL    HW2 2088   2.725   1.515   2.209
  397SOL     OW 2089   4.499   1.516   5.151
  397SOL    HW1 2090   4.432   1.576   5.194
  397SOL    HW2 2091   4.567   1.488   5.218
  398SOL     OW 2092   2.352   1.397   4.132
  398SOL    HW1 2093   2.355   1.382   4.033
  398SOL    HW2 2094   2.333   1.493   4.150
  399SOL     OW 2095   5.779   6.372   3.856
  399SOL    HW1 2096   5.724   6.303   3.903
  399SOL    HW2 2097   5.743   6.388   3.765
  400SOL     OW 2098   6.718   0.573   4.765
  400SOL    HW1 2099   6.755   0.550   4.855
  400SOL    HW2 2100   6.620   0.591   4.773
  401SOL     OW 2101   6.723   5.825   6.056
  401SOL    HW1 2102   6.627   5.839   6.031
  401SOL    HW2 2103   6.728   5.762   6.133
  402SOL     OW 2104   6.291   0.143   2.410
  402SOL    HW1 2105   6.391   0.136   2.412
  402SOL    HW2 2106   6.265   0.227   2.362
  403SOL     OW 2107   2.070   1.204   5.337
  403SOL    HW1 2108   2.155   1.252   5.358
  403SOL    HW2 2109   2.047   1.143   5.412
  404SOL     OW 2110   3.764   4.956   3.570
  404SOL    HW1 2111   3.813   4.878   3.530
  404SOL    HW2 2112   3.750   4.939   3.668
  405SOL     OW 2113   2.669   4.675   3.763
  405SOL    HW1 2114   2.735   4.717   3.701
  405SOL    HW2 2115   2.591   4.642   3.711
  406SOL     OW 2116   0.667   5.447   6.130
  406SOL    HW1 2117   0.759   5.409   6.142
  406SOL    HW2 2118   0.673   5.545   6.113
  407SOL     OW 2119   2.153   3.174   4.572
  407SOL    HW1 2120   2.167   3.273   4.572
  407SOL    HW2 2121   2.147   3.142   4.666
  408SOL     OW 2122   2.543   1.595   3.837
  408SOL    HW1 2123   2.463   1.639   3.879
  408SOL    HW2 2124   2.622   1.657   3.845
  409SOL     OW 2125   1.055   3.704   2.479
  409SOL    HW1 2126   0.957   3.698   2.498
  409SOL    HW2 2127   1.098   3.616   2.499
  410SOL     OW 2128   2.097   1.848   1.576
  410SOL    HW1 2129   2.081   1.916   1.648
  410SOL    HW2 2130   2.194   1.824   1.574
  411SOL     OW 2131   0.908   2.724   1.468
  411SOL    HW1 2132   0.853   2.743   1.387
  411SOL    HW2 2133   1.004   2.737   1.448
  412SOL     OW 2134   1.816   5.129   1.440
  412SOL    HW1 2135   1.822   5.083   1.528
  412SOL    HW2 2136   1.903   5.121   1.392
  413SOL     OW 2137   5.544   5.347   2.556
  413SOL    HW1 2138   5.585   5.438   2.545
  413SOL    HW2 2139   5.556   5.317   2.651
  414SOL     OW 2140   2.265   6.434   3.538
  414SOL    HW1 2141   2.349   6.479   3.509
  414SOL    HW2 2142   2.274   6.335   3.526
  415SOL     OW 2143   6.900   1.142   0.845
  415SOL    HW1 2144   6.962   1.198   0.899
  415SOL    HW2 2145   6.923   1.045   0.858
  416SOL     OW 2146   4.922   3.087   4.807
  416SOL    HW1 2147   4.871   3.093   4.893
  416SOL    HW2 2148   4.916   2.994   4.771
  417SOL     OW 2149   3.031   1.901   6.088
  417SOL    HW1 2150   3.081   1.838   6.147
  417SOL    HW2 2151   3.089   1.980   6.066
  418SOL     OW 2152   4.052   5.836   4.742
  418SOL    HW1 2153   4.137   5.783   4.748
  418SOL    HW2 2154   3.984   5.796   4.804
  419SOL     OW 2155   0.814   6.674   1.048
  419SOL    HW1 2156   0.845   6.724   0.967
  419SOL    HW2 2157   0.841   6.578   1.040
  420SOL     OW 2158   5.011   1.738   6.138
  420SOL    HW1 2159   4.980   1.745   6.232
  420SOL    HW2 2160   4.971   1.656   6.096
  421SOL     OW 2161   5.340   3.347   2.551
  421SOL    HW1 2162   5.352   3.299   2.637
  421SOL    HW2 2163   5.262   3.409   2.557
  422SOL     OW 2164   4.911   3.214   1.930
  422SOL    HW1 2165   4.998   3.173   1.960
  422SOL    HW2 2166   4.835   3.155   1.957
  423SOL     OW 2167   3.669   1.516   6.519
  423SOL    HW1 2168   3.718   1.434   6.549
  423SOL    HW2 2169   3.571   1.497   6.513
  424SOL     OW 2170   1.029   3.786   3.333
  424SOL    HW1 2171   0.964   3.710   3.342
  424SOL    HW2 2172   1.046   3.826   3.423
  425SOL     OW 2173   2.635   0.854   5.379
  425SOL    HW1 2174   2.644   0.866   5.280
  425SOL    HW2 2175   2.577   0.926   5.417
  426SOL     OW 2176   2.809   2.342   4.452
  426SOL    HW1 2177   2.891   2.303   4.493
  426SOL    HW2 2178   2.736   2.346   4.520
  427SOL     OW 2179   3.628   2.128   3.084
  427SOL    HW1 2180   3.596   2.143   3.178
  427SOL    HW2 2181   3.576   2.054   3.043
  428SOL     OW 2182   2.717   1.728   5.525
  428SOL    HW1 2183   2.792   1.709   5.588
  428SOL    HW2 2184   2.692   1.825   5.531
  429SOL     OW 2185   0.879   6.128   3.824
  429SOL    HW1 2186   0.897   6.050   3.883
  429SOL    HW2 2187   0.941   6.126   3.746
  430SOL     OW 2188   1.459   7.016   3.353
  430SOL    HW1 2189   1.537   0.052   3.337
  430SOL    HW2 2190   1.427   0.003   3.447
  431SOL     OW 2191   2.593   1.777   1.766
  431SOL    HW1 2192   2.675   1.730   1.799
  431SOL    HW2 2193   2.585   1.866   1.811
  432SOL     OW 2194   4.189   2.230   2.247
  432SOL    HW1 2195   4.261   2.293   2.215
  432SOL    HW2 2196   4.117   2.226   2.178
  433SOL     OW 2197   2.317   5.717   0.230
  433SOL    HW1 2198   2.404   5.751   0.265
  433SOL    HW2 2199   2.303   5.623   0.260
  434SOL     OW 2200   4.119   6.235   3.726
  434SOL    HW1 2201   4.028   6.227   3.767
  434SOL    HW2 2202   4.166   6.315   3.763
  435SOL     OW 2203   3.810   1.587   6.252
  435SOL    HW1 2204   3.771   1.590   6.343
  435SOL    HW2 2205   3.902   1.625   6.253
  436SOL     OW 2206   4.996   0.004   2.775
  436SOL    HW1 2207   4.945   0.022   2.859
  436SOL    HW2 2208   4.935   0.011   2.696
  437SOL     OW 2209   6.810   0.551   5.000
  437SOL    HW1 2210   6.737   0.484   5.018
  437SOL    HW2 2211   6.899   0.505   5.004
  438SOL     OW 2212   0.358   4.387   3.002
  438SOL    HW1 2213   0.284   4.346   2.950
  438SOL    HW2 2214   0.324   4.465   3.055
  439SOL     OW 2215   6.504   6.904   3.795
  439SOL    HW1 2216   6.557   6.819   3.793
  439SOL    HW2 2217   6.422   6.891   3.850
  440SOL     OW 2218   3.673   1.211   0.832
  440SOL    HW1 2219   3.576   1.212   0.855
  440SOL    HW2 2220   3.692   1.285   0.767
  441SOL     OW 2221   6.952   3.947   2.476
  441SOL    HW1 2222   0.026   3.928   2.481
  441SOL    HW2 2223   6.916   3.915   2.389
  442SOL     OW 2224   5.267   3.271   5.970
  442SOL    HW1 2225   5.269   3.284   5.871
  442SOL    HW2 2226   5.235   3.355   6.014
  443SOL     OW 2227   5.022   3.279   2.254
  443SOL    HW1 2228   4.971   3.195   2.237
  443SOL    HW2 2229   5.018   3.302   2.351
  444SOL     OW 2230   4.182   0.821   1.758
  444SOL    HW1 2231   4.138   0.732   1.760
  444SOL    HW2 2232   4.129   0.884   1.702
  445SOL     OW 2233   1.399   5.626   1.954
  445SOL    HW1 2234   1.418   5.597   2.048
  445SOL    HW2 2235   1.470   5.689   1.923
  446SOL     OW 2236   5.368   0.080   1.588
  446SOL    HW1 2237   5.291   0.140   1.607
  446SOL    HW2 2238   5.367   0.052   1.492
  447SOL     OW 2239   6.188   4.703   0.986
  447SOL    HW1 2240   6.135   4.627   0.948
  447SOL    HW2 2241   6.283   4.673   0.999
  448SOL     OW 2242   2.697   6.966   3.180
  448SOL    HW1 2243   2.763   6.901   3.216
  448SOL    HW2 2244   2.722   0.035   3.209
  449SOL     OW 2245   1.248   4.072   5.029
  449SOL    HW1 2246   1.330   4.119   5.062
  449SOL    HW2 2247   1.275   3.995   4.971
  450SOL     OW 2248   0.668   4.928   3.716
  450SOL    HW1 2249   0.684   4.832   3.738
  450SOL    HW2 2250   0.607   4.934   3.638
  451SOL     OW 2251   0.644   2.158   2.151
  451SOL    HW1 2252   0.726   2.122   2.106
  451SOL    HW2 2253   0.669   2.208   2.233
  452SOL     OW 2254   4.898   5.356   1.986
  452SOL    HW1 2255   4.898   5.406   1.900
  452SOL    HW2 2256   4.845   5.272   1.976
  453SOL     OW 2257   3.513   0.450   6.365
  453SOL    HW1 2258   3.436   0.431   6.426
  453SOL    HW2 2259   3.480   0.485   6.278
  454SOL     OW 2260   6.675   3.192   6.396
  454SOL    HW1 2261   6.642   3.270   6.449
  454SOL    HW2 2262   6.668   3.213   6.298
  455SOL     OW 2263   6.043   4.567   6.148
  455SOL    HW1 2264   6.134   4.530   6.163
  455SOL    HW2 2265   6.014   4.620   6.228
  456SOL     OW 2266   2.977   0.961   2.467
  456SOL    HW1 2267   2.882   0.994   2.469
  456SOL    HW2 2268   3.015   0.974   2.375
  457SOL     OW 2269   2.650   0.307   6.977
  457SOL    HW1 2270   2.602   0.327   6.891
  457SOL    HW2 2271   2.716   0.233   6.962
  458SOL     OW 2272   3.011   1.561   3.099
  458SOL    HW1 2273   2.966   1.477   3.129
  458SOL    HW2 2274   3.095   1.538   3.049
  459SOL     OW 2275   3.558   6.989   3.962
  459SOL    HW1 2276   3.598   7.018   4.048
  459SOL    HW2 2277   3.589   0.025   3.888
  460SOL     OW 2278   1.204   1.182   6.084
  460SOL    HW1 2279   1.192   1.168   6.182
  460SOL    HW2 2280   1.115   1.177   6.039
  461SOL     OW 2281   0.996   5.233   5.914
  461SOL    HW1 2282   1.087   5.266   5.936
  461SOL    HW2 2283   0.998   5.133   5.902
  462SOL     OW 2284   2.938   3.949   4.952
  462SOL    HW1 2285   2.998   3.986   4.881
  462SOL    HW2 2286   2.965   3.986   5.041
  463SOL     OW 2287   5.241   6.910   2.725
  463SOL    HW1 2288   5.268   6.827   2.773
  463SOL    HW2 2289   5.146   6.932   2.746
  464SOL     OW 2290   4.130   5.248   6.418
  464SOL    HW1 2291   4.102   5.183   6.489
  464SOL    HW2 2292   4.108   5.341   6.447
  465SOL     OW 2293   0.850   3.651   1.454
  465SOL    HW1 2294   0.794   3.628   1.534
  465SOL    HW2 2295   0.858   3.750   1.446
  466SOL     OW 2296   3.784   5.148   4.787
  466SOL    HW1 2297   3.788   5.244   4.759
  466SOL    HW2 2298   3.875   5.115   4.810
  467SOL     OW 2299   6.200   0.038   2.028
  467SOL    HW1 2300   6.260   0.075   2.099
  467SOL    HW2 2301   6.144   0.112   1.989
  468SOL     OW 2302   3.017   0.036   6.667
  468SOL    HW1 2303   2.987   7.006   6.589
  468SOL    HW2 2304   2.961   0.119   6.674
  469SOL     OW 2305   3.401   4.828   5.862
  469SOL    HW1 2306   3.322   4.868   5.815
  469SOL    HW2 2307   3.387   4.832   5.961
  470SOL     OW 2308   2.077   5.158   2.866
  470SOL    HW1 2309   2.118   5.077   2.905
  470SOL    HW2 2310   2.145   5.208   2.813
  471SOL     OW 2311   1.867   2.186   4.081
  471SOL    HW1 2312   1.953   2.227   4.049
  471SOL    HW2 2313   1.887   2.124   4.157
  472SOL     OW 2314   5.494   3.420   6.400
  472SOL    HW1 2315   5.541   3.378   6.477
  472SOL    HW2 2316   5.524   3.377   6.315
  473SOL     OW 2317   6.475   2.668   2.046
  473SOL    HW1 2318   6.550   2.731   2.067
  473SOL    HW2 2319   6.512   2.582   2.012
  474SOL     OW 2320   5.017   6.123   3.895
  474SOL    HW1 2321   4.961   6.158   3.820
  474SOL    HW2 2322   4.959   6.097   3.971
  475SOL     OW 2323   6.031   1.680   0.584
  475SOL    HW1 2324   5.957   1.701   0.649
  475SOL    HW2 2325   6.024   1.741   0.505
  476SOL     OW 2326   1.219   4.663   1.493
  476SOL    HW1 2327   1.167   4.726   1.550
  476SOL    HW2 2328   1.162   4.585   1.468
  477SOL     OW 2329   1.696   4.567   3.863
  477SOL    HW1 2330   1.792   4.595   3.870
  477SOL    HW2 2331   1.637   4.636   3.903
  478SOL     OW 2332   4.808   5.642   1.960
  478SOL    HW1 2333   4.799   5.603   1.868
  478SOL    HW2 2334   4.818   5.568   2.027
  479SOL     OW 2335   3.448   4.086   3.744
  479SOL    HW1 2336   3.485   4.077   3.652
  479SOL    HW2 2337   3.373   4.021   3.757
  480SOL     OW 2338   1.583   0.913   2.881
  480SOL    HW1 2339   1.526   0.982   2.925
  480SOL    HW2 2340   1.679   0.934   2.895
  481SOL     OW 2341   0.120   6.923   0.856
  481SOL    HW1 2342   0.084   6.967   0.774
  481SOL    HW2 2343   0.175   6.989   0.908
  482SOL     OW 2344   3.790   4.990   1.382
  482SOL    HW1 2345   3.778   4.942   1.295
  482SOL    HW2 2346   3.729   4.951   1.450
  483SOL     OW 2347   5.517   1.948   3.809
  483SOL    HW1 2348   5.500   2.034   3.856
  483SOL    HW2 2349   5.451   1.936   3.735
  484SOL     OW 2350   2.612   4.598   4.571
  484SOL    HW1 2351   2.699   4.551   4.556
  484SOL    HW2 2352   2.627   4.678   4.628
  485SOL     OW 2353   5.619   3.418   1.846
  485SOL    HW1 2354   5.558   3.462   1.912
  485SOL    HW2 2355   5.568   3.349   1.795
  486SOL     OW 2356   6.069   5.932   6.633
  486SOL    HW1 2357   6.168   5.923   6.624
  486SOL    HW2 2358   6.034   5.993   6.562
  487SOL     OW 2359   6.576   0.069   6.089
  487SOL    HW1 2360   6.520   0.151   6.106
  487SOL    HW2 2361   6.626   0.045   6.172
  488SOL     OW 2362   1.785   6.094   2.690
  488SOL    HW1 2363   1.850   6.123   2.620
  488SOL    HW2 2364   1.830   6.098   2.780
  489SOL     OW 2365   1.232   6.000   6.529
  489SOL    HW1 2366   1.331   5.988   6.541
  489SOL    HW2 2367   1.186   5.973   6.614
  490SOL     OW 2368   1.259   4.284   4.413
  490SOL    HW1 2369   1.168   4.294   4.374
  490SOL    HW2 2370   1.291   4.372   4.448
  491SOL     OW 2371   0.377   2.991   1.165
  491SOL    HW1 2372   0.283   3.018   1.181
  491SOL    HW2 2373   0.408   2.932   1.240
  492SOL     OW 2374   0.961   2.533   5.858
  492SOL    HW1 2375   1.047   2.511   5.903
  492SOL    HW2 2376   0.888   2.539   5.927
  493SOL     OW 2377   2.486   5.559   4.771
  493SOL    HW1 2378   2.472   5.549   4.673
  493SOL    HW2 2379   2.453   5.477   4.818
  494SOL     OW 2380   2.373   6.712   4.817
  494SOL    HW1 2381   2.289   6.659   4.824
  494SOL    HW2 2382   2.356   6.807   4.845
  495SOL     OW 2383   3.808   3.733   5.959
  495SOL    HW1 2384   3.774   3.824   5.936
  495SOL    HW2 2385   3.830   3.683   5.875
  496SOL     OW 2386   4.766   1.311   3.262
  496SOL    HW1 2387   4.795   1.393   3.212
  496SOL    HW2 2388   4.816   1.305   3.348
  497SOL     OW 2389   3.899   1.764   0.187
  497SOL    HW1 2390   3.967   1.697   0.158
  497SOL    HW2 2391   3.941   1.830   0.249
  498SOL     OW 2392   0.744   6.908   1.632
  498SOL    HW1 2393   0.806   6.975   1.673
  498SOL    HW2 2394   0.698   6.948   1.553
  499SOL     OW 2395   2.941   6.173   6.989
  499SOL    HW1 2396   2.939   6.167   0.065
  499SOL    HW2 2397   2.960   6.083   6.950
  500SOL     OW 2398   6.008   1.867   0.383
  500SOL    HW1 2399   6.083   1.914   0.430
  500SOL    HW2 2400   5.963   1.931   0.321
  501SOL     OW 2401   0.858   1.198   4.106
  501SOL    HW1 2402   0.857   1.209   4.206
  501SOL    HW2 2403   0.930   1.256   4.067
  502SOL     OW 2404   1.967   5.079   6.602
  502SOL    HW1 2405   1.912   5.160   6.585
  502SOL    HW2 2406   1.950   5.045   6.695
  503SOL     OW 2407   4.131   4.822   0.441
  503SOL    HW1 2408   4.068   4.872   0.382
  503SOL    HW2 2409   4.105   4.725   0.442
  504SOL     OW 2410   5.986   6.367   1.642
  504SOL    HW1 2411   5.937   6.398   1.723
  504SOL    HW2 2412   5.992   6.267   1.642
  505SOL     OW 2413   4.364   5.982   4.855
  505SOL    HW1 2414   4.446   5.931   4.882
  505SOL    HW2 2415   4.353   5.976   4.756
  506SOL     OW 2416   4.337   4.910   2.098
  506SOL    HW1 2417   4.391   4.835   2.059
  506SOL    HW2 2418   4.272   4.873   2.164
  507SOL     OW 2419   2.673   1.032   0.604
  507SOL    HW1 2420   2.703   1.038   0.509
  507SOL    HW2 2421   2.736   0.973   0.655
  508SOL     OW 2422   6.859   4.360   3.295
  508SOL    HW1 2423   6.954   4.379   3.272
  508SOL    HW2 2424   6.852   4.331   3.390
  509SOL     OW 2425   4.501   6.849   6.393
  509SOL    HW1 2426   4.444   6.801   6.325
  509SOL    HW2 2427   4.539   6.782   6.457
  510SOL     OW 2428   6.750   3.842   0.294
  510SOL    HW1 2429   6.678   3.801   0.238
  510SOL    HW2 2430   6.710   3.907   0.359
  511SOL     OW 2431   0.775   2.254   0.673
  511SOL    HW1 2432   0.679   2.250   0.645
  511SOL    HW2 2433   0.832   2.218   0.599
  512SOL     OW 2434   0.244   2.259   5.078
  512SOL    HW1 2435   0.241   2.203   5.161
  512SOL    HW2 2436   0.179   2.335   5.086
  513SOL     OW 2437   5.568   0.940   3.146
  513SOL    HW1 2438   5.483   0.904   3.106
  513SOL    HW2 2439   5.642   0.873   3.133
  514SOL     OW 2440   6.206   0.059   4.778
  514SOL    HW1 2441   6.177   6.992   4.749
  514SOL    HW2 2442   6.282   0.051   4.842
  515SOL     OW 2443   4.043   0.212   5.684
  515SOL    HW1 2444   4.060   0.309   5.670
  515SOL    HW2 2445   4.033   0.166   5.596
  516SOL     OW 2446   2.387   5.983   1.856
  516SOL    HW1 2447   2.344   6.071   1.837
  516SOL    HW2 2448   2.339   5.937   1.930
  517SOL     OW 2449   3.841   5.534   1.082
  517SOL    HW1 2450   3.901   5.612   1.101
  517SOL    HW2 2451   3.770   5.561   1.017
  518SOL     OW 2452   2.155   3.379   3.843
  518SOL    HW1 2453   2.167   3.477   3.832
  518SOL    HW2 2454   2.164   3.333   3.754
  519SOL     OW 2455   0.238   0.258   2.354
  519SOL    HW1 2456   0.253   0.262   2.256
  519SOL    HW2 2457   0.310   0.309   2.401
  520SOL     OW 2458   1.546   3.453   0.710
  520SOL    HW1 2459   1.506   3.363   0.696
  520SOL    HW2 2460   1.537   3.507   0.626
  521SOL     OW 2461   6.374   6.338   4.909
  521SOL    HW1 2462   6.418   6.250   4.923
  521SOL    HW2 2463   6.308   6.331   4.834
  522SOL     OW 2464   3.656   3.978   1.553
  522SOL    HW1 2465   3.668   3.943   1.646
  522SOL    HW2 2466   3.742   3.970   1.502
  523SOL     OW 2467   0.924   0.281   1.157
  523SOL    HW1 2468   0.858   0.312   1.226
  523SOL    HW2 2469   0.921   0.181   1.151
  524SOL     OW 2470   7.009   2.325   1.816
  524SOL    HW1 2471   7.018   2.342   1.718
  524SOL    HW2 2472   0.072   2.289   1.851
  525SOL     OW 2473   0.965   3.677   5.593
  525SOL    HW1 2474   0.978   3.761   5.645
  525SOL    HW2 2475   1.047   3.621   5.598
  526SOL     OW 2476   3.313   0.174   3.767
  526SOL    HW1 2477   3.410   0.180   3.789
  526SOL    HW2 2478   3.287   0.078   3.756
  527SOL     OW 2479   0.206   0.853   0.682
  527SOL    HW1 2480   0.262   0.915   0.736
  527SOL    HW2 2481   0.217   0.874   0.584
  528SOL     OW 2482   6.765   3.257   3.903
  528SOL    HW1 2483   6.768   3.348   3.945
  528SOL    HW2 2484   6.701   3.199   3.954
  529SOL     OW 2485   1.616   0.987   0.258
  529SOL    HW1 2486   1.692   0.933   0.293
  529SOL    HW2 2487   1.538   0.978   0.319
  530SOL     OW 2488   3.820   3.947   0.920
  530SOL    HW1 2489   3.831   3.877   0.849
  530SOL    HW2 2490   3.824   3.904   1.010
  531SOL     OW 2491   1.290   0.896   0.994
  531SOL    HW1 2492   1.214   0.836   0.967
  531SOL    HW2 2493   1.323   0.870   1.085
  532SOL     OW 2494   1.655   2.195   7.005
  532SOL    HW1 2495   1.708   2.278   7.019
  532SOL    HW2 2496   1.716   2.118   6.991
  533SOL     OW 2497   3.562   0.166   4.565
  533SOL    HW1 2498   3.568   0.263   4.540
  533SOL    HW2 2499   3.650   0.121   4.547
  534SOL     OW 2500   1.623   5.106   1.233
  534SOL    HW1 2501   1.704   5.116   1.291
  534SOL    HW2 2502   1.541   5.103   1.291
  535SOL     OW 2503   5.295   3.574   3.692
  535SOL    HW1 2504   5.236   3.654   3.686
  535SOL    HW2 2505   5.248   3.501   3.742
  536SOL     OW 2506   6.776   6.980   2.216
  536SOL    HW1 2507   6.743   6.915   2.285
  536SOL    HW2 2508   6.876   6.976   2.211
  537SOL     OW 2509   4.081   2.028   4.508
  537SOL    HW1 2510   4.177   2.053   4.520
  537SOL    HW2 2511   4.068   1.933   4.537
  538SOL     OW 2512   3.324   4.735   5.503
  538SOL    HW1 2513   3.282   4.726   5.413
  538SOL    HW2 2514   3.317   4.829   5.535
  539SOL     OW 2515   1.042   0.308   0.022
  539SOL    HW1 2516   1.122   0.361   0.049
  539SOL    HW2 2517   1.048   0.216   0.062
  540SOL     OW 2518   0.793   0.295   3.997
  540SOL    HW1 2519   0.892   0.283   3.998
  540SOL    HW2 2520   0.771   0.392   4.003
  541SOL     OW 2521   4.277   5.461   4.423
  541SOL    HW1 2522   4.293   5.378   4.476
  541SOL    HW2 2523   4.309   5.448   4.329
  542SOL     OW 2524   3.703   0.649   5.914
  542SOL    HW1 2525   3.704   0.716   5.840
  542SOL    HW2 2526   3.642   0.573   5.889
  543SOL     OW 2527   6.560   2.319   4.410
  543SOL    HW1 2528   6.523   2.403   4.371
  543SOL    HW2 2529   6.540   2.242   4.350
  544SOL     OW 2530   1.629   3.888   1.149
  544SOL    HW1 2531   1.613   3.977   1.190
  544SOL    HW2 2532   1.727   3.869   1.148
  545SOL     OW 2533   5.937   0.900   1.081
  545SOL    HW1 2534   5.940   0.946   1.170
  545SOL    HW2 2535   5.933   0.801   1.094
  546SOL     OW 2536   0.143   4.319   2.854
  546SOL    HW1 2537   0.156   4.367   2.767
  546SOL    HW2 2538   0.077   4.370   2.910
  547SOL     OW 2539   4.398   0.971   6.206
  547SOL    HW1 2540   4.478   1.016   6.245
  547SOL    HW2 2541   4.368   1.018   6.123
  548SOL     OW 2542   3.640   2.153   6.933
  548SOL    HW1 2543   3.634   2.166   6.834
  548SOL    HW2 2544   3.674   2.061   6.952
  549SOL     OW 2545   6.269   1.584   1.684
  549SOL    HW1 2546   6.304   1.491   1.690
  549SOL    HW2 2547   6.262   1.611   1.588
  550SOL     OW 2548   6.958   5.455   3.362
  550SOL    HW1 2549   7.011   5.393   3.420
  550SOL    HW2 2550   6.877   5.487   3.411
  551SOL     OW 2551   6.715   0.766   0.784
  551SOL    HW1 2552   6.709   0.725   0.875
  551SOL    HW2 2553   6.805   0.809   0.774
  552SOL     OW 2554   6.267   5.111   5.722
  552SOL    HW1 2555   6.338   5.182   5.722
  552SOL    HW2 2556   6.224   5.106   5.812
  553SOL     OW 2557   2.509   0.927   6.501
  553SOL    HW1 2558   2.607   0.944   6.497
  553SOL    HW2 2559   2.489   0.836   6.463
  554SOL     OW 2560   5.826   6.399   1.390
  554SOL    HW1 2561   5.869   6.431   1.305
  554SOL    HW2 2562   5.880   6.430   1.468
  555SOL     OW 2563   1.416   3.932   5.892
  555SOL    HW1 2564   1.336   3.983   5.924
  555SOL    HW2 2565   1.407   3.836   5.920
  556SOL     OW 2566   5.374   0.100   3.964
  556SOL    HW1 2567   5.304   0.139   3.904
  556SOL    HW2 2568   5.332   0.075   4.051
  557SOL     OW 2569   6.445   4.149   6.788
  557SOL    HW1 2570   6.459   4.212   6.865
  557SOL    HW2 2571   6.506   4.174   6.713
  558SOL     OW 2572   3.288   4.042   2.561
  558SOL    HW1 2573   3.268   4.041   2.659
  558SOL    HW2 2574   3.204   4.025   2.509
  559SOL     OW 2575   6.098   0.050   5.628
  559SOL    HW1 2576   6.007   0.090   5.615
  559SOL    HW2 2577   6.120   0.049   5.726
  560SOL     OW 2578   6.225   3.140   3.229
  560SOL    HW1 2579   6.183   3.116   3.317
  560SOL    HW2 2580   6.265   3.058   3.188
  561SOL     OW 2581   0.735   3.212   0.074
  561SOL    HW1 2582   0.682   3.280   0.023
  561SOL    HW2 2583   0.824   3.200   0.031
  562SOL     OW 2584   4.093   7.020   5.444
  562SOL    HW1 2585   4.084   7.005   5.346
  562SOL    HW2 2586   4.185   0.031   5.464
  563SOL     OW 2587   2.224   1.635   4.243
  563SOL    HW1 2588   2.140   1.648   4.190
  563SOL    HW2 2589   2.214   1.554   4.301
  564SOL     OW 2590   6.673   2.068   5.758
  564SOL    HW1 2591   6.698   2.119   5.840
  564SOL    HW2 2592   6.747   2.073   5.691
  565SOL     OW 2593   4.056   3.471   3.360
  565SOL    HW1 2594   3.977   3.427   3.401
  565SOL    HW2 2595   4.091   3.541   3.422
  566SOL     OW 2596   3.421   6.764   2.973
  566SOL    HW1 2597   3.515   6.750   2.940
  566SOL    HW2 2598   3.414   6.733   3.068
  567SOL     OW 2599   1.943   3.006   6.460
  567SOL    HW1 2600   1.846   3.027   6.449
  567SOL    HW2 2601   1.991   3.023   6.374
  568SOL     OW 2602   6.755   6.383   0.588
  568SOL    HW1 2603   6.797   6.350   0.672
  568SOL    HW2 2604   6.797   6.338   0.510
  569SOL     OW 2605   6.454   2.252   0.546
  569SOL    HW1 2606   6.495   2.343   0.545
  569SOL    HW2 2607   6.374   2.253   0.607
  570SOL     OW 2608   2.402   1.069   5.788
  570SOL    HW1 2609   2.473   1.062   5.718
  570SOL    HW2 2610   2.338   0.992   5.777
  571SOL     OW 2611   2.214   5.328   2.301
  571SOL    HW1 2612   2.183   5.339   2.396
  571SOL    HW2 2613   2.225   5.418   2.259
  572SOL     OW 2614   2.680   0.081   3.960
  572SOL    HW1 2615   2.656   0.122   3.872
  572SOL    HW2 2616   2.629   0.126   4.033
  573SOL     OW 2617   0.179   1.268   5.459
  573SOL    HW1 2618   0.119   1.291   5.382
  573SOL    HW2 2619   0.123   1.235   5.536
  574SOL     OW 2620   2.547   2.344   5.751
  574SOL    HW1 2621   2.549   2.443   5.743
  574SOL    HW2 2622   2.466   2.316   5.802
  575SOL     OW 2623   3.460   3.076   0.352
  575SOL    HW1 2624   3.427   2.984   0.374
  575SOL    HW2 2625   3.508   3.114   0.432
  576SOL     OW 2626   2.076   3.300   2.938
  576SOL    HW1 2627   1.996   3.355   2.962
  576SOL    HW2 2628   2.048   3.205   2.924
  577SOL     OW 2629   0.948   1.493   2.011
  577SOL    HW1 2630   1.003   1.529   1.936
  577SOL    HW2 2631   0.861   1.459   1.976
  578SOL     OW 2632   2.069   6.443   6.688
  578SOL    HW1 2633   2.016   6.456   6.604
  578SOL    HW2 2634   2.084   6.531   6.732
  579SOL     OW 2635   2.453   4.685   1.708
  579SOL    HW1 2636   2.504   4.771   1.719
  579SOL    HW2 2637   2.507   4.609   1.744
  580SOL     OW 2638   4.199   5.107   4.424
  580SOL    HW1 2639   4.149   5.037   4.474
  580SOL    HW2 2640   4.297   5.095   4.437
  581SOL     OW 2641   1.883   2.865   4.488
  581SOL    HW1 2642   1.882   2.964   4.503
  581SOL    HW2 2643   1.942   2.822   4.555
  582SOL     OW 2644   5.590   5.841   3.752
  582SOL    HW1 2645   5.663   5.904   3.726
  582SOL    HW2 2646   5.544   5.874   3.834
  583SOL     OW 2647   4.008   5.606   5.827
  583SOL    HW1 2648   4.016   5.642   5.920
  583SOL    HW2 2649   3.915   5.571   5.814
  584SOL     OW 2650   4.272   0.832   5.703
  584SOL    HW1 2651   4.173   0.830   5.719
  584SOL    HW2 2652   4.319   0.835   5.791
  585SOL     OW 2653   2.969   6.898   1.978
  585SOL    HW1 2654   2.886   6.933   2.021
  585SOL    HW2 2655   2.971   6.927   1.882
  586SOL     OW 2656   4.465   0.032   0.845
  586SOL    HW1 2657   4.492   0.101   0.778
  586SOL    HW2 2658   4.546   7.007   0.876
  587SOL     OW 2659   5.109   1.855   2.120
  587SOL    HW1 2660   5.014   1.864   2.089
  587SOL    HW2 2661   5.147   1.769   2.088
  588SOL     OW 2662   1.283   5.259   2.508
  588SOL    HW1 2663   1.235   5.234   2.424
  588SOL    HW2 2664   1.338   5.182   2.540
  589SOL     OW 2665   3.126   6.146   1.089
  589SOL    HW1 2666   3.128   6.059   1.041
  589SOL    HW2 2667   3.168   6.217   1.032
  590SOL     OW 2668   4.717   1.712   0.515
  590SOL    HW1 2669   4.684   1.623   0.483
  590SOL    HW2 2670   4.681   1.730   0.607
  591SOL     OW 2671   3.593   5.840   4.726
  591SOL    HW1 2672   3.685   5.820   4.692
  591SOL    HW2 2673   3.555   5.758   4.768
  592SOL     OW 2674   4.510   2.277   3.983
  592SOL    HW1 2675   4.564   2.215   4.040
  592SOL    HW2 2676   4.456   2.224   3.918
  593SOL     OW 2677   3.095   1.332   6.265
  593SOL    HW1 2678   3.114   1.395   6.190
  593SOL    HW2 2679   3.144   1.246   6.251
  594SOL     OW 2680   5.297   1.532   1.722
  594SOL    HW1 2681   5.348   1.475   1.658
  594SOL    HW2 2682   5.214   1.483   1.751
  595SOL     OW 2683   5.386   6.073   2.265
  595SOL    HW1 2684   5.304   6.020   2.287
  595SOL    HW2 2685   5.414   6.125   2.346
  596SOL     OW 2686   6.468   4.917   3.863
  596SOL    HW1 2687   6.530   4.845   3.892
  596SOL    HW2 2688   6.485   4.939   3.767
  597SOL     OW 2689   2.911   0.213   6.050
  597SOL    HW1 2690   2.908   0.258   6.139
  597SOL    HW2 2691   2.923   0.114   6.064
  598SOL     OW 2692   3.085   3.184   4.526
  598SOL    HW1 2693   3.154   3.116   4.499
  598SOL    HW2 2694   3.092   3.201   4.624
  599SOL     OW 2695   1.310   5.865   1.807
  599SOL    HW1 2696   1.290   5.771   1.836
  599SOL    HW2 2697   1.225   5.917   1.806
  600SOL     OW 2698   0.010   3.697   4.786
  600SOL    HW1 2699   6.961   3.676   4.721
  600SOL    HW2 2700   0.087   3.635   4.770
  601SOL     OW 2701   1.954   6.743   4.829
  601SOL    HW1 2702   1.994   6.691   4.904
  601SOL    HW2 2703   1.923   6.680   4.758
  602SOL     OW 2704   2.792   6.186   4.052
  602SOL    HW1 2705   2.713   6.242   4.028
  602SOL    HW2 2706   2.793   6.104   3.995
  603SOL     OW 2707   1.635   1.338   5.430
  603SOL    HW1 2708   1.583   1.287   5.361
  603SOL    HW2 2709   1.714   1.380   5.387
  604SOL     OW 2710   6.497   2.816   1.679
  604SOL    HW1 2711   6.557   2.759   1.735
  604SOL    HW2 2712   6.411   2.768   1.663
  605SOL     OW 2713   0.343   5.766   2.194
  605SOL    HW1 2714   0.243   5.767   2.200
  605SOL    HW2 2715   0.379   5.688   2.246
  606SOL     OW 2716   3.461   6.545   4.622
  606SOL    HW1 2717   3.530   6.511   4.686
  606SOL    HW2 2718   3.423   6.468   4.570
  607SOL     OW 2719   0.780   4.572   6.256
  607SOL    HW1 2720   0.714   4.637   6.219
  607SOL    HW2 2721   0.854   4.621   6.300
  608SOL     OW 2722   2.902   1.232   5.432
  608SOL    HW1 2723   2.988   1.209   5.386
  608SOL    HW2 2724   2.826   1.215   5.370
  609SOL     OW 2725   3.136   2.863   1.913
  609SOL    HW1 2726   3.131   2.862   2.013
  609SOL    HW2 2727   3.050   2.895   1.875
  610SOL     OW 2728   4.833   3.432   0.689
  610SOL    HW1 2729   4.921   3.385   0.681
  610SOL    HW2 2730   4.833   3.487   0.773
  611SOL     OW 2731   3.920   0.187   2.580
  611SOL    HW1 2732   3.923   0.163   2.677
  611SOL    HW2 2733   4.001   0.240   2.556
  612SOL     OW 2734   4.017   4.594   6.139
  612SOL    HW1 2735   4.096   4.544   6.105
  612SOL    HW2 2736   3.963   4.629   6.062
  613SOL     OW 2737   4.296   5.306   5.316
  613SOL    HW1 2738   4.218   5.244   5.311
  613SOL    HW2 2739   4.380   5.253   5.326
  614SOL     OW 2740   4.201   5.307   5.682
  614SOL    HW1 2741   4.251   5.387   5.716
  614SOL    HW2 2742   4.128   5.283   5.746
  615SOL     OW 2743   0.698   5.069   1.935
  615SOL    HW1 2744   0.774   5.009   1.961
  615SOL    HW2 2745   0.702   5.154   1.987
  616SOL     OW 2746   5.767   3.602   3.199
  616SOL    HW1 2747   5.712   3.554   3.267
  616SOL    HW2 2748   5.795   3.538   3.127
  617SOL     OW 2749   3.278   5.547   6.572
  617SOL    HW1 2750   3.328   5.631   6.548
  617SOL    HW2 2751   3.180   5.565   6.566
  618SOL     OW 2752   1.483   0.975   2.358
  618SOL    HW1 2753   1.513   1.068   2.376
  618SOL    HW2 2754   1.451   0.967   2.264
  619SOL     OW 2755   1.145   1.062   6.654
  619SOL    HW1 2756   1.078   1.027   6.589
  619SOL    HW2 2757   1.133   1.016   6.742
  620SOL     OW 2758   4.734   3.863   0.510
  620SOL    HW1 2759   4.663   3.811   0.462
  620SOL    HW2 2760   4.816   3.808   0.519
  621SOL     OW 2761   0.516   4.770   1.990
  621SOL    HW1 2762   0.559   4.735   1.907
  621SOL    HW2 2763   0.517   4.699   2.061
  622SOL     OW 2764   1.762   1.449   0.181
  622SOL    HW1 2765   1.810   1.391   0.115
  622SOL    HW2 2766   1.675   1.478   0.141
  623SOL     OW 2767   0.618   4.431   6.815
  623SOL    HW1 2768   0.633   4.440   6.717
  623SOL    HW2 2769   0.706   4.418   6.861
  624SOL     OW 2770   0.540   2.561   3.154
  624SOL    HW1 2771   0.612   2.630   3.160
  624SOL    HW2 2772   0.525   2.537   3.058
  625SOL     OW 2773   2.633   1.686   2.213
  625SOL    HW1 2774   2.586   1.714   2.130
  625SOL    HW2 2775   2.567   1.679   2.288
  626SOL     OW 2776   2.591   6.222   4.634
  626SOL    HW1 2777   2.592   6.217   4.534
  626SOL    HW2 2778   2.675   6.183   4.671
  627SOL     OW 2779   5.596   0.905   6.845
  627SOL    HW1 2780   5.518   0.901   6.782
  627SOL    HW2 2781   5.576   0.968   6.920
  628SOL     OW 2782   4.763   4.101   3.682
  628SOL    HW1 2783   4.711   4.023   3.647
  628SOL    HW2 2784   4.775   4.169   3.609
  629SOL     OW 2785   1.035   0.449   0.976
  629SOL    HW1 2786   1.051   0.413   0.884
  629SOL    HW2 2787   0.983   0.382   1.029
  630SOL     OW 2788   4.040   1.865   1.191
  630SOL    HW1 2789   4.001   1.919   1.265
  630SOL    HW2 2790   4.139   1.881   1.185
  631SOL     OW 2791   2.282   0.274   5.263
  631SOL    HW1 2792   2.337   0.351   5.232
  631SOL    HW2 2793   2.202   0.263   5.203
  632SOL     OW 2794   2.034   0.953   0.849
  632SOL    HW1 2795   1.979   1.032   0.876
  632SOL    HW2 2796   2.028   0.882   0.919
  633SOL     OW 2797   2.468   6.798   6.326
  633SOL    HW1 2798   2.408   6.807   6.246
  633SOL    HW2 2799   2.563   6.802   6.297
  634SOL     OW 2800   3.682   5.775   0.701
  634SOL    HW1 2801   3.748   5.848   0.681
  634SOL    HW2 2802   3.590   5.807   0.679
  635SOL     OW 2803   2.665   0.392   2.555
  635SOL    HW1 2804   2.604   0.449   2.610
  635SOL    HW2 2805   2.662   0.298   2.590
  636SOL     OW 2806   5.160   5.009   0.467
  636SOL    HW1 2807   5.231   5.064   0.422
  636SOL    HW2 2808   5.093   5.069   0.510
  637SOL     OW 2809   4.722   4.631   1.099
  637SOL    HW1 2810   4.641   4.675   1.137
  637SOL    HW2 2811   4.702   4.535   1.080
  638SOL     OW 2812   4.746   1.249   2.422
  638SOL    HW1 2813   4.687   1.311   2.368
  638SOL    HW2 2814   4.703   1.231   2.510
  639SOL     OW 2815   4.354   4.524   1.803
  639SOL    HW1 2816   4.375   4.438   1.849
  639SOL    HW2 2817   4.331   4.506   1.708
  640SOL     OW 2818   2.701   4.150   5.378
  640SOL    HW1 2819   2.784   4.111   5.337
  640SOL    HW2 2820   2.695   4.247   5.357
  641SOL     OW 2821   0.184   6.219   4.780
  641SOL    HW1 2822   0.092   6.180   4.783
  641SOL    HW2 2823   0.197   6.280   4.858
  642SOL     OW 2824   0.897   5.122   4.790
  642SOL    HW1 2825   0.813   5.096   4.743
  642SOL    HW2 2826   0.931   5.208   4.752
  643SOL     OW 2827   5.884   5.676   5.610
  643SOL    HW1 2828   5.954   5.629   5.556
  643SOL    HW2 2829   5.806   5.616   5.622
  644SOL     OW 2830   1.389   6.541   2.323
  644SOL    HW1 2831   1.301   6.506   2.356
  644SOL    HW2 2832   1.423   6.481   2.250
  645SOL     OW 2833   5.644   2.630   3.523
  645SOL    HW1 2834   5.741   2.606   3.518
  645SOL    HW2 2835   5.607   2.598   3.610
  646SOL     OW 2836   2.057   1.716   4.494
  646SOL    HW1 2837   2.149   1.741   4.463
  646SOL    HW2 2838   2.064   1.656   4.573
  647SOL     OW 2839   6.332   3.277   0.527
  647SOL    HW1 2840   6.248   3.330   0.513
  647SOL    HW2 2841   6.363   3.238   0.440
  648SOL     OW 2842   6.102   3.396   1.688
  648SOL    HW1 2843   6.101   3.349   1.776
  648SOL    HW2 2844   6.045   3.346   1.622
  649SOL     OW 2845   4.363   4.429   1.246
  649SOL    HW1 2846   4.442   4.370   1.236
  649SOL    HW2 2847   4.390   4.524   1.230
  650SOL     OW 2848   5.018   4.754   0.488
  650SOL    HW1 2849   5.081   4.829   0.471
  650SOL    HW2 2850   4.936   4.765   0.431
  651SOL     OW 2851   0.972   6.310   6.899
  651SOL    HW1 2852   0.933   6.311   6.991
  651SOL    HW2 2853   1.063   6.267   6.902
  652SOL     OW 2854   3.898   1.441   2.480
  652SOL    HW1 2855   3.869   1.373   2.413
  652SOL    HW2 2856   3.973   1.495   2.443
  653SOL     OW 2857   3.590   5.000   3.321
  653SOL    HW1 2858   3.518   5.065   3.299
  653SOL    HW2 2859   3.613   5.007   3.418
  654SOL     OW 2860   6.765   4.232   0.311
  654SOL    HW1 2861   6.679   4.183   0.300
  654SOL    HW2 2862   6.751   4.311   0.371
  655SOL     OW 2863   0.623   0.719   0.997
  655SOL    HW1 2864   0.593   0.772   0.917
  655SOL    HW2 2865   0.689   0.772   1.049
  656SOL     OW 2866   3.007   6.582   1.841
  656SOL    HW1 2867   3.032   6.531   1.924
  656SOL    HW2 2868   2.917   6.624   1.854
  657SOL     OW 2869   3.052   1.532   6.901
  657SOL    HW1 2870   3.047   1.627   6.932
  657SOL    HW2 2871   3.008   1.524   6.812
  658SOL     OW 2872   3.438   4.267   6.341
  658SOL    HW1 2873   3.362   4.318   6.301
  658SOL    HW2 2874   3.460   4.189   6.282
  659SOL     OW 2875   1.883   6.723   6.723
  659SOL    HW1 2876   1.877   6.736   6.624
  659SOL    HW2 2877   1.967   6.766   6.757
  660SOL     OW 2878   3.791   5.257   2.450
  660SOL    HW1 2879   3.752   5.190   2.386
  660SOL    HW2 2880   3.826   5.335   2.399
  661SOL     OW 2881   4.849   5.501   2.854
  661SOL    HW1 2882   4.848   5.511   2.754
  661SOL    HW2 2883   4.941   5.516   2.888
  662SOL     OW 2884   3.372   1.185   6.921
  662SOL    HW1 2885   3.338   1.266   6.873
  662SOL    HW2 2886   3.356   1.194   7.019
  663SOL     OW 2887   2.397   4.310   5.223
  663SOL    HW1 2888   2.496   4.314   5.216
  663SOL    HW2 2889   2.367   4.214   5.226
  664SOL     OW 2890   6.366   0.708   6.835
  664SOL    HW1 2891   6.311   0.791   6.838
  664SOL    HW2 2892   6.388   0.679   6.928
  665SOL     OW 2893   2.207   5.911   2.878
  665SOL    HW1 2894   2.254   5.968   2.946
  665SOL    HW2 2895   2.272   5.846   2.839
  666SOL     OW 2896   4.410   0.908   2.359
  666SOL    HW1 2897   4.377   0.917   2.265
  666SOL    HW2 2898   4.401   0.996   2.406
  667SOL     OW 2899   0.721   6.877   2.734
  667SOL    HW1 2900   0.721   6.865   2.833
  667SOL    HW2 2901   0.709   6.788   2.689
  668SOL     OW 2902   5.617   3.797   0.057
  668SOL    HW1 2903   5.671   3.874   0.022
  668SOL    HW2 2904   5.524   3.802   0.022
  669SOL     OW 2905   5.112   1.416   2.983
  669SOL    HW1 2906   5.127   1.328   3.027
  669SOL    HW2 2907   5.021   1.450   3.007
  670SOL     OW 2908   2.153   2.088   3.473
  670SOL    HW1 2909   2.226   2.063   3.411
  670SOL    HW2 2910   2.103   2.006   3.501
  671SOL     OW 2911   2.720   6.530   1.482
  671SOL    HW1 2912   2.817   6.513   1.499
  671SOL    HW2 2913   2.698   6.504   1.388
  672SOL     OW 2914   0.997   6.698   2.345
  672SOL    HW1 2915   1.024   6.616   2.396
  672SOL    HW2 2916   1.075   6.760   2.339
  673SOL     OW 2917   5.118   0.047   0.532
  673SOL    HW1 2918   5.138   0.144   0.543
  673SOL    HW2 2919   5.157   0.014   0.446
  674SOL     OW 2920   0.410   0.749   4.309
  674SOL    HW1 2921   0.444   0.734   4.402
  674SOL    HW2 2922   0.426   0.667   4.254
  675SOL     OW 2923   6.269   2.875   2.677
  675SOL    HW1 2924   6.252   2.842   2.584
  675SOL    HW2 2925   6.189   2.856   2.734
  676SOL     OW 2926   2.132   6.014   6.086
  676SOL    HW1 2927   2.204   6.083   6.091
  676SOL    HW2 2928   2.124   5.967   6.174
  677SOL     OW 2929   4.708   1.033   0.673
  677SOL    HW1 2930   4.623   1.071   0.709
  677SOL    HW2 2931   4.731   1.079   0.587
  678SOL     OW 2932   2.044   4.843   4.876
  678SOL    HW1 2933   2.094   4.807   4.955
  678SOL    HW2 2934   1.998   4.767   4.829
  679SOL     OW 2935   5.170   1.966   5.236
  679SOL    HW1 2936   5.150   1.889   5.296
  679SOL    HW2 2937   5.084   2.006   5.202
  680SOL     OW 2938   4.148   6.874   4.373
  680SOL    HW1 2939   4.154   6.783   4.332
  680SOL    HW2 2940   4.137   6.943   4.300
  681SOL     OW 2941   4.974   5.058   2.198
  681SOL    HW1 2942   4.957   5.071   2.296
  681SOL    HW2 2943   4.947   4.965   2.172
  682SOL     OW 2944   0.802   0.745   3.544
  682SOL    HW1 2945   0.850   0.784   3.623
  682SOL    HW2 2946   0.755   0.661   3.572
  683SOL     OW 2947   4.266   3.487   1.379
  683SOL    HW1 2948   4.231   3.423   1.448
  683SOL    HW2 2949   4.201   3.492   1.303
  684SOL     OW 2950   6.427   0.640   6.073
  684SOL    HW1 2951   6.487   0.615   5.998
  684SOL    HW2 2952   6.435   0.738   6.092
  685SOL     OW 2953   3.548   0.246   3.161
  685SOL    HW1 2954   3.506   0.285   3.243
  685SOL    HW2 2955   3.481   0.194   3.109
  686SOL     OW 2956   4.239   0.916   5.044
  686SOL    HW1 2957   4.308   0.861   5.090
  686SOL    HW2 2958   4.191   0.860   4.976
  687SOL     OW 2959   1.611   1.829   4.138
  687SOL    HW1 2960   1.686   1.835   4.204
  687SOL    HW2 2961   1.590   1.733   4.121
  688SOL     OW 2962   6.164   1.513   0.126
  688SOL    HW1 2963   6.208   1.473   0.206
  688SOL    HW2 2964   6.065   1.503   0.133
  689SOL     OW 2965   1.713   5.457   6.003
  689SOL    HW1 2966   1.748   5.364   6.011
  689SOL    HW2 2967   1.740   5.510   6.084
  690SOL     OW 2968   5.749   3.439   2.554
  690SOL    HW1 2969   5.685   3.379   2.600
  690SOL    HW2 2970   5.819   3.384   2.508
  691SOL     OW 2971   4.415   1.418   6.911
  691SOL    HW1 2972   4.348   1.343   6.917
  691SOL    HW2 2973   4.373   1.503   6.944
  692SOL     OW 2974   2.686   0.900   4.604
  692SOL    HW1 2975   2.757   0.966   4.630
  692SOL    HW2 2976   2.728   0.815   4.574
  693SOL     OW 2977   5.247   5.978   3.972
  693SOL    HW1 2978   5.288   6.067   3.990
  693SOL    HW2 2979   5.153   5.991   3.939
  694SOL     OW 2980   4.351   5.481   5.087
  694SOL    HW1 2981   4.369   5.569   5.133
  694SOL    HW2 2982   4.305   5.419   5.150
  695SOL     OW 2983   3.044   6.951   4.302
  695SOL    HW1 2984   3.098   6.871   4.329
  695SOL    HW2 2985   2.960   6.954   4.355
  696SOL     OW 2986   4.770   4.598   3.139
  696SOL    HW1 2987   4.771   4.664   3.214
  696SOL    HW2 2988   4.814   4.638   3.059
  697SOL     OW 2989   0.160   4.961   2.299
  697SOL    HW1 2990   0.185   4.879   2.351
  697SOL    HW2 2991   0.232   4.982   2.233
  698SOL     OW 2992   5.566   0.113   1.176
  698SOL    HW1 2993   5.594   0.110   1.080
  698SOL    HW2 2994   5.634   0.163   1.230
  699SOL     OW 2995   2.359   2.038   1.066
  699SOL    HW1 2996   2.400   2.061   0.978
  699SOL    HW2 2997   2.281   1.977   1.052
  700SOL     OW 2998   3.899   6.692   2.793
  700SOL    HW1 2999   3.959   6.708   2.714
  700SOL    HW2 3000   3.916   6.762   2.862
  701SOL     OW 3001   6.332   5.405   1.009
  701SOL    HW1 3002   6.339   5.505   1.012
  701SOL    HW2 3003   6.309   5.371   1.101
  702SOL     OW 3004   3.023   1.074   3.841
  702SOL    HW1 3005   3.078   1.000   3.880
  702SOL    HW2 3006   3.075   1.160   3.846
  703SOL     OW 3007   3.163   2.521   6.272
  703SOL    HW1 3008   3.255   2.499   6.240
  703SOL    HW2 3009   3.153   2.620   6.276
  704SOL     OW 3010   1.313   3.099   6.013
  704SOL    HW1 3011   1.293   3.137   6.103
  704SOL    HW2 3012   1.276   3.006   6.007
  705SOL     OW 3013   0.009   6.290   4.540
  705SOL    HW1 3014   0.079   6.225   4.510
  705SOL    HW2 3015   0.053   6.365   4.590
  706SOL     OW 3016   4.611   0.999   5.016
  706SOL    HW1 3017   4.669   1.045   4.948
  706SOL    HW2 3018   4.662   0.926   5.060
  707SOL     OW 3019   3.400   5.168   3.221
  707SOL    HW1 3020   3.416   5.111   3.139
  707SOL    HW2 3021   3.447   5.256   3.210
  708SOL     OW 3022   3.502   0.581   3.738
  708SOL    HW1 3023   3.452   0.514   3.683
  708SOL    HW2 3024   3.550   0.645   3.677
  709SOL     OW 3025   2.432   0.059   1.325
  709SOL    HW1 3026   2.376   0.141   1.332
  709SOL    HW2 3027   2.407   7.020   1.399
  710SOL     OW 3028   4.801   2.921   1.683
  710SOL    HW1 3029   4.837   2.837   1.725
  710SOL    HW2 3030   4.735   2.964   1.746
  711SOL     OW 3031   0.176   2.404   5.675
  711SOL    HW1 3032   0.221   2.492   5.694
  711SOL    HW2 3033   0.168   2.392   5.576
  712SOL     OW 3034   5.059   3.309   0.632
  712SOL    HW1 3035   5.104   3.394   0.603
  712SOL    HW2 3036   5.110   3.231   0.597
  713SOL     OW 3037   3.891   2.688   5.300
  713SOL    HW1 3038   3.862   2.747   5.224
  713SOL    HW2 3039   3.966   2.629   5.271
  714SOL     OW 3040   5.101   5.230   3.420
  714SOL    HW1 3041   5.065   5.311   3.374
  714SOL    HW2 3042   5.175   5.191   3.366
  715SOL     OW 3043   6.342   5.460   5.625
  715SOL    HW1 3044   6.315   5.543   5.675
  715SOL    HW2 3045   6.260   5.416   5.589
  716SOL     OW 3046   1.962   1.349   2.573
  716SOL    HW1 3047   1.975   1.418   2.644
  716SOL    HW2 3048   2.034   1.357   2.505
  717SOL     OW 3049   5.380   5.295   4.020
  717SOL    HW1 3050   5.363   5.329   3.928
  717SOL    HW2 3051   5.408   5.371   4.079
  718SOL     OW 3052   5.712   1.990   4.204
  718SOL    HW1 3053   5.702   1.914   4.269
  718SOL    HW2 3054   5.791   1.975   4.145
  719SOL     OW 3055   5.346   0.361   3.638
  719SOL    HW1 3056   5.380   0.386   3.729
  719SOL    HW2 3057   5.422   0.362   3.573
  720SOL     OW 3058   2.124   0.881   6.741
  720SOL    HW1 3059   2.160   0.790   6.720
  720SOL    HW2 3060   2.106   0.887   6.839
  721SOL     OW 3061   0.153   2.372   2.971
  721SOL    HW1 3062   0.072   2.362   2.913
  721SOL    HW2 3063   0.179   2.468   2.977
  722SOL     OW 3064   4.264   6.765   0.145
  722SOL    HW1 3065   4.195   6.759   0.217
  722SOL    HW2 3066   4.355   6.762   0.186
  723SOL     OW 3067   2.508   5.632   3.707
  723SOL    HW1 3068   2.582   5.699   3.704
  723SOL    HW2 3069   2.449   5.644   3.627
  724SOL     OW 3070   1.175   0.934   3.504
  724SOL    HW1 3071   1.145   1.017   3.550
  724SOL    HW2 3072   1.194   0.953   3.408
  725SOL     OW 3073   1.628   3.956   2.306
  725SOL    HW1 3074   1.535   3.989   2.324
  725SOL    HW2 3075   1.694   4.023   2.341
  726SOL     OW 3076   2.108   4.158   0.602
  726SOL    HW1 3077   2.122   4.124   0.509
  726SOL    HW2 3078   2.173   4.113   0.664
  727SOL     OW 3079   4.043   5.426   4.994
  727SOL    HW1 3080   3.999   5.398   5.079
  727SOL    HW2 3081   4.097   5.509   5.009
  728SOL     OW 3082   6.600   3.082   4.060
  728SOL    HW1 3083   6.527   3.129   4.110
  728SOL    HW2 3084   6.572   2.988   4.042
  729SOL     OW 3085   0.193   4.284   1.528
  729SOL    HW1 3086   0.206   4.377   1.495
  729SOL    HW2 3087   0.216   4.280   1.626
  730SOL     OW 3088   5.082   0.469   3.685
  730SOL    HW1 3089   5.035   0.541   3.633
  730SOL    HW2 3090   5.173   0.454   3.646
  731SOL     OW 3091   4.351   4.080   6.077
  731SOL    HW1 3092   4.384   4.103   6.168
  731SOL    HW2 3093   4.277   4.142   6.051
  732SOL     OW 3094   5.086   1.511   3.468
  732SOL    HW1 3095   5.104   1.424   3.424
  732SOL    HW2 3096   5.156   1.530   3.536
  733SOL     OW 3097   6.060   6.897   3.222
  733SOL    HW1 3098   5.974   6.931   3.186
  733SOL    HW2 3099   6.124   6.973   3.234
  734SOL     OW 3100   5.294   6.216   2.727
  734SOL    HW1 3101   5.347   6.175   2.801
  734SOL    HW2 3102   5.196   6.210   2.749
  735SOL     OW 3103   4.992   0.996   2.058
  735SOL    HW1 3104   4.933   1.001   2.139
  735SOL    HW2 3105   5.083   1.031   2.081
  736SOL     OW 3106   1.122   1.124   4.343
  736SOL    HW1 3107   1.204   1.106   4.289
  736SOL    HW2 3108   1.117   1.221   4.364
  737SOL     OW 3109   5.255   1.081   6.402
  737SOL    HW1 3110   5.338   1.131   6.375
  737SOL    HW2 3111   5.226   1.112   6.492
  738SOL     OW 3112   2.541   4.179   1.200
  738SOL    HW1 3113   2.596   4.096   1.191
  738SOL    HW2 3114   2.580   4.250   1.141
  739SOL     OW 3115   2.665   6.759   4.837
  739SOL    HW1 3116   2.591   6.712   4.786
  739SOL    HW2 3117   2.680   6.711   4.923
  740SOL     OW 3118   5.252   3.105   3.090
  740SOL    HW1 3119   5.186   3.179   3.078
  740SOL    HW2 3120   5.318   3.130   3.161
  741SOL     OW 3121   2.880   0.386   3.151
  741SOL    HW1 3122   2.950   0.437   3.201
  741SOL    HW2 3123   2.905   0.383   3.054
  742SOL     OW 3124   2.020   6.991   1.663
  742SOL    HW1 3125   1.923   6.966   1.657
  742SOL    HW2 3126   2.076   6.908   1.657
  743SOL     OW 3127   0.793   6.192   3.257
  743SOL    HW1 3128   0.884   6.151   3.268
  743SOL    HW2 3129   0.785   6.272   3.317
  744SOL     OW 3130   4.570   1.481   0.416
  744SOL    HW1 3131   4.566   1.396   0.363
  744SOL    HW2 3132   4.543   1.462   0.511
  745SOL     OW 3133   3.003   6.329   5.012
  745SOL    HW1 3134   2.978   6.390   4.937
  745SOL    HW2 3135   3.013   6.236   4.977
  746SOL     OW 3136   6.012   4.247   5.573
  746SOL    HW1 3137   5.993   4.150   5.560
  746SOL    HW2 3138   5.933   4.301   5.544
  747SOL     OW 3139   5.542   5.853   2.948
  747SOL    HW1 3140   5.513   5.762   2.976
  747SOL    HW2 3141   5.593   5.897   3.022
  748SOL     OW 3142   5.589   5.480   2.289
  748SOL    HW1 3143   5.591   5.387   2.251
  748SOL    HW2 3144   5.499   5.497   2.329
  749SOL     OW 3145   5.040   3.941   3.493
  749SOL    HW1 3146   5.039   3.849   3.452
  749SOL    HW2 3147   4.978   4.001   3.443
  750SOL     OW 3148   2.277   2.054   1.903
  750SOL    HW1 3149   2.226   2.127   1.858
  750SOL    HW2 3150   2.312   2.086   1.990
  751SOL     OW 3151   4.807   0.239   6.744
  751SOL    HW1 3152   4.733   0.233   6.811
  751SOL    HW2 3153   4.772   0.216   6.653
  752SOL     OW 3154   3.538   2.502   5.456
  752SOL    HW1 3155   3.521   2.434   5.528
  752SOL    HW2 3156   3.452   2.531   5.416
  753SOL     OW 3157   3.944   4.017   4.978
  753SOL    HW1 3158   3.851   3.991   5.004
  753SOL    HW2 3159   3.942   4.061   4.888
  754SOL     OW 3160   5.772   0.473   6.678
  754SOL    HW1 3161   5.741   0.567   6.677
  754SOL    HW2 3162   5.847   0.464   6.744
  755SOL     OW 3163   4.090   4.548   5.380
  755SOL    HW1 3164   4.142   4.463   5.374
  755SOL    HW2 3165   4.022   4.541   5.453
  756SOL     OW 3166   2.315   4.790   5.968
  756SOL    HW1 3167   2.405   4.791   5.926
  756SOL    HW2 3168   2.285   4.695   5.981
  757SOL     OW 3169   2.733   6.874   2.542
  757SOL    HW1 3170   2.687   6.871   2.631
  757SOL    HW2 3171   2.767   6.782   2.520
  758SOL     OW 3172   3.377   1.862   3.975
  758SOL    HW1 3173   3.474   1.865   4.000
  758SOL    HW2 3174   3.340   1.954   3.974
  759SOL     OW 3175   0.445   3.187   4.547
  759SOL    HW1 3176   0.462   3.216   4.642
  759SOL    HW2 3177   0.359   3.227   4.515
  760SOL     OW 3178   6.714   6.036   3.753
  760SOL    HW1 3179   6.660   6.069   3.675
  760SOL    HW2 3180   6.803   6.006   3.721
  761SOL     OW 3181   4.714   3.534   5.557
  761SOL    HW1 3182   4.620   3.547   5.527
  761SOL    HW2 3183   4.776   3.584   5.496
  762SOL     OW 3184   3.114   5.809   4.606
  762SOL    HW1 3185   3.089   5.739   4.539
  762SOL    HW2 3186   3.133   5.895   4.559
  763SOL     OW 3187   5.592   0.365   6.986
  763SOL    HW1 3188   5.557   0.458   6.979
  763SOL    HW2 3189   5.598   0.325   6.894
  764SOL     OW 3190   5.348   0.041   5.141
  764SOL    HW1 3191   5.339   7.009   5.058
  764SOL    HW2 3192   5.432   0.096   5.136
  765SOL     OW 3193   0.101   6.664   0.919
  765SOL    HW1 3194   0.066   6.605   0.846
  765SOL    HW2 3195   0.115   6.756   0.884
  766SOL     OW 3196   2.178   2.335   5.609
  766SOL    HW1 3197   2.240   2.399   5.564
  766SOL    HW2 3198   2.219   2.304   5.695
  767SOL     OW 3199   0.464   6.375   4.559
  767SOL    HW1 3200   0.499   6.308   4.625
  767SOL    HW2 3201   0.532   6.389   4.486
  768SOL     OW 3202   2.572   5.383   2.039
  768SOL    HW1 3203   2.540   5.389   1.945
  768SOL    HW2 3204   2.671   5.395   2.042
  769SOL     OW 3205   2.971   2.175   4.817
  769SOL    HW1 3206   3.007   2.201   4.727
  769SOL    HW2 3207   3.036   2.202   4.888
  770SOL     OW 3208   1.793   4.985   4.957
  770SOL    HW1 3209   1.873   4.955   4.906
  770SOL    HW2 3210   1.822   5.025   5.044
  771SOL     OW 3211   1.024   6.089   3.336
  771SOL    HW1 3212   1.100   6.146   3.367
  771SOL    HW2 3213   1.059   6.003   3.298
  772SOL     OW 3214   5.760   4.419   0.382
  772SOL    HW1 3215   5.789   4.492   0.444
  772SOL    HW2 3216   5.694   4.360   0.428
  773SOL     OW 3217   0.391   3.899   3.623
  773SOL    HW1 3218   0.311   3.843   3.645
  773SOL    HW2 3219   0.473   3.841   3.624
  774SOL     OW 3220   2.240   0.453   2.881
  774SOL    HW1 3221   2.223   0.395   2.960
  774SOL    HW2 3222   2.188   0.538   2.890
  775SOL     OW 3223   1.989   4.281   3.483
  775SOL    HW1 3224   1.971   4.312   3.576
  775SOL    HW2 3225   2.088   4.279   3.468
  776SOL     OW 3226   2.571   5.304   6.703
  776SOL    HW1 3227   2.569   5.398   6.669
  776SOL    HW2 3228   2.521   5.244   6.641
  777SOL     OW 3229   1.741   3.558   0.286
  777SOL    HW1 3230   1.708   3.622   0.216
  777SOL    HW2 3231   1.754   3.468   0.245
  778SOL     OW 3232   2.941   0.027   1.331
  778SOL    HW1 3233   2.855   0.077   1.333
  778SOL    HW2 3234   2.923   6.954   1.319
  779SOL     OW 3235   0.389   1.871   3.497
  779SOL    HW1 3236   0.475   1.916   3.519
  779SOL    HW2 3237   0.404   1.807   3.421
  780SOL     OW 3238   1.065   1.568   4.526
  780SOL    HW1 3239   1.010   1.612   4.455
  780SOL    HW2 3240   1.023   1.583   4.615
  781SOL     OW 3241   0.962   4.277   0.746
  781SOL    HW1 3242   0.906   4.348   0.787
  781SOL    HW2 3243   0.915   4.189   0.754
  782SOL     OW 3244   1.998   3.372   5.419
  782SOL    HW1 3245   2.066   3.320   5.470
  782SOL    HW2 3246   2.003   3.469   5.444
  783SOL     OW 3247   6.236   4.755   6.757
  783SOL    HW1 3248   6.231   4.664   6.717
  783SOL    HW2 3249   6.148   4.777   6.800
  784SOL     OW 3250   2.955   6.612   0.550
  784SOL    HW1 3251   2.933   6.688   0.489
  784SOL    HW2 3252   3.022   6.641   0.618
  785SOL     OW 3253   1.551   6.696   4.626
  785SOL    HW1 3254   1.545   6.665   4.531
  785SOL    HW2 3255   1.541   6.618   4.688
  786SOL     OW 3256   6.930   1.295   3.464
  786SOL    HW1 3257   6.981   1.327   3.384
  786SOL    HW2 3258   6.993   1.285   3.542
  787SOL     OW 3259   2.660   0.750   0.736
  787SOL    HW1 3260   2.709   0.663   0.741
  787SOL    HW2 3261   2.588   0.744   0.667
  788SOL     OW 3262   3.492   2.645   1.445
  788SOL    HW1 3263   3.451   2.618   1.532
  788SOL    HW2 3264   3.550   2.571   1.410
  789SOL     OW 3265   4.080   5.126   1.277
  789SOL    HW1 3266   4.081   5.221   1.247
  789SOL    HW2 3267   4.109   5.067   1.202
  790SOL     OW 3268   0.734   2.372   2.897
  790SOL    HW1 3269   0.789   2.388   2.979
  790SOL    HW2 3270   0.676   2.292   2.912
  791SOL     OW 3271   3.270   5.335   5.066
  791SOL    HW1 3272   3.291   5.275   4.989
  791SOL    HW2 3273   3.299   5.291   5.151
  792SOL     OW 3274   1.323   0.747   1.235
  792SOL    HW1 3275   1.383   0.757   1.315
  792SOL    HW2 3276   1.288   0.654   1.231
  793SOL     OW 3277   3.357   5.848   4.145
  793SOL    HW1 3278   3.412   5.920   4.104
  793SOL    HW2 3279   3.394   5.759   4.119
  794SOL     OW 3280   3.410   3.611   3.335
  794SOL    HW1 3281   3.503   3.594   3.301
  794SOL    HW2 3282   3.350   3.536   3.307
  795SOL     OW 3283   3.839   6.769   6.415
  795SOL    HW1 3284   3.770   6.730   6.354
  795SOL    HW2 3285   3.853   6.865   6.391
  796SOL     OW 3286   0.669   2.998   6.877
  796SOL    HW1 3287   0.578   2.964   6.899
  796SOL    HW2 3288   0.684   3.086   6.921
  797SOL     OW 3289   5.285   6.561   0.914
  797SOL    HW1 3290   5.333   6.624   0.975
  797SOL    HW2 3291   5.341   6.479   0.900
  798SOL     OW 3292   3.705   6.445   0.763
  798SOL    HW1 3293   3.744   6.496   0.840
  798SOL    HW2 3294   3.689   6.508   0.687
  799SOL     OW 3295   1.246   2.400   5.948
  799SOL    HW1 3296   1.313   2.401   6.022
  799SOL    HW2 3297   1.283   2.448   5.869
  800SOL     OW 3298   5.974   2.643   1.917
  800SOL    HW1 3299   6.063   2.662   1.958
  800SOL    HW2 3300   5.915   2.722   1.928
  801SOL     OW 3301   2.146   5.272   5.917
  801SOL    HW1 3302   2.108   5.277   5.825
  801SOL    HW2 3303   2.114   5.350   5.971
  802SOL     OW 3304   5.559   2.661   6.872
  802SOL    HW1 3305   5.644   2.627   6.834
  802SOL    HW2 3306   5.579   2.724   6.948
  803SOL     OW 3307   2.698   1.518   5.203
  803SOL    HW1 3308   2.766   1.563   5.260
  803SOL    HW2 3309   2.730   1.513   5.109
  804SOL     OW 3310   6.159   1.142   2.358
  804SOL    HW1 3311   6.230   1.073   2.372
  804SOL    HW2 3312   6.130   1.178   2.447
  805SOL     OW 3313   3.811   0.396   3.576
  805SOL    HW1 3314   3.856   0.390   3.665
  805SOL    HW2 3315   3.827   0.486   3.536
  806SOL     OW 3316   2.180   5.974   5.637
  806SOL    HW1 3317   2.278   5.978   5.657
  806SOL    HW2 3318   2.167   5.941   5.543
  807SOL     OW 3319   0.477   5.795   5.842
  807SOL    HW1 3320   0.441   5.838   5.924
  807SOL    HW2 3321   0.462   5.854   5.763
  808SOL     OW 3322   5.376   2.589   6.694
  808SOL    HW1 3323   5.427   2.619   6.613
  808SOL    HW2 3324   5.419   2.625   6.776
  809SOL     OW 3325   2.059   4.479   0.175
  809SOL    HW1 3326   2.083   4.457   0.270
  809SOL    HW2 3327   2.082   4.402   0.116
  810SOL     OW 3328   3.754   3.391   0.223
  810SOL    HW1 3329   3.850   3.410   0.243
  810SOL    HW2 3330   3.738   3.292   0.230
  811SOL     OW 3331   5.118   4.897   4.060
  811SOL    HW1 3332   5.188   4.829   4.042
  811SOL    HW2 3333   5.159   4.977   4.104
  812SOL     OW 3334   0.426   2.746   1.965
  812SOL    HW1 3335   0.509   2.766   2.017
  812SOL    HW2 3336   0.386   2.832   1.932
  813SOL     OW 3337   0.913   1.995   4.547
  813SOL    HW1 3338   0.942   2.011   4.642
  813SOL    HW2 3339   0.990   1.958   4.495
  814SOL     OW 3340   1.206   5.210   3.113
  814SOL    HW1 3341   1.303   5.227   3.134
  814SOL    HW2 3342   1.153   5.208   3.198
  815SOL     OW 3343   4.500   1.626   3.813
  815SOL    HW1 3344   4.495   1.677   3.899
  815SOL    HW2 3345   4.441   1.546   3.819
  816SOL     OW 3346   5.689   4.423   6.826
  816SOL    HW1 3347   5.634   4.415   6.909
  816SOL    HW2 3348   5.638   4.385   6.749
  817SOL     OW 3349   0.898   4.415   6.880
  817SOL    HW1 3350   0.962   4.387   6.808
  817SOL    HW2 3351   0.932   4.385   6.969
  818SOL     OW 3352   6.153   2.970   4.422
  818SOL    HW1 3353   6.110   2.893   4.470
  818SOL    HW2 3354   6.234   3.000   4.473
  819SOL     OW 3355   5.357   2.725   2.343
  819SOL    HW1 3356   5.322   2.798   2.285
  819SOL    HW2 3357   5.376   2.644   2.287
  820SOL     OW 3358   2.055   2.119   5.165
  820SOL    HW1 3359   2.105   2.047   5.117
  820SOL    HW2 3360   2.030   2.191   5.100
  821SOL     OW 3361   5.899   3.678   5.478
  821SOL    HW1 3362   5.887   3.645   5.384
  821SOL    HW2 3363   5.968   3.623   5.524
  822SOL     OW 3364   0.872   3.949   3.119
  822SOL    HW1 3365   0.791   3.898   3.090
  822SOL    HW2 3366   0.916   3.902   3.196
  823SOL     OW 3367   0.727   4.068   5.507
  823SOL    HW1 3368   0.647   4.048   5.451
  823SOL    HW2 3369   0.758   3.985   5.553
  824SOL     OW 3370   5.778   1.690   5.709
  824SOL    HW1 3371   5.780   1.627   5.631
  824SOL    HW2 3372   5.684   1.703   5.739
  825SOL     OW 3373   6.860   5.744   1.023
  825SOL    HW1 3374   6.954   5.739   0.988
  825SOL    HW2 3375   6.835   5.839   1.038
  826SOL     OW 3376   3.607   1.147   5.612
  826SOL    HW1 3377   3.572   1.085   5.683
  826SOL    HW2 3378   3.668   1.214   5.654
  827SOL     OW 3379   3.776   4.039   4.736
  827SOL    HW1 3380   3.687   3.996   4.722
  827SOL    HW2 3381   3.844   3.968   4.757
  828SOL     OW 3382   6.476   5.866   5.287
  828SOL    HW1 3383   6.385   5.854   5.247
  828SOL    HW2 3384   6.520   5.777   5.299
  829SOL     OW 3385   3.054   3.259   2.871
  829SOL    HW1 3386   3.034   3.277   2.774
  829SOL    HW2 3387   3.136   3.202   2.878
  830SOL     OW 3388   6.484   4.398   6.998
  830SOL    HW1 3389   6.584   4.405   7.005
  830SOL    HW2 3390   6.455   4.436   6.910
  831SOL     OW 3391   5.123   6.554   1.388
  831SOL    HW1 3392   5.074   6.468   1.391
  831SOL    HW2 3393   5.082   6.614   1.319
  832SOL     OW 3394   3.283   2.084   4.610
  832SOL    HW1 3395   3.368   2.121   4.648
  832SOL    HW2 3396   3.245   2.018   4.674
  833SOL     OW 3397   2.363   2.926   6.528
  833SOL    HW1 3398   2.462   2.923   6.534
  833SOL    HW2 3399   2.327   2.833   6.516
  834SOL     OW 3400   5.183   3.688   0.175
  834SOL    HW1 3401   5.167   3.770   0.230
  834SOL    HW2 3402   5.266   3.643   0.207
  835SOL     OW 3403   0.910   6.800   4.397
  835SOL    HW1 3404   0.954   6.885   4.425
  835SOL    HW2 3405   0.907   6.795   4.297
  836SOL     OW 3406   3.572   1.607   4.688
  836SOL    HW1 3407   3.655   1.594   4.635
  836SOL    HW2 3408   3.547   1.704   4.687
  837SOL     OW 3409   1.684   0.720   0.566
  837SOL    HW1 3410   1.784   0.719   0.562
  837SOL    HW2 3411   1.654   0.799   0.618
  838SOL     OW 3412   2.143   5.914   3.200
  838SOL    HW1 3413   2.239   5.887   3.198
  838SOL    HW2 3414   2.093   5.866   3.128
  839SOL     OW 3415   1.356   2.140   0.210
  839SOL    HW1 3416   1.404   2.174   0.129
  839SOL    HW2 3417   1.374   2.043   0.221
  840SOL     OW 3418   5.107   5.470   7.007
  840SOL    HW1 3419   5.084   5.384   6.962
  840SOL    HW2 3420   5.025   5.508   0.025
  841SOL     OW 3421   3.930   4.462   6.368
  841SOL    HW1 3422   3.950   4.509   6.282
  841SOL    HW2 3423   3.965   4.369   6.364
  842SOL     OW 3424   3.139   6.889   6.949
  842SOL    HW1 3425   3.214   6.864   7.011
  842SOL    HW2 3426   3.146   6.986   6.927
  843SOL     OW 3427   1.565   1.248   2.384
  843SOL    HW1 3428   1.503   1.239   2.461
  843SOL    HW2 3429   1.625   1.327   2.398
  844SOL     OW 3430   6.218   0.438   1.379
  844SOL    HW1 3431   6.166   0.412   1.460
  844SOL    HW2 3432   6.204   0.370   1.307
  845SOL     OW 3433   3.660   1.552   2.561
  845SOL    HW1 3434   3.629   1.591   2.474
  845SOL    HW2 3435   3.747   1.506   2.546
  846SOL     OW 3436   2.705   2.319   0.279
  846SOL    HW1 3437   2.712   2.237   0.222
  846SOL    HW2 3438   2.769   2.313   0.356
  847SOL     OW 3439   2.669   4.493   1.501
  847SOL    HW1 3440   2.657   4.479   1.599
  847SOL    HW2 3441   2.587   4.534   1.462
  848SOL     OW 3442   6.824   5.393   6.826
  848SOL    HW1 3443   6.905   5.346   6.791
  848SOL    HW2 3444   6.768   5.423   6.749
  849SOL     OW 3445   5.995   3.312   6.954
  849SOL    HW1 3446   6.027   3.295   0.023
  849SOL    HW2 3447   5.923   3.380   6.955
  850SOL     OW 3448   0.598   0.572   5.450
  850SOL    HW1 3449   0.656   0.504   5.494
  850SOL    HW2 3450   0.515   0.528   5.415
  851SOL     OW 3451   6.690   3.230   6.131
  851SOL    HW1 3452   6.605   3.256   6.084
  851SOL    HW2 3453   6.748   3.178   6.069
  852SOL     OW 3454   0.642   4.167   2.272
  852SOL    HW1 3455   0.677   4.260   2.283
  852SOL    HW2 3456   0.702   4.115   2.211
  853SOL     OW 3457   2.604   3.828   0.040
  853SOL    HW1 3458   2.579   3.733   0.022
  853SOL    HW2 3459   2.525   3.878   0.075
  854SOL     OW 3460   5.456   6.300   6.619
  854SOL    HW1 3461   5.425   6.238   6.547
  854SOL    HW2 3462   5.479   6.389   6.579
  855SOL     OW 3463   6.185   0.989   0.162
  855SOL    HW1 3464   6.108   1.052   0.157
  855SOL    HW2 3465   6.167   0.919   0.231
  856SOL     OW 3466   1.930   6.270   0.464
  856SOL    HW1 3467   1.966   6.185   0.502
  856SOL    HW2 3468   1.865   6.249   0.390
  857SOL     OW 3469   6.215   5.085   5.266
  857SOL    HW1 3470   6.117   5.103   5.279
  857SOL    HW2 3471   6.251   5.038   5.347
  858SOL     OW 3472   4.017   3.473   0.254
  858SOL    HW1 3473   4.044   3.504   0.345
  858SOL    HW2 3474   4.073   3.394   0.228
  859SOL     OW 3475   4.236   6.412   5.764
  859SOL    HW1 3476   4.193   6.395   5.852
  859SOL    HW2 3477   4.236   6.510   5.745
  860SOL     OW 3478   5.751   3.564   5.730
  860SOL    HW1 3479   5.717   3.514   5.650
  860SOL    HW2 3480   5.694   3.543   5.809
  861SOL     OW 3481   2.641   6.267   2.291
  861SOL    HW1 3482   2.582   6.347   2.287
  861SOL    HW2 3483   2.706   6.270   2.215
  862SOL     OW 3484   1.238   4.744   3.588
  862SOL    HW1 3485   1.334   4.773   3.593
  862SOL    HW2 3486   1.217   4.716   3.494
  863SOL     OW 3487   6.935   0.578   6.773
  863SOL    HW1 3488   6.916   0.668   6.813
  863SOL    HW2 3489   0.010   0.567   6.762
  864SOL     OW 3490   5.518   0.351   4.696
  864SOL    HW1 3491   5.542   0.439   4.738
  864SOL    HW2 3492   5.601   0.307   4.663
  865SOL     OW 3493   2.050   6.315   4.434
  865SOL    HW1 3494   2.071   6.291   4.529
  865SOL    HW2 3495   1.988   6.394   4.433
  866SOL     OW 3496   3.141   6.431   2.142
  866SOL    HW1 3497   3.220   6.420   2.202
  866SOL    HW2 3498   3.138   6.355   2.077
  867SOL     OW 3499   5.988   2.043   6.959
  867SOL    HW1 3500   5.936   1.999   6.886
  867SOL    HW2 3501   5.937   2.034   0.021
  868SOL     OW 3502   0.237   2.283   2.359
  868SOL    HW1 3503   0.215   2.250   2.450
  868SOL    HW2 3504   0.320   2.339   2.363
  869SOL     OW 3505   6.809   4.058   3.317
  869SOL    HW1 3506   6.784   4.076   3.222
  869SOL    HW2 3507   6.777   4.133   3.375
  870SOL     OW 3508   3.373   5.053   1.848
  870SOL    HW1 3509   3.288   5.104   1.833
  870SOL    HW2 3510   3.358   4.984   1.919
  871SOL     OW 3511   4.508   1.932   3.649
  871SOL    HW1 3512   4.515   1.888   3.739
  871SOL    HW2 3513   4.418   1.974   3.639
  872SOL     OW 3514   6.926   2.952   4.529
  872SOL    HW1 3515   6.870   2.954   4.446
  872SOL    HW2 3516   6.962   2.859   4.542
  873SOL     OW 3517   4.610   6.280   6.185
  873SOL    HW1 3518   4.528   6.314   6.140
  873SOL    HW2 3519   4.678   6.353   6.189
  874SOL     OW 3520   5.129   4.295   0.528
  874SOL    HW1 3521   5.212   4.348   0.548
  874SOL    HW2 3522   5.109   4.234   0.605
  875SOL     OW 3523   5.088   5.647   0.476
  875SOL    HW1 3524   5.125   5.561   0.511
  875SOL    HW2 3525   5.082   5.714   0.550
  876SOL     OW 3526   0.217   6.607   1.383
  876SOL    HW1 3527   0.258   6.674   1.321
  876SOL    HW2 3528   0.290   6.550   1.422
  877SOL     OW 3529   2.761   3.959   6.897
  877SOL    HW1 3530   2.750   4.058   6.911
  877SOL    HW2 3531   2.721   3.910   6.975
  878SOL     OW 3532   4.061   6.470   4.614
  878SOL    HW1 3533   4.082   6.548   4.672
  878SOL    HW2 3534   3.966   6.475   4.583
  879SOL     OW 3535   5.998   0.736   0.615
  879SOL    HW1 3536   5.911   0.755   0.570
  879SOL    HW2 3537   5.999   0.782   0.705
  880SOL     OW 3538   3.042   3.883   3.107
  880SOL    HW1 3539   3.039   3.983   3.111
  880SOL    HW2 3540   3.071   3.854   3.016
  881SOL     OW 3541   4.612   2.250   6.303
  881SOL    HW1 3542   4.528   2.224   6.256
  881SOL    HW2 3543   4.680   2.281   6.237
  882SOL     OW 3544   0.913   3.615   4.521
  882SOL    HW1 3545   1.009   3.642   4.528
  882SOL    HW2 3546   0.902   3.522   4.555
  883SOL     OW 3547   2.757   0.154   2.672
  883SOL    HW1 3548   2.847   0.117   2.647
  883SOL    HW2 3549   2.710   0.089   2.732
  884SOL     OW 3550   4.620   2.694   5.020
  884SOL    HW1 3551   4.533   2.724   5.059
  884SOL    HW2 3552   4.695   2.719   5.082
  885SOL     OW 3553   3.458   1.863   6.556
  885SOL    HW1 3554   3.557   1.873   6.550
  885SOL    HW2 3555   3.413   1.942   6.514
  886SOL     OW 3556   3.166   0.510   0.229
  886SOL    HW1 3557   3.246   0.449   0.228
  886SOL    HW2 3558   3.193   0.600   0.262
  887SOL     OW 3559   4.253   0.762   3.958
  887SOL    HW1 3560   4.160   0.788   3.984
  887SOL    HW2 3561   4.314   0.773   4.036
  888SOL     OW 3562   0.309   0.495   3.266
  888SOL    HW1 3563   0.244   0.477   3.193
  888SOL    HW2 3564   0.383   0.428   3.261
  889SOL     OW 3565   0.649   3.982   6.991
  889SOL    HW1 3566   0.671   3.945   0.058
  889SOL    HW2 3567   0.608   3.909   6.935
  890SOL     OW 3568   2.194   5.876   3.848
  890SOL    HW1 3569   2.115   5.876   3.909
  890SOL    HW2 3570   2.268   5.821   3.888
  891SOL     OW 3571   5.830   5.937   0.887
  891SOL    HW1 3572   5.731   5.926   0.882
  891SOL    HW2 3573   5.867   5.951   0.796
  892SOL     OW 3574   2.706   3.770   5.950
  892SOL    HW1 3575   2.802   3.775   5.976
  892SOL    HW2 3576   2.678   3.857   5.909
  893SOL     OW 3577   2.885   6.658   2.782
  893SOL    HW1 3578   2.866   6.660   2.683
  893SOL    HW2 3579   2.859   6.746   2.823
  894SOL     OW 3580   1.555   4.160   1.708
  894SOL    HW1 3581   1.509   4.127   1.791
  894SOL    HW2 3582   1.584   4.083   1.652
  895SOL     OW 3583   0.292   6.152   3.450
  895SOL    HW1 3584   0.322   6.243   3.477
  895SOL    HW2 3585   0.365   6.105   3.402
  896SOL     OW 3586   6.339   6.166   6.253
  896SOL    HW1 3587   6.339   6.205   6.161
  896SOL    HW2 3588   6.385   6.229   6.315
  897SOL     OW 3589   5.411   0.895   6.606
  897SOL    HW1 3590   5.405   0.872   6.509
  897SOL    HW2 3591   5.342   0.965   6.627
  898SOL     OW 3592   3.251   5.644   2.964
  898SOL    HW1 3593   3.163   5.670   3.003
  898SOL    HW2 3594   3.273   5.551   2.990
  899SOL     OW 3595   0.404   4.867   6.012
  899SOL    HW1 3596   0.389   4.934   6.085
  899SOL    HW2 3597   0.315   4.835   5.979
  900SOL     OW 3598   5.985   0.045   0.701
  900SOL    HW1 3599   6.004   7.014   0.620
  900SOL    HW2 3600   6.023   0.136   0.690
  901SOL     OW 3601   1.945   1.200   2.241
  901SOL    HW1 3602   1.998   1.273   2.285
  901SOL    HW2 3603   1.902   1.143   2.311
  902SOL     OW 3604   6.197   4.124   1.283
  902SOL    HW1 3605   6.194   4.048   1.218
  902SOL    HW2 3606   6.222   4.089   1.374
  903SOL     OW 3607   6.824   1.807   0.424
  903SOL    HW1 3608   6.779   1.896   0.412
  903SOL    HW2 3609   6.893   1.814   0.496
  904SOL     OW 3610   3.443   2.145   3.632
  904SOL    HW1 3611   3.350   2.174   3.652
  904SOL    HW2 3612   3.490   2.124   3.718
  905SOL     OW 3613   6.063   2.661   0.276
  905SOL    HW1 3614   5.974   2.691   0.240
  905SOL    HW2 3615   6.090   2.576   0.232
  906SOL     OW 3616   0.050   2.806   5.284
  906SOL    HW1 3617   0.138   2.793   5.330
  906SOL    HW2 3618   7.000   2.787   5.349
  907SOL     OW 3619   4.831   3.524   0.032
  907SOL    HW1 3620   4.887   3.600   7.022
  907SOL    HW2 3621   4.769   3.494   6.984
  908SOL     OW 3622   2.711   4.759   2.048
  908SOL    HW1 3623   2.620   4.733   2.080
  908SOL    HW2 3624   2.745   4.689   1.985
  909SOL     OW 3625   4.731   4.822   6.291
  909SOL    HW1 3626   4.672   4.753   6.249
  909SOL    HW2 3627   4.733   4.904   6.234
  910SOL     OW 3628   2.659   2.944   1.638
  910SOL    HW1 3629   2.576   2.999   1.635
  910SOL    HW2 3630   2.638   2.853   1.675
  911SOL     OW 3631   1.809   5.669   6.196
  911SOL    HW1 3632   1.832   5.684   6.100
  911SOL    HW2 3633   1.890   5.640   6.246
  912SOL     OW 3634   4.880   2.515   3.329
  912SOL    HW1 3635   4.815   2.584   3.362
  912SOL    HW2 3636   4.878   2.436   3.390
  913SOL     OW 3637   5.130   6.854   3.191
  913SOL    HW1 3638   5.223   6.867   3.224
  913SOL    HW2 3639   5.132   6.813   3.099
  914SOL     OW 3640   2.551   0.387   6.713
  914SOL    HW1 3641   2.500   0.473   6.722
  914SOL    HW2 3642   2.499   0.324   6.655
  915SOL     OW 3643   5.960   5.922   0.642
  915SOL    HW1 3644   6.053   5.892   0.619
  915SOL    HW2 3645   5.898   5.843   0.641
  916SOL     OW 3646   0.829   2.285   2.367
  916SOL    HW1 3647   0.814   2.326   2.456
  916SOL    HW2 3648   0.864   2.354   2.303
  917SOL     OW 3649   0.244   0.194   0.626
  917SOL    HW1 3650   0.260   0.258   0.701
  917SOL    HW2 3651   0.191   0.239   0.554
  918SOL     OW 3652   1.647   6.237   0.721
  918SOL    HW1 3653   1.742   6.242   0.752
  918SOL    HW2 3654   1.607   6.329   0.724
  919SOL     OW 3655   6.006   1.935   3.566
  919SOL    HW1 3656   5.928   1.915   3.506
  919SOL    HW2 3657   6.076   1.865   3.554
  920SOL     OW 3658   2.722   5.051   2.030
  920SOL    HW1 3659   2.647   5.055   1.966
  920SOL    HW2 3660   2.711   4.970   2.089
  921SOL     OW 3661   4.972   5.809   4.419
  921SOL    HW1 3662   4.983   5.711   4.437
  921SOL    HW2 3663   4.970   5.825   4.321
  922SOL     OW 3664   4.070   3.715   3.881
  922SOL    HW1 3665   4.052   3.634   3.937
  922SOL    HW2 3666   4.042   3.797   3.932
  923SOL     OW 3667   2.233   2.800   5.532
  923SOL    HW1 3668   2.292   2.750   5.468
  923SOL    HW2 3669   2.148   2.823   5.486
  924SOL     OW 3670   6.848   3.819   2.240
  924SOL    HW1 3671   6.790   3.789   2.316
  924SOL    HW2 3672   6.790   3.857   2.168
  925SOL     OW 3673   5.797   1.678   0.322
  925SOL    HW1 3674   5.716   1.735   0.331
  925SOL    HW2 3675   5.878   1.729   0.352
  926SOL     OW 3676   0.722   1.446   1.857
  926SOL    HW1 3677   0.646   1.400   1.904
  926SOL    HW2 3678   0.719   1.424   1.760
  927SOL     OW 3679   5.752   4.254   3.606
  927SOL    HW1 3680   5.739   4.155   3.600
  927SOL    HW2 3681   5.726   4.286   3.697
  928SOL     OW 3682   2.973   5.918   6.913
  928SOL    HW1 3683   2.923   5.833   6.930
  928SOL    HW2 3684   3.031   5.907   6.832
  929SOL     OW 3685   6.759   1.341   5.789
  929SOL    HW1 3686   6.661   1.361   5.779
  929SOL    HW2 3687   6.803   1.344   5.699
  930SOL     OW 3688   4.975   5.095   6.712
  930SOL    HW1 3689   4.899   5.030   6.713
  930SOL    HW2 3690   5.019   5.092   6.622
  931SOL     OW 3691   6.362   2.688   3.163
  931SOL    HW1 3692   6.431   2.650   3.225
  931SOL    HW2 3693   6.277   2.635   3.172
  932SOL     OW 3694   3.853   0.764   3.690
  932SOL    HW1 3695   3.773   0.809   3.729
  932SOL    HW2 3696   3.882   0.689   3.749
  933SOL     OW 3697   1.294   4.888   2.709
  933SOL    HW1 3698   1.337   4.944   2.638
  933SOL    HW2 3699   1.197   4.910   2.713
  934SOL     OW 3700   1.593   5.167   6.636
  934SOL    HW1 3701   1.513   5.208   6.593
  934SOL    HW2 3702   1.621   5.087   6.583
  935SOL     OW 3703   5.402   3.655   3.371
  935SOL    HW1 3704   5.309   3.628   3.394
  935SOL    HW2 3705   5.440   3.591   3.303
  936SOL     OW 3706   1.534   0.300   6.727
  936SOL    HW1 3707   1.480   0.344   6.798
  936SOL    HW2 3708   1.600   0.365   6.689
  937SOL     OW 3709   5.205   1.244   5.715
  937SOL    HW1 3710   5.240   1.152   5.731
  937SOL    HW2 3711   5.238   1.278   5.628
  938SOL     OW 3712   5.946   5.372   4.513
  938SOL    HW1 3713   6.017   5.432   4.549
  938SOL    HW2 3714   5.856   5.409   4.535
  939SOL     OW 3715   0.261   6.836   5.057
  939SOL    HW1 3716   0.179   6.833   5.114
  939SOL    HW2 3717   0.334   6.885   5.105
  940SOL     OW 3718   2.054   5.052   0.406
  940SOL    HW1 3719   2.134   5.052   0.467
  940SOL    HW2 3720   1.972   5.074   0.458
  941SOL     OW 3721   3.758   0.202   6.600
  941SOL    HW1 3722   3.677   0.151   6.570
  941SOL    HW2 3723   3.801   0.245   6.520
  942SOL     OW 3724   0.245   5.439   0.589
  942SOL    HW1 3725   0.316   5.382   0.547
  942SOL    HW2 3726   0.217   5.510   0.525
  943SOL     OW 3727   2.993   4.985   2.938
  943SOL    HW1 3728   2.952   4.900   2.973
  943SOL    HW2 3729   2.921   5.050   2.916
  944SOL     OW 3730   0.886   6.561   4.508
  944SOL    HW1 3731   0.874   6.490   4.439
  944SOL    HW2 3732   0.892   6.650   4.464
  945SOL     OW 3733   0.501   5.289   6.263
  945SOL    HW1 3734   0.549   5.218   6.315
  945SOL    HW2 3735   0.567   5.356   6.229
  946SOL     OW 3736   4.959   3.615   3.752
  946SOL    HW1 3737   4.937   3.625   3.849
  946SOL    HW2 3738   4.934   3.524   3.721
  947SOL     OW 3739   4.011   3.833   4.677
  947SOL    HW1 3740   4.011   3.850   4.578
  947SOL    HW2 3741   4.100   3.796   4.704
  948SOL     OW 3742   4.846   1.056   2.819
  948SOL    HW1 3743   4.794   1.106   2.751
  948SOL    HW2 3744   4.812   1.078   2.910
  949SOL     OW 3745   2.874   6.415   6.701
  949SOL    HW1 3746   2.953   6.420   6.762
  949SOL    HW2 3747   2.884   6.481   6.626
  950SOL     OW 3748   0.348   6.530   2.200
  950SOL    HW1 3749   0.402   6.471   2.260
  950SOL    HW2 3750   0.378   6.517   2.105
  951SOL     OW 3751   2.061   6.686   3.085
  951SOL    HW1 3752   2.071   6.785   3.074
  951SOL    HW2 3753   1.967   6.665   3.114
  952SOL     OW 3754   3.311   1.250   1.938
  952SOL    HW1 3755   3.372   1.314   1.892
  952SOL    HW2 3756   3.328   1.252   2.037
  953SOL     OW 3757   6.315   4.968   5.036
  953SOL    HW1 3758   6.269   5.026   5.103
  953SOL    HW2 3759   6.338   5.023   4.955
  954SOL     OW 3760   4.881   6.035   2.439
  954SOL    HW1 3761   4.864   6.008   2.534
  954SOL    HW2 3762   4.888   6.135   2.434
  955SOL     OW 3763   1.691   4.133   0.359
  955SOL    HW1 3764   1.682   4.224   0.320
  955SOL    HW2 3765   1.601   4.102   0.392
  956SOL     OW 3766   6.156   0.559   1.796
  956SOL    HW1 3767   6.197   0.566   1.705
  956SOL    HW2 3768   6.229   0.548   1.864
  957SOL     OW 3769   6.295   2.586   3.998
  957SOL    HW1 3770   6.258   2.658   3.941
  957SOL    HW2 3771   6.221   2.527   4.031
  958SOL     OW 3772   5.310   0.375   1.803
  958SOL    HW1 3773   5.254   0.450   1.839
  958SOL    HW2 3774   5.399   0.411   1.775
  959SOL     OW 3775   3.753   6.618   4.250
  959SOL    HW1 3776   3.675   6.680   4.254
  959SOL    HW2 3777   3.725   6.532   4.207
  960SOL     OW 3778   0.863   0.528   6.960
  960SOL    HW1 3779   0.768   0.502   6.944
  960SOL    HW2 3780   0.912   0.451   7.001
  961SOL     OW 3781   3.631   6.896   2.626
  961SOL    HW1 3782   3.706   6.937   2.679
  961SOL    HW2 3783   3.544   6.937   2.655
  962SOL     OW 3784   6.564   0.220   4.666
  962SOL    HW1 3785   6.530   0.309   4.696
  962SOL    HW2 3786   6.619   0.232   4.584
  963SOL     OW 3787   4.974   2.840   0.906
  963SOL    HW1 3788   4.956   2.744   0.925
  963SOL    HW2 3789   4.891   2.883   0.870
  964SOL     OW 3790   4.551   4.447   5.279
  964SOL    HW1 3791   4.602   4.361   5.273
  964SOL    HW2 3792   4.464   4.438   5.231
  965SOL     OW 3793   5.747   2.747   3.941
  965SOL    HW1 3794   5.798   2.688   3.879
  965SOL    HW2 3795   5.787   2.839   3.941
  966SOL     OW 3796   5.302   2.034   4.246
  966SOL    HW1 3797   5.253   2.114   4.211
  966SOL    HW2 3798   5.359   1.996   4.173
  967SOL     OW 3799   5.737   4.013   6.309
  967SOL    HW1 3800   5.758   3.971   6.397
  967SOL    HW2 3801   5.704   3.943   6.245
  968SOL     OW 3802   3.894   0.385   1.797
  968SOL    HW1 3803   3.860   0.374   1.890
  968SOL    HW2 3804   3.824   0.427   1.739
  969SOL     OW 3805   3.434   3.942   5.872
  969SOL    HW1 3806   3.454   3.984   5.961
  969SOL    HW2 3807   3.491   3.984   5.802
  970SOL     OW 3808   5.549   0.465   5.918
  970SOL    HW1 3809   5.645   0.479   5.944
  970SOL    HW2 3810   5.490   0.518   5.979
  971SOL     OW 3811   5.641   4.041   3.020
  971SOL    HW1 3812   5.569   4.106   2.994
  971SOL    HW2 3813   5.656   3.976   2.946
  972SOL     OW 3814   0.182   2.694   1.049
  972SOL    HW1 3815   0.151   2.787   1.028
  972SOL    HW2 3816   0.204   2.647   0.964
  973SOL     OW 3817   6.923   3.319   6.270
  973SOL    HW1 3818   6.832   3.279   6.285
  973SOL    HW2 3819   6.931   3.348   6.175
  974SOL     OW 3820   0.081   5.653   3.953
  974SOL    HW1 3821   0.160   5.664   3.892
  974SOL    HW2 3822   0.012   5.721   3.929
  975SOL     OW 3823   2.718   6.548   1.965
  975SOL    HW1 3824   2.651   6.616   1.996
  975SOL    HW2 3825   2.739   6.564   1.869
  976SOL     OW 3826   6.610   3.916   2.100
  976SOL    HW1 3827   6.511   3.912   2.111
  976SOL    HW2 3828   6.642   4.009   2.122
  977SOL     OW 3829   0.098   1.141   2.632
  977SOL    HW1 3830   0.004   1.162   2.608
  977SOL    HW2 3831   0.107   1.134   2.731
  978SOL     OW 3832   5.363   2.929   2.075
  978SOL    HW1 3833   5.293   2.980   2.126
  978SOL    HW2 3834   5.450   2.933   2.124
  979SOL     OW 3835   0.043   3.744   6.977
  979SOL    HW1 3836   0.026   3.842   6.963
  979SOL    HW2 3837   0.001   3.715   0.039
  980SOL     OW 3838   3.599   1.650   4.987
  980SOL    HW1 3839   3.538   1.728   4.974
  980SOL    HW2 3840   3.604   1.596   4.903
  981SOL     OW 3841   6.603   6.503   5.259
  981SOL    HW1 3842   6.656   6.514   5.175
  981SOL    HW2 3843   6.579   6.593   5.295
  982SOL     OW 3844   6.738   1.189   5.249
  982SOL    HW1 3845   6.680   1.259   5.208
  982SOL    HW2 3846   6.726   1.103   5.201
  983SOL     OW 3847   6.958   4.468   4.164
  983SOL    HW1 3848   6.915   4.552   4.197
  983SOL    HW2 3849   6.892   4.393   4.166
  984SOL     OW 3850   1.301   2.164   2.859
  984SOL    HW1 3851   1.383   2.203   2.901
  984SOL    HW2 3852   1.291   2.069   2.888
  985SOL     OW 3853   6.774   3.966   4.843
  985SOL    HW1 3854   6.862   4.004   4.815
  985SOL    HW2 3855   6.732   4.026   4.912
  986SOL     OW 3856   5.525   4.783   1.056
  986SOL    HW1 3857   5.605   4.749   1.105
  986SOL    HW2 3858   5.452   4.715   1.059
  987SOL     OW 3859   5.485   5.424   3.747
  987SOL    HW1 3860   5.560   5.430   3.681
  987SOL    HW2 3861   5.425   5.503   3.737
  988SOL     OW 3862   3.186   3.986   1.368
  988SOL    HW1 3863   3.185   4.033   1.456
  988SOL    HW2 3864   3.196   4.053   1.294
  989SOL     OW 3865   0.360   1.521   1.157
  989SOL    HW1 3866   0.314   1.555   1.075
  989SOL    HW2 3867   0.294   1.471   1.213
  990SOL     OW 3868   4.101   6.925   3.340
  990SOL    HW1 3869   4.185   6.936   3.287
  990SOL    HW2 3870   4.044   7.007   3.330
  991SOL     OW 3871   6.890   4.815   3.981
  991SOL    HW1 3872   6.927   4.799   3.889
  991SOL    HW2 3873   6.964   4.838   4.044
  992SOL     OW 3874   0.245   2.585   1.687
  992SOL    HW1 3875   0.204   2.497   1.665
  992SOL    HW2 3876   0.344   2.574   1.699
  993SOL     OW 3877   1.599   5.245   0.614
  993SOL    HW1 3878   1.578   5.317   0.548
  993SOL    HW2 3879   1.632   5.286   0.699
  994SOL     OW 3880   2.845   6.817   0.355
  994SOL    HW1 3881   2.880   6.836   0.263
  994SOL    HW2 3882   2.817   6.902   0.399
  995SOL     OW 3883   5.650   3.110   5.875
  995SOL    HW1 3884   5.698   3.143   5.795
  995SOL    HW2 3885   5.706   3.126   5.957
  996SOL     OW 3886   3.927   6.147   5.783
  996SOL    HW1 3887   3.946   6.049   5.772
  996SOL    HW2 3888   3.829   6.163   5.773
  997SOL     OW 3889   1.679   5.556   3.956
  997SOL    HW1 3890   1.669   5.545   4.055
  997SOL    HW2 3891   1.770   5.527   3.928
  998SOL     OW 3892   6.093   0.220   6.285
  998SOL    HW1 3893   6.040   0.303   6.267
  998SOL    HW2 3894   6.089   0.199   6.382
  999SOL     OW 3895   4.838   3.780   1.915
  999SOL    HW1 3896   4.877   3.689   1.932
  999SOL    HW2 3897   4.750   3.770   1.869
 1000SOL     OW 3898   4.324   1.799   1.541
 1000SOL    HW1 3899   4.399   1.813   1.476
 1000SOL    HW2 3900   4.247   1.756   1.493
 1001SOL     OW 3901   2.893   6.577   2.186
 1001SOL    HW1 3902   2.839   6.578   2.102
 1001SOL    HW2 3903   2.980   6.531   2.169
 1002SOL     OW 3904   5.623   2.454   1.266
 1002SOL    HW1 3905   5.579   2.486   1.182
 1002SOL    HW2 3906   5.594   2.512   1.343
 1003SOL     OW 3907   0.448   6.915   2.942
 1003SOL    HW1 3908   0.547   6.900   2.943
 1003SOL    HW2 3909   0.403   6.841   2.893
 1004SOL     OW 3910   5.454   1.259   3.516
 1004SOL    HW1 3911   5.531   1.212   3.474
 1004SOL    HW2 3912   5.423   1.334   3.457
 1005SOL     OW 3913   1.246   4.536   3.761
 1005SOL    HW1 3914   1.264   4.589   3.844
 1005SOL    HW2 3915   1.221   4.598   3.687
 1006SOL     OW 3916   2.611   3.085   1.035
 1006SOL    HW1 3917   2.590   3.177   1.068
 1006SOL    HW2 3918   2.585   3.077   0.939
 1007SOL     OW 3919   4.596   1.113   6.351
 1007SOL    HW1 3920   4.695   1.109   6.362
 1007SOL    HW2 3921   4.562   1.201   6.384
 1008SOL     OW 3922   0.212   5.068   4.829
 1008SOL    HW1 3923   0.227   4.986   4.774
 1008SOL    HW2 3924   0.117   5.098   4.821
 1009SOL     OW 3925   6.641   5.244   6.534
 1009SOL    HW1 3926   6.573   5.198   6.590
 1009SOL    HW2 3927   6.684   5.318   6.586
 1010SOL     OW 3928   2.383   3.105   1.377
 1010SOL    HW1 3929   2.369   3.124   1.474
 1010SOL    HW2 3930   2.457   3.038   1.367
 1011SOL     OW 3931   0.025   5.051   2.722
 1011SOL    HW1 3932   0.034   5.049   2.822
 1011SOL    HW2 3933   0.021   4.957   2.688
 1012SOL     OW 3934   5.197   0.224   2.455
 1012SOL    HW1 3935   5.113   0.252   2.503
 1012SOL    HW2 3936   5.262   0.185   2.520
 1013SOL     OW 3937   6.537   0.710   6.436
 1013SOL    HW1 3938   6.511   0.773   6.510
 1013SOL    HW2 3939   6.629   0.675   6.453
 1014SOL     OW 3940   1.611   4.937   4.573
 1014SOL    HW1 3941   1.574   5.019   4.616
 1014SOL    HW2 3942   1.600   4.943   4.474
 1015SOL     OW 3943   3.366   6.082   6.989
 1015SOL    HW1 3944   3.364   6.179   7.016
 1015SOL    HW2 3945   3.327   6.027   0.039
 1016SOL     OW 3946   5.831   4.190   1.661
 1016SOL    HW1 3947   5.824   4.274   1.714
 1016SOL    HW2 3948   5.801   4.207   1.567
 1017SOL     OW 3949   2.371   1.624   2.721
 1017SOL    HW1 3950   2.342   1.672   2.803
 1017SOL    HW2 3951   2.320   1.538   2.713
 1018SOL     OW 3952   0.639   5.049   3.242
 1018SOL    HW1 3953   0.703   5.009   3.176
 1018SOL    HW2 3954   0.655   5.147   3.249
 1019SOL     OW 3955   0.063   5.202   0.998
 1019SOL    HW1 3956   0.028   5.201   0.904
 1019SOL    HW2 3957   0.020   5.278   1.048
 1020SOL     OW 3958   6.796   0.200   0.643
 1020SOL    HW1 3959   6.773   0.283   0.694
 1020SOL    HW2 3960   6.770   0.211   0.548
 1021SOL     OW 3961   6.232   6.134   1.464
 1021SOL    HW1 3962   6.157   6.138   1.530
 1021SOL    HW2 3963   6.316   6.106   1.510
 1022SOL     OW 3964   2.301   6.414   6.455
 1022SOL    HW1 3965   2.207   6.401   6.422
 1022SOL    HW2 3966   2.299   6.470   6.538
 1023SOL     OW 3967   0.865   1.826   3.681
 1023SOL    HW1 3968   0.870   1.889   3.759
 1023SOL    HW2 3969   0.922   1.860   3.606
 1024SOL     OW 3970   1.445   2.153   5.056
 1024SOL    HW1 3971   1.402   2.111   4.977
 1024SOL    HW2 3972   1.416   2.248   5.064
 1025SOL     OW 3973   4.863   3.498   0.295
 1025SOL    HW1 3974   4.819   3.530   0.210
 1025SOL    HW2 3975   4.933   3.431   0.272
 1026SOL     OW 3976   2.841   2.614   1.203
 1026SOL    HW1 3977   2.851   2.691   1.140
 1026SOL    HW2 3978   2.874   2.640   1.293
 1027SOL     OW 3979   0.326   6.372   1.038
 1027SOL    HW1 3980   0.375   6.458   1.053
 1027SOL    HW2 3981   0.228   6.387   1.055
 1028SOL     OW 3982   0.929   6.198   2.572
 1028SOL    HW1 3983   1.012   6.148   2.547
 1028SOL    HW2 3984   0.855   6.174   2.509
 1029SOL     OW 3985   1.332   1.485   6.107
 1029SOL    HW1 3986   1.310   1.541   6.027
 1029SOL    HW2 3987   1.332   1.388   6.081
 1030SOL     OW 3988   3.355   3.478   1.447
 1030SOL    HW1 3989   3.266   3.436   1.463
 1030SOL    HW2 3990   3.357   3.569   1.489
 1031SOL     OW 3991   3.091   3.408   1.494
 1031SOL    HW1 3992   3.034   3.345   1.442
 1031SOL    HW2 3993   3.034   3.464   1.554
 1032SOL     OW 3994   2.036   1.891   5.969
 1032SOL    HW1 3995   2.102   1.964   5.981
 1032SOL    HW2 3996   2.084   1.804   5.956
 1033SOL     OW 3997   0.256   6.387   1.821
 1033SOL    HW1 3998   0.183   6.426   1.877
 1033SOL    HW2 3999   0.330   6.453   1.811
 1034SOL     OW 4000   3.237   6.618   4.819
 1034SOL    HW1 4001   3.316   6.610   4.757
 1034SOL    HW2 4002   3.235   6.710   4.858
 1035SOL     OW 4003   0.815   2.202   5.916
 1035SOL    HW1 4004   0.851   2.278   5.970
 1035SOL    HW2 4005   0.890   2.159   5.866
 1036SOL     OW 4006   5.080   1.430   0.986
 1036SOL    HW1 4007   5.105   1.333   0.976
 1036SOL    HW2 4008   4.999   1.437   1.044
 1037SOL     OW 4009   1.302   2.875   3.045
 1037SOL    HW1 4010   1.310   2.817   3.127
 1037SOL    HW2 4011   1.319   2.820   2.964
 1038SOL     OW 4012   2.962   6.948   0.133
 1038SOL    HW1 4013   2.989   6.870   0.076
 1038SOL    HW2 4014   2.991   0.009   0.090
 1039SOL     OW 4015   3.728   2.885   3.428
 1039SOL    HW1 4016   3.661   2.903   3.500
 1039SOL    HW2 4017   3.775   2.798   3.447
 1040SOL     OW 4018   4.145   0.817   3.077
 1040SOL    HW1 4019   4.055   0.779   3.057
 1040SOL    HW2 4020   4.171   0.881   3.005
 1041SOL     OW 4021   6.638   6.339   6.020
 1041SOL    HW1 4022   6.572   6.384   6.080
 1041SOL    HW2 4023   6.596   6.320   5.931
 1042SOL     OW 4024   5.278   5.048   2.291
 1042SOL    HW1 4025   5.319   4.992   2.218
 1042SOL    HW2 4026   5.183   5.067   2.268
 1043SOL     OW 4027   3.621   1.841   4.100
 1043SOL    HW1 4028   3.664   1.899   4.169
 1043SOL    HW2 4029   3.693   1.797   4.045
 1044SOL     OW 4030   5.852   5.091   1.656
 1044SOL    HW1 4031   5.790   5.096   1.578
 1044SOL    HW2 4032   5.912   5.171   1.655
 1045SOL     OW 4033   2.331   0.491   3.560
 1045SOL    HW1 4034   2.264   0.493   3.634
 1045SOL    HW2 4035   2.282   0.493   3.472
 1046SOL     OW 4036   2.749   1.240   0.809
 1046SOL    HW1 4037   2.716   1.245   0.715
 1046SOL    HW2 4038   2.782   1.147   0.828
 1047SOL     OW 4039   3.659   6.628   2.925
 1047SOL    HW1 4040   3.722   6.645   2.849
 1047SOL    HW2 4041   3.705   6.648   3.011
 1048SOL     OW 4042   1.395   6.049   1.999
 1048SOL    HW1 4043   1.368   5.988   1.924
 1048SOL    HW2 4044   1.494   6.064   1.995
 1049SOL     OW 4045   4.198   6.452   5.302
 1049SOL    HW1 4046   4.264   6.442   5.227
 1049SOL    HW2 4047   4.224   6.393   5.377
 1050SOL     OW 4048   3.426   5.525   3.295
 1050SOL    HW1 4049   3.331   5.500   3.315
 1050SOL    HW2 4050   3.456   5.479   3.211
 1051SOL     OW 4051   0.018   0.147   0.107
 1051SOL    HW1 4052   0.101   0.118   0.154
 1051SOL    HW2 4053   7.021   0.242   0.129
 1052SOL     OW 4054   3.788   0.616   6.824
 1052SOL    HW1 4055   3.786   0.537   6.885
 1052SOL    HW2 4056   3.765   0.588   6.731
 1053SOL     OW 4057   6.027   3.079   2.775
 1053SOL    HW1 4058   6.071   3.013   2.836
 1053SOL    HW2 4059   6.093   3.109   2.706
 1054SOL     OW 4060   3.073   4.415   0.075
 1054SOL    HW1 4061   3.045   4.475   0.150
 1054SOL    HW2 4062   3.137   4.464   0.016
 1055SOL     OW 4063   4.663   5.867   6.767
 1055SOL    HW1 4064   4.678   5.964   6.784
 1055SOL    HW2 4065   4.751   5.819   6.772
 1056SOL     OW 4066   2.628   3.865   6.667
 1056SOL    HW1 4067   2.652   3.898   6.758
 1056SOL    HW2 4068   2.711   3.857   6.612
 1057SOL     OW 4069   3.398   1.605   1.567
 1057SOL    HW1 4070   3.310   1.646   1.590
 1057SOL    HW2 4071   3.383   1.512   1.531
 1058SOL     OW 4072   2.329   2.494   2.666
 1058SOL    HW1 4073   2.264   2.421   2.685
 1058SOL    HW2 4074   2.421   2.464   2.691
 1059SOL     OW 4075   2.509   6.130   1.562
 1059SOL    HW1 4076   2.562   6.172   1.636
 1059SOL    HW2 4077   2.553   6.150   1.474
 1060SOL     OW 4078   6.370   6.398   5.354
 1060SOL    HW1 4079   6.457   6.433   5.319
 1060SOL    HW2 4080   6.374   6.298   5.358
 1061SOL     OW 4081   6.874   4.065   0.114
 1061SOL    HW1 4082   6.836   4.148   0.154
 1061SOL    HW2 4083   6.857   3.987   0.175
 1062SOL     OW 4084   3.681   6.288   5.751
 1062SOL    HW1 4085   3.759   6.350   5.742
 1062SOL    HW2 4086   3.601   6.329   5.706
 1063SOL     OW 4087   1.848   6.306   5.837
 1063SOL    HW1 4088   1.757   6.343   5.857
 1063SOL    HW2 4089   1.844   6.206   5.836
 1064SOL     OW 4090   1.510   4.388   0.354
 1064SOL    HW1 4091   1.547   4.408   0.263
 1064SOL    HW2 4092   1.558   4.444   0.422
 1065SOL     OW 4093   4.565   0.375   4.302
 1065SOL    HW1 4094   4.519   0.306   4.246
 1065SOL    HW2 4095   4.579   0.457   4.247
 1066SOL     OW 4096   4.871   0.446   2.014
 1066SOL    HW1 4097   4.773   0.444   2.036
 1066SOL    HW2 4098   4.919   0.504   2.080
 1067SOL     OW 4099   2.711   0.833   0.151
 1067SOL    HW1 4100   2.647   0.757   0.164
 1067SOL    HW2 4101   2.743   0.833   0.056
 1068SOL     OW 4102   5.934   3.243   1.255
 1068SOL    HW1 4103   6.031   3.243   1.280
 1068SOL    HW2 4104   5.917   3.315   1.188
 1069SOL     OW 4105   6.587   4.114   1.710
 1069SOL    HW1 4106   6.600   4.177   1.786
 1069SOL    HW2 4107   6.669   4.059   1.696
 1070SOL     OW 4108   1.178   0.607   2.192
 1070SOL    HW1 4109   1.227   0.542   2.134
 1070SOL    HW2 4110   1.081   0.606   2.167
 1071SOL     OW 4111   6.484   2.630   5.466
 1071SOL    HW1 4112   6.511   2.652   5.559
 1071SOL    HW2 4113   6.553   2.665   5.402
 1072SOL     OW 4114   2.892   1.496   2.429
 1072SOL    HW1 4115   2.953   1.445   2.367
 1072SOL    HW2 4116   2.868   1.437   2.507
 1073SOL     OW 4117   5.176   1.239   3.439
 1073SOL    HW1 4118   5.268   1.212   3.470
 1073SOL    HW2 4119   5.146   1.177   3.367
 1074SOL     OW 4120   2.950   5.056   1.890
 1074SOL    HW1 4121   2.977   4.960   1.879
 1074SOL    HW2 4122   2.867   5.061   1.947
 1075SOL     OW 4123   5.779   3.223   5.138
 1075SOL    HW1 4124   5.704   3.236   5.202
 1075SOL    HW2 4125   5.866   3.227   5.187
 1076SOL     OW 4126   2.131   3.721   5.056
 1076SOL    HW1 4127   2.201   3.786   5.027
 1076SOL    HW2 4128   2.144   3.634   5.008
 1077SOL     OW 4129   0.093   6.771   0.105
 1077SOL    HW1 4130   0.055   6.732   0.189
 1077SOL    HW2 4131   0.019   6.803   0.046
 1078SOL     OW 4132   6.805   5.975   4.008
 1078SOL    HW1 4133   6.765   5.997   3.919
 1078SOL    HW2 4134   6.904   5.991   4.005
 1079SOL     OW 4135   0.726   5.968   2.591
 1079SOL    HW1 4136   0.733   5.977   2.491
 1079SOL    HW2 4137   0.808   5.923   2.626
 1080SOL     OW 4138   1.911   5.029   6.298
 1080SOL    HW1 4139   1.954   5.104   6.348
 1080SOL    HW2 4140   1.980   4.979   6.246
 1081SOL     OW 4141   6.288   5.790   4.406
 1081SOL    HW1 4142   6.307   5.695   4.431
 1081SOL    HW2 4143   6.373   5.843   4.409
 1082SOL     OW 4144   5.280   6.945   6.335
 1082SOL    HW1 4145   5.193   6.945   6.384
 1082SOL    HW2 4146   5.290   6.860   6.284
 1083SOL     OW 4147   5.337   4.622   0.864
 1083SOL    HW1 4148   5.327   4.721   0.881
 1083SOL    HW2 4149   5.253   4.575   0.891
 1084SOL     OW 4150   0.647   0.050   6.144
 1084SOL    HW1 4151   0.561   0.096   6.123
 1084SOL    HW2 4152   0.721   0.118   6.144
 1085SOL     OW 4153   1.926   3.916   3.992
 1085SOL    HW1 4154   1.950   4.010   3.971
 1085SOL    HW2 4155   2.002   3.871   4.038
 1086SOL     OW 4156   6.341   4.988   0.126
 1086SOL    HW1 4157   6.345   4.904   0.073
 1086SOL    HW2 4158   6.433   5.015   0.154
 1087SOL     OW 4159   2.071   0.589   5.230
 1087SOL    HW1 4160   2.008   0.658   5.266
 1087SOL    HW2 4161   2.071   0.595   5.130
 1088SOL     OW 4162   0.063   4.526   3.585
 1088SOL    HW1 4163   0.072   4.551   3.488
 1088SOL    HW2 4164   0.153   4.505   3.623
 1089SOL     OW 4165   6.576   4.271   4.676
 1089SOL    HW1 4166   6.513   4.312   4.742
 1089SOL    HW2 4167   6.530   4.196   4.628
 1090SOL     OW 4168   5.228   1.609   4.406
 1090SOL    HW1 4169   5.291   1.621   4.483
 1090SOL    HW2 4170   5.153   1.675   4.415
 1091SOL     OW 4171   2.268   2.772   3.264
 1091SOL    HW1 4172   2.340   2.742   3.201
 1091SOL    HW2 4173   2.285   2.734   3.355
 1092SOL     OW 4174   0.654   5.004   0.610
 1092SOL    HW1 4175   0.684   5.017   0.516
 1092SOL    HW2 4176   0.571   4.947   0.611
 1093SOL     OW 4177   2.337   6.926   1.546
 1093SOL    HW1 4178   2.246   6.887   1.533
 1093SOL    HW2 4179   2.404   6.853   1.554
 1094SOL     OW 4180   1.401   0.444   2.930
 1094SOL    HW1 4181   1.322   0.480   2.980
 1094SOL    HW2 4182   1.376   0.432   2.834
 1095SOL     OW 4183   0.392   3.439   0.320
 1095SOL    HW1 4184   0.300   3.403   0.338
 1095SOL    HW2 4185   0.458   3.365   0.319
 1096SOL     OW 4186   3.177   5.443   1.650
 1096SOL    HW1 4187   3.173   5.355   1.697
 1096SOL    HW2 4188   3.195   5.515   1.717
 1097SOL     OW 4189   2.811   5.113   3.472
 1097SOL    HW1 4190   2.739   5.171   3.510
 1097SOL    HW2 4191   2.836   5.042   3.538
 1098SOL     OW 4192   6.579   5.086   0.218
 1098SOL    HW1 4193   6.648   5.123   0.157
 1098SOL    HW2 4194   6.537   5.161   0.270
 1099SOL     OW 4195   4.692   0.699   6.109
 1099SOL    HW1 4196   4.682   0.669   6.204
 1099SOL    HW2 4197   4.756   0.776   6.106
 1100SOL     OW 4198   3.580   1.483   4.015
 1100SOL    HW1 4199   3.487   1.448   4.025
 1100SOL    HW2 4200   3.577   1.579   3.986
 1101SOL     OW 4201   6.579   2.724   5.714
 1101SOL    HW1 4202   6.502   2.750   5.772
 1101SOL    HW2 4203   6.664   2.732   5.768
 1102SOL     OW 4204   2.626   1.029   4.327
 1102SOL    HW1 4205   2.582   1.117   4.310
 1102SOL    HW2 4206   2.601   0.997   4.419
 1103SOL     OW 4207   3.437   0.499   6.821
 1103SOL    HW1 4208   3.505   0.429   6.800
 1103SOL    HW2 4209   3.440   0.519   6.919
 1104SOL     OW 4210   0.188   3.545   3.656
 1104SOL    HW1 4211   0.118   3.481   3.626
 1104SOL    HW2 4212   0.193   3.544   3.756
 1105SOL     OW 4213   4.971   0.967   4.860
 1105SOL    HW1 4214   5.041   0.936   4.795
 1105SOL    HW2 4215   5.007   0.959   4.953
 1106SOL     OW 4216   0.450   1.613   0.890
 1106SOL    HW1 4217   0.485   1.594   0.799
 1106SOL    HW2 4218   0.352   1.631   0.885
 1107SOL     OW 4219   0.983   1.012   0.172
 1107SOL    HW1 4220   1.075   1.029   0.136
 1107SOL    HW2 4221   0.915   1.038   0.104
 1108SOL     OW 4222   2.574   6.165   4.357
 1108SOL    HW1 4223   2.606   6.084   4.307
 1108SOL    HW2 4224   2.474   6.167   4.356
 1109SOL     OW 4225   5.426   1.657   4.612
 1109SOL    HW1 4226   5.391   1.750   4.614
 1109SOL    HW2 4227   5.518   1.655   4.653
 1110SOL     OW 4228   3.450   0.927   2.384
 1110SOL    HW1 4229   3.413   0.906   2.474
 1110SOL    HW2 4230   3.436   0.850   2.322
 1111SOL     OW 4231   5.122   3.703   6.198
 1111SOL    HW1 4232   5.075   3.746   6.121
 1111SOL    HW2 4233   5.087   3.740   6.284
 1112SOL     OW 4234   5.370   0.474   2.134
 1112SOL    HW1 4235   5.300   0.489   2.064
 1112SOL    HW2 4236   5.350   0.391   2.184
 1113SOL     OW 4237   5.915   4.475   2.571
 1113SOL    HW1 4238   5.950   4.427   2.651
 1113SOL    HW2 4239   5.836   4.530   2.597
 1114SOL     OW 4240   4.357   3.328   5.423
 1114SOL    HW1 4241   4.445   3.364   5.392
 1114SOL    HW2 4242   4.349   3.232   5.395
 1115SOL     OW 4243   3.274   4.323   5.874
 1115SOL    HW1 4244   3.194   4.282   5.917
 1115SOL    HW2 4245   3.285   4.287   5.782
 1116SOL     OW 4246   4.903   0.340   6.328
 1116SOL    HW1 4247   4.886   0.267   6.262
 1116SOL    HW2 4248   4.966   0.306   6.398
 1117SOL     OW 4249   1.202   2.912   1.924
 1117SOL    HW1 4250   1.269   2.963   1.872
 1117SOL    HW2 4251   1.121   2.969   1.939
 1118SOL     OW 4252   2.911   4.740   6.831
 1118SOL    HW1 4253   2.997   4.726   6.783
 1118SOL    HW2 4254   2.864   4.820   6.793
 1119SOL     OW 4255   3.689   5.235   3.595
 1119SOL    HW1 4256   3.702   5.146   3.552
 1119SOL    HW2 4257   3.777   5.271   3.625
 1120SOL     OW 4258   6.835   5.372   1.030
 1120SOL    HW1 4259   6.870   5.449   0.977
 1120SOL    HW2 4260   6.807   5.404   1.121
 1121SOL     OW 4261   6.995   5.161   4.767
 1121SOL    HW1 4262   6.956   5.114   4.687
 1121SOL    HW2 4263   6.976   5.259   4.760
 1122SOL     OW 4264   5.556   2.584   1.677
 1122SOL    HW1 4265   5.526   2.661   1.733
 1122SOL    HW2 4266   5.556   2.501   1.733
 1123SOL     OW 4267   4.175   2.258   3.190
 1123SOL    HW1 4268   4.077   2.274   3.185
 1123SOL    HW2 4269   4.192   2.170   3.235
 1124SOL     OW 4270   2.128   3.067   4.846
 1124SOL    HW1 4271   2.209   3.052   4.903
 1124SOL    HW2 4272   2.051   3.094   4.904
 1125SOL     OW 4273   1.163   3.838   3.943
 1125SOL    HW1 4274   1.243   3.851   4.002
 1125SOL    HW2 4275   1.186   3.863   3.849
 1126SOL     OW 4276   3.596   5.349   5.335
 1126SOL    HW1 4277   3.632   5.293   5.260
 1126SOL    HW2 4278   3.630   5.443   5.325
 1127SOL     OW 4279   5.859   0.004   3.120
 1127SOL    HW1 4280   5.837   7.009   3.024
 1127SOL    HW2 4281   5.874   0.102   3.132
 1128SOL     OW 4282   6.245   1.733   3.576
 1128SOL    HW1 4283   6.222   1.658   3.638
 1128SOL    HW2 4284   6.253   1.697   3.483
 1129SOL     OW 4285   1.794   0.470   1.235
 1129SOL    HW1 4286   1.830   0.422   1.156
 1129SOL    HW2 4287   1.832   0.563   1.238
 1130SOL     OW 4288   2.313   5.661   2.805
 1130SOL    HW1 4289   2.298   5.676   2.708
 1130SOL    HW2 4290   2.379   5.587   2.818
 1131SOL     OW 4291   1.596   6.357   4.338
 1131SOL    HW1 4292   1.547   6.311   4.412
 1131SOL    HW2 4293   1.679   6.306   4.315
 1132SOL     OW 4294   3.481   1.428   2.715
 1132SOL    HW1 4295   3.435   1.478   2.788
 1132SOL    HW2 4296   3.549   1.487   2.671
 1133SOL     OW 4297   1.562   6.744   5.109
 1133SOL    HW1 4298   1.504   6.671   5.074
 1133SOL    HW2 4299   1.554   6.824   5.050
 1134SOL     OW 4300   4.545   0.364   1.410
 1134SOL    HW1 4301   4.588   0.296   1.469
 1134SOL    HW2 4302   4.455   0.389   1.446
 1135SOL     OW 4303   1.909   6.039   3.910
 1135SOL    HW1 4304   1.953   6.129   3.913
 1135SOL    HW2 4305   1.945   5.981   3.983
 1136SOL     OW 4306   2.895   5.913   1.931
 1136SOL    HW1 4307   2.913   5.839   1.867
 1136SOL    HW2 4308   2.822   5.886   1.993
 1137SOL     OW 4309   0.347   5.561   5.888
 1137SOL    HW1 4310   0.297   5.533   5.807
 1137SOL    HW2 4311   0.400   5.644   5.867
 1138SOL     OW 4312   2.092   2.814   4.687
 1138SOL    HW1 4313   2.048   2.743   4.742
 1138SOL    HW2 4314   2.117   2.891   4.746
 1139SOL     OW 4315   2.662   5.251   3.906
 1139SOL    HW1 4316   2.648   5.153   3.911
 1139SOL    HW2 4317   2.753   5.270   3.869
 1140SOL     OW 4318   1.626   1.457   1.851
 1140SOL    HW1 4319   1.632   1.358   1.841
 1140SOL    HW2 4320   1.547   1.480   1.907
 1141SOL     OW 4321   6.472   4.296   6.381
 1141SOL    HW1 4322   6.545   4.269   6.444
 1141SOL    HW2 4323   6.417   4.216   6.357
 1142SOL     OW 4324   2.593   0.115   2.898
 1142SOL    HW1 4325   2.497   0.090   2.911
 1142SOL    HW2 4326   2.606   0.212   2.916
 1143SOL     OW 4327   0.969   3.748   1.722
 1143SOL    HW1 4328   0.883   3.703   1.702
 1143SOL    HW2 4329   0.999   3.800   1.642
 1144SOL     OW 4330   5.242   4.396   2.123
 1144SOL    HW1 4331   5.289   4.314   2.091
 1144SOL    HW2 4332   5.184   4.433   2.049
 1145SOL     OW 4333   0.508   1.480   0.239
 1145SOL    HW1 4334   0.470   1.572   0.233
 1145SOL    HW2 4335   0.434   1.413   0.248
 1146SOL     OW 4336   0.891   1.356   1.380
 1146SOL    HW1 4337   0.924   1.405   1.300
 1146SOL    HW2 4338   0.953   1.371   1.457
 1147SOL     OW 4339   3.147   6.933   1.022
 1147SOL    HW1 4340   3.133   7.022   1.064
 1147SOL    HW2 4341   3.240   6.901   1.040
 1148SOL     OW 4342   4.019   5.608   2.818
 1148SOL    HW1 4343   3.972   5.689   2.853
 1148SOL    HW2 4344   3.964   5.526   2.836
 1149SOL     OW 4345   5.049   2.233   1.623
 1149SOL    HW1 4346   5.124   2.287   1.660
 1149SOL    HW2 4347   4.985   2.211   1.697
 1150SOL     OW 4348   1.630   4.401   0.098
 1150SOL    HW1 4349   1.575   4.414   0.016
 1150SOL    HW2 4350   1.702   4.334   0.080
 1151SOL     OW 4351   6.461   5.502   3.860
 1151SOL    HW1 4352   6.513   5.585   3.842
 1151SOL    HW2 4353   6.364   5.519   3.843
 1152SOL     OW 4354   4.380   6.825   6.840
 1152SOL    HW1 4355   4.419   6.914   6.816
 1152SOL    HW2 4356   4.281   6.826   6.823
 1153SOL     OW 4357   6.492   0.574   1.437
 1153SOL    HW1 4358   6.435   0.546   1.514
 1153SOL    HW2 4359   6.514   0.494   1.381
 1154SOL     OW 4360   1.616   2.863   2.004
 1154SOL    HW1 4361   1.599   2.807   1.923
 1154SOL    HW2 4362   1.691   2.927   1.984
 1155SOL     OW 4363   2.558   6.384   4.887
 1155SOL    HW1 4364   2.569   6.344   4.796
 1155SOL    HW2 4365   2.487   6.335   4.937
 1156SOL     OW 4366   4.019   2.194   4.289
 1156SOL    HW1 4367   4.051   2.146   4.371
 1156SOL    HW2 4368   3.978   2.281   4.315
 1157SOL     OW 4369   3.629   0.759   5.683
 1157SOL    HW1 4370   3.695   0.780   5.612
 1157SOL    HW2 4371   3.578   0.676   5.659
 1158SOL     OW 4372   5.906   6.202   3.031
 1158SOL    HW1 4373   5.849   6.265   2.978
 1158SOL    HW2 4374   5.953   6.252   3.104
 1159SOL     OW 4375   6.263   6.446   2.424
 1159SOL    HW1 4376   6.321   6.425   2.503
 1159SOL    HW2 4377   6.284   6.383   2.349
 1160SOL     OW 4378   4.992   0.766   0.393
 1160SOL    HW1 4379   4.987   0.851   0.445
 1160SOL    HW2 4380   4.904   0.719   0.397
 1161SOL     OW 4381   0.567   5.649   6.750
 1161SOL    HW1 4382   0.520   5.732   6.721
 1161SOL    HW2 4383   0.519   5.607   6.827
 1162SOL     OW 4384   2.011   2.678   5.093
 1162SOL    HW1 4385   1.921   2.674   5.138
 1162SOL    HW2 4386   2.058   2.762   5.119
 1163SOL     OW 4387   6.176   4.050   1.892
 1163SOL    HW1 4388   6.084   4.087   1.880
 1163SOL    HW2 4389   6.170   3.952   1.912
 1164SOL     OW 4390   4.977   1.777   4.323
 1164SOL    HW1 4391   4.993   1.777   4.225
 1164SOL    HW2 4392   5.038   1.843   4.367
 1165SOL     OW 4393   3.907   6.385   3.548
 1165SOL    HW1 4394   3.833   6.361   3.485
 1165SOL    HW2 4395   3.877   6.369   3.642
 1166SOL     OW 4396   2.266   6.000   6.940
 1166SOL    HW1 4397   2.323   5.918   6.953
 1166SOL    HW2 4398   2.256   6.018   6.842
 1167SOL     OW 4399   5.491   4.893   2.473
 1167SOL    HW1 4400   5.442   4.921   2.555
 1167SOL    HW2 4401   5.442   4.925   2.392
 1168SOL     OW 4402   6.133   2.200   3.044
 1168SOL    HW1 4403   6.212   2.160   2.998
 1168SOL    HW2 4404   6.052   2.190   2.985
 1169SOL     OW 4405   5.549   0.616   4.799
 1169SOL    HW1 4406   5.639   0.653   4.823
 1169SOL    HW2 4407   5.483   0.643   4.869
 1170SOL     OW 4408   4.726   6.798   3.572
 1170SOL    HW1 4409   4.642   6.851   3.576
 1170SOL    HW2 4410   4.803   6.860   3.552
 1171SOL     OW 4411   1.445   0.487   1.531
 1171SOL    HW1 4412   1.438   0.582   1.563
 1171SOL    HW2 4413   1.537   0.470   1.497
 1172SOL     OW 4414   6.992   3.362   6.708
 1172SOL    HW1 4415   0.063   3.392   6.719
 1172SOL    HW2 4416   6.948   3.416   6.636
 1173SOL     OW 4417   2.977   1.671   1.102
 1173SOL    HW1 4418   2.981   1.571   1.103
 1173SOL    HW2 4419   2.950   1.702   1.011
 1174SOL     OW 4420   3.779   3.810   1.141
 1174SOL    HW1 4421   3.682   3.784   1.131
 1174SOL    HW2 4422   3.814   3.773   1.227
 1175SOL     OW 4423   3.517   3.407   4.891
 1175SOL    HW1 4424   3.594   3.467   4.870
 1175SOL    HW2 4425   3.458   3.400   4.810
 1176SOL     OW 4426   5.250   4.051   6.234
 1176SOL    HW1 4427   5.181   4.118   6.207
 1176SOL    HW2 4428   5.280   3.999   6.154
 1177SOL     OW 4429   6.417   2.587   4.721
 1177SOL    HW1 4430   6.419   2.581   4.821
 1177SOL    HW2 4431   6.505   2.621   4.688
 1178SOL     OW 4432   2.703   4.719   0.153
 1178SOL    HW1 4433   2.779   4.772   0.191
 1178SOL    HW2 4434   2.738   4.649   0.092
 1179SOL     OW 4435   2.527   5.033   0.672
 1179SOL    HW1 4436   2.529   5.099   0.747
 1179SOL    HW2 4437   2.620   5.021   0.635
 1180SOL     OW 4438   2.832   5.616   0.659
 1180SOL    HW1 4439   2.849   5.545   0.590
 1180SOL    HW2 4440   2.914   5.629   0.714
 1181SOL     OW 4441   0.157   5.871   6.668
 1181SOL    HW1 4442   0.231   5.920   6.715
 1181SOL    HW2 4443   0.088   5.845   6.735
 1182SOL     OW 4444   3.956   5.193   2.654
 1182SOL    HW1 4445   3.961   5.274   2.713
 1182SOL    HW2 4446   3.891   5.209   2.580
 1183SOL     OW 4447   2.185   3.720   6.282
 1183SOL    HW1 4448   2.085   3.711   6.286
 1183SOL    HW2 4449   2.209   3.802   6.230
 1184SOL     OW 4450   1.738   0.169   4.949
 1184SOL    HW1 4451   1.733   0.242   5.017
 1184SOL    HW2 4452   1.692   0.199   4.865
 1185SOL     OW 4453   6.829   1.055   6.980
 1185SOL    HW1 4454   6.844   1.096   6.890
 1185SOL    HW2 4455   6.735   1.073   7.010
 1186SOL     OW 4456   4.864   5.985   4.589
 1186SOL    HW1 4457   4.817   6.041   4.521
 1186SOL    HW2 4458   4.900   5.902   4.546
 1187SOL     OW 4459   6.534   0.073   5.783
 1187SOL    HW1 4460   6.538   7.001   5.754
 1187SOL    HW2 4461   6.578   0.082   5.873
 1188SOL     OW 4462   2.745   6.548   4.989
 1188SOL    HW1 4463   2.679   6.481   4.955
 1188SOL    HW2 4464   2.832   6.538   4.940
 1189SOL     OW 4465   6.396   3.319   3.072
 1189SOL    HW1 4466   6.345   3.264   3.138
 1189SOL    HW2 4467   6.488   3.337   3.106
 1190SOL     OW 4468   2.010   6.334   2.935
 1190SOL    HW1 4469   2.027   6.306   3.029
 1190SOL    HW2 4470   1.964   6.261   2.886
 1191SOL     OW 4471   4.312   5.268   3.241
 1191SOL    HW1 4472   4.254   5.281   3.160
 1191SOL    HW2 4473   4.336   5.172   3.250
 1192SOL     OW 4474   4.300   5.860   2.539
 1192SOL    HW1 4475   4.381   5.918   2.537
 1192SOL    HW2 4476   4.266   5.854   2.633
 1193SOL     OW 4477   6.059   4.977   4.216
 1193SOL    HW1 4478   6.135   4.979   4.150
 1193SOL    HW2 4479   6.047   5.068   4.255
 1194SOL     OW 4480   5.061   0.392   1.429
 1194SOL    HW1 4481   4.984   0.399   1.365
 1194SOL    HW2 4482   5.067   0.476   1.482
 1195SOL     OW 4483   6.098   3.825   2.047
 1195SOL    HW1 4484   6.050   3.765   1.983
 1195SOL    HW2 4485   6.052   3.822   2.136
 1196SOL     OW 4486   6.587   6.488   3.594
 1196SOL    HW1 4487   6.655   6.418   3.611
 1196SOL    HW2 4488   6.528   6.499   3.674
 1197SOL     OW 4489   3.571   6.916   0.370
 1197SOL    HW1 4490   3.497   6.856   0.399
 1197SOL    HW2 4491   3.584   6.988   0.438
 1198SOL     OW 4492   1.575   2.138   0.982
 1198SOL    HW1 4493   1.606   2.181   1.068
 1198SOL    HW2 4494   1.521   2.204   0.930
 1199SOL     OW 4495   4.967   5.209   1.250
 1199SOL    HW1 4496   5.002   5.302   1.258
 1199SOL    HW2 4497   4.986   5.174   1.159
 1200SOL     OW 4498   2.949   3.293   2.625
 1200SOL    HW1 4499   3.015   3.314   2.554
 1200SOL    HW2 4500   2.891   3.373   2.642
 1201SOL     OW 4501   1.382   1.753   4.653
 1201SOL    HW1 4502   1.471   1.764   4.608
 1201SOL    HW2 4503   1.326   1.689   4.601
 1202SOL     OW 4504   0.588   5.253   6.697
 1202SOL    HW1 4505   0.665   5.311   6.721
 1202SOL    HW2 4506   0.503   5.303   6.711
 1203SOL     OW 4507   4.709   6.073   5.894
 1203SOL    HW1 4508   4.731   5.975   5.892
 1203SOL    HW2 4509   4.694   6.101   5.989
 1204SOL     OW 4510   2.513   0.956   2.095
 1204SOL    HW1 4511   2.415   0.959   2.116
 1204SOL    HW2 4512   2.551   1.048   2.102
 1205SOL     OW 4513   5.311   3.949   1.485
 1205SOL    HW1 4514   5.229   3.938   1.540
 1205SOL    HW2 4515   5.329   3.865   1.434
 1206SOL     OW 4516   3.059   3.534   4.681
 1206SOL    HW1 4517   2.989   3.540   4.610
 1206SOL    HW2 4518   3.125   3.609   4.669
 1207SOL     OW 4519   2.288   6.461   1.727
 1207SOL    HW1 4520   2.373   6.477   1.677
 1207SOL    HW2 4521   2.264   6.364   1.721
 1208SOL     OW 4522   3.620   3.469   0.566
 1208SOL    HW1 4523   3.556   3.498   0.637
 1208SOL    HW2 4524   3.632   3.370   0.569
 1209SOL     OW 4525   3.638   6.962   5.623
 1209SOL    HW1 4526   3.542   6.990   5.627
 1209SOL    HW2 4527   3.644   6.868   5.589
 1210SOL     OW 4528   3.072   0.006   3.458
 1210SOL    HW1 4529   3.152   7.013   3.400
 1210SOL    HW2 4530   3.087   6.992   3.549
 1211SOL     OW 4531   1.061   4.006   0.965
 1211SOL    HW1 4532   1.115   3.931   0.928
 1211SOL    HW2 4533   0.992   4.035   0.898
 1212SOL     OW 4534   0.164   0.037   6.848
 1212SOL    HW1 4535   0.098   0.070   6.916
 1212SOL    HW2 4536   0.194   0.113   6.791
 1213SOL     OW 4537   5.653   2.745   0.761
 1213SOL    HW1 4538   5.657   2.655   0.804
 1213SOL    HW2 4539   5.735   2.797   0.785
 1214SOL     OW 4540   6.740   2.096   1.050
 1214SOL    HW1 4541   6.771   2.101   1.145
 1214SOL    HW2 4542   6.697   2.008   1.034
 1215SOL     OW 4543   1.196   4.994   4.510
 1215SOL    HW1 4544   1.247   4.983   4.596
 1215SOL    HW2 4545   1.102   4.964   4.524
 1216SOL     OW 4546   4.416   0.333   6.267
 1216SOL    HW1 4547   4.439   0.389   6.346
 1216SOL    HW2 4548   4.448   0.239   6.282
 1217SOL     OW 4549   2.259   4.482   0.692
 1217SOL    HW1 4550   2.312   4.397   0.689
 1217SOL    HW2 4551   2.293   4.540   0.766
 1218SOL     OW 4552   1.279   4.462   4.066
 1218SOL    HW1 4553   1.286   4.508   4.154
 1218SOL    HW2 4554   1.367   4.420   4.043
 1219SOL     OW 4555   4.165   6.496   1.766
 1219SOL    HW1 4556   4.103   6.418   1.779
 1219SOL    HW2 4557   4.163   6.524   1.670
 1220SOL     OW 4558   1.296   4.823   3.037
 1220SOL    HW1 4559   1.229   4.783   3.100
 1220SOL    HW2 4560   1.309   4.920   3.059
 1221SOL     OW 4561   5.823   3.164   5.670
 1221SOL    HW1 4562   5.909   3.178   5.621
 1221SOL    HW2 4563   5.777   3.082   5.635
 1222SOL     OW 4564   6.463   6.353   6.845
 1222SOL    HW1 4565   6.508   6.386   6.927
 1222SOL    HW2 4566   6.518   6.376   6.765
 1223SOL     OW 4567   3.059   0.243   0.751
 1223SOL    HW1 4568   3.061   0.280   0.658
 1223SOL    HW2 4569   3.010   0.156   0.751
 1224SOL     OW 4570   2.293   0.468   0.948
 1224SOL    HW1 4571   2.214   0.429   0.995
 1224SOL    HW2 4572   2.277   0.565   0.930
 1225SOL     OW 4573   3.346   4.125   6.615
 1225SOL    HW1 4574   3.333   4.034   6.576
 1225SOL    HW2 4575   3.399   4.182   6.552
 1226SOL     OW 4576   2.097   5.236   1.402
 1226SOL    HW1 4577   2.102   5.292   1.320
 1226SOL    HW2 4578   2.124   5.142   1.380
 1227SOL     OW 4579   7.011   3.757   6.701
 1227SOL    HW1 4580   6.918   3.793   6.705
 1227SOL    HW2 4581   0.024   3.749   6.794
 1228SOL     OW 4582   3.808   2.520   6.275
 1228SOL    HW1 4583   3.892   2.574   6.277
 1228SOL    HW2 4584   3.729   2.580   6.290
 1229SOL     OW 4585   4.244   4.376   6.527
 1229SOL    HW1 4586   4.218   4.337   6.439
 1229SOL    HW2 4587   4.276   4.470   6.514
 1230SOL     OW 4588   4.216   6.639   3.478
 1230SOL    HW1 4589   4.194   6.564   3.415
 1230SOL    HW2 4590   4.131   6.687   3.503
 1231SOL     OW 4591   1.911   3.120   5.013
 1231SOL    HW1 4592   1.862   3.197   5.055
 1231SOL    HW2 4593   1.952   3.064   5.084
 1232SOL     OW 4594   1.295   2.644   5.457
 1232SOL    HW1 4595   1.213   2.672   5.408
 1232SOL    HW2 4596   1.346   2.578   5.402
 1233SOL     OW 4597   0.810   3.111   5.516
 1233SOL    HW1 4598   0.822   3.095   5.613
 1233SOL    HW2 4599   0.748   3.042   5.478
 1234SOL     OW 4600   6.081   4.506   4.867
 1234SOL    HW1 4601   6.158   4.571   4.868
 1234SOL    HW2 4602   6.002   4.549   4.824
 1235SOL     OW 4603   6.237   5.958   3.370
 1235SOL    HW1 4604   6.301   5.978   3.295
 1235SOL    HW2 4605   6.258   5.868   3.407
 1236SOL     OW 4606   5.715   0.722   6.998
 1236SOL    HW1 4607   5.698   0.791   6.928
 1236SOL    HW2 4608   5.793   0.666   6.972
 1237SOL     OW 4609   2.767   4.233   6.945
 1237SOL    HW1 4610   2.765   4.324   6.904
 1237SOL    HW2 4611   2.825   4.234   0.003
 1238SOL     OW 4612   1.781   1.592   0.579
 1238SOL    HW1 4613   1.839   1.673   0.584
 1238SOL    HW2 4614   1.745   1.571   0.670
 1239SOL     OW 4615   6.719   6.016   6.908
 1239SOL    HW1 4616   6.644   6.019   6.841
 1239SOL    HW2 4617   6.684   5.986   6.996
 1240SOL     OW 4618   4.852   5.915   2.010
 1240SOL    HW1 4619   4.821   5.968   1.931
 1240SOL    HW2 4620   4.822   5.820   2.001
 1241SOL     OW 4621   6.775   4.060   4.338
 1241SOL    HW1 4622   6.854   4.020   4.386
 1241SOL    HW2 4623   6.691   4.027   4.379
 1242SOL     OW 4624   1.880   3.740   0.467
 1242SOL    HW1 4625   1.830   3.746   0.553
 1242SOL    HW2 4626   1.829   3.682   0.404
 1243SOL     OW 4627   2.026   5.328   5.678
 1243SOL    HW1 4628   1.967   5.250   5.658
 1243SOL    HW2 4629   2.039   5.382   5.594
 1244SOL     OW 4630   0.403   0.916   3.364
 1244SOL    HW1 4631   0.498   0.924   3.395
 1244SOL    HW2 4632   0.395   0.841   3.299
 1245SOL     OW 4633   3.218   3.650   0.231
 1245SOL    HW1 4634   3.293   3.596   0.270
 1245SOL    HW2 4635   3.131   3.616   0.265
 1246SOL     OW 4636   2.042   6.284   2.144
 1246SOL    HW1 4637   2.132   6.243   2.129
 1246SOL    HW2 4638   1.973   6.211   2.148
 1247SOL     OW 4639   2.261   6.468   5.787
 1247SOL    HW1 4640   2.361   6.476   5.798
 1247SOL    HW2 4641   2.240   6.382   5.741
 1248SOL     OW 4642   1.921   5.488   3.279
 1248SOL    HW1 4643   1.868   5.537   3.348
 1248SOL    HW2 4644   1.872   5.405   3.253
 1249SOL     OW 4645   5.720   3.403   3.376
 1249SOL    HW1 4646   5.713   3.319   3.322
 1249SOL    HW2 4647   5.634   3.419   3.424
 1250SOL     OW 4648   0.979   4.788   3.789
 1250SOL    HW1 4649   0.961   4.694   3.760
 1250SOL    HW2 4650   1.076   4.810   3.775
 1251SOL     OW 4651   3.863   0.444   4.786
 1251SOL    HW1 4652   3.858   0.403   4.695
 1251SOL    HW2 4653   3.956   0.433   4.822
 1252SOL     OW 4654   3.034   4.064   5.709
 1252SOL    HW1 4655   3.120   4.105   5.677
 1252SOL    HW2 4656   3.038   3.965   5.696
 1253SOL     OW 4657   4.034   5.098   2.382
 1253SOL    HW1 4658   4.065   5.175   2.438
 1253SOL    HW2 4659   3.997   5.132   2.296
 1254SOL     OW 4660   6.370   1.773   3.000
 1254SOL    HW1 4661   6.270   1.768   3.002
 1254SOL    HW2 4662   6.403   1.810   3.087
 1255SOL     OW 4663   6.896   6.788   5.855
 1255SOL    HW1 4664   6.975   6.791   5.794
 1255SOL    HW2 4665   6.867   6.882   5.876
 1256SOL     OW 4666   6.019   0.161   3.402
 1256SOL    HW1 4667   5.990   0.240   3.455
 1256SOL    HW2 4668   6.098   0.119   3.446
 1257SOL     OW 4669   6.619   0.841   3.676
 1257SOL    HW1 4670   6.650   0.805   3.588
 1257SOL    HW2 4671   6.684   0.909   3.710
 1258SOL     OW 4672   0.581   6.897   3.470
 1258SOL    HW1 4673   0.606   6.979   3.419
 1258SOL    HW2 4674   0.489   6.868   3.443
 1259SOL     OW 4675   3.980   1.954   4.893
 1259SOL    HW1 4676   4.079   1.958   4.901
 1259SOL    HW2 4677   3.947   2.039   4.852
 1260SOL     OW 4678   0.956   1.414   0.120
 1260SOL    HW1 4679   0.952   1.471   0.202
 1260SOL    HW2 4680   0.864   1.405   0.081
 1261SOL     OW 4681   0.221   5.061   0.390
 1261SOL    HW1 4682   0.256   5.012   0.310
 1261SOL    HW2 4683   0.146   5.121   0.362
 1262SOL     OW 4684   5.491   5.758   1.577
 1262SOL    HW1 4685   5.500   5.812   1.661
 1262SOL    HW2 4686   5.579   5.718   1.554
 1263SOL     OW 4687   1.697   2.639   3.632
 1263SOL    HW1 4688   1.722   2.673   3.542
 1263SOL    HW2 4689   1.767   2.575   3.664
 1264SOL     OW 4690   0.987   2.599   4.934
 1264SOL    HW1 4691   0.948   2.651   4.857
 1264SOL    HW2 4692   0.934   2.516   4.948
 1265SOL     OW 4693   5.976   6.300   4.928
 1265SOL    HW1 4694   6.053   6.336   4.980
 1265SOL    HW2 4695   5.894   6.354   4.947
 1266SOL     OW 4696   1.808   0.509   4.745
 1266SOL    HW1 4697   1.792   0.533   4.840
 1266SOL    HW2 4698   1.809   0.592   4.689
 1267SOL     OW 4699   4.360   0.068   2.563
 1267SOL    HW1 4700   4.290   0.113   2.508
 1267SOL    HW2 4701   4.431   0.031   2.503
 1268SOL     OW 4702   4.254   2.404   5.378
 1268SOL    HW1 4703   4.347   2.440   5.380
 1268SOL    HW2 4704   4.195   2.467   5.328
 1269SOL     OW 4705   6.459   2.544   4.289
 1269SOL    HW1 4706   6.422   2.637   4.285
 1269SOL    HW2 4707   6.490   2.516   4.198
 1270SOL     OW 4708   0.245   4.856   3.227
 1270SOL    HW1 4709   0.168   4.919   3.227
 1270SOL    HW2 4710   0.310   4.882   3.156
 1271SOL     OW 4711   1.311   1.555   1.595
 1271SOL    HW1 4712   1.357   1.538   1.509
 1271SOL    HW2 4713   1.233   1.493   1.605
 1272SOL     OW 4714   6.984   4.154   0.468
 1272SOL    HW1 4715   6.941   4.181   0.382
 1272SOL    HW2 4716   6.949   4.211   0.543
 1273SOL     OW 4717   1.751   4.757   5.145
 1273SOL    HW1 4718   1.770   4.664   5.115
 1273SOL    HW2 4719   1.717   4.811   5.068
 1274SOL     OW 4720   0.752   5.103   2.510
 1274SOL    HW1 4721   0.816   5.173   2.478
 1274SOL    HW2 4722   0.713   5.055   2.431
 1275SOL     OW 4723   3.058   0.793   2.653
 1275SOL    HW1 4724   3.026   0.862   2.589
 1275SOL    HW2 4725   3.019   0.810   2.744
 1276SOL     OW 4726   5.148   4.389   3.971
 1276SOL    HW1 4727   5.165   4.455   4.044
 1276SOL    HW2 4728   5.213   4.405   3.897
 1277SOL     OW 4729   0.415   6.229   0.476
 1277SOL    HW1 4730   0.401   6.190   0.385
 1277SOL    HW2 4731   0.438   6.326   0.467
 1278SOL     OW 4732   1.381   6.013   2.510
 1278SOL    HW1 4733   1.294   5.994   2.463
 1278SOL    HW2 4734   1.362   6.057   2.598
 1279SOL     OW 4735   2.552   1.878   6.760
 1279SOL    HW1 4736   2.464   1.865   6.716
 1279SOL    HW2 4737   2.606   1.944   6.707
 1280SOL     OW 4738   2.549   1.842   3.297
 1280SOL    HW1 4739   2.460   1.887   3.289
 1280SOL    HW2 4740   2.536   1.743   3.304
 1281SOL     OW 4741   4.062   5.747   4.141
 1281SOL    HW1 4742   4.028   5.718   4.052
 1281SOL    HW2 4743   4.162   5.747   4.139
 1282SOL     OW 4744   0.317   2.545   1.235
 1282SOL    HW1 4745   0.285   2.454   1.261
 1282SOL    HW2 4746   0.245   2.593   1.185
 1283SOL     OW 4747   6.634   3.081   5.006
 1283SOL    HW1 4748   6.707   3.052   4.943
 1283SOL    HW2 4749   6.644   3.178   5.026
 1284SOL     OW 4750   4.115   1.682   1.422
 1284SOL    HW1 4751   4.091   1.743   1.347
 1284SOL    HW2 4752   4.036   1.624   1.444
 1285SOL     OW 4753   3.458   1.158   4.847
 1285SOL    HW1 4754   3.460   1.063   4.878
 1285SOL    HW2 4755   3.537   1.207   4.885
 1286SOL     OW 4756   4.550   2.091   2.057
 1286SOL    HW1 4757   4.543   2.113   1.960
 1286SOL    HW2 4758   4.460   2.068   2.093
 1287SOL     OW 4759   6.527   4.441   4.936
 1287SOL    HW1 4760   6.572   4.402   5.016
 1287SOL    HW2 4761   6.441   4.483   4.964
 1288SOL     OW 4762   4.512   4.179   6.274
 1288SOL    HW1 4763   4.551   4.268   6.296
 1288SOL    HW2 4764   4.585   4.115   6.253
 1289SOL     OW 4765   0.152   0.646   1.661
 1289SOL    HW1 4766   0.162   0.646   1.760
 1289SOL    HW2 4767   0.219   0.583   1.621
 1290SOL     OW 4768   1.201   0.010   6.756
 1290SOL    HW1 4769   1.158   0.089   6.712
 1290SOL    HW2 4770   1.140   6.955   6.749
 1291SOL     OW 4771   6.548   5.297   3.150
 1291SOL    HW1 4772   6.558   5.244   3.234
 1291SOL    HW2 4773   6.459   5.281   3.109
 1292SOL     OW 4774   0.918   6.217   2.151
 1292SOL    HW1 4775   1.017   6.212   2.144
 1292SOL    HW2 4776   0.876   6.169   2.075
 1293SOL     OW 4777   3.001   1.239   6.775
 1293SOL    HW1 4778   2.993   1.176   6.853
 1293SOL    HW2 4779   2.972   1.331   6.804
 1294SOL     OW 4780   2.361   3.724   5.569
 1294SOL    HW1 4781   2.383   3.680   5.482
 1294SOL    HW2 4782   2.299   3.801   5.552
 1295SOL     OW 4783   6.523   4.175   0.650
 1295SOL    HW1 4784   6.537   4.142   0.743
 1295SOL    HW2 4785   6.430   4.210   0.640
 1296SOL     OW 4786   5.292   6.478   5.704
 1296SOL    HW1 4787   5.332   6.547   5.644
 1296SOL    HW2 4788   5.301   6.388   5.661
 1297SOL     OW 4789   0.734   0.324   2.086
 1297SOL    HW1 4790   0.743   0.365   1.995
 1297SOL    HW2 4791   0.679   0.241   2.079
 1298SOL     OW 4792   5.774   5.792   2.425
 1298SOL    HW1 4793   5.823   5.707   2.405
 1298SOL    HW2 4794   5.678   5.771   2.446
 1299SOL     OW 4795   1.776   3.390   4.670
 1299SOL    HW1 4796   1.757   3.295   4.645
 1299SOL    HW2 4797   1.715   3.451   4.618
 1300SOL     OW 4798   1.394   4.538   1.660
 1300SOL    HW1 4799   1.459   4.492   1.599
 1300SOL    HW2 4800   1.319   4.576   1.606
 1301SOL     OW 4801   1.193   0.907   1.603
 1301SOL    HW1 4802   1.224   0.890   1.697
 1301SOL    HW2 4803   1.272   0.929   1.546
 1302SOL     OW 4804   5.741   6.535   5.544
 1302SOL    HW1 4805   5.758   6.539   5.446
 1302SOL    HW2 4806   5.756   6.625   5.584
 1303SOL     OW 4807   4.485   6.785   1.206
 1303SOL    HW1 4808   4.459   6.882   1.203
 1303SOL    HW2 4809   4.444   6.737   1.128
 1304SOL     OW 4810   0.464   1.325   0.877
 1304SOL    HW1 4811   0.408   1.263   0.932
 1304SOL    HW2 4812   0.460   1.417   0.916
 1305SOL     OW 4813   5.306   4.188   0.089
 1305SOL    HW1 4814   5.369   4.115   0.117
 1305SOL    HW2 4815   5.316   4.205   7.015
 1306SOL     OW 4816   2.209   5.397   4.304
 1306SOL    HW1 4817   2.262   5.371   4.223
 1306SOL    HW2 4818   2.216   5.324   4.372
 1307SOL     OW 4819   2.265   2.347   4.125
 1307SOL    HW1 4820   2.309   2.411   4.062
 1307SOL    HW2 4821   2.213   2.279   4.073
 1308SOL     OW 4822   6.656   5.503   6.112
 1308SOL    HW1 4823   6.683   5.511   6.016
 1308SOL    HW2 4824   6.710   5.567   6.167
 1309SOL     OW 4825   4.920   4.696   6.493
 1309SOL    HW1 4826   5.012   4.677   6.457
 1309SOL    HW2 4827   4.862   4.731   6.419
 1310SOL     OW 4828   1.165   4.289   3.699
 1310SOL    HW1 4829   1.192   4.385   3.701
 1310SOL    HW2 4830   1.216   4.238   3.768
 1311SOL     OW 4831   6.967   5.661   0.402
 1311SOL    HW1 4832   6.919   5.658   0.315
 1311SOL    HW2 4833   0.024   5.602   0.398
 1312SOL     OW 4834   1.985   0.369   6.101
 1312SOL    HW1 4835   1.982   0.291   6.164
 1312SOL    HW2 4836   1.894   0.409   6.093
 1313SOL     OW 4837   6.346   5.683   3.218
 1313SOL    HW1 4838   6.443   5.663   3.204
 1313SOL    HW2 4839   6.327   5.691   3.315
 1314SOL     OW 4840   2.591   1.868   4.928
 1314SOL    HW1 4841   2.553   1.910   5.010
 1314SOL    HW2 4842   2.671   1.920   4.898
 1315SOL     OW 4843   6.202   1.032   4.783
 1315SOL    HW1 4844   6.181   0.974   4.861
 1315SOL    HW2 4845   6.117   1.071   4.747
 1316SOL     OW 4846   4.276   0.517   4.811
 1316SOL    HW1 4847   4.333   0.570   4.747
 1316SOL    HW2 4848   4.334   0.476   4.881
 1317SOL     OW 4849   2.570   2.830   5.802
 1317SOL    HW1 4850   2.645   2.869   5.856
 1317SOL    HW2 4851   2.539   2.899   5.735
 1318SOL     OW 4852   1.547   2.803   6.702
 1318SOL    HW1 4853   1.522   2.779   6.796
 1318SOL    HW2 4854   1.639   2.771   6.682
 1319SOL     OW 4855   6.971   6.610   0.668
 1319SOL    HW1 4856   6.883   6.571   0.695
 1319SOL    HW2 4857   6.955   6.694   0.616
 1320SOL     OW 4858   3.216   2.669   5.996
 1320SOL    HW1 4859   3.202   2.574   5.967
 1320SOL    HW2 4860   3.178   2.731   5.928
 1321SOL     OW 4861   5.806   2.326   6.655
 1321SOL    HW1 4862   5.780   2.420   6.677
 1321SOL    HW2 4863   5.896   2.305   6.693
 1322SOL     OW 4864   3.216   1.660   0.145
 1322SOL    HW1 4865   3.198   1.746   0.193
 1322SOL    HW2 4866   3.133   1.605   0.142
 1323SOL     OW 4867   3.844   0.483   0.464
 1323SOL    HW1 4868   3.792   0.486   0.378
 1323SOL    HW2 4869   3.783   0.456   0.539
 1324SOL     OW 4870   1.232   3.626   0.005
 1324SOL    HW1 4871   1.193   3.631   6.937
 1324SOL    HW2 4872   1.170   3.573   0.064
 1325SOL     OW 4873   2.999   4.852   6.388
 1325SOL    HW1 4874   3.087   4.806   6.403
 1325SOL    HW2 4875   2.925   4.786   6.403
 1326SOL     OW 4876   4.908   3.824   4.052
 1326SOL    HW1 4877   4.836   3.877   4.097
 1326SOL    HW2 4878   4.905   3.729   4.085
 1327SOL     OW 4879   0.060   6.419   1.103
 1327SOL    HW1 4880   6.991   6.409   1.069
 1327SOL    HW2 4881   0.088   6.515   1.095
 1328SOL     OW 4882   0.852   3.691   5.891
 1328SOL    HW1 4883   0.939   3.739   5.899
 1328SOL    HW2 4884   0.869   3.592   5.885
 1329SOL     OW 4885   0.384   3.051   3.406
 1329SOL    HW1 4886   0.474   3.089   3.387
 1329SOL    HW2 4887   0.358   2.987   3.334
 1330SOL     OW 4888   6.238   2.968   1.048
 1330SOL    HW1 4889   6.274   3.038   0.986
 1330SOL    HW2 4890   6.182   3.011   1.119
 1331SOL     OW 4891   4.575   1.592   3.062
 1331SOL    HW1 4892   4.564   1.649   3.142
 1331SOL    HW2 4893   4.588   1.649   2.981
 1332SOL     OW 4894   1.517   6.808   0.732
 1332SOL    HW1 4895   1.615   6.811   0.752
 1332SOL    HW2 4896   1.471   6.750   0.799
 1333SOL     OW 4897   3.281   4.117   2.910
 1333SOL    HW1 4898   3.298   4.171   2.993
 1333SOL    HW2 4899   3.346   4.145   2.839
 1334SOL     OW 4900   6.660   2.453   2.250
 1334SOL    HW1 4901   6.708   2.486   2.168
 1334SOL    HW2 4902   6.719   2.388   2.298
 1335SOL     OW 4903   1.665   3.695   2.248
 1335SOL    HW1 4904   1.670   3.793   2.266
 1335SOL    HW2 4905   1.583   3.657   2.290
 1336SOL     OW 4906   3.531   0.449   5.078
 1336SOL    HW1 4907   3.609   0.393   5.050
 1336SOL    HW2 4908   3.558   0.506   5.157
 1337SOL     OW 4909   6.483   1.460   4.057
 1337SOL    HW1 4910   6.542   1.471   3.977
 1337SOL    HW2 4911   6.393   1.500   4.039
 1338SOL     OW 4912   5.804   4.276   4.965
 1338SOL    HW1 4913   5.836   4.266   4.871
 1338SOL    HW2 4914   5.873   4.325   5.018
 1339SOL     OW 4915   0.250   0.401   6.918
 1339SOL    HW1 4916   0.197   0.344   6.854
 1339SOL    HW2 4917   0.240   0.497   6.893
 1340SOL     OW 4918   5.329   1.954   1.936
 1340SOL    HW1 4919   5.243   1.935   1.983
 1340SOL    HW2 4920   5.319   1.931   1.839
 1341SOL     OW 4921   4.666   6.666   6.579
 1341SOL    HW1 4922   4.697   6.735   6.645
 1341SOL    HW2 4923   4.740   6.643   6.516
 1342SOL     OW 4924   2.864   6.138   1.123
 1342SOL    HW1 4925   2.962   6.118   1.125
 1342SOL    HW2 4926   2.850   6.229   1.084
 1343SOL     OW 4927   5.563   5.705   2.720
 1343SOL    HW1 4928   5.475   5.743   2.691
 1343SOL    HW2 4929   5.593   5.751   2.804
 1344SOL     OW 4930   0.226   0.037   4.666
 1344SOL    HW1 4931   0.217   6.980   4.608
 1344SOL    HW2 4932   0.312   0.033   4.716
 1345SOL     OW 4933   0.821   5.655   1.457
 1345SOL    HW1 4934   0.795   5.741   1.501
 1345SOL    HW2 4935   0.811   5.580   1.523
 1346SOL     OW 4936   2.556   5.101   6.119
 1346SOL    HW1 4937   2.546   5.147   6.031
 1346SOL    HW2 4938   2.637   5.042   6.117
 1347SOL     OW 4939   1.359   0.415   6.892
 1347SOL    HW1 4940   1.299   0.423   6.972
 1347SOL    HW2 4941   1.303   0.397   6.811
 1348SOL     OW 4942   0.019   5.919   5.781
 1348SOL    HW1 4943   0.016   5.824   5.811
 1348SOL    HW2 4944   0.079   5.927   5.701
 1349SOL     OW 4945   5.078   3.863   4.312
 1349SOL    HW1 4946   5.012   3.789   4.302
 1349SOL    HW2 4947   5.167   3.833   4.279
 1350SOL     OW 4948   2.886   3.569   0.583
 1350SOL    HW1 4949   2.813   3.635   0.562
 1350SOL    HW2 4950   2.878   3.541   0.678
 1351SOL     OW 4951   6.682   2.687   5.267
 1351SOL    HW1 4952   6.731   2.748   5.206
 1351SOL    HW2 4953   6.660   2.602   5.219
 1352SOL     OW 4954   6.864   0.051   2.637
 1352SOL    HW1 4955   6.917   0.124   2.595
 1352SOL    HW2 4956   6.881   6.989   2.587
 1353SOL     OW 4957   0.709   1.217   0.790
 1353SOL    HW1 4958   0.625   1.257   0.827
 1353SOL    HW2 4959   0.694   1.191   0.694
 1354SOL     OW 4960   5.826   4.412   1.876
 1354SOL    HW1 4961   5.786   4.501   1.897
 1354SOL    HW2 4962   5.856   4.368   1.961
 1355SOL     OW 4963   6.306   3.660   4.900
 1355SOL    HW1 4964   6.397   3.692   4.927
 1355SOL    HW2 4965   6.286   3.575   4.948
 1356SOL     OW 4966   3.586   3.338   1.510
 1356SOL    HW1 4967   3.555   3.244   1.493
 1356SOL    HW2 4968   3.508   3.399   1.512
 1357SOL     OW 4969   6.713   2.889   5.543
 1357SOL    HW1 4970   6.651   2.838   5.602
 1357SOL    HW2 4971   6.681   2.882   5.448
 1358SOL     OW 4972   1.095   6.600   0.199
 1358SOL    HW1 4973   1.118   6.591   0.103
 1358SOL    HW2 4974   1.178   6.614   0.253
 1359SOL     OW 4975   6.306   4.190   1.721
 1359SOL    HW1 4976   6.269   4.135   1.796
 1359SOL    HW2 4977   6.405   4.196   1.729
 1360SOL     OW 4978   2.802   2.416   6.432
 1360SOL    HW1 4979   2.840   2.491   6.378
 1360SOL    HW2 4980   2.833   2.329   6.393
 1361SOL     OW 4981   6.787   4.938   4.229
 1361SOL    HW1 4982   6.691   4.920   4.209
 1361SOL    HW2 4983   6.839   4.944   4.144
 1362SOL     OW 4984   3.150   3.019   3.134
 1362SOL    HW1 4985   3.087   3.096   3.129
 1362SOL    HW2 4986   3.194   3.018   3.224
 1363SOL     OW 4987   0.704   5.640   5.217
 1363SOL    HW1 4988   0.641   5.716   5.204
 1363SOL    HW2 4989   0.716   5.623   5.315
 1364SOL     OW 4990   4.418   4.034   0.798
 1364SOL    HW1 4991   4.511   4.000   0.784
 1364SOL    HW2 4992   4.372   3.977   0.866
 1365SOL     OW 4993   0.688   3.589   6.981
 1365SOL    HW1 4994   0.697   3.491   6.964
 1365SOL    HW2 4995   0.666   3.635   6.895
 1366SOL     OW 4996   2.162   6.872   4.689
 1366SOL    HW1 4997   2.176   6.809   4.613
 1366SOL    HW2 4998   2.069   6.861   4.726
 1367SOL     OW 4999   2.518   1.078   2.771
 1367SOL    HW1 5000   2.490   1.004   2.832
 1367SOL    HW2 5001   2.438   1.115   2.725
 1368SOL     OW 5002   5.991   6.622   4.750
 1368SOL    HW1 5003   5.990   6.682   4.830
 1368SOL    HW2 5004   5.984   6.527   4.781
 1369SOL     OW 5005   0.996   0.675   3.115
 1369SOL    HW1 5006   1.049   0.692   3.198
 1369SOL    HW2 5007   1.058   0.670   3.037
 1370SOL     OW 5008   2.920   1.186   1.271
 1370SOL    HW1 5009   2.848   1.235   1.321
 1370SOL    HW2 5010   2.889   1.094   1.250
 1371SOL     OW 5011   3.621   0.713   6.171
 1371SOL    HW1 5012   3.626   0.692   6.073
 1371SOL    HW2 5013   3.713   0.715   6.210
 1372SOL     OW 5014   3.453   1.881   2.276
 1372SOL    HW1 5015   3.375   1.916   2.225
 1372SOL    HW2 5016   3.525   1.951   2.277
 1373SOL     OW 5017   1.122   6.303   0.823
 1373SOL    HW1 5018   1.146   6.215   0.782
 1373SOL    HW2 5019   1.199   6.335   0.877
 1374SOL     OW 5020   4.636   2.351   0.661
 1374SOL    HW1 5021   4.639   2.253   0.680
 1374SOL    HW2 5022   4.725   2.391   0.679
 1375SOL     OW 5023   0.315   4.236   5.960
 1375SOL    HW1 5024   0.309   4.211   6.057
 1375SOL    HW2 5025   0.408   4.263   5.939
 1376SOL     OW 5026   5.044   2.042   2.858
 1376SOL    HW1 5027   5.007   2.068   2.769
 1376SOL    HW2 5028   5.110   1.968   2.847
 1377SOL     OW 5029   0.147   5.804   4.873
 1377SOL    HW1 5030   0.080   5.730   4.874
 1377SOL    HW2 5031   0.193   5.807   4.784
 1378SOL     OW 5032   1.634   1.869   1.026
 1378SOL    HW1 5033   1.627   1.969   1.025
 1378SOL    HW2 5034   1.606   1.834   0.937
 1379SOL     OW 5035   4.036   6.267   1.820
 1379SOL    HW1 5036   3.988   6.246   1.906
 1379SOL    HW2 5037   4.058   6.182   1.773
 1380SOL     OW 5038   6.217   6.669   2.275
 1380SOL    HW1 5039   6.237   6.588   2.330
 1380SOL    HW2 5040   6.303   6.710   2.244
 1381SOL     OW 5041   6.189   1.670   1.412
 1381SOL    HW1 5042   6.245   1.613   1.351
 1381SOL    HW2 5043   6.095   1.671   1.378
 1382SOL     OW 5044   5.804   4.561   6.571
 1382SOL    HW1 5045   5.765   4.643   6.614
 1382SOL    HW2 5046   5.865   4.516   6.636
 1383SOL     OW 5047   2.517   0.655   0.212
 1383SOL    HW1 5048   2.449   0.702   0.156
 1383SOL    HW2 5049   2.479   0.569   0.245
 1384SOL     OW 5050   3.472   1.947   2.978
 1384SOL    HW1 5051   3.469   1.999   2.893
 1384SOL    HW2 5052   3.512   1.857   2.961
 1385SOL     OW 5053   6.442   3.092   2.695
 1385SOL    HW1 5054   6.532   3.070   2.733
 1385SOL    HW2 5055   6.386   3.009   2.692
 1386SOL     OW 5056   2.190   2.423   4.388
 1386SOL    HW1 5057   2.256   2.450   4.459
 1386SOL    HW2 5058   2.239   2.396   4.306
 1387SOL     OW 5059   2.106   0.602   4.943
 1387SOL    HW1 5060   2.022   0.573   4.897
 1387SOL    HW2 5061   2.122   0.699   4.924
 1388SOL     OW 5062   6.652   1.105   4.873
 1388SOL    HW1 5063   6.714   1.128   4.799
 1388SOL    HW2 5064   6.581   1.043   4.840
 1389SOL     OW 5065   6.452   0.640   4.817
 1389SOL    HW1 5066   6.399   0.666   4.897
 1389SOL    HW2 5067   6.403   0.570   4.765
 1390SOL     OW 5068   4.774   2.360   2.749
 1390SOL    HW1 5069   4.789   2.432   2.682
 1390SOL    HW2 5070   4.855   2.350   2.808
 1391SOL     OW 5071   5.364   0.998   4.982
 1391SOL    HW1 5072   5.415   0.914   5.001
 1391SOL    HW2 5073   5.268   0.975   4.965
 1392SOL     OW 5074   4.452   5.374   6.138
 1392SOL    HW1 5075   4.387   5.445   6.111
 1392SOL    HW2 5076   4.424   5.286   6.099
 1393SOL     OW 5077   5.971   0.498   6.870
 1393SOL    HW1 5078   6.041   0.480   6.801
 1393SOL    HW2 5079   5.999   0.577   6.926
 1394SOL     OW 5080   4.222   6.912   3.904
 1394SOL    HW1 5081   4.214   6.857   3.987
 1394SOL    HW2 5082   4.315   6.907   3.868
 1395SOL     OW 5083   0.924   5.287   2.446
 1395SOL    HW1 5084   0.940   5.384   2.428
 1395SOL    HW2 5085   0.990   5.232   2.393
 1396SOL     OW 5086   1.919   1.591   3.780
 1396SOL    HW1 5087   1.885   1.565   3.690
 1396SOL    HW2 5088   1.946   1.687   3.779
 1397SOL     OW 5089   0.413   5.487   5.000
 1397SOL    HW1 5090   0.405   5.431   5.082
 1397SOL    HW2 5091   0.322   5.513   4.968
 1398SOL     OW 5092   0.608   0.203   0.498
 1398SOL    HW1 5093   0.517   0.232   0.528
 1398SOL    HW2 5094   0.613   0.206   0.399
 1399SOL     OW 5095   4.221   0.290   0.490
 1399SOL    HW1 5096   4.262   0.253   0.407
 1399SOL    HW2 5097   4.172   0.375   0.469
 1400SOL     OW 5098   0.027   0.418   5.007
 1400SOL    HW1 5099   0.085   0.445   5.083
 1400SOL    HW2 5100   0.079   0.420   4.922
 1401SOL     OW 5101   5.557   0.282   3.478
 1401SOL    HW1 5102   5.598   0.216   3.540
 1401SOL    HW2 5103   5.574   0.254   3.383
 1402SOL     OW 5104   6.930   4.815   2.286
 1402SOL    HW1 5105   6.921   4.786   2.191
 1402SOL    HW2 5106   7.010   4.874   2.295
 1403SOL     OW 5107   3.304   3.093   6.537
 1403SOL    HW1 5108   3.217   3.125   6.573
 1403SOL    HW2 5109   3.341   3.022   6.597
 1404SOL     OW 5110   4.009   6.935   0.505
 1404SOL    HW1 5111   4.096   6.892   0.531
 1404SOL    HW2 5112   4.004   0.002   0.545
 1405SOL     OW 5113   1.147   3.664   1.500
 1405SOL    HW1 5114   1.212   3.736   1.523
 1405SOL    HW2 5115   1.092   3.692   1.421
 1406SOL     OW 5116   2.218   3.054   0.702
 1406SOL    HW1 5117   2.254   3.004   0.623
 1406SOL    HW2 5118   2.218   2.994   0.782
 1407SOL     OW 5119   0.146   3.364   1.265
 1407SOL    HW1 5120   0.208   3.432   1.227
 1407SOL    HW2 5121   0.100   3.316   1.190
 1408SOL     OW 5122   5.682   6.666   0.968
 1408SOL    HW1 5123   5.682   6.737   0.898
 1408SOL    HW2 5124   5.612   6.686   1.037
 1409SOL     OW 5125   6.676   1.650   5.988
 1409SOL    HW1 5126   6.608   1.577   5.994
 1409SOL    HW2 5127   6.638   1.727   5.936
 1410SOL     OW 5128   4.030   0.935   5.935
 1410SOL    HW1 5129   3.961   0.892   5.877
 1410SOL    HW2 5130   4.093   0.865   5.969
 1411SOL     OW 5131   3.711   5.331   0.264
 1411SOL    HW1 5132   3.672   5.336   0.172
 1411SOL    HW2 5133   3.652   5.380   0.328
 1412SOL     OW 5134   2.036   3.052   0.453
 1412SOL    HW1 5135   2.135   3.040   0.449
 1412SOL    HW2 5136   2.014   3.149   0.441
 1413SOL     OW 5137   1.297   1.258   4.696
 1413SOL    HW1 5138   1.331   1.306   4.615
 1413SOL    HW2 5139   1.197   1.260   4.697
 1414SOL     OW 5140   0.856   4.112   2.695
 1414SOL    HW1 5141   0.894   4.043   2.756
 1414SOL    HW2 5142   0.908   4.196   2.703
 1415SOL     OW 5143   2.459   1.681   4.759
 1415SOL    HW1 5144   2.500   1.746   4.822
 1415SOL    HW2 5145   2.362   1.704   4.746
 1416SOL     OW 5146   4.379   0.642   4.585
 1416SOL    HW1 5147   4.434   0.719   4.618
 1416SOL    HW2 5148   4.347   0.662   4.492
 1417SOL     OW 5149   3.482   3.281   5.768
 1417SOL    HW1 5150   3.457   3.246   5.678
 1417SOL    HW2 5151   3.401   3.320   5.812
 1418SOL     OW 5152   3.969   4.257   5.850
 1418SOL    HW1 5153   3.882   4.300   5.830
 1418SOL    HW2 5154   4.021   4.244   5.765
 1419SOL     OW 5155   1.642   5.580   2.482
 1419SOL    HW1 5156   1.694   5.514   2.538
 1419SOL    HW2 5157   1.641   5.668   2.528
 1420SOL     OW 5158   2.844   6.941   2.908
 1420SOL    HW1 5159   2.764   6.952   2.967
 1420SOL    HW2 5160   2.927   6.947   2.964
 1421SOL     OW 5161   1.391   4.873   5.749
 1421SOL    HW1 5162   1.334   4.923   5.814
 1421SOL    HW2 5163   1.335   4.809   5.696
 1422SOL     OW 5164   2.362   3.230   6.128
 1422SOL    HW1 5165   2.441   3.185   6.085
 1422SOL    HW2 5166   2.354   3.324   6.095
 1423SOL     OW 5167   4.511   0.384   4.551
 1423SOL    HW1 5168   4.577   0.382   4.476
 1423SOL    HW2 5169   4.472   0.476   4.559
 1424SOL     OW 5170   6.142   3.118   0.226
 1424SOL    HW1 5171   6.122   3.027   0.190
 1424SOL    HW2 5172   6.232   3.148   0.194
 1425SOL     OW 5173   5.307   6.756   3.815
 1425SOL    HW1 5174   5.236   6.710   3.868
 1425SOL    HW2 5175   5.265   6.831   3.762
 1426SOL     OW 5176   3.278   1.944   6.961
 1426SOL    HW1 5177   3.239   2.021   7.011
 1426SOL    HW2 5178   3.373   1.930   6.990
 1427SOL     OW 5179   1.981   7.022   3.639
 1427SOL    HW1 5180   1.954   6.932   3.605
 1427SOL    HW2 5181   2.077   7.018   3.669
 1428SOL     OW 5182   0.620   2.654   3.858
 1428SOL    HW1 5183   0.562   2.636   3.778
 1428SOL    HW2 5184   0.708   2.608   3.846
 1429SOL     OW 5185   6.493   1.144   1.620
 1429SOL    HW1 5186   6.453   1.072   1.677
 1429SOL    HW2 5187   6.533   1.102   1.538
 1430SOL     OW 5188   2.078   3.592   4.302
 1430SOL    HW1 5189   2.003   3.536   4.268
 1430SOL    HW2 5190   2.090   3.576   4.400
 1431SOL     OW 5191   2.678   1.188   6.726
 1431SOL    HW1 5192   2.672   1.269   6.667
 1431SOL    HW2 5193   2.768   1.147   6.716
 1432SOL     OW 5194   3.361   0.868   2.080
 1432SOL    HW1 5195   3.367   0.926   1.998
 1432SOL    HW2 5196   3.443   0.812   2.087
 1433SOL     OW 5197   2.511   0.200   3.738
 1433SOL    HW1 5198   2.426   0.213   3.790
 1433SOL    HW2 5199   2.542   0.289   3.703
 1434SOL     OW 5200   0.181   3.460   0.793
 1434SOL    HW1 5201   0.240   3.519   0.738
 1434SOL    HW2 5202   0.090   3.455   0.751
 1435SOL     OW 5203   1.784   0.004   3.835
 1435SOL    HW1 5204   1.709   0.012   3.768
 1435SOL    HW2 5205   1.871   7.019   3.787
 1436SOL     OW 5206   5.194   1.033   6.678
 1436SOL    HW1 5207   5.213   1.102   6.747
 1436SOL    HW2 5208   5.127   0.968   6.713
 1437SOL     OW 5209   3.991   0.241   6.314
 1437SOL    HW1 5210   3.914   0.289   6.271
 1437SOL    HW2 5211   4.077   0.270   6.272
 1438SOL     OW 5212   2.455   0.754   1.771
 1438SOL    HW1 5213   2.477   0.702   1.854
 1438SOL    HW2 5214   2.539   0.770   1.719
 1439SOL     OW 5215   0.105   4.356   0.061
 1439SOL    HW1 5216   0.137   4.381   6.994
 1439SOL    HW2 5217   0.146   4.268   0.087
 1440SOL     OW 5218   3.498   3.095   3.390
 1440SOL    HW1 5219   3.508   3.013   3.334
 1440SOL    HW2 5220   3.552   3.086   3.473
 1441SOL     OW 5221   6.685   3.091   3.683
 1441SOL    HW1 5222   6.613   3.032   3.719
 1441SOL    HW2 5223   6.731   3.138   3.759
 1442SOL     OW 5224   5.815   6.108   6.967
 1442SOL    HW1 5225   5.880   6.145   6.901
 1442SOL    HW2 5226   5.865   6.062   0.017
 1443SOL     OW 5227   1.116   2.673   3.691
 1443SOL    HW1 5228   1.126   2.637   3.598
 1443SOL    HW2 5229   1.159   2.763   3.697
 1444SOL     OW 5230   5.227   1.088   4.220
 1444SOL    HW1 5231   5.187   1.158   4.279
 1444SOL    HW2 5232   5.165   1.067   4.145
 1445SOL     OW 5233   6.181   2.418   0.997
 1445SOL    HW1 5234   6.161   2.413   1.095
 1445SOL    HW2 5235   6.244   2.345   0.972
 1446SOL     OW 5236   4.571   0.692   1.119
 1446SOL    HW1 5237   4.636   0.656   1.051
 1446SOL    HW2 5238   4.563   0.791   1.108
 1447SOL     OW 5239   5.559   1.188   5.540
 1447SOL    HW1 5240   5.499   1.221   5.468
 1447SOL    HW2 5241   5.528   1.097   5.569
 1448SOL     OW 5242   5.646   0.245   6.612
 1448SOL    HW1 5243   5.689   0.329   6.643
 1448SOL    HW2 5244   5.669   0.170   6.674
 1449SOL     OW 5245   4.764   5.540   0.731
 1449SOL    HW1 5246   4.787   5.590   0.815
 1449SOL    HW2 5247   4.666   5.521   0.730
 1450SOL     OW 5248   5.548   2.488   3.814
 1450SOL    HW1 5249   5.558   2.388   3.818
 1450SOL    HW2 5250   5.521   2.523   3.903
 1451SOL     OW 5251   1.482   6.817   2.443
 1451SOL    HW1 5252   1.570   6.809   2.491
 1451SOL    HW2 5253   1.470   6.739   2.381
 1452SOL     OW 5254   4.445   0.724   5.196
 1452SOL    HW1 5255   4.457   0.782   5.278
 1452SOL    HW2 5256   4.535   0.708   5.155
 1453SOL     OW 5257   4.500   4.476   4.169
 1453SOL    HW1 5258   4.517   4.382   4.143
 1453SOL    HW2 5259   4.571   4.535   4.131
 1454SOL     OW 5260   4.424   4.008   1.427
 1454SOL    HW1 5261   4.424   3.918   1.383
 1454SOL    HW2 5262   4.494   4.066   1.386
 1455SOL     OW 5263   1.842   2.577   1.452
 1455SOL    HW1 5264   1.903   2.513   1.498
 1455SOL    HW2 5265   1.769   2.527   1.407
 1456SOL     OW 5266   6.890   5.427   3.997
 1456SOL    HW1 5267   6.919   5.337   4.028
 1456SOL    HW2 5268   6.966   5.492   4.006
 1457SOL     OW 5269   2.009   6.956   3.045
 1457SOL    HW1 5270   2.013   7.000   2.955
 1457SOL    HW2 5271   1.916   6.964   3.082
 1458SOL     OW 5272   6.432   5.295   6.894
 1458SOL    HW1 5273   6.528   5.299   6.922
 1458SOL    HW2 5274   6.425   5.245   6.807
 1459SOL     OW 5275   2.325   6.918   0.748
 1459SOL    HW1 5276   2.292   7.011   0.763
 1459SOL    HW2 5277   2.288   6.883   0.662
 1460SOL     OW 5278   0.478   6.299   6.984
 1460SOL    HW1 5279   0.399   6.343   6.941
 1460SOL    HW2 5280   0.551   6.366   6.995
 1461SOL     OW 5281   4.954   5.005   1.437
 1461SOL    HW1 5282   4.878   4.940   1.428
 1461SOL    HW2 5283   4.964   5.058   1.353
 1462SOL     OW 5284   5.427   0.205   5.854
 1462SOL    HW1 5285   5.375   0.199   5.769
 1462SOL    HW2 5286   5.463   0.298   5.864
 1463SOL     OW 5287   0.505   0.872   5.429
 1463SOL    HW1 5288   0.508   0.781   5.470
 1463SOL    HW2 5289   0.598   0.905   5.414
 1464SOL     OW 5290   6.974   6.901   1.585
 1464SOL    HW1 5291   6.922   6.874   1.666
 1464SOL    HW2 5292   0.033   6.845   1.578
 1465SOL     OW 5293   0.569   6.916   4.587
 1465SOL    HW1 5294   0.525   6.829   4.610
 1465SOL    HW2 5295   0.560   6.932   4.488
 1466SOL     OW 5296   5.690   5.573   4.225
 1466SOL    HW1 5297   5.609   5.630   4.233
 1466SOL    HW2 5298   5.675   5.503   4.154
 1467SOL     OW 5299   6.649   3.794   2.423
 1467SOL    HW1 5300   6.592   3.864   2.465
 1467SOL    HW2 5301   6.631   3.706   2.466
 1468SOL     OW 5302   5.384   6.487   2.634
 1468SOL    HW1 5303   5.369   6.391   2.611
 1468SOL    HW2 5304   5.299   6.527   2.667
 1469SOL     OW 5305   0.071   0.852   2.794
 1469SOL    HW1 5306   0.132   0.927   2.819
 1469SOL    HW2 5307   0.083   0.777   2.859
 1470SOL     OW 5308   0.236   0.966   3.615
 1470SOL    HW1 5309   0.301   0.941   3.543
 1470SOL    HW2 5310   0.188   1.049   3.590
 1471SOL     OW 5311   6.585   0.436   0.430
 1471SOL    HW1 5312   6.610   0.525   0.470
 1471SOL    HW2 5313   6.545   0.451   0.340
 1472SOL     OW 5314   4.457   6.733   5.233
 1472SOL    HW1 5315   4.368   6.761   5.269
 1472SOL    HW2 5316   4.500   6.810   5.186
 1473SOL     OW 5317   6.006   4.287   3.930
 1473SOL    HW1 5318   6.025   4.253   3.838
 1473SOL    HW2 5319   6.067   4.364   3.951
 1474SOL     OW 5320   4.880   5.095   3.503
 1474SOL    HW1 5321   4.955   5.152   3.469
 1474SOL    HW2 5322   4.819   5.151   3.559
 1475SOL     OW 5323   6.616   0.627   2.863
 1475SOL    HW1 5324   6.537   0.688   2.865
 1475SOL    HW2 5325   6.655   0.625   2.771
 1476SOL     OW 5326   6.502   2.413   1.145
 1476SOL    HW1 5327   6.587   2.361   1.149
 1476SOL    HW2 5328   6.455   2.407   1.234
 1477SOL     OW 5329   3.097   6.468   2.746
 1477SOL    HW1 5330   3.175   6.444   2.803
 1477SOL    HW2 5331   3.046   6.543   2.790
 1478SOL     OW 5332   6.577   4.600   1.824
 1478SOL    HW1 5333   6.604   4.658   1.901
 1478SOL    HW2 5334   6.492   4.635   1.784
 1479SOL     OW 5335   1.314   5.805   0.454
 1479SOL    HW1 5336   1.308   5.886   0.513
 1479SOL    HW2 5337   1.294   5.723   0.509
 1480SOL     OW 5338   2.807   0.827   6.892
 1480SOL    HW1 5339   2.884   0.769   6.865
 1480SOL    HW2 5340   2.729   0.807   6.833
 1481SOL     OW 5341   6.810   2.327   6.271
 1481SOL    HW1 5342   6.896   2.359   6.231
 1481SOL    HW2 5343   6.765   2.404   6.317
 1482SOL     OW 5344   5.993   0.725   6.637
 1482SOL    HW1 5345   6.045   0.653   6.684
 1482SOL    HW2 5346   5.896   0.713   6.654
 1483SOL     OW 5347   6.192   2.852   6.429
 1483SOL    HW1 5348   6.125   2.875   6.499
 1483SOL    HW2 5349   6.176   2.758   6.397
 1484SOL     OW 5350   6.151   6.486   2.760
 1484SOL    HW1 5351   6.054   6.480   2.737
 1484SOL    HW2 5352   6.186   6.577   2.736
 1485SOL     OW 5353   5.839   2.793   4.226
 1485SOL    HW1 5354   5.865   2.699   4.246
 1485SOL    HW2 5355   5.798   2.798   4.135
 1486SOL     OW 5356   4.903   2.131   2.628
 1486SOL    HW1 5357   4.810   2.168   2.630
 1486SOL    HW2 5358   4.933   2.122   2.533
 1487SOL     OW 5359   6.457   1.337   5.601
 1487SOL    HW1 5360   6.439   1.249   5.558
 1487SOL    HW2 5361   6.491   1.402   5.533
 1488SOL     OW 5362   3.899   1.829   2.924
 1488SOL    HW1 5363   3.861   1.837   2.832
 1488SOL    HW2 5364   3.972   1.896   2.936
 1489SOL     OW 5365   3.761   5.049   4.532
 1489SOL    HW1 5366   3.818   4.973   4.500
 1489SOL    HW2 5367   3.796   5.082   4.619
 1490SOL     OW 5368   2.122   2.547   0.698
 1490SOL    HW1 5369   2.072   2.566   0.614
 1490SOL    HW2 5370   2.192   2.477   0.680
 1491SOL     OW 5371   6.877   2.302   5.272
 1491SOL    HW1 5372   6.948   2.232   5.267
 1491SOL    HW2 5373   6.884   2.362   5.193
 1492SOL     OW 5374   5.504   2.848   2.547
 1492SOL    HW1 5375   5.537   2.937   2.513
 1492SOL    HW2 5376   5.465   2.796   2.471
 1493SOL     OW 5377   5.432   0.728   5.016
 1493SOL    HW1 5378   5.382   0.646   5.045
 1493SOL    HW2 5379   5.497   0.753   5.087
 1494SOL     OW 5380   4.988   2.818   4.730
 1494SOL    HW1 5381   5.029   2.781   4.813
 1494SOL    HW2 5382   5.060   2.848   4.667
 1495SOL     OW 5383   2.022   3.012   2.891
 1495SOL    HW1 5384   2.021   2.950   2.970
 1495SOL    HW2 5385   1.959   2.978   2.821
 1496SOL     OW 5386   0.767   1.230   2.939
 1496SOL    HW1 5387   0.671   1.250   2.918
 1496SOL    HW2 5388   0.796   1.149   2.887
 1497SOL     OW 5389   5.033   4.586   5.409
 1497SOL    HW1 5390   5.018   4.491   5.380
 1497SOL    HW2 5391   5.124   4.615   5.378
 1498SOL     OW 5392   2.190   5.930   0.428
 1498SOL    HW1 5393   2.172   6.021   0.390
 1498SOL    HW2 5394   2.159   5.860   0.364
 1499SOL     OW 5395   0.561   4.724   5.354
 1499SOL    HW1 5396   0.618   4.690   5.429
 1499SOL    HW2 5397   0.616   4.781   5.294
 1500SOL     OW 5398   4.268   6.646   5.610
 1500SOL    HW1 5399   4.277   6.571   5.544
 1500SOL    HW2 5400   4.299   6.731   5.567
 1501SOL     OW 5401   4.344   0.042   6.465
 1501SOL    HW1 5402   4.394   6.983   6.440
 1501SOL    HW2 5403   4.292   0.026   6.548
 1502SOL     OW 5404   6.222   6.198   0.130
 1502SOL    HW1 5405   6.216   6.297   0.120
 1502SOL    HW2 5406   6.261   6.159   0.046
 1503SOL     OW 5407   3.178   3.634   5.877
 1503SOL    HW1 5408   3.241   3.560   5.898
 1503SOL    HW2 5409   3.226   3.722   5.884
 1504SOL     OW 5410   2.590   5.874   4.265
 1504SOL    HW1 5411   2.674   5.884   4.318
 1504SOL    HW2 5412   2.512   5.865   4.327
 1505SOL     OW 5413   4.642   5.451   1.108
 1505SOL    HW1 5414   4.665   5.518   1.037
 1505SOL    HW2 5415   4.689   5.365   1.090
 1506SOL     OW 5416   0.367   6.333   2.964
 1506SOL    HW1 5417   0.444   6.273   2.987
 1506SOL    HW2 5418   0.321   6.361   3.048
 1507SOL     OW 5419   2.096   1.268   6.069
 1507SOL    HW1 5420   2.166   1.307   6.008
 1507SOL    HW2 5421   2.140   1.234   6.152
 1508SOL     OW 5422   4.816   0.045   0.191
 1508SOL    HW1 5423   4.870   0.129   0.197
 1508SOL    HW2 5424   4.731   0.057   0.242
 1509SOL     OW 5425   5.129   1.753   0.238
 1509SOL    HW1 5426   5.031   1.751   0.255
 1509SOL    HW2 5427   5.170   1.666   0.268
 1510SOL     OW 5428   0.196   1.466   3.961
 1510SOL    HW1 5429   0.201   1.553   3.912
 1510SOL    HW2 5430   0.151   1.397   3.905
 1511SOL     OW 5431   2.288   2.333   0.642
 1511SOL    HW1 5432   2.333   2.247   0.665
 1511SOL    HW2 5433   2.315   2.362   0.550
 1512SOL     OW 5434   6.146   0.418   2.517
 1512SOL    HW1 5435   6.096   0.332   2.525
 1512SOL    HW2 5436   6.096   0.481   2.457
 1513SOL     OW 5437   3.916   1.361   2.164
 1513SOL    HW1 5438   3.935   1.325   2.072
 1513SOL    HW2 5439   3.819   1.386   2.170
 1514SOL     OW 5440   5.087   1.687   5.451
 1514SOL    HW1 5441   5.046   1.605   5.492
 1514SOL    HW2 5442   5.171   1.661   5.402
 1515SOL     OW 5443   6.415   5.124   4.848
 1515SOL    HW1 5444   6.357   5.148   4.770
 1515SOL    HW2 5445   6.496   5.075   4.815
 1516SOL     OW 5446   0.878   1.690   1.275
 1516SOL    HW1 5447   0.937   1.676   1.354
 1516SOL    HW2 5448   0.796   1.634   1.285
 1517SOL     OW 5449   3.850   5.193   3.150
 1517SOL    HW1 5450   3.846   5.180   3.249
 1517SOL    HW2 5451   3.915   5.129   3.111
 1518SOL     OW 5452   0.829   4.903   1.309
 1518SOL    HW1 5453   0.787   4.927   1.396
 1518SOL    HW2 5454   0.856   4.986   1.261
 1519SOL     OW 5455   6.746   4.743   0.942
 1519SOL    HW1 5456   6.844   4.739   0.923
 1519SOL    HW2 5457   6.729   4.804   1.019
 1520SOL     OW 5458   1.439   3.094   3.583
 1520SOL    HW1 5459   1.502   3.138   3.518
 1520SOL    HW2 5460   1.430   3.152   3.664
 1521SOL     OW 5461   2.506   4.243   6.023
 1521SOL    HW1 5462   2.451   4.241   5.939
 1521SOL    HW2 5463   2.446   4.242   6.103
 1522SOL     OW 5464   6.657   2.358   6.708
 1522SOL    HW1 5465   6.661   2.264   6.674
 1522SOL    HW2 5466   6.724   2.369   6.782
 1523SOL     OW 5467   6.613   1.179   0.842
 1523SOL    HW1 5468   6.712   1.166   0.833
 1523SOL    HW2 5469   6.584   1.255   0.785
 1524SOL     OW 5470   6.606   1.188   2.431
 1524SOL    HW1 5471   6.556   1.115   2.383
 1524SOL    HW2 5472   6.688   1.150   2.472
 1525SOL     OW 5473   4.301   1.951   6.228
 1525SOL    HW1 5474   4.344   1.964   6.139
 1525SOL    HW2 5475   4.206   1.922   6.216
 1526SOL     OW 5476   0.010   2.059   1.402
 1526SOL    HW1 5477   0.076   2.037   1.331
 1526SOL    HW2 5478   0.039   2.018   1.489
 1527SOL     OW 5479   2.909   1.633   5.690
 1527SOL    HW1 5480   2.916   1.583   5.777
 1527SOL    HW2 5481   2.941   1.726   5.703
 1528SOL     OW 5482   4.992   6.437   3.282
 1528SOL    HW1 5483   4.995   6.435   3.382
 1528SOL    HW2 5484   5.053   6.367   3.245
 1529SOL     OW 5485   3.328   0.344   5.590
 1529SOL    HW1 5486   3.331   0.396   5.504
 1529SOL    HW2 5487   3.375   0.257   5.578
 1530SOL     OW 5488   3.619   6.684   1.778
 1530SOL    HW1 5489   3.638   6.755   1.845
 1530SOL    HW2 5490   3.701   6.666   1.724
 1531SOL     OW 5491   6.931   0.180   4.876
 1531SOL    HW1 5492   6.943   0.254   4.942
 1531SOL    HW2 5493   6.854   0.123   4.904
 1532SOL     OW 5494   3.124   1.996   5.108
 1532SOL    HW1 5495   3.172   2.079   5.078
 1532SOL    HW2 5496   3.191   1.925   5.131
 1533SOL     OW 5497   5.540   3.110   6.623
 1533SOL    HW1 5498   5.567   3.206   6.625
 1533SOL    HW2 5499   5.616   3.054   6.590
 1534SOL     OW 5500   0.427   6.886   1.316
 1534SOL    HW1 5501   0.381   6.859   1.231
 1534SOL    HW2 5502   0.505   6.826   1.332
 1535SOL     OW 5503   5.159   5.511   4.646
 1535SOL    HW1 5504   5.104   5.526   4.565
 1535SOL    HW2 5505   5.251   5.547   4.631
 1536SOL     OW 5506   2.804   5.664   3.710
 1536SOL    HW1 5507   2.843   5.591   3.654
 1536SOL    HW2 5508   2.876   5.705   3.766
 1537SOL     OW 5509   2.540   5.209   4.225
 1537SOL    HW1 5510   2.559   5.111   4.221
 1537SOL    HW2 5511   2.533   5.238   4.321
 1538SOL     OW 5512   2.450   5.116   6.534
 1538SOL    HW1 5513   2.390   5.118   6.454
 1538SOL    HW2 5514   2.504   5.032   6.535
 1539SOL     OW 5515   3.043   4.826   1.489
 1539SOL    HW1 5516   3.040   4.763   1.567
 1539SOL    HW2 5517   2.953   4.831   1.446
 1540SOL     OW 5518   0.017   6.808   5.205
 1540SOL    HW1 5519   6.999   6.843   5.121
 1540SOL    HW2 5520   6.974   6.809   5.279
 1541SOL     OW 5521   5.147   2.331   1.183
 1541SOL    HW1 5522   5.082   2.310   1.256
 1541SOL    HW2 5523   5.174   2.427   1.190
 1542SOL     OW 5524   0.896   6.442   0.917
 1542SOL    HW1 5525   0.887   6.517   0.852
 1542SOL    HW2 5526   0.965   6.377   0.883
 1543SOL     OW 5527   3.079   4.045   4.155
 1543SOL    HW1 5528   3.050   4.138   4.131
 1543SOL    HW2 5529   3.178   4.040   4.156
 1544SOL     OW 5530   3.732   3.698   3.121
 1544SOL    HW1 5531   3.753   3.635   3.196
 1544SOL    HW2 5532   3.788   3.780   3.131
 1545SOL     OW 5533   6.385   1.071   5.130
 1545SOL    HW1 5534   6.299   1.107   5.094
 1545SOL    HW2 5535   6.432   1.020   5.058
 1546SOL     OW 5536   0.255   6.531   6.006
 1546SOL    HW1 5537   0.328   6.506   6.070
 1546SOL    HW2 5538   0.180   6.466   6.014
 1547SOL     OW 5539   4.033   5.840   0.084
 1547SOL    HW1 5540   4.015   5.772   0.014
 1547SOL    HW2 5541   4.117   5.890   0.062
 1548SOL     OW 5542   6.203   4.708   4.136
 1548SOL    HW1 5543   6.282   4.720   4.196
 1548SOL    HW2 5544   6.167   4.797   4.109
 1549SOL     OW 5545   6.739   1.583   1.511
 1549SOL    HW1 5546   6.745   1.511   1.579
 1549SOL    HW2 5547   6.768   1.670   1.551
 1550SOL     OW 5548   2.645   5.530   4.218
 1550SOL    HW1 5549   2.624   5.625   4.191
 1550SOL    HW2 5550   2.744   5.516   4.215
 1551SOL     OW 5551   1.291   2.904   0.975
 1551SOL    HW1 5552   1.207   2.868   0.935
 1551SOL    HW2 5553   1.329   2.974   0.915
 1552SOL     OW 5554   0.542   0.317   0.228
 1552SOL    HW1 5555   0.539   0.395   0.290
 1552SOL    HW2 5556   0.549   0.349   0.134
 1553SOL     OW 5557   5.879   1.357   6.562
 1553SOL    HW1 5558   5.828   1.389   6.641
 1553SOL    HW2 5559   5.924   1.434   6.517
 1554SOL     OW 5560   3.213   1.602   0.873
 1554SOL    HW1 5561   3.156   1.520   0.868
 1554SOL    HW2 5562   3.294   1.583   0.928
 1555SOL     OW 5563   4.695   1.011   5.879
 1555SOL    HW1 5564   4.696   1.075   5.802
 1555SOL    HW2 5565   4.602   0.973   5.890
 1556SOL     OW 5566   3.502   1.526   0.100
 1556SOL    HW1 5567   3.406   1.552   0.089
 1556SOL    HW2 5568   3.555   1.556   0.020
 1557SOL     OW 5569   1.756   2.594   0.451
 1557SOL    HW1 5570   1.850   2.594   0.485
 1557SOL    HW2 5571   1.757   2.615   0.353
 1558SOL     OW 5572   5.721   2.936   6.504
 1558SOL    HW1 5573   5.663   2.855   6.512
 1558SOL    HW2 5574   5.736   2.957   6.407
 1559SOL     OW 5575   2.365   5.120   3.779
 1559SOL    HW1 5576   2.308   5.103   3.859
 1559SOL    HW2 5577   2.390   5.217   3.776
 1560SOL     OW 5578   3.873   1.827   0.986
 1560SOL    HW1 5579   3.924   1.836   1.072
 1560SOL    HW2 5580   3.800   1.760   0.998
 1561SOL     OW 5581   6.425   6.019   0.767
 1561SOL    HW1 5582   6.482   5.950   0.722
 1561SOL    HW2 5583   6.469   6.048   0.852
 1562SOL     OW 5584   3.947   6.766   2.299
 1562SOL    HW1 5585   3.927   6.863   2.301
 1562SOL    HW2 5586   3.879   6.716   2.352
 1563SOL     OW 5587   3.321   2.162   4.355
 1563SOL    HW1 5588   3.310   2.149   4.453
 1563SOL    HW2 5589   3.415   2.140   4.329
 1564SOL     OW 5590   1.299   1.817   3.511
 1564SOL    HW1 5591   1.360   1.875   3.564
 1564SOL    HW2 5592   1.292   1.727   3.554
 1565SOL     OW 5593   3.896   1.538   4.829
 1565SOL    HW1 5594   3.941   1.469   4.885
 1565SOL    HW2 5595   3.863   1.612   4.887
 1566SOL     OW 5596   4.899   4.846   3.563
 1566SOL    HW1 5597   4.888   4.945   3.557
 1566SOL    HW2 5598   4.996   4.823   3.576
 1567SOL     OW 5599   5.288   0.496   4.736
 1567SOL    HW1 5600   5.247   0.406   4.751
 1567SOL    HW2 5601   5.385   0.486   4.716
 1568SOL     OW 5602   2.818   5.116   1.637
 1568SOL    HW1 5603   2.825   5.117   1.737
 1568SOL    HW2 5604   2.908   5.133   1.597
 1569SOL     OW 5605   3.221   0.369   2.927
 1569SOL    HW1 5606   3.124   0.356   2.910
 1569SOL    HW2 5607   3.251   0.454   2.883
 1570SOL     OW 5608   3.085   5.836   6.210
 1570SOL    HW1 5609   3.074   5.870   6.304
 1570SOL    HW2 5610   3.149   5.759   6.210
 1571SOL     OW 5611   0.608   2.492   4.217
 1571SOL    HW1 5612   0.518   2.521   4.187
 1571SOL    HW2 5613   0.646   2.426   4.151
 1572SOL     OW 5614   2.449   5.194   2.199
 1572SOL    HW1 5615   2.497   5.264   2.146
 1572SOL    HW2 5616   2.369   5.234   2.243
 1573SOL     OW 5617   5.826   6.170   0.532
 1573SOL    HW1 5618   5.878   6.120   0.602
 1573SOL    HW2 5619   5.817   6.113   0.451
 1574SOL     OW 5620   6.640   3.887   3.454
 1574SOL    HW1 5621   6.676   3.800   3.488
 1574SOL    HW2 5622   6.712   3.936   3.405
 1575SOL     OW 5623   6.657   1.635   0.297
 1575SOL    HW1 5624   6.563   1.659   0.322
 1575SOL    HW2 5625   6.721   1.680   0.361
 1576SOL     OW 5626   1.077   0.593   1.761
 1576SOL    HW1 5627   1.113   0.628   1.675
 1576SOL    HW2 5628   1.148   0.543   1.809
 1577SOL     OW 5629   3.951   5.353   5.278
 1577SOL    HW1 5630   3.989   5.261   5.268
 1577SOL    HW2 5631   3.995   5.400   5.354
 1578SOL     OW 5632   4.808   1.399   1.303
 1578SOL    HW1 5633   4.857   1.481   1.275
 1578SOL    HW2 5634   4.803   1.395   1.402
 1579SOL     OW 5635   1.795   2.656   1.104
 1579SOL    HW1 5636   1.833   2.662   1.011
 1579SOL    HW2 5637   1.836   2.726   1.161
 1580SOL     OW 5638   3.426   3.438   2.892
 1580SOL    HW1 5639   3.458   3.432   2.797
 1580SOL    HW2 5640   3.326   3.444   2.893
 1581SOL     OW 5641   6.279   4.457   6.206
 1581SOL    HW1 5642   6.318   4.418   6.290
 1581SOL    HW2 5643   6.342   4.441   6.130
 1582SOL     OW 5644   4.316   6.327   5.509
 1582SOL    HW1 5645   4.416   6.336   5.510
 1582SOL    HW2 5646   4.280   6.352   5.599
 1583SOL     OW 5647   1.350   5.145   5.067
 1583SOL    HW1 5648   1.258   5.108   5.049
 1583SOL    HW2 5649   1.417   5.093   5.014
 1584SOL     OW 5650   0.134   4.434   0.588
 1584SOL    HW1 5651   0.089   4.408   0.502
 1584SOL    HW2 5652   0.186   4.519   0.573
 1585SOL     OW 5653   3.747   6.573   3.179
 1585SOL    HW1 5654   3.845   6.593   3.189
 1585SOL    HW2 5655   3.695   6.627   3.245
 1586SOL     OW 5656   3.391   5.790   3.384
 1586SOL    HW1 5657   3.409   5.692   3.371
 1586SOL    HW2 5658   3.469   5.832   3.431
 1587SOL     OW 5659   2.801   5.991   6.603
 1587SOL    HW1 5660   2.817   5.919   6.535
 1587SOL    HW2 5661   2.754   5.951   6.683
 1588SOL     OW 5662   6.509   1.535   3.407
 1588SOL    HW1 5663   6.483   1.471   3.479
 1588SOL    HW2 5664   6.428   1.565   3.358
 1589SOL     OW 5665   6.020   4.778   4.399
 1589SOL    HW1 5666   6.056   4.845   4.334
 1589SOL    HW2 5667   6.038   4.808   4.492
 1590SOL     OW 5668   6.528   2.637   3.559
 1590SOL    HW1 5669   6.455   2.569   3.572
 1590SOL    HW2 5670   6.561   2.634   3.465
 1591SOL     OW 5671   1.605   6.661   1.716
 1591SOL    HW1 5672   1.675   6.605   1.673
 1591SOL    HW2 5673   1.580   6.622   1.805
 1592SOL     OW 5674   6.943   4.154   6.034
 1592SOL    HW1 5675   0.007   4.107   6.022
 1592SOL    HW2 5676   6.871   4.086   6.049
 1593SOL     OW 5677   3.411   0.373   0.194
 1593SOL    HW1 5678   3.452   0.459   0.164
 1593SOL    HW2 5679   3.390   0.317   0.113
 1594SOL     OW 5680   6.201   0.060   2.675
 1594SOL    HW1 5681   6.101   0.056   2.676
 1594SOL    HW2 5682   6.233   0.087   2.584
 1595SOL     OW 5683   0.603   4.020   0.552
 1595SOL    HW1 5684   0.613   3.920   0.560
 1595SOL    HW2 5685   0.535   4.051   0.618
 1596SOL     OW 5686   4.612   4.737   2.863
 1596SOL    HW1 5687   4.591   4.802   2.936
 1596SOL    HW2 5688   4.559   4.653   2.875
 1597SOL     OW 5689   3.643   5.964   6.930
 1597SOL    HW1 5690   3.642   5.990   6.833
 1597SOL    HW2 5691   3.576   6.018   6.980
 1598SOL     OW 5692   1.690   4.995   0.279
 1598SOL    HW1 5693   1.625   5.051   0.331
 1598SOL    HW2 5694   1.671   4.898   0.295
 1599SOL     OW 5695   4.675   5.580   3.316
 1599SOL    HW1 5696   4.619   5.590   3.398
 1599SOL    HW2 5697   4.616   5.568   3.236
 1600SOL     OW 5698   4.303   6.944   2.198
 1600SOL    HW1 5699   4.215   6.979   2.165
 1600SOL    HW2 5700   4.289   6.896   2.285
 1601SOL     OW 5701   6.963   6.950   4.452
 1601SOL    HW1 5702   6.970   0.018   4.413
 1601SOL    HW2 5703   6.867   6.928   4.466
 1602SOL     OW 5704   3.351   5.382   3.875
 1602SOL    HW1 5705   3.335   5.431   3.960
 1602SOL    HW2 5706   3.413   5.436   3.817
 1603SOL     OW 5707   3.197   5.171   2.657
 1603SOL    HW1 5708   3.137   5.095   2.632
 1603SOL    HW2 5709   3.209   5.231   2.578
 1604SOL     OW 5710   4.105   5.362   1.830
 1604SOL    HW1 5711   4.039   5.411   1.886
 1604SOL    HW2 5712   4.183   5.335   1.887
 1605SOL     OW 5713   4.703   5.728   0.954
 1605SOL    HW1 5714   4.603   5.740   0.954
 1605SOL    HW2 5715   4.738   5.746   1.046
 1606SOL     OW 5716   3.519   5.992   4.920
 1606SOL    HW1 5717   3.461   6.063   4.879
 1606SOL    HW2 5718   3.544   5.925   4.850
 1607SOL     OW 5719   4.849   5.723   3.020
 1607SOL    HW1 5720   4.844   5.651   2.951
 1607SOL    HW2 5721   4.818   5.687   3.108
 1608SOL     OW 5722   5.677   1.051   3.398
 1608SOL    HW1 5723   5.694   0.969   3.453
 1608SOL    HW2 5724   5.645   1.024   3.307
 1609SOL     OW 5725   2.428   6.845   0.283
 1609SOL    HW1 5726   2.484   6.916   0.241
 1609SOL    HW2 5727   2.486   6.785   0.338
 1610SOL     OW 5728   5.545   0.468   0.634
 1610SOL    HW1 5729   5.546   0.506   0.541
 1610SOL    HW2 5730   5.451   0.445   0.659
 1611SOL     OW 5731   1.474   4.266   1.452
 1611SOL    HW1 5732   1.476   4.237   1.547
 1611SOL    HW2 5733   1.379   4.272   1.421
 1612SOL     OW 5734   3.651   0.305   1.937
 1612SOL    HW1 5735   3.604   0.253   1.865
 1612SOL    HW2 5736   3.659   0.248   2.019
 1613SOL     OW 5737   6.667   5.476   2.459
 1613SOL    HW1 5738   6.766   5.487   2.456
 1613SOL    HW2 5739   6.625   5.560   2.494
 1614SOL     OW 5740   6.394   1.507   6.347
 1614SOL    HW1 5741   6.425   1.562   6.424
 1614SOL    HW2 5742   6.469   1.448   6.316
 1615SOL     OW 5743   1.209   4.526   6.449
 1615SOL    HW1 5744   1.262   4.566   6.374
 1615SOL    HW2 5745   1.193   4.429   6.430
 1616SOL     OW 5746   1.791   1.492   4.662
 1616SOL    HW1 5747   1.887   1.516   4.677
 1616SOL    HW2 5748   1.776   1.398   4.693
 1617SOL     OW 5749   5.536   6.240   3.325
 1617SOL    HW1 5750   5.625   6.270   3.360
 1617SOL    HW2 5751   5.481   6.320   3.301
 1618SOL     OW 5752   2.949   5.353   2.994
 1618SOL    HW1 5753   2.880   5.300   2.944
 1618SOL    HW2 5754   2.995   5.293   3.060
 1619SOL     OW 5755   1.136   4.695   6.720
 1619SOL    HW1 5756   1.188   4.650   6.792
 1619SOL    HW2 5757   1.157   4.653   6.632
 1620SOL     OW 5758   3.823   5.170   6.329
 1620SOL    HW1 5759   3.729   5.170   6.363
 1620SOL    HW2 5760   3.852   5.264   6.310
 1621SOL     OW 5761   5.048   5.876   1.335
 1621SOL    HW1 5762   4.964   5.822   1.341
 1621SOL    HW2 5763   5.059   5.910   1.242
 1622SOL     OW 5764   0.487   4.946   4.501
 1622SOL    HW1 5765   0.530   5.018   4.554
 1622SOL    HW2 5766   0.554   4.873   4.482
 1623SOL     OW 5767   0.720   2.361   4.026
 1623SOL    HW1 5768   0.712   2.326   3.932
 1623SOL    HW2 5769   0.811   2.339   4.062
 1624SOL     OW 5770   4.315   1.701   0.866
 1624SOL    HW1 5771   4.243   1.679   0.932
 1624SOL    HW2 5772   4.301   1.794   0.831
 1625SOL     OW 5773   0.815   5.848   0.718
 1625SOL    HW1 5774   0.754   5.801   0.782
 1625SOL    HW2 5775   0.762   5.911   0.661
 1626SOL     OW 5776   2.636   2.092   1.287
 1626SOL    HW1 5777   2.560   2.060   1.343
 1626SOL    HW2 5778   2.696   2.151   1.341
 1627SOL     OW 5779   4.174   1.572   5.027
 1627SOL    HW1 5780   4.094   1.632   5.027
 1627SOL    HW2 5781   4.222   1.581   4.940
 1628SOL     OW 5782   5.779   6.728   0.242
 1628SOL    HW1 5783   5.837   6.672   0.184
 1628SOL    HW2 5784   5.778   6.690   0.335
 1629SOL     OW 5785   1.968   0.199   3.445
 1629SOL    HW1 5786   1.991   0.142   3.524
 1629SOL    HW2 5787   1.948   0.292   3.476
 1630SOL     OW 5788   0.317   3.743   6.912
 1630SOL    HW1 5789   0.356   3.804   6.981
 1630SOL    HW2 5790   0.219   3.731   6.930
 1631SOL     OW 5791   0.035   3.415   0.125
 1631SOL    HW1 5792   7.014   3.502   0.146
 1631SOL    HW2 5793   0.073   3.418   0.033
 1632SOL     OW 5794   6.836   5.398   2.804
 1632SOL    HW1 5795   6.768   5.456   2.758
 1632SOL    HW2 5796   6.798   5.363   2.890
 1633SOL     OW 5797   5.388   3.361   4.077
 1633SOL    HW1 5798   5.304   3.396   4.035
 1633SOL    HW2 5799   5.380   3.263   4.091
 1634SOL     OW 5800   6.306   1.258   4.649
 1634SOL    HW1 5801   6.393   1.260   4.600
 1634SOL    HW2 5802   6.283   1.164   4.674
 1635SOL     OW 5803   3.744   6.188   3.366
 1635SOL    HW1 5804   3.746   6.230   3.276
 1635SOL    HW2 5805   3.649   6.168   3.391
 1636SOL     OW 5806   5.872   6.423   1.936
 1636SOL    HW1 5807   5.933   6.438   2.013
 1636SOL    HW2 5808   5.797   6.489   1.939
 1637SOL     OW 5809   0.616   0.113   1.884
 1637SOL    HW1 5810   0.594   0.017   1.904
 1637SOL    HW2 5811   0.695   0.116   1.823
 1638SOL     OW 5812   5.918   3.258   1.543
 1638SOL    HW1 5813   5.850   3.193   1.578
 1638SOL    HW2 5814   5.925   3.247   1.444
 1639SOL     OW 5815   5.395   2.522   2.567
 1639SOL    HW1 5816   5.452   2.521   2.649
 1639SOL    HW2 5817   5.359   2.613   2.553
 1640SOL     OW 5818   6.609   0.416   6.770
 1640SOL    HW1 5819   6.554   0.337   6.742
 1640SOL    HW2 5820   6.549   0.489   6.802
 1641SOL     OW 5821   6.584   2.519   3.247
 1641SOL    HW1 5822   6.561   2.485   3.156
 1641SOL    HW2 5823   6.654   2.461   3.288
 1642SOL     OW 5824   6.329   2.587   6.162
 1642SOL    HW1 5825   6.267   2.634   6.100
 1642SOL    HW2 5826   6.409   2.645   6.179
 1643SOL     OW 5827   2.330   6.084   3.703
 1643SOL    HW1 5828   2.334   5.990   3.737
 1643SOL    HW2 5829   2.399   6.097   3.632
 1644SOL     OW 5830   6.064   2.634   1.549
 1644SOL    HW1 5831   5.992   2.597   1.609
 1644SOL    HW2 5832   6.031   2.637   1.455
 1645SOL     OW 5833   2.076   1.059   5.563
 1645SOL    HW1 5834   2.015   1.102   5.629
 1645SOL    HW2 5835   2.056   0.961   5.557
 1646SOL     OW 5836   1.165   5.199   1.062
 1646SOL    HW1 5837   1.203   5.288   1.086
 1646SOL    HW2 5838   1.114   5.207   0.976
 1647SOL     OW 5839   5.875   3.011   3.861
 1647SOL    HW1 5840   5.795   3.070   3.861
 1647SOL    HW2 5841   5.958   3.066   3.857
 1648SOL     OW 5842   5.347   5.786   1.350
 1648SOL    HW1 5843   5.253   5.814   1.367
 1648SOL    HW2 5844   5.390   5.760   1.437
 1649SOL     OW 5845   3.504   0.668   3.436
 1649SOL    HW1 5846   3.527   0.760   3.469
 1649SOL    HW2 5847   3.588   0.615   3.426
 1650SOL     OW 5848   3.154   4.148   6.824
 1650SOL    HW1 5849   3.067   4.120   6.783
 1650SOL    HW2 5850   3.226   4.146   6.754
 1651SOL     OW 5851   0.739   2.878   3.499
 1651SOL    HW1 5852   0.735   2.813   3.423
 1651SOL    HW2 5853   0.667   2.947   3.489
 1652SOL     OW 5854   0.688   2.807   1.790
 1652SOL    HW1 5855   0.674   2.875   1.719
 1652SOL    HW2 5856   0.628   2.728   1.774
 1653SOL     OW 5857   0.027   4.573   3.292
 1653SOL    HW1 5858   0.012   4.572   3.194
 1653SOL    HW2 5859   0.125   4.571   3.311
 1654SOL     OW 5860   0.233   3.164   2.061
 1654SOL    HW1 5861   0.200   3.132   2.150
 1654SOL    HW2 5862   0.165   3.225   2.020
 1655SOL     OW 5863   0.186   6.845   4.483
 1655SOL    HW1 5864   0.168   6.756   4.525
 1655SOL    HW2 5865   0.099   6.891   4.464
 1656SOL     OW 5866   2.195   4.525   3.367
 1656SOL    HW1 5867   2.261   4.595   3.395
 1656SOL    HW2 5868   2.231   4.434   3.390
 1657SOL     OW 5869   1.239   6.583   5.508
 1657SOL    HW1 5870   1.180   6.548   5.580
 1657SOL    HW2 5871   1.311   6.516   5.489
 1658SOL     OW 5872   6.337   7.018   6.468
 1658SOL    HW1 5873   6.241   6.991   6.474
 1658SOL    HW2 5874   6.358   0.059   6.541
 1659SOL     OW 5875   4.574   6.375   6.629
 1659SOL    HW1 5876   4.638   6.452   6.623
 1659SOL    HW2 5877   4.481   6.409   6.635
 1660SOL     OW 5878   2.580   0.274   2.131
 1660SOL    HW1 5879   2.489   0.309   2.154
 1660SOL    HW2 5880   2.592   0.184   2.172
 1661SOL     OW 5881   4.302   4.761   2.508
 1661SOL    HW1 5882   4.343   4.680   2.466
 1661SOL    HW2 5883   4.241   4.805   2.442
 1662SOL     OW 5884   0.084   1.535   4.981
 1662SOL    HW1 5885   0.037   1.623   4.973
 1662SOL    HW2 5886   0.092   1.510   5.078
 1663SOL     OW 5887   4.660   4.603   0.600
 1663SOL    HW1 5888   4.695   4.615   0.693
 1663SOL    HW2 5889   4.560   4.607   0.602
 1664SOL     OW 5890   1.103   6.914   5.852
 1664SOL    HW1 5891   1.026   6.953   5.803
 1664SOL    HW2 5892   1.071   6.866   5.934
 1665SOL     OW 5893   2.482   3.961   0.385
 1665SOL    HW1 5894   2.479   3.881   0.445
 1665SOL    HW2 5895   2.575   3.997   0.382
 1666SOL     OW 5896   5.593   6.657   6.254
 1666SOL    HW1 5897   5.622   6.575   6.205
 1666SOL    HW2 5898   5.674   6.711   6.278
 1667SOL     OW 5899   0.575   6.197   1.328
 1667SOL    HW1 5900   0.587   6.191   1.229
 1667SOL    HW2 5901   0.580   6.106   1.368
 1668SOL     OW 5902   5.153   4.787   3.222
 1668SOL    HW1 5903   5.083   4.857   3.218
 1668SOL    HW2 5904   5.119   4.708   3.274
 1669SOL     OW 5905   6.491   3.356   5.159
 1669SOL    HW1 5906   6.579   3.367   5.115
 1669SOL    HW2 5907   6.484   3.419   5.237
 1670SOL     OW 5908   1.550   5.359   6.272
 1670SOL    HW1 5909   1.594   5.424   6.334
 1670SOL    HW2 5910   1.617   5.293   6.240
 1671SOL     OW 5911   5.802   2.244   1.027
 1671SOL    HW1 5912   5.883   2.184   1.029
 1671SOL    HW2 5913   5.831   2.338   1.011
 1672SOL     OW 5914   0.717   3.950   0.231
 1672SOL    HW1 5915   0.795   3.905   0.274
 1672SOL    HW2 5916   0.658   3.989   0.303
 1673SOL     OW 5917   2.259   1.045   4.667
 1673SOL    HW1 5918   2.272   0.999   4.754
 1673SOL    HW2 5919   2.322   1.007   4.599
 1674SOL     OW 5920   4.913   1.996   3.113
 1674SOL    HW1 5921   4.935   2.022   3.019
 1674SOL    HW2 5922   4.860   2.068   3.157
 1675SOL     OW 5923   5.266   0.783   1.232
 1675SOL    HW1 5924   5.221   0.859   1.279
 1675SOL    HW2 5925   5.229   0.696   1.266
 1676SOL     OW 5926   0.989   2.034   2.752
 1676SOL    HW1 5927   1.007   2.131   2.735
 1676SOL    HW2 5928   1.071   1.992   2.793
 1677SOL     OW 5929   4.061   3.740   3.064
 1677SOL    HW1 5930   4.054   3.770   3.159
 1677SOL    HW2 5931   4.037   3.643   3.059
 1678SOL     OW 5932   0.928   7.016   1.166
 1678SOL    HW1 5933   0.980   6.947   1.216
 1678SOL    HW2 5934   0.853   6.971   1.117
 1679SOL     OW 5935   1.140   2.982   5.706
 1679SOL    HW1 5936   1.073   3.024   5.767
 1679SOL    HW2 5937   1.206   2.929   5.759
 1680SOL     OW 5938   5.149   2.327   3.895
 1680SOL    HW1 5939   5.123   2.364   3.806
 1680SOL    HW2 5940   5.231   2.373   3.929
 1681SOL     OW 5941   2.277   6.049   4.088
 1681SOL    HW1 5942   2.224   5.999   4.156
 1681SOL    HW2 5943   2.271   6.003   4.000
 1682SOL     OW 5944   3.239   6.932   4.522
 1682SOL    HW1 5945   3.154   6.893   4.558
 1682SOL    HW2 5946   3.243   0.005   4.546
 1683SOL     OW 5947   5.819   4.826   2.789
 1683SOL    HW1 5948   5.879   4.818   2.709
 1683SOL    HW2 5949   5.795   4.734   2.821
 1684SOL     OW 5950   2.628   4.500   1.763
 1684SOL    HW1 5951   2.592   4.415   1.802
 1684SOL    HW2 5952   2.721   4.515   1.796
 1685SOL     OW 5953   7.002   1.463   5.279
 1685SOL    HW1 5954   7.007   1.374   5.235
 1685SOL    HW2 5955   6.907   1.484   5.302
 1686SOL     OW 5956   4.868   5.945   2.726
 1686SOL    HW1 5957   4.938   5.912   2.789
 1686SOL    HW2 5958   4.834   6.034   2.757
 1687SOL     OW 5959   5.732   3.869   2.522
 1687SOL    HW1 5960   5.672   3.941   2.487
 1687SOL    HW2 5961   5.826   3.902   2.524
 1688SOL     OW 5962   1.767   1.275   2.990
 1688SOL    HW1 5963   1.756   1.373   3.008
 1688SOL    HW2 5964   1.759   1.258   2.892
 1689SOL     OW 5965   4.599   1.071   1.495
 1689SOL    HW1 5966   4.514   1.111   1.461
 1689SOL    HW2 5967   4.665   1.066   1.420
 1690SOL     OW 5968   0.641   4.545   4.083
 1690SOL    HW1 5969   0.660   4.461   4.135
 1690SOL    HW2 5970   0.727   4.585   4.052
 1691SOL     OW 5971   4.525   2.760   5.362
 1691SOL    HW1 5972   4.582   2.836   5.393
 1691SOL    HW2 5973   4.455   2.741   5.431
 1692SOL     OW 5974   5.679   4.975   1.328
 1692SOL    HW1 5975   5.701   5.072   1.320
 1692SOL    HW2 5976   5.580   4.964   1.335
 1693SOL     OW 5977   5.279   6.669   5.498
 1693SOL    HW1 5978   5.330   6.738   5.447
 1693SOL    HW2 5979   5.253   6.595   5.437
 1694SOL     OW 5980   5.175   1.333   5.233
 1694SOL    HW1 5981   5.129   1.418   5.208
 1694SOL    HW2 5982   5.255   1.320   5.174
 1695SOL     OW 5983   3.920   0.660   6.237
 1695SOL    HW1 5984   3.974   0.732   6.280
 1695SOL    HW2 5985   3.978   0.580   6.220
 1696SOL     OW 5986   5.346   5.894   0.588
 1696SOL    HW1 5987   5.265   5.867   0.640
 1696SOL    HW2 5988   5.428   5.875   0.641
 1697SOL     OW 5989   5.680   2.239   2.261
 1697SOL    HW1 5990   5.604   2.263   2.321
 1697SOL    HW2 5991   5.741   2.175   2.309
 1698SOL     OW 5992   4.058   0.972   1.576
 1698SOL    HW1 5993   4.134   0.956   1.512
 1698SOL    HW2 5994   3.983   0.910   1.553
 1699SOL     OW 5995   2.582   0.011   0.134
 1699SOL    HW1 5996   2.609   0.067   0.212
 1699SOL    HW2 5997   2.649   0.022   0.060
 1700SOL     OW 5998   6.612   2.736   2.711
 1700SOL    HW1 5999   6.535   2.678   2.737
 1700SOL    HW2 6000   6.672   2.684   2.650
 1701SOL     OW 6001   0.359   6.235   5.012
 1701SOL    HW1 6002   0.341   6.201   5.105
 1701SOL    HW2 6003   0.424   6.175   4.966
 1702SOL     OW 6004   2.103   2.126   6.266
 1702SOL    HW1 6005   2.114   2.188   6.344
 1702SOL    HW2 6006   2.034   2.057   6.288
 1703SOL     OW 6007   3.180   1.875   0.793
 1703SOL    HW1 6008   3.216   1.784   0.815
 1703SOL    HW2 6009   3.254   1.942   0.798
 1704SOL     OW 6010   2.888   2.206   0.883
 1704SOL    HW1 6011   2.845   2.284   0.927
 1704SOL    HW2 6012   2.872   2.123   0.937
 1705SOL     OW 6013   4.306   1.968   0.192
 1705SOL    HW1 6014   4.291   1.950   0.095
 1705SOL    HW2 6015   4.221   1.999   0.234
 1706SOL     OW 6016   4.392   2.180   6.875
 1706SOL    HW1 6017   4.385   2.253   6.806
 1706SOL    HW2 6018   4.474   2.196   6.931
 1707SOL     OW 6019   4.603   2.245   2.493
 1707SOL    HW1 6020   4.554   2.238   2.579
 1707SOL    HW2 6021   4.563   2.318   2.437
 1708SOL     OW 6022   3.119   5.089   1.539
 1708SOL    HW1 6023   3.163   5.140   1.465
 1708SOL    HW2 6024   3.102   4.995   1.510
 1709SOL     OW 6025   4.592   5.220   0.768
 1709SOL    HW1 6026   4.659   5.174   0.710
 1709SOL    HW2 6027   4.567   5.308   0.729
 1710SOL     OW 6028   4.113   5.114   3.351
 1710SOL    HW1 6029   4.126   5.033   3.294
 1710SOL    HW2 6030   4.161   5.192   3.310
 1711SOL     OW 6031   4.171   4.277   6.021
 1711SOL    HW1 6032   4.094   4.272   5.957
 1711SOL    HW2 6033   4.209   4.370   6.021
 1712SOL     OW 6034   0.207   1.593   3.350
 1712SOL    HW1 6035   0.256   1.672   3.313
 1712SOL    HW2 6036   0.195   1.524   3.278
 1713SOL     OW 6037   3.908   0.686   3.045
 1713SOL    HW1 6038   3.868   0.595   3.054
 1713SOL    HW2 6039   3.859   0.750   3.104
 1714SOL     OW 6040   4.042   3.082   0.637
 1714SOL    HW1 6041   4.051   3.157   0.701
 1714SOL    HW2 6042   4.023   3.118   0.545
 1715SOL     OW 6043   2.092   6.916   2.463
 1715SOL    HW1 6044   2.140   6.829   2.448
 1715SOL    HW2 6045   2.003   6.912   2.419
 1716SOL     OW 6046   5.238   0.882   3.779
 1716SOL    HW1 6047   5.160   0.929   3.738
 1716SOL    HW2 6048   5.305   0.860   3.708
 1717SOL     OW 6049   3.300   6.066   5.719
 1717SOL    HW1 6050   3.391   6.094   5.750
 1717SOL    HW2 6051   3.238   6.061   5.797
 1718SOL     OW 6052   1.663   2.912   1.649
 1718SOL    HW1 6053   1.633   2.896   1.555
 1718SOL    HW2 6054   1.741   2.976   1.648
 1719SOL     OW 6055   1.203   5.577   2.246
 1719SOL    HW1 6056   1.161   5.573   2.155
 1719SOL    HW2 6057   1.263   5.656   2.251
 1720SOL     OW 6058   0.380   3.066   5.828
 1720SOL    HW1 6059   0.427   3.074   5.916
 1720SOL    HW2 6060   0.388   3.152   5.777
 1721SOL     OW 6061   1.232   2.000   0.754
 1721SOL    HW1 6062   1.311   1.992   0.693
 1721SOL    HW2 6063   1.242   2.081   0.811
 1722SOL     OW 6064   2.462   2.572   3.350
 1722SOL    HW1 6065   2.526   2.536   3.418
 1722SOL    HW2 6066   2.417   2.496   3.303
 1723SOL     OW 6067   5.387   3.248   0.377
 1723SOL    HW1 6068   5.349   3.161   0.407
 1723SOL    HW2 6069   5.474   3.231   0.330
 1724SOL     OW 6070   6.450   2.318   1.637
 1724SOL    HW1 6071   6.464   2.355   1.729
 1724SOL    HW2 6072   6.384   2.374   1.588
 1725SOL     OW 6073   1.240   5.955   6.921
 1725SOL    HW1 6074   1.271   6.049   6.905
 1725SOL    HW2 6075   1.225   5.940   7.018
 1726SOL     OW 6076   5.641   4.404   3.073
 1726SOL    HW1 6077   5.577   4.477   3.095
 1726SOL    HW2 6078   5.606   4.350   2.997
 1727SOL     OW 6079   3.046   3.473   4.145
 1727SOL    HW1 6080   2.986   3.476   4.065
 1727SOL    HW2 6081   3.063   3.378   4.170
 1728SOL     OW 6082   5.098   2.185   4.124
 1728SOL    HW1 6083   5.085   2.224   4.033
 1728SOL    HW2 6084   5.042   2.236   4.190
 1729SOL     OW 6085   1.589   3.357   2.579
 1729SOL    HW1 6086   1.505   3.304   2.583
 1729SOL    HW2 6087   1.636   3.340   2.492
 1730SOL     OW 6088   2.553   4.961   5.150
 1730SOL    HW1 6089   2.575   5.015   5.231
 1730SOL    HW2 6090   2.454   4.944   5.148
 1731SOL     OW 6091   6.253   4.481   3.712
 1731SOL    HW1 6092   6.182   4.540   3.675
 1731SOL    HW2 6093   6.336   4.535   3.727
 1732SOL     OW 6094   2.191   3.923   5.847
 1732SOL    HW1 6095   2.201   3.962   5.755
 1732SOL    HW2 6096   2.131   3.843   5.842
 1733SOL     OW 6097   2.494   3.457   6.370
 1733SOL    HW1 6098   2.490   3.555   6.391
 1733SOL    HW2 6099   2.421   3.433   6.306
 1734SOL     OW 6100   0.004   2.885   1.611
 1734SOL    HW1 6101   0.023   2.969   1.662
 1734SOL    HW2 6102   0.087   2.831   1.601
 1735SOL     OW 6103   4.100   5.012   6.166
 1735SOL    HW1 6104   4.076   5.092   6.222
 1735SOL    HW2 6105   4.055   4.931   6.203
 1736SOL     OW 6106   4.953   3.125   0.875
 1736SOL    HW1 6107   5.000   3.040   0.901
 1736SOL    HW2 6108   4.915   3.116   0.784
 1737SOL     OW 6109   4.647   1.995   5.586
 1737SOL    HW1 6110   4.675   2.089   5.565
 1737SOL    HW2 6111   4.722   1.946   5.631
 1738SOL     OW 6112   1.560   3.471   4.010
 1738SOL    HW1 6113   1.646   3.465   3.959
 1738SOL    HW2 6114   1.577   3.518   4.097
 1739SOL     OW 6115   5.776   0.333   3.916
 1739SOL    HW1 6116   5.873   0.321   3.935
 1739SOL    HW2 6117   5.764   0.406   3.849
 1740SOL     OW 6118   6.250   3.342   4.409
 1740SOL    HW1 6119   6.153   3.354   4.429
 1740SOL    HW2 6120   6.303   3.409   4.460
 1741SOL     OW 6121   0.648   1.905   4.516
 1741SOL    HW1 6122   0.653   1.806   4.528
 1741SOL    HW2 6123   0.740   1.944   4.518
 1742SOL     OW 6124   5.914   6.803   6.080
 1742SOL    HW1 6125   5.889   6.782   6.175
 1742SOL    HW2 6126   5.920   6.902   6.069
 1743SOL     OW 6127   1.724   1.322   2.713
 1743SOL    HW1 6128   1.797   1.299   2.649
 1743SOL    HW2 6129   1.681   1.407   2.684
 1744SOL     OW 6130   3.558   1.878   4.591
 1744SOL    HW1 6131   3.477   1.828   4.560
 1744SOL    HW2 6132   3.529   1.957   4.646
 1745SOL     OW 6133   6.290   6.754   1.477
 1745SOL    HW1 6134   6.241   6.701   1.546
 1745SOL    HW2 6135   6.326   6.838   1.519
 1746SOL     OW 6136   2.330   4.200   4.084
 1746SOL    HW1 6137   2.325   4.164   3.991
 1746SOL    HW2 6138   2.255   4.162   4.138
 1747SOL     OW 6139   4.434   0.118   2.828
 1747SOL    HW1 6140   4.394   0.135   2.738
 1747SOL    HW2 6141   4.503   0.188   2.847
 1748SOL     OW 6142   6.794   3.010   4.769
 1748SOL    HW1 6143   6.887   2.977   4.786
 1748SOL    HW2 6144   6.796   3.078   4.696
 1749SOL     OW 6145   1.619   4.452   1.061
 1749SOL    HW1 6146   1.542   4.472   1.123
 1749SOL    HW2 6147   1.597   4.485   0.969
 1750SOL     OW 6148   3.377   7.015   5.648
 1750SOL    HW1 6149   3.366   6.952   5.726
 1750SOL    HW2 6150   3.308   6.995   5.579
 1751SOL     OW 6151   5.042   2.651   5.203
 1751SOL    HW1 6152   4.951   2.685   5.182
 1751SOL    HW2 6153   5.089   2.716   5.264
 1752SOL     OW 6154   0.148   0.684   1.932
 1752SOL    HW1 6155   0.236   0.670   1.976
 1752SOL    HW2 6156   0.126   0.782   1.932
 1753SOL     OW 6157   6.322   1.822   1.838
 1753SOL    HW1 6158   6.310   1.729   1.805
 1753SOL    HW2 6159   6.233   1.862   1.860
 1754SOL     OW 6160   2.961   5.470   4.095
 1754SOL    HW1 6161   2.933   5.436   4.004
 1754SOL    HW2 6162   2.980   5.392   4.155
 1755SOL     OW 6163   6.498   6.589   4.948
 1755SOL    HW1 6164   6.434   6.629   5.014
 1755SOL    HW2 6165   6.467   6.497   4.923
 1756SOL     OW 6166   4.525   6.604   6.246
 1756SOL    HW1 6167   4.602   6.645   6.197
 1756SOL    HW2 6168   4.461   6.564   6.180
 1757SOL     OW 6169   2.287   4.924   5.196
 1757SOL    HW1 6170   2.312   4.911   5.292
 1757SOL    HW2 6171   2.224   4.852   5.168
 1758SOL     OW 6172   2.182   5.921   4.298
 1758SOL    HW1 6173   2.105   5.948   4.356
 1758SOL    HW2 6174   2.166   5.829   4.262
 1759SOL     OW 6175   1.682   0.002   0.581
 1759SOL    HW1 6176   1.719   6.957   0.643
 1759SOL    HW2 6177   1.608   0.053   0.626
 1760SOL     OW 6178   6.862   0.565   4.538
 1760SOL    HW1 6179   6.809   0.566   4.622
 1760SOL    HW2 6180   6.958   0.583   4.559
 1761SOL     OW 6181   6.120   1.556   2.694
 1761SOL    HW1 6182   6.054   1.481   2.699
 1761SOL    HW2 6183   6.208   1.526   2.732
 1762SOL     OW 6184   0.511   1.736   6.016
 1762SOL    HW1 6185   0.573   1.788   5.958
 1762SOL    HW2 6186   0.534   1.639   6.010
 1763SOL     OW 6187   0.496   4.101   3.824
 1763SOL    HW1 6188   0.469   4.051   3.742
 1763SOL    HW2 6189   0.547   4.183   3.798
 1764SOL     OW 6190   1.045   5.409   2.724
 1764SOL    HW1 6191   1.050   5.332   2.788
 1764SOL    HW2 6192   1.041   5.374   2.630
 1765SOL     OW 6193   5.605   3.339   2.176
 1765SOL    HW1 6194   5.641   3.430   2.156
 1765SOL    HW2 6195   5.644   3.306   2.262
 1766SOL     OW 6196   4.366   4.661   3.628
 1766SOL    HW1 6197   4.427   4.592   3.666
 1766SOL    HW2 6198   4.420   4.739   3.596
 1767SOL     OW 6199   0.988   4.617   2.500
 1767SOL    HW1 6200   0.988   4.649   2.405
 1767SOL    HW2 6201   1.078   4.631   2.539
 1768SOL     OW 6202   5.167   6.461   2.304
 1768SOL    HW1 6203   5.257   6.428   2.276
 1768SOL    HW2 6204   5.174   6.556   2.335
 1769SOL     OW 6205   5.811   0.872   0.462
 1769SOL    HW1 6206   5.805   0.847   0.366
 1769SOL    HW2 6207   5.721   0.867   0.505
 1770SOL     OW 6208   1.913   5.564   0.322
 1770SOL    HW1 6209   1.907   5.605   0.231
 1770SOL    HW2 6210   2.007   5.573   0.356
 1771SOL     OW 6211   1.426   3.231   5.817
 1771SOL    HW1 6212   1.378   3.177   5.886
 1771SOL    HW2 6213   1.447   3.172   5.738
 1772SOL     OW 6214   2.099   4.547   3.084
 1772SOL    HW1 6215   2.093   4.450   3.062
 1772SOL    HW2 6216   2.120   4.558   3.181
 1773SOL     OW 6217   1.430   6.401   6.401
 1773SOL    HW1 6218   1.466   6.308   6.404
 1773SOL    HW2 6219   1.502   6.463   6.369
 1774SOL     OW 6220   5.080   5.402   0.683
 1774SOL    HW1 6221   5.179   5.406   0.668
 1774SOL    HW2 6222   5.054   5.468   0.754
 1775SOL     OW 6223   2.296   5.552   6.793
 1775SOL    HW1 6224   2.198   5.561   6.812
 1775SOL    HW2 6225   2.317   5.458   6.765
 1776SOL     OW 6226   4.812   2.211   5.428
 1776SOL    HW1 6227   4.786   2.263   5.346
 1776SOL    HW2 6228   4.904   2.236   5.456
 1777SOL     OW 6229   4.971   6.193   6.587
 1777SOL    HW1 6230   4.956   6.291   6.592
 1777SOL    HW2 6231   4.957   6.152   6.677
 1778SOL     OW 6232   5.515   6.937   4.272
 1778SOL    HW1 6233   5.484   6.978   4.358
 1778SOL    HW2 6234   5.478   6.989   4.195
 1779SOL     OW 6235   5.558   6.234   4.649
 1779SOL    HW1 6236   5.502   6.159   4.685
 1779SOL    HW2 6237   5.499   6.307   4.617
 1780SOL     OW 6238   2.378   5.810   4.862
 1780SOL    HW1 6239   2.421   5.723   4.837
 1780SOL    HW2 6240   2.380   5.871   4.783
 1781SOL     OW 6241   4.020   0.630   4.306
 1781SOL    HW1 6242   4.025   0.724   4.272
 1781SOL    HW2 6243   4.110   0.587   4.301
 1782SOL     OW 6244   0.048   1.616   2.698
 1782SOL    HW1 6245   0.105   1.694   2.720
 1782SOL    HW2 6246   0.003   1.631   2.610
 1783SOL     OW 6247   2.277   3.847   6.568
 1783SOL    HW1 6248   2.260   3.823   6.472
 1783SOL    HW2 6249   2.356   3.907   6.574
 1784SOL     OW 6250   2.698   0.130   1.320
 1784SOL    HW1 6251   2.719   0.196   1.247
 1784SOL    HW2 6252   2.606   0.094   1.307
 1785SOL     OW 6253   1.409   6.443   4.763
 1785SOL    HW1 6254   1.326   6.431   4.708
 1785SOL    HW2 6255   1.389   6.500   4.842
 1786SOL     OW 6256   0.919   6.655   0.751
 1786SOL    HW1 6257   0.990   6.627   0.686
 1786SOL    HW2 6258   0.863   6.727   0.709
 1787SOL     OW 6259   2.928   3.546   6.559
 1787SOL    HW1 6260   2.948   3.509   6.469
 1787SOL    HW2 6261   2.885   3.636   6.549
 1788SOL     OW 6262   4.756   3.782   1.563
 1788SOL    HW1 6263   4.747   3.879   1.584
 1788SOL    HW2 6264   4.822   3.740   1.625
 1789SOL     OW 6265   5.967   3.717   1.841
 1789SOL    HW1 6266   5.937   3.811   1.862
 1789SOL    HW2 6267   5.955   3.699   1.744
 1790SOL     OW 6268   2.450   2.057   4.674
 1790SOL    HW1 6269   2.380   2.090   4.611
 1790SOL    HW2 6270   2.435   2.098   4.764
 1791SOL     OW 6271   4.951   6.944   3.564
 1791SOL    HW1 6272   4.912   7.004   3.634
 1791SOL    HW2 6273   4.947   6.990   3.475
 1792SOL     OW 6274   0.267   1.569   5.664
 1792SOL    HW1 6275   0.248   1.612   5.576
 1792SOL    HW2 6276   0.217   1.616   5.736
 1793SOL     OW 6277   0.317   0.810   5.697
 1793SOL    HW1 6278   0.238   0.752   5.714
 1793SOL    HW2 6279   0.299   0.903   5.729
 1794SOL     OW 6280   1.030   0.246   6.309
 1794SOL    HW1 6281   0.984   0.221   6.394
 1794SOL    HW2 6282   1.088   0.170   6.279
 1795SOL     OW 6283   5.749   4.627   1.317
 1795SOL    HW1 6284   5.692   4.565   1.263
 1795SOL    HW2 6285   5.838   4.585   1.334
 1796SOL     OW 6286   0.373   0.386   6.526
 1796SOL    HW1 6287   0.413   0.375   6.435
 1796SOL    HW2 6288   0.371   0.484   6.550
 1797SOL     OW 6289   1.705   5.167   6.150
 1797SOL    HW1 6290   1.753   5.095   6.202
 1797SOL    HW2 6291   1.739   5.167   6.056
 1798SOL     OW 6292   2.728   3.603   5.466
 1798SOL    HW1 6293   2.798   3.581   5.398
 1798SOL    HW2 6294   2.688   3.693   5.445
 1799SOL     OW 6295   3.207   1.477   0.545
 1799SOL    HW1 6296   3.258   1.534   0.481
 1799SOL    HW2 6297   3.183   1.390   0.501
 1800SOL     OW 6298   5.935   3.550   5.223
 1800SOL    HW1 6299   6.011   3.613   5.241
 1800SOL    HW2 6300   5.914   3.550   5.125
 1801SOL     OW 6301   1.222   0.961   3.203
 1801SOL    HW1 6302   1.167   0.995   3.127
 1801SOL    HW2 6303   1.239   0.864   3.191
 1802SOL     OW 6304   7.018   4.771   3.705
 1802SOL    HW1 6305   7.003   4.676   3.678
 1802SOL    HW2 6306   0.090   4.796   3.687
 1803SOL     OW 6307   0.299   0.040   3.103
 1803SOL    HW1 6308   0.332   0.124   3.060
 1803SOL    HW2 6309   0.326   6.985   3.047
 1804SOL     OW 6310   2.319   3.092   5.820
 1804SOL    HW1 6311   2.364   3.153   5.884
 1804SOL    HW2 6312   2.384   3.023   5.788
 1805SOL     OW 6313   0.446   5.556   0.240
 1805SOL    HW1 6314   0.437   5.456   0.243
 1805SOL    HW2 6315   0.513   5.585   0.308
 1806SOL     OW 6316   0.333   1.918   1.756
 1806SOL    HW1 6317   0.338   1.831   1.707
 1806SOL    HW2 6318   0.239   1.933   1.787
 1807SOL     OW 6319   0.217   2.624   3.011
 1807SOL    HW1 6320   0.230   2.714   2.968
 1807SOL    HW2 6321   0.306   2.587   3.038
 1808SOL     OW 6322   4.759   2.062   5.991
 1808SOL    HW1 6323   4.743   2.123   5.913
 1808SOL    HW2 6324   4.838   2.004   5.972
 1809SOL     OW 6325   4.403   0.477   5.050
 1809SOL    HW1 6326   4.379   0.555   5.108
 1809SOL    HW2 6327   4.492   0.441   5.078
 1810SOL     OW 6328   0.813   0.626   4.079
 1810SOL    HW1 6329   0.743   0.697   4.071
 1810SOL    HW2 6330   0.819   0.596   4.174
 1811SOL     OW 6331   3.981   5.390   1.542
 1811SOL    HW1 6332   4.011   5.363   1.633
 1811SOL    HW2 6333   4.028   5.473   1.514
 1812SOL     OW 6334   4.769   6.052   6.173
 1812SOL    HW1 6335   4.848   6.044   6.234
 1812SOL    HW2 6336   4.717   6.134   6.196
 1813SOL     OW 6337   4.823   4.489   2.196
 1813SOL    HW1 6338   4.895   4.506   2.263
 1813SOL    HW2 6339   4.864   4.470   2.107
 1814SOL     OW 6340   6.714   6.060   0.504
 1814SOL    HW1 6341   6.767   6.081   0.586
 1814SOL    HW2 6342   6.774   6.021   0.434
 1815SOL     OW 6343   5.543   6.405   1.449
 1815SOL    HW1 6344   5.642   6.394   1.444
 1815SOL    HW2 6345   5.499   6.339   1.388
 1816SOL     OW 6346   3.898   4.866   5.408
 1816SOL    HW1 6347   3.925   4.875   5.504
 1816SOL    HW2 6348   3.962   4.804   5.362
 1817SOL     OW 6349   6.967   2.062   3.817
 1817SOL    HW1 6350   6.951   2.152   3.776
 1817SOL    HW2 6351   6.902   2.048   3.892
 1818SOL     OW 6352   2.423   1.172   6.955
 1818SOL    HW1 6353   2.388   1.102   6.893
 1818SOL    HW2 6354   2.348   1.231   6.985
 1819SOL     OW 6355   1.899   4.702   2.974
 1819SOL    HW1 6356   1.891   4.754   3.059
 1819SOL    HW2 6357   1.992   4.664   2.967
 1820SOL     OW 6358   3.284   6.875   5.156
 1820SOL    HW1 6359   3.287   6.964   5.201
 1820SOL    HW2 6360   3.377   6.841   5.143
 1821SOL     OW 6361   3.676   2.083   2.544
 1821SOL    HW1 6362   3.580   2.072   2.571
 1821SOL    HW2 6363   3.730   2.113   2.623
 1822SOL     OW 6364   6.866   3.354   2.477
 1822SOL    HW1 6365   6.775   3.394   2.475
 1822SOL    HW2 6366   6.897   3.348   2.572
 1823SOL     OW 6367   4.262   6.120   2.251
 1823SOL    HW1 6368   4.256   6.027   2.215
 1823SOL    HW2 6369   4.261   6.185   2.176
 1824SOL     OW 6370   4.444   2.929   1.653
 1824SOL    HW1 6371   4.458   2.989   1.574
 1824SOL    HW2 6372   4.491   2.968   1.733
 1825SOL     OW 6373   1.417   1.992   4.817
 1825SOL    HW1 6374   1.478   2.037   4.752
 1825SOL    HW2 6375   1.401   1.897   4.787
 1826SOL     OW 6376   3.662   2.020   1.699
 1826SOL    HW1 6377   3.633   2.114   1.716
 1826SOL    HW2 6378   3.618   1.959   1.765
 1827SOL     OW 6379   5.552   5.619   0.957
 1827SOL    HW1 6380   5.637   5.668   0.975
 1827SOL    HW2 6381   5.568   5.521   0.962
 1828SOL     OW 6382   1.353   3.379   5.293
 1828SOL    HW1 6383   1.288   3.429   5.351
 1828SOL    HW2 6384   1.388   3.441   5.223
 1829SOL     OW 6385   3.933   0.513   2.644
 1829SOL    HW1 6386   3.883   0.585   2.692
 1829SOL    HW2 6387   3.925   0.527   2.545
 1830SOL     OW 6388   5.398   0.310   5.384
 1830SOL    HW1 6389   5.480   0.256   5.400
 1830SOL    HW2 6390   5.412   0.403   5.418
 1831SOL     OW 6391   3.625   4.634   0.654
 1831SOL    HW1 6392   3.608   4.535   0.652
 1831SOL    HW2 6393   3.707   4.655   0.600
 1832SOL     OW 6394   2.419   3.193   0.260
 1832SOL    HW1 6395   2.343   3.175   0.198
 1832SOL    HW2 6396   2.441   3.290   0.259
 1833SOL     OW 6397   5.907   1.008   6.971
 1833SOL    HW1 6398   5.831   0.945   6.958
 1833SOL    HW2 6399   5.910   1.038   0.042
 1834SOL     OW 6400   0.326   2.851   5.365
 1834SOL    HW1 6401   0.364   2.778   5.422
 1834SOL    HW2 6402   0.391   2.875   5.294
 1835SOL     OW 6403   0.156   6.706   1.637
 1835SOL    HW1 6404   0.166   6.663   1.548
 1835SOL    HW2 6405   0.246   6.722   1.677
 1836SOL     OW 6406   4.982   2.612   2.558
 1836SOL    HW1 6407   5.046   2.614   2.635
 1836SOL    HW2 6408   4.999   2.530   2.503
 1837SOL     OW 6409   3.043   2.387   6.038
 1837SOL    HW1 6410   2.979   2.312   6.055
 1837SOL    HW2 6411   3.075   2.423   6.126
 1838SOL     OW 6412   5.615   0.824   0.655
 1838SOL    HW1 6413   5.531   0.775   0.680
 1838SOL    HW2 6414   5.682   0.814   0.728
 1839SOL     OW 6415   0.074   0.734   0.178
 1839SOL    HW1 6416   7.007   0.758   0.145
 1839SOL    HW2 6417   0.068   0.651   0.234
 1840SOL     OW 6418   4.534   6.135   3.284
 1840SOL    HW1 6419   4.504   6.137   3.380
 1840SOL    HW2 6420   4.462   6.171   3.226
 1841SOL     OW 6421   1.962   0.937   2.562
 1841SOL    HW1 6422   1.978   0.846   2.602
 1841SOL    HW2 6423   1.879   0.935   2.507
 1842SOL     OW 6424   1.301   5.592   0.637
 1842SOL    HW1 6425   1.201   5.601   0.642
 1842SOL    HW2 6426   1.328   5.504   0.674
 1843SOL     OW 6427   2.417   0.997   5.498
 1843SOL    HW1 6428   2.335   1.055   5.501
 1843SOL    HW2 6429   2.390   0.903   5.474
 1844SOL     OW 6430   5.964   2.657   6.270
 1844SOL    HW1 6431   6.032   2.621   6.333
 1844SOL    HW2 6432   5.879   2.606   6.280
 1845SOL     OW 6433   1.505   2.386   2.944
 1845SOL    HW1 6434   1.429   2.445   2.915
 1845SOL    HW2 6435   1.529   2.408   3.038
 1846SOL     OW 6436   3.627   0.828   1.695
 1846SOL    HW1 6437   3.606   0.789   1.785
 1846SOL    HW2 6438   3.594   0.923   1.691
 1847SOL     OW 6439   1.850   5.653   5.136
 1847SOL    HW1 6440   1.764   5.645   5.085
 1847SOL    HW2 6441   1.832   5.638   5.233
 1848SOL     OW 6442   3.101   6.299   3.164
 1848SOL    HW1 6443   3.189   6.258   3.190
 1848SOL    HW2 6444   3.117   6.377   3.104
 1849SOL     OW 6445   4.980   2.772   2.343
 1849SOL    HW1 6446   5.039   2.722   2.279
 1849SOL    HW2 6447   4.985   2.729   2.433
 1850SOL     OW 6448   4.578   1.561   1.179
 1850SOL    HW1 6449   4.659   1.619   1.194
 1850SOL    HW2 6450   4.517   1.569   1.258
 1851SOL     OW 6451   0.683   4.505   5.138
 1851SOL    HW1 6452   0.619   4.550   5.075
 1851SOL    HW2 6453   0.677   4.406   5.125
 1852SOL     OW 6454   0.312   0.340   2.962
 1852SOL    HW1 6455   0.277   0.288   2.884
 1852SOL    HW2 6456   0.250   0.330   3.040
 1853SOL     OW 6457   0.294   2.646   5.768
 1853SOL    HW1 6458   0.336   2.720   5.716
 1853SOL    HW2 6459   0.209   2.679   5.810
 1854SOL     OW 6460   0.699   0.065   3.315
 1854SOL    HW1 6461   0.660   0.088   3.225
 1854SOL    HW2 6462   0.790   0.027   3.303
 1855SOL     OW 6463   5.007   3.184   4.397
 1855SOL    HW1 6464   4.947   3.104   4.397
 1855SOL    HW2 6465   5.101   3.155   4.415
 1856SOL     OW 6466   3.648   2.545   0.857
 1856SOL    HW1 6467   3.700   2.460   0.847
 1856SOL    HW2 6468   3.705   2.614   0.902
 1857SOL     OW 6469   4.074   1.547   0.166
 1857SOL    HW1 6470   4.148   1.515   0.226
 1857SOL    HW2 6471   4.004   1.476   0.158
 1858SOL     OW 6472   5.138   2.483   4.210
 1858SOL    HW1 6473   5.158   2.572   4.252
 1858SOL    HW2 6474   5.058   2.443   4.253
 1859SOL     OW 6475   0.096   1.780   4.159
 1859SOL    HW1 6476   0.187   1.786   4.119
 1859SOL    HW2 6477   0.103   1.786   4.259
 1860SOL     OW 6478   2.048   1.529   5.576
 1860SOL    HW1 6479   2.086   1.451   5.626
 1860SOL    HW2 6480   1.978   1.573   5.632
 1861SOL     OW 6481   6.935   6.794   3.540
 1861SOL    HW1 6482   6.879   6.730   3.488
 1861SOL    HW2 6483   6.945   6.761   3.634
 1862SOL     OW 6484   3.218   5.337   5.839
 1862SOL    HW1 6485   3.204   5.319   5.937
 1862SOL    HW2 6486   3.165   5.272   5.785
 1863SOL     OW 6487   7.021   2.698   0.635
 1863SOL    HW1 6488   0.062   2.634   0.675
 1863SOL    HW2 6489   6.981   2.658   0.552
 1864SOL     OW 6490   4.013   5.612   2.186
 1864SOL    HW1 6491   4.080   5.540   2.204
 1864SOL    HW2 6492   4.022   5.685   2.254
 1865SOL     OW 6493   6.048   1.824   5.537
 1865SOL    HW1 6494   5.967   1.842   5.481
 1865SOL    HW2 6495   6.024   1.831   5.633
 1866SOL     OW 6496   0.944   5.043   3.576
 1866SOL    HW1 6497   0.883   5.011   3.649
 1866SOL    HW2 6498   0.933   4.985   3.495
 1867SOL     OW 6499   1.499   2.508   1.457
 1867SOL    HW1 6500   1.401   2.489   1.452
 1867SOL    HW2 6501   1.519   2.590   1.404
 1868SOL     OW 6502   5.644   3.384   6.621
 1868SOL    HW1 6503   5.624   3.444   6.698
 1868SOL    HW2 6504   5.742   3.368   6.615
 1869SOL     OW 6505   4.202   0.952   4.286
 1869SOL    HW1 6506   4.221   0.975   4.381
 1869SOL    HW2 6507   4.122   1.004   4.255
 1870SOL     OW 6508   6.520   6.112   4.872
 1870SOL    HW1 6509   6.460   6.067   4.805
 1870SOL    HW2 6510   6.569   6.043   4.924
 1871SOL     OW 6511   0.130   6.163   0.222
 1871SOL    HW1 6512   0.220   6.154   0.264
 1871SOL    HW2 6513   0.061   6.123   0.282
 1872SOL     OW 6514   2.582   2.711   1.750
 1872SOL    HW1 6515   2.531   2.684   1.669
 1872SOL    HW2 6516   2.619   2.629   1.795
 1873SOL     OW 6517   6.342   1.457   0.827
 1873SOL    HW1 6518   6.280   1.388   0.867
 1873SOL    HW2 6519   6.415   1.411   0.777
 1874SOL     OW 6520   0.554   5.110   0.313
 1874SOL    HW1 6521   0.546   5.018   0.275
 1874SOL    HW2 6522   0.615   5.165   0.255
 1875SOL     OW 6523   6.867   4.968   0.270
 1875SOL    HW1 6524   6.817   5.003   0.191
 1875SOL    HW2 6525   6.810   4.976   0.352
 1876SOL     OW 6526   0.370   5.611   0.899
 1876SOL    HW1 6527   0.426   5.538   0.860
 1876SOL    HW2 6528   0.341   5.673   0.827
 1877SOL     OW 6529   1.034   1.487   2.520
 1877SOL    HW1 6530   1.067   1.568   2.570
 1877SOL    HW2 6531   0.998   1.516   2.432
 1878SOL     OW 6532   5.996   3.935   3.824
 1878SOL    HW1 6533   6.002   4.009   3.891
 1878SOL    HW2 6534   5.917   3.950   3.765
 1879SOL     OW 6535   4.707   5.627   4.298
 1879SOL    HW1 6536   4.679   5.613   4.393
 1879SOL    HW2 6537   4.724   5.724   4.282
 1880SOL     OW 6538   6.980   1.987   4.413
 1880SOL    HW1 6539   0.038   1.936   4.439
 1880SOL    HW2 6540   6.950   2.044   4.489
 1881SOL     OW 6541   1.790   1.457   3.966
 1881SOL    HW1 6542   1.743   1.385   3.916
 1881SOL    HW2 6543   1.840   1.515   3.902
 1882SOL     OW 6544   1.514   5.442   0.429
 1882SOL    HW1 6545   1.515   5.468   0.332
 1882SOL    HW2 6546   1.419   5.440   0.461
 1883SOL     OW 6547   1.524   2.987   3.163
 1883SOL    HW1 6548   1.461   2.950   3.095
 1883SOL    HW2 6549   1.473   3.017   3.244
 1884SOL     OW 6550   4.097   0.839   0.041
 1884SOL    HW1 6551   4.123   0.899   6.989
 1884SOL    HW2 6552   4.046   0.892   0.109
 1885SOL     OW 6553   0.219   1.981   1.230
 1885SOL    HW1 6554   0.236   2.026   1.142
 1885SOL    HW2 6555   0.306   1.968   1.277
 1886SOL     OW 6556   3.179   2.455   5.826
 1886SOL    HW1 6557   3.113   2.410   5.886
 1886SOL    HW2 6558   3.171   2.418   5.733
 1887SOL     OW 6559   0.784   6.277   5.102
 1887SOL    HW1 6560   0.800   6.367   5.062
 1887SOL    HW2 6561   0.871   6.239   5.134
 1888SOL     OW 6562   1.894   2.145   5.624
 1888SOL    HW1 6563   1.836   2.092   5.686
 1888SOL    HW2 6564   1.961   2.084   5.582
 1889SOL     OW 6565   3.403   2.624   0.052
 1889SOL    HW1 6566   3.463   2.548   0.026
 1889SOL    HW2 6567   3.314   2.587   0.079
 1890SOL     OW 6568   6.053   5.868   6.906
 1890SOL    HW1 6569   6.036   5.872   6.808
 1890SOL    HW2 6570   6.064   5.772   6.934
 1891SOL     OW 6571   5.742   3.908   6.007
 1891SOL    HW1 6572   5.666   3.875   6.063
 1891SOL    HW2 6573   5.827   3.865   6.037
 1892SOL     OW 6574   3.978   6.915   1.942
 1892SOL    HW1 6575   4.023   6.885   1.858
 1892SOL    HW2 6576   3.968   6.837   2.004
 1893SOL     OW 6577   3.281   1.769   5.109
 1893SOL    HW1 6578   3.374   1.781   5.144
 1893SOL    HW2 6579   3.228   1.714   5.174
 1894SOL     OW 6580   4.634   3.525   0.910
 1894SOL    HW1 6581   4.602   3.530   0.815
 1894SOL    HW2 6582   4.671   3.434   0.928
 1895SOL     OW 6583   4.808   0.883   3.261
 1895SOL    HW1 6584   4.824   0.798   3.210
 1895SOL    HW2 6585   4.709   0.895   3.274
 1896SOL     OW 6586   6.091   1.825   5.833
 1896SOL    HW1 6587   6.178   1.872   5.848
 1896SOL    HW2 6588   6.085   1.746   5.895
 1897SOL     OW 6589   5.694   5.219   3.622
 1897SOL    HW1 6590   5.700   5.316   3.601
 1897SOL    HW2 6591   5.599   5.194   3.640
 1898SOL     OW 6592   5.742   6.360   0.012
 1898SOL    HW1 6593   5.691   6.405   6.963
 1898SOL    HW2 6594   5.775   6.271   7.004
 1899SOL     OW 6595   1.468   1.971   3.637
 1899SOL    HW1 6596   1.451   1.966   3.735
 1899SOL    HW2 6597   1.563   1.999   3.621
 1900SOL     OW 6598   2.563   6.163   0.825
 1900SOL    HW1 6599   2.637   6.227   0.802
 1900SOL    HW2 6600   2.493   6.166   0.754
 1901SOL     OW 6601   1.461   1.432   6.349
 1901SOL    HW1 6602   1.403   1.355   6.375
 1901SOL    HW2 6603   1.460   1.441   6.249
 1902SOL     OW 6604   1.752   2.379   5.407
 1902SOL    HW1 6605   1.763   2.280   5.405
 1902SOL    HW2 6606   1.655   2.402   5.404
 1903SOL     OW 6607   6.604   4.524   4.098
 1903SOL    HW1 6608   6.679   4.478   4.050
 1903SOL    HW2 6609   6.569   4.465   4.170
 1904SOL     OW 6610   0.819   0.342   4.971
 1904SOL    HW1 6611   0.813   0.315   4.875
 1904SOL    HW2 6612   0.910   0.378   4.989
 1905SOL     OW 6613   6.372   3.218   4.165
 1905SOL    HW1 6614   6.341   3.266   4.246
 1905SOL    HW2 6615   6.302   3.154   4.135
 1906SOL     OW 6616   2.398   0.431   0.308
 1906SOL    HW1 6617   2.354   0.414   0.220
 1906SOL    HW2 6618   2.341   0.395   0.382
 1907SOL     OW 6619   3.434   6.061   3.059
 1907SOL    HW1 6620   3.469   5.970   3.080
 1907SOL    HW2 6621   3.480   6.096   2.977
 1908SOL     OW 6622   4.908   1.066   6.508
 1908SOL    HW1 6623   4.857   1.011   6.573
 1908SOL    HW2 6624   4.859   1.152   6.490
 1909SOL     OW 6625   4.129   4.875   4.568
 1909SOL    HW1 6626   4.162   4.781   4.557
 1909SOL    HW2 6627   4.081   4.883   4.655
 1910SOL     OW 6628   4.784   2.480   4.970
 1910SOL    HW1 6629   4.746   2.396   5.009
 1910SOL    HW2 6630   4.733   2.558   5.005
 1911SOL     OW 6631   6.988   3.677   6.220
 1911SOL    HW1 6632   0.045   3.736   6.225
 1911SOL    HW2 6633   6.977   3.643   6.127
 1912SOL     OW 6634   3.394   6.289   3.181
 1912SOL    HW1 6635   3.400   6.194   3.151
 1912SOL    HW2 6636   3.417   6.350   3.105
 1913SOL     OW 6637   1.572   4.560   5.323
 1913SOL    HW1 6638   1.492   4.594   5.274
 1913SOL    HW2 6639   1.636   4.518   5.259
 1914SOL     OW 6640   4.706   1.230   5.297
 1914SOL    HW1 6641   4.641   1.221   5.221
 1914SOL    HW2 6642   4.753   1.318   5.290
 1915SOL     OW 6643   3.892   0.195   5.211
 1915SOL    HW1 6644   3.917   0.291   5.202
 1915SOL    HW2 6645   3.885   0.171   5.307
 1916SOL     OW 6646   4.156   6.465   1.386
 1916SOL    HW1 6647   4.062   6.436   1.375
 1916SOL    HW2 6648   4.171   6.550   1.336
 1917SOL     OW 6649   3.315   3.376   4.317
 1917SOL    HW1 6650   3.265   3.294   4.289
 1917SOL    HW2 6651   3.251   3.451   4.331
 1918SOL     OW 6652   5.889   6.749   4.168
 1918SOL    HW1 6653   5.920   6.668   4.219
 1918SOL    HW2 6654   5.812   6.724   4.110
 1919SOL     OW 6655   6.466   6.726   2.156
 1919SOL    HW1 6656   6.472   6.825   2.145
 1919SOL    HW2 6657   6.507   6.681   2.077
 1920SOL     OW 6658   6.592   6.136   4.118
 1920SOL    HW1 6659   6.498   6.142   4.085
 1920SOL    HW2 6660   6.641   6.065   4.068
 1921SOL     OW 6661   0.984   6.743   6.043
 1921SOL    HW1 6662   0.897   6.792   6.029
 1921SOL    HW2 6663   0.965   6.647   6.062
 1922SOL     OW 6664   3.434   4.300   1.042
 1922SOL    HW1 6665   3.399   4.345   1.124
 1922SOL    HW2 6666   3.389   4.211   1.031
 1923SOL     OW 6667   2.131   1.984   0.500
 1923SOL    HW1 6668   2.076   2.067   0.517
 1923SOL    HW2 6669   2.227   2.003   0.519
 1924SOL     OW 6670   0.835   4.036   2.162
 1924SOL    HW1 6671   0.889   4.006   2.084
 1924SOL    HW2 6672   0.896   4.076   2.231
 1925SOL     OW 6673   3.740   4.133   0.486
 1925SOL    HW1 6674   3.644   4.110   0.500
 1925SOL    HW2 6675   3.751   4.179   0.398
 1926SOL     OW 6676   0.524   0.217   3.527
 1926SOL    HW1 6677   0.449   0.165   3.487
 1926SOL    HW2 6678   0.604   0.212   3.466
 1927SOL     OW 6679   4.203   3.825   0.132
 1927SOL    HW1 6680   4.282   3.791   0.081
 1927SOL    HW2 6681   4.120   3.780   0.101
 1928SOL     OW 6682   6.580   4.883   5.516
 1928SOL    HW1 6683   6.566   4.906   5.612
 1928SOL    HW2 6684   6.508   4.925   5.460
 1929SOL     OW 6685   1.186   0.213   2.631
 1929SOL    HW1 6686   1.252   0.278   2.668
 1929SOL    HW2 6687   1.188   0.129   2.685
 1930SOL     OW 6688   6.385   4.765   6.976
 1930SOL    HW1 6689   6.346   4.778   6.885
 1930SOL    HW2 6690   6.314   4.729   0.014
 1931SOL     OW 6691   1.150   2.593   5.166
 1931SOL    HW1 6692   1.116   2.662   5.230
 1931SOL    HW2 6693   1.107   2.608   5.077
 1932SOL     OW 6694   5.827   3.252   2.366
 1932SOL    HW1 6695   5.910   3.284   2.319
 1932SOL    HW2 6696   5.830   3.153   2.374
 1933SOL     OW 6697   2.846   4.358   1.350
 1933SOL    HW1 6698   2.776   4.400   1.408
 1933SOL    HW2 6699   2.863   4.264   1.380
 1934SOL     OW 6700   0.346   6.018   4.168
 1934SOL    HW1 6701   0.335   6.109   4.207
 1934SOL    HW2 6702   0.354   6.025   4.069
 1935SOL     OW 6703   2.298   0.639   3.992
 1935SOL    HW1 6704   2.336   0.728   4.016
 1935SOL    HW2 6705   2.371   0.572   3.983
 1936SOL     OW 6706   6.473   5.857   6.004
 1936SOL    HW1 6707   6.424   5.777   6.040
 1936SOL    HW2 6708   6.454   5.866   5.906
 1937SOL     OW 6709   4.157   6.872   2.648
 1937SOL    HW1 6710   4.193   6.957   2.687
 1937SOL    HW2 6711   4.203   6.854   2.560
 1938SOL     OW 6712   4.861   0.131   3.741
 1938SOL    HW1 6713   4.831   0.091   3.828
 1938SOL    HW2 6714   4.955   0.165   3.751
 1939SOL     OW 6715   2.324   0.069   3.414
 1939SOL    HW1 6716   2.235   0.086   3.373
 1939SOL    HW2 6717   2.359   7.005   3.382
 1940SOL     OW 6718   0.219   4.846   0.173
 1940SOL    HW1 6719   0.299   4.901   0.151
 1940SOL    HW2 6720   0.145   4.869   0.109
 1941SOL     OW 6721   4.996   5.000   3.206
 1941SOL    HW1 6722   4.938   5.070   3.249
 1941SOL    HW2 6723   4.962   4.981   3.114
 1942SOL     OW 6724   5.872   5.696   3.031
 1942SOL    HW1 6725   5.958   5.722   3.074
 1942SOL    HW2 6726   5.798   5.698   3.098
 1943SOL     OW 6727   2.785   5.283   2.638
 1943SOL    HW1 6728   2.796   5.370   2.591
 1943SOL    HW2 6729   2.824   5.210   2.582
 1944SOL     OW 6730   6.875   1.065   1.834
 1944SOL    HW1 6731   6.858   0.967   1.837
 1944SOL    HW2 6732   6.846   1.101   1.745
 1945SOL     OW 6733   3.001   5.253   4.268
 1945SOL    HW1 6734   2.905   5.255   4.296
 1945SOL    HW2 6735   3.040   5.164   4.291
 1946SOL     OW 6736   1.613   0.569   0.011
 1946SOL    HW1 6737   1.533   0.628   0.003
 1946SOL    HW2 6738   1.585   0.480   0.046
 1947SOL     OW 6739   5.573   5.973   5.015
 1947SOL    HW1 6740   5.551   5.923   4.931
 1947SOL    HW2 6741   5.671   5.994   5.016
 1948SOL     OW 6742   5.977   4.292   5.848
 1948SOL    HW1 6743   5.893   4.242   5.867
 1948SOL    HW2 6744   5.988   4.304   5.749
 1949SOL     OW 6745   5.242   4.213   6.671
 1949SOL    HW1 6746   5.213   4.227   6.766
 1949SOL    HW2 6747   5.214   4.122   6.641
 1950SOL     OW 6748   3.291   3.812   0.462
 1950SOL    HW1 6749   3.270   3.729   0.514
 1950SOL    HW2 6750   3.274   3.795   0.365
 1951SOL     OW 6751   6.839   2.067   7.014
 1951SOL    HW1 6752   6.859   1.969   7.008
 1951SOL    HW2 6753   6.789   2.086   0.075
 1952SOL     OW 6754   3.727   1.747   5.757
 1952SOL    HW1 6755   3.803   1.752   5.822
 1952SOL    HW2 6756   3.643   1.721   5.806
 1953SOL     OW 6757   0.173   3.523   5.745
 1953SOL    HW1 6758   0.189   3.595   5.812
 1953SOL    HW2 6759   0.232   3.445   5.765
 1954SOL     OW 6760   3.326   2.154   3.984
 1954SOL    HW1 6761   3.269   2.191   4.057
 1954SOL    HW2 6762   3.290   2.183   3.895
 1955SOL     OW 6763   6.490   6.004   2.648
 1955SOL    HW1 6764   6.581   6.023   2.609
 1955SOL    HW2 6765   6.421   6.057   2.599
 1956SOL     OW 6766   5.959   5.919   2.597
 1956SOL    HW1 6767   5.994   5.873   2.679
 1956SOL    HW2 6768   5.896   5.857   2.549
 1957SOL     OW 6769   1.005   0.074   4.990
 1957SOL    HW1 6770   1.064   0.002   4.952
 1957SOL    HW2 6771   0.975   0.135   4.916
 1958SOL     OW 6772   5.543   3.757   5.815
 1958SOL    HW1 6773   5.508   3.669   5.849
 1958SOL    HW2 6774   5.600   3.799   5.886
 1959SOL     OW 6775   1.438   2.227   6.363
 1959SOL    HW1 6776   1.408   2.241   6.457
 1959SOL    HW2 6777   1.405   2.139   6.330
 1960SOL     OW 6778   5.857   6.119   1.275
 1960SOL    HW1 6779   5.807   6.052   1.330
 1960SOL    HW2 6780   5.855   6.208   1.320
 1961SOL     OW 6781   5.621   5.000   3.979
 1961SOL    HW1 6782   5.522   5.008   3.964
 1961SOL    HW2 6783   5.648   4.904   3.974
 1962SOL     OW 6784   6.837   6.307   2.861
 1962SOL    HW1 6785   6.801   6.221   2.897
 1962SOL    HW2 6786   6.772   6.381   2.879
 1963SOL     OW 6787   1.662   0.323   2.844
 1963SOL    HW1 6788   1.577   0.372   2.825
 1963SOL    HW2 6789   1.700   0.288   2.758
 1964SOL     OW 6790   5.815   3.228   2.854
 1964SOL    HW1 6791   5.893   3.185   2.809
 1964SOL    HW2 6792   5.812   3.200   2.949
 1965SOL     OW 6793   2.035   4.840   3.623
 1965SOL    HW1 6794   2.133   4.858   3.620
 1965SOL    HW2 6795   1.989   4.900   3.557
 1966SOL     OW 6796   6.397   5.617   6.110
 1966SOL    HW1 6797   6.329   5.547   6.127
 1966SOL    HW2 6798   6.479   5.575   6.071
 1967SOL     OW 6799   4.962   2.180   5.082
 1967SOL    HW1 6800   4.978   2.153   4.987
 1967SOL    HW2 6801   4.870   2.216   5.091
 1968SOL     OW 6802   3.376   5.459   6.345
 1968SOL    HW1 6803   3.346   5.502   6.260
 1968SOL    HW2 6804   3.309   5.476   6.417
 1969SOL     OW 6805   6.604   2.814   1.425
 1969SOL    HW1 6806   6.549   2.819   1.509
 1969SOL    HW2 6807   6.548   2.839   1.347
 1970SOL     OW 6808   1.565   0.010   3.663
 1970SOL    HW1 6809   1.486   0.072   3.663
 1970SOL    HW2 6810   1.540   6.950   3.711
 1971SOL     OW 6811   0.295   6.335   6.545
 1971SOL    HW1 6812   0.290   6.427   6.584
 1971SOL    HW2 6813   0.243   6.272   6.603
 1972SOL     OW 6814   0.516   5.059   3.939
 1972SOL    HW1 6815   0.534   5.006   3.856
 1972SOL    HW2 6816   0.557   5.013   4.018
 1973SOL     OW 6817   2.958   2.926   0.670
 1973SOL    HW1 6818   2.889   2.928   0.598
 1973SOL    HW2 6819   3.016   2.845   0.658
 1974SOL     OW 6820   5.517   0.469   4.376
 1974SOL    HW1 6821   5.440   0.415   4.409
 1974SOL    HW2 6822   5.528   0.550   4.435
 1975SOL     OW 6823   3.423   0.350   3.378
 1975SOL    HW1 6824   3.365   0.363   3.458
 1975SOL    HW2 6825   3.472   0.434   3.358
 1976SOL     OW 6826   0.458   4.869   0.468
 1976SOL    HW1 6827   0.534   4.858   0.404
 1976SOL    HW2 6828   0.405   4.950   0.443
 1977SOL     OW 6829   1.794   2.834   4.879
 1977SOL    HW1 6830   1.831   2.871   4.964
 1977SOL    HW2 6831   1.832   2.743   4.862
 1978SOL     OW 6832   6.782   1.524   5.024
 1978SOL    HW1 6833   6.812   1.506   4.930
 1978SOL    HW2 6834   6.770   1.622   5.037
 1979SOL     OW 6835   5.441   4.953   3.377
 1979SOL    HW1 6836   5.433   4.854   3.391
 1979SOL    HW2 6837   5.356   4.988   3.338
 1980SOL     OW 6838   4.308   0.432   1.505
 1980SOL    HW1 6839   4.337   0.526   1.522
 1980SOL    HW2 6840   4.218   0.433   1.460
 1981SOL     OW 6841   4.555   3.261   1.683
 1981SOL    HW1 6842   4.557   3.171   1.727
 1981SOL    HW2 6843   4.488   3.319   1.730
 1982SOL     OW 6844   5.560   6.274   5.085
 1982SOL    HW1 6845   5.541   6.317   5.173
 1982SOL    HW2 6846   5.488   6.208   5.064
 1983SOL     OW 6847   0.561   3.755   3.315
 1983SOL    HW1 6848   0.654   3.718   3.315
 1983SOL    HW2 6849   0.558   3.837   3.258
 1984SOL     OW 6850   4.344   0.438   5.789
 1984SOL    HW1 6851   4.326   0.438   5.691
 1984SOL    HW2 6852   4.258   0.455   5.839
 1985SOL     OW 6853   1.590   1.128   1.604
 1985SOL    HW1 6854   1.589   1.165   1.697
 1985SOL    HW2 6855   1.667   1.166   1.554
 1986SOL     OW 6856   1.303   1.371   5.806
 1986SOL    HW1 6857   1.227   1.432   5.785
 1986SOL    HW2 6858   1.388   1.410   5.771
 1987SOL     OW 6859   2.683   2.966   6.765
 1987SOL    HW1 6860   2.758   2.905   6.741
 1987SOL    HW2 6861   2.640   3.000   6.681
 1988SOL     OW 6862   4.301   3.461   0.821
 1988SOL    HW1 6863   4.363   3.526   0.777
 1988SOL    HW2 6864   4.264   3.502   0.905
 1989SOL     OW 6865   2.531   0.509   4.264
 1989SOL    HW1 6866   2.529   0.478   4.169
 1989SOL    HW2 6867   2.604   0.460   4.313
 1990SOL     OW 6868   2.799   0.679   1.876
 1990SOL    HW1 6869   2.797   0.704   1.972
 1990SOL    HW2 6870   2.885   0.710   1.835
 1991SOL     OW 6871   3.057   5.641   4.386
 1991SOL    HW1 6872   3.094   5.567   4.329
 1991SOL    HW2 6873   2.995   5.696   4.331
 1992SOL     OW 6874   2.002   6.903   5.299
 1992SOL    HW1 6875   2.101   6.898   5.296
 1992SOL    HW2 6876   1.966   6.920   5.207
 1993SOL     OW 6877   4.001   3.453   5.106
 1993SOL    HW1 6878   3.961   3.545   5.100
 1993SOL    HW2 6879   3.930   3.387   5.129
 1994SOL     OW 6880   6.392   2.265   2.427
 1994SOL    HW1 6881   6.367   2.180   2.381
 1994SOL    HW2 6882   6.449   2.320   2.366
 1995SOL     OW 6883   5.559   2.359   1.841
 1995SOL    HW1 6884   5.648   2.392   1.871
 1995SOL    HW2 6885   5.505   2.330   1.921
 1996SOL     OW 6886   3.317   4.396   0.326
 1996SOL    HW1 6887   3.295   4.353   0.414
 1996SOL    HW2 6888   3.236   4.445   0.293
 1997SOL     OW 6889   5.433   0.795   3.643
 1997SOL    HW1 6890   5.518   0.756   3.608
 1997SOL    HW2 6891   5.416   0.759   3.735
 1998SOL     OW 6892   3.141   4.702   5.289
 1998SOL    HW1 6893   3.222   4.711   5.230
 1998SOL    HW2 6894   3.090   4.620   5.264
 1999SOL     OW 6895   2.349   1.240   1.954
 1999SOL    HW1 6896   2.288   1.226   2.033
 1999SOL    HW2 6897   2.369   1.152   1.912
 2000SOL     OW 6898   3.924   1.722   5.045
 2000SOL    HW1 6899   3.903   1.738   5.141
 2000SOL    HW2 6900   3.934   1.810   4.998
 2001SOL     OW 6901   3.086   1.975   1.047
 2001SOL    HW1 6902   2.991   2.004   1.057
 2001SOL    HW2 6903   3.103   1.950   0.952
 2002SOL     OW 6904   2.145   5.135   5.125
 2002SOL    HW1 6905   2.219   5.070   5.140
 2002SOL    HW2 6906   2.059   5.094   5.155
 2003SOL     OW 6907   6.069   6.207   3.884
 2003SOL    HW1 6908   5.997   6.276   3.895
 2003SOL    HW2 6909   6.049   6.150   3.805
 2004SOL     OW 6910   2.800   0.613   5.616
 2004SOL    HW1 6911   2.820   0.528   5.567
 2004SOL    HW2 6912   2.818   0.691   5.556
 2005SOL     OW 6913   2.477   6.248   5.890
 2005SOL    HW1 6914   2.395   6.240   5.946
 2005SOL    HW2 6915   2.524   6.160   5.887
 2006SOL     OW 6916   3.723   4.925   3.854
 2006SOL    HW1 6917   3.822   4.915   3.849
 2006SOL    HW2 6918   3.694   4.919   3.950
 2007SOL     OW 6919   5.564   5.899   0.797
 2007SOL    HW1 6920   5.553   5.802   0.819
 2007SOL    HW2 6921   5.499   5.953   0.850
 2008SOL     OW 6922   0.352   5.723   4.146
 2008SOL    HW1 6923   0.328   5.721   4.049
 2008SOL    HW2 6924   0.384   5.815   4.170
 2009SOL     OW 6925   0.252   0.139   2.066
 2009SOL    HW1 6926   0.185   0.086   2.118
 2009SOL    HW2 6927   0.210   0.172   1.982
 2010SOL     OW 6928   1.486   0.635   0.369
 2010SOL    HW1 6929   1.449   0.717   0.325
 2010SOL    HW2 6930   1.577   0.654   0.406
 2011SOL     OW 6931   7.003   2.069   5.222
 2011SOL    HW1 6932   6.918   2.053   5.172
 2011SOL    HW2 6933   0.056   2.027   5.173
 2012SOL     OW 6934   1.249   3.817   0.848
 2012SOL    HW1 6935   1.341   3.847   0.872
 2012SOL    HW2 6936   1.251   3.765   0.762
 2013SOL     OW 6937   5.038   1.534   2.215
 2013SOL    HW1 6938   5.091   1.495   2.289
 2013SOL    HW2 6939   5.092   1.604   2.168
 2014SOL     OW 6940   2.252   5.688   2.494
 2014SOL    HW1 6941   2.253   5.788   2.502
 2014SOL    HW2 6942   2.166   5.653   2.529
 2015SOL     OW 6943   3.359   0.208   7.019
 2015SOL    HW1 6944   3.416   0.135   0.030
 2015SOL    HW2 6945   3.393   0.237   6.929
 2016SOL     OW 6946   0.285   5.267   4.637
 2016SOL    HW1 6947   0.212   5.263   4.569
 2016SOL    HW2 6948   0.274   5.193   4.703
 2017SOL     OW 6949   2.899   5.771   2.592
 2017SOL    HW1 6950   2.882   5.832   2.515
 2017SOL    HW2 6951   2.926   5.825   2.672
 2018SOL     OW 6952   0.825   5.432   5.554
 2018SOL    HW1 6953   0.830   5.522   5.597
 2018SOL    HW2 6954   0.811   5.362   5.624
 2019SOL     OW 6955   6.333   1.916   2.510
 2019SOL    HW1 6956   6.408   1.917   2.576
 2019SOL    HW2 6957   6.365   1.952   2.423
 2020SOL     OW 6958   2.890   6.108   3.203
 2020SOL    HW1 6959   2.956   6.180   3.223
 2020SOL    HW2 6960   2.834   6.135   3.124
 2021SOL     OW 6961   1.118   0.868   2.154
 2021SOL    HW1 6962   1.049   0.909   2.212
 2021SOL    HW2 6963   1.140   0.776   2.187
 2022SOL     OW 6964   1.902   3.809   1.518
 2022SOL    HW1 6965   1.825   3.751   1.493
 2022SOL    HW2 6966   1.950   3.767   1.596
 2023SOL     OW 6967   6.915   0.899   5.748
 2023SOL    HW1 6968   6.964   0.964   5.690
 2023SOL    HW2 6969   6.974   0.821   5.768
 2024SOL     OW 6970   5.890   1.119   3.774
 2024SOL    HW1 6971   5.845   1.037   3.739
 2024SOL    HW2 6972   5.821   1.189   3.794
 2025SOL     OW 6973   0.061   1.322   1.858
 2025SOL    HW1 6974   0.051   1.421   1.854
 2025SOL    HW2 6975   7.004   1.278   1.821
 2026SOL     OW 6976   1.728   1.522   5.189
 2026SOL    HW1 6977   1.784   1.502   5.270
 2026SOL    HW2 6978   1.754   1.460   5.115
 2027SOL     OW 6979   0.774   1.535   2.789
 2027SOL    HW1 6980   0.681   1.500   2.802
 2027SOL    HW2 6981   0.773   1.610   2.723
 2028SOL     OW 6982   4.002   2.988   6.953
 2028SOL    HW1 6983   3.989   2.951   0.021
 2028SOL    HW2 6984   4.019   2.912   6.890
 2029SOL     OW 6985   0.788   1.085   7.020
 2029SOL    HW1 6986   0.763   1.173   0.037
 2029SOL    HW2 6987   0.707   1.045   6.975
 2030SOL     OW 6988   1.741   1.140   3.407
 2030SOL    HW1 6989   1.744   1.085   3.324
 2030SOL    HW2 6990   1.827   1.190   3.417
 2031SOL     OW 6991   5.884   0.031   1.747
 2031SOL    HW1 6992   5.859   6.959   1.742
 2031SOL    HW2 6993   5.827   0.084   1.684
 2032SOL     OW 6994   5.263   6.852   1.297
 2032SOL    HW1 6995   5.304   6.786   1.361
 2032SOL    HW2 6996   5.163   6.849   1.306
 2033SOL     OW 6997   5.588   5.044   6.710
 2033SOL    HW1 6998   5.551   5.042   6.617
 2033SOL    HW2 6999   5.586   5.138   6.745
 2034SOL     OW 7000   2.001   0.107   2.802
 2034SOL    HW1 7001   2.052   0.158   2.872
 2034SOL    HW2 7002   2.015   0.150   2.713
 2035SOL     OW 7003   1.389   2.469   2.438
 2035SOL    HW1 7004   1.307   2.437   2.486
 2035SOL    HW2 7005   1.371   2.469   2.340
 2036SOL     OW 7006   1.820   4.478   0.440
 2036SOL    HW1 7007   1.828   4.488   0.539
 2036SOL    HW2 7008   1.905   4.443   0.402
 2037SOL     OW 7009   0.047   1.352   5.947
 2037SOL    HW1 7010   0.141   1.355   5.912
 2037SOL    HW2 7011   0.008   1.444   5.943
 2038SOL     OW 7012   0.577   0.786   4.028
 2038SOL    HW1 7013   0.485   0.824   4.027
 2038SOL    HW2 7014   0.624   0.810   3.943
 2039SOL     OW 7015   0.344   4.949   2.061
 2039SOL    HW1 7016   0.309   5.014   1.993
 2039SOL    HW2 7017   0.415   4.893   2.019
 2040SOL     OW 7018   3.945   3.372   4.301
 2040SOL    HW1 7019   3.991   3.294   4.342
 2040SOL    HW2 7020   3.853   3.346   4.273
 2041SOL     OW 7021   6.349   4.237   5.719
 2041SOL    HW1 7022   6.407   4.315   5.741
 2041SOL    HW2 7023   6.253   4.262   5.730
 2042SOL     OW 7024   4.508   5.447   6.992
 2042SOL    HW1 7025   4.525   5.384   0.044
 2042SOL    HW2 7026   4.489   5.393   6.910
 2043SOL     OW 7027   5.736   4.630   1.993
 2043SOL    HW1 7028   5.785   4.693   2.052
 2043SOL    HW2 7029   5.658   4.592   2.041
 2044SOL     OW 7030   6.523   6.979   2.088
 2044SOL    HW1 7031   6.508   0.042   2.042
 2044SOL    HW2 7032   6.613   6.981   2.132
 2045SOL     OW 7033   2.320   5.200   6.207
 2045SOL    HW1 7034   2.251   5.133   6.181
 2045SOL    HW2 7035   2.411   5.166   6.185
 2046SOL     OW 7036   6.476   0.027   4.852
 2046SOL    HW1 7037   6.509   0.090   4.782
 2046SOL    HW2 7038   6.515   6.960   4.837
 2047SOL     OW 7039   5.481   2.528   0.215
 2047SOL    HW1 7040   5.449   2.621   0.194
 2047SOL    HW2 7041   5.507   2.482   0.130
 2048SOL     OW 7042   4.986   0.125   5.669
 2048SOL    HW1 7043   5.015   0.030   5.664
 2048SOL    HW2 7044   4.995   0.158   5.763
 2049SOL     OW 7045   4.772   0.533   0.201
 2049SOL    HW1 7046   4.688   0.478   0.196
 2049SOL    HW2 7047   4.799   0.560   0.109
 2050SOL     OW 7048   5.554   2.909   3.819
 2050SOL    HW1 7049   5.632   2.852   3.846
 2050SOL    HW2 7050   5.476   2.851   3.797
 2051SOL     OW 7051   1.751   5.828   0.563
 2051SOL    HW1 7052   1.752   5.729   0.578
 2051SOL    HW2 7053   1.691   5.849   0.486
 2052SOL     OW 7054   1.001   2.794   0.921
 2052SOL    HW1 7055   0.907   2.761   0.928
 2052SOL    HW2 7056   1.055   2.730   0.866
 2053SOL     OW 7057   6.218   0.634   0.194
 2053SOL    HW1 7058   6.224   0.561   0.262
 2053SOL    HW2 7059   6.309   0.672   0.178
 2054SOL     OW 7060   5.817   2.310   0.446
 2054SOL    HW1 7061   5.821   2.404   0.480
 2054SOL    HW2 7062   5.723   2.285   0.425
 2055SOL     OW 7063   5.286   2.495   4.516
 2055SOL    HW1 7064   5.204   2.498   4.574
 2055SOL    HW2 7065   5.291   2.406   4.471
 2056SOL     OW 7066   2.334   0.643   3.156
 2056SOL    HW1 7067   2.360   0.549   3.176
 2056SOL    HW2 7068   2.272   0.677   3.227
 2057SOL     OW 7069   0.178   3.478   4.228
 2057SOL    HW1 7070   0.144   3.385   4.242
 2057SOL    HW2 7071   0.209   3.515   4.316
 2058SOL     OW 7072   6.954   2.121   2.185
 2058SOL    HW1 7073   0.021   2.123   2.143
 2058SOL    HW2 7074   6.952   2.187   2.261
 2059SOL     OW 7075   1.758   1.624   6.855
 2059SOL    HW1 7076   1.675   1.591   6.900
 2059SOL    HW2 7077   1.745   1.718   6.826
 2060SOL     OW 7078   0.012   5.188   2.350
 2060SOL    HW1 7079   0.002   5.231   2.440
 2060SOL    HW2 7080   0.056   5.099   2.360
 2061SOL     OW 7081   6.783   1.477   1.864
 2061SOL    HW1 7082   6.755   1.433   1.949
 2061SOL    HW2 7083   6.756   1.421   1.786
 2062SOL     OW 7084   4.855   0.354   3.240
 2062SOL    HW1 7085   4.789   0.402   3.298
 2062SOL    HW2 7086   4.824   0.260   3.225
 2063SOL     OW 7087   2.013   2.587   6.273
 2063SOL    HW1 7088   1.936   2.574   6.335
 2063SOL    HW2 7089   2.043   2.498   6.238
 2064SOL     OW 7090   1.269   2.674   0.225
 2064SOL    HW1 7091   1.172   2.692   0.246
 2064SOL    HW2 7092   1.309   2.619   0.298
 2065SOL     OW 7093   6.117   4.002   1.564
 2065SOL    HW1 7094   6.137   3.945   1.644
 2065SOL    HW2 7095   6.125   4.099   1.589
 2066SOL     OW 7096   0.902   0.281   4.282
 2066SOL    HW1 7097   0.856   0.206   4.233
 2066SOL    HW2 7098   0.853   0.366   4.266
 2067SOL     OW 7099   6.736   7.003   1.482
 2067SOL    HW1 7100   6.705   6.970   1.392
 2067SOL    HW2 7101   6.830   6.973   1.497
 2068SOL     OW 7102   1.740   1.753   5.327
 2068SOL    HW1 7103   1.725   1.665   5.282
 2068SOL    HW2 7104   1.671   1.819   5.297
 2069SOL     OW 7105   0.645   2.497   2.104
 2069SOL    HW1 7106   0.699   2.484   2.186
 2069SOL    HW2 7107   0.609   2.590   2.102
 2070SOL     OW 7108   1.332   1.159   2.599
 2070SOL    HW1 7109   1.368   1.225   2.665
 2070SOL    HW2 7110   1.326   1.069   2.643
 2071SOL     OW 7111   1.458   6.815   4.184
 2071SOL    HW1 7112   1.539   6.874   4.191
 2071SOL    HW2 7113   1.487   6.719   4.188
 2072SOL     OW 7114   4.732   5.540   1.735
 2072SOL    HW1 7115   4.665   5.612   1.719
 2072SOL    HW2 7116   4.782   5.522   1.650
 2073SOL     OW 7117   2.941   6.957   6.067
 2073SOL    HW1 7118   2.927   6.890   5.994
 2073SOL    HW2 7119   3.020   6.929   6.122
 2074SOL     OW 7120   6.002   1.548   1.760
 2074SOL    HW1 7121   6.019   1.499   1.845
 2074SOL    HW2 7122   6.089   1.569   1.715
 2075SOL     OW 7123   4.296   3.334   0.592
 2075SOL    HW1 7124   4.293   3.389   0.675
 2075SOL    HW2 7125   4.312   3.238   0.616
 2076SOL     OW 7126   5.408   6.756   1.088
 2076SOL    HW1 7127   5.363   6.818   1.024
 2076SOL    HW2 7128   5.357   6.752   1.173
 2077SOL     OW 7129   5.369   0.964   2.731
 2077SOL    HW1 7130   5.282   0.977   2.777
 2077SOL    HW2 7131   5.401   1.052   2.695
 2078SOL     OW 7132   3.119   4.567   5.885
 2078SOL    HW1 7133   3.161   4.480   5.862
 2078SOL    HW2 7134   3.140   4.591   5.980
 2079SOL     OW 7135   5.284   1.274   3.973
 2079SOL    HW1 7136   5.277   1.372   3.993
 2079SOL    HW2 7137   5.305   1.225   4.057
 2080SOL     OW 7138   2.620   2.341   4.654
 2080SOL    HW1 7139   2.654   2.286   4.730
 2080SOL    HW2 7140   2.527   2.372   4.673
 2081SOL     OW 7141   0.601   6.536   5.414
 2081SOL    HW1 7142   0.547   6.518   5.496
 2081SOL    HW2 7143   0.540   6.559   5.339
 2082SOL     OW 7144   5.864   1.047   1.294
 2082SOL    HW1 7145   5.880   1.129   1.349
 2082SOL    HW2 7146   5.769   1.044   1.264
 2083SOL     OW 7147   3.939   4.827   6.318
 2083SOL    HW1 7148   3.862   4.837   6.381
 2083SOL    HW2 7149   3.944   4.733   6.286
 2084SOL     OW 7150   0.008   2.967   3.171
 2084SOL    HW1 7151   6.986   3.046   3.210
 2084SOL    HW2 7152   6.964   2.905   3.131
 2085SOL     OW 7153   5.064   0.601   5.676
 2085SOL    HW1 7154   5.110   0.545   5.745
 2085SOL    HW2 7155   4.970   0.620   5.705
 2086SOL     OW 7156   2.363   5.138   0.379
 2086SOL    HW1 7157   2.341   5.073   0.452
 2086SOL    HW2 7158   2.304   5.218   0.385
 2087SOL     OW 7159   5.235   0.113   3.291
 2087SOL    HW1 7160   5.273   0.021   3.304
 2087SOL    HW2 7161   5.136   0.110   3.305
 2088SOL     OW 7162   3.587   0.342   0.787
 2088SOL    HW1 7163   3.525   0.274   0.746
 2088SOL    HW2 7164   3.540   0.389   0.861
 2089SOL     OW 7165   4.475   0.521   6.456
 2089SOL    HW1 7166   4.491   0.566   6.544
 2089SOL    HW2 7167   4.462   0.591   6.386
 2090SOL     OW 7168   3.496   3.850   4.835
 2090SOL    HW1 7169   3.456   3.785   4.770
 2090SOL    HW2 7170   3.433   3.927   4.847
 2091SOL     OW 7171   1.967   5.024   1.208
 2091SOL    HW1 7172   2.039   4.969   1.251
 2091SOL    HW2 7173   1.900   4.964   1.164
 2092SOL     OW 7174   6.747   6.330   1.095
 2092SOL    HW1 7175   6.752   6.326   1.195
 2092SOL    HW2 7176   6.763   6.425   1.065
 2093SOL     OW 7177   0.972   3.064   1.988
 2093SOL    HW1 7178   0.974   3.143   2.050
 2093SOL    HW2 7179   0.877   3.037   1.971
 2094SOL     OW 7180   5.819   0.253   2.117
 2094SOL    HW1 7181   5.723   0.273   2.098
 2094SOL    HW2 7182   5.825   0.173   2.177
 2095SOL     OW 7183   5.704   5.563   5.050
 2095SOL    HW1 7184   5.751   5.528   4.969
 2095SOL    HW2 7185   5.718   5.500   5.126
 2096SOL     OW 7186   4.652   4.212   2.425
 2096SOL    HW1 7187   4.596   4.132   2.405
 2096SOL    HW2 7188   4.661   4.268   2.342
 2097SOL     OW 7189   0.389   2.590   0.172
 2097SOL    HW1 7190   0.306   2.600   0.118
 2097SOL    HW2 7191   0.468   2.588   0.112
 2098SOL     OW 7192   4.489   0.150   4.175
 2098SOL    HW1 7193   4.479   0.071   4.235
 2098SOL    HW2 7194   4.499   0.119   4.080
 2099SOL     OW 7195   3.170   1.319   3.901
 2099SOL    HW1 7196   3.140   1.413   3.889
 2099SOL    HW2 7197   3.246   1.316   3.965
 2100SOL     OW 7198   4.878   4.235   6.400
 2100SOL    HW1 7199   4.883   4.175   6.479
 2100SOL    HW2 7200   4.847   4.326   6.428
 2101SOL     OW 7201   0.338   0.088   3.365
 2101SOL    HW1 7202   0.300   0.007   3.408
 2101SOL    HW2 7203   0.317   0.087   3.267
 2102SOL     OW 7204   6.971   5.220   3.499
 2102SOL    HW1 7205   6.920   5.139   3.528
 2102SOL    HW2 7206   0.042   5.193   3.477
 2103SOL     OW 7207   3.378   3.530   6.440
 2103SOL    HW1 7208   3.458   3.558   6.494
 2103SOL    HW2 7209   3.295   3.571   6.479
 2104SOL     OW 7210   1.598   3.236   5.385
 2104SOL    HW1 7211   1.510   3.281   5.366
 2104SOL    HW2 7212   1.662   3.256   5.312
 2105SOL     OW 7213   6.215   6.092   1.873
 2105SOL    HW1 7214   6.171   6.120   1.958
 2105SOL    HW2 7215   6.304   6.052   1.894
 2106SOL     OW 7216   5.136   5.271   6.815
 2106SOL    HW1 7217   5.150   5.332   6.736
 2106SOL    HW2 7218   5.074   5.197   6.790
 2107SOL     OW 7219   4.555   4.068   5.883
 2107SOL    HW1 7220   4.637   4.115   5.915
 2107SOL    HW2 7221   4.486   4.067   5.955
 2108SOL     OW 7222   5.837   5.078   5.545
 2108SOL    HW1 7223   5.910   5.037   5.600
 2108SOL    HW2 7224   5.776   5.006   5.512
 2109SOL     OW 7225   5.646   6.422   2.483
 2109SOL    HW1 7226   5.706   6.374   2.547
 2109SOL    HW2 7227   5.556   6.435   2.524
 2110SOL     OW 7228   2.899   4.304   6.314
 2110SOL    HW1 7229   2.873   4.290   6.409
 2110SOL    HW2 7230   2.822   4.345   6.264
 2111SOL     OW 7231   1.397   3.125   0.216
 2111SOL    HW1 7232   1.306   3.090   0.193
 2111SOL    HW2 7233   1.419   3.102   0.311
 2112SOL     OW 7234   4.825   2.991   1.428
 2112SOL    HW1 7235   4.814   2.962   1.523
 2112SOL    HW2 7236   4.839   2.910   1.370
 2113SOL     OW 7237   0.637   0.389   2.881
 2113SOL    HW1 7238   0.564   0.323   2.898
 2113SOL    HW2 7239   0.673   0.422   2.969
 2114SOL     OW 7240   2.075   3.664   6.999
 2114SOL    HW1 7241   2.026   3.600   6.941
 2114SOL    HW2 7242   2.102   3.619   0.060
 2115SOL     OW 7243   1.868   4.430   2.182
 2115SOL    HW1 7244   1.895   4.390   2.095
 2115SOL    HW2 7245   1.825   4.519   2.166
 2116SOL     OW 7246   0.431   4.526   3.513
 2116SOL    HW1 7247   0.425   4.568   3.603
 2116SOL    HW2 7248   0.494   4.578   3.456
 2117SOL     OW 7249   0.762   5.115   0.966
 2117SOL    HW1 7250   0.701   5.038   0.981
 2117SOL    HW2 7251   0.809   5.138   1.051
 2118SOL     OW 7252   0.196   3.883   2.478
 2118SOL    HW1 7253   0.222   3.798   2.525
 2118SOL    HW2 7254   0.267   3.952   2.492
 2119SOL     OW 7255   2.280   5.758   1.274
 2119SOL    HW1 7256   2.342   5.807   1.336
 2119SOL    HW2 7257   2.185   5.776   1.301
 2120SOL     OW 7258   6.661   4.911   2.071
 2120SOL    HW1 7259   6.684   4.876   2.161
 2120SOL    HW2 7260   6.743   4.918   2.015
 2121SOL     OW 7261   0.177   5.574   5.293
 2121SOL    HW1 7262   0.245   5.501   5.302
 2121SOL    HW2 7263   0.217   5.650   5.241
 2122SOL     OW 7264   4.593   4.385   4.972
 2122SOL    HW1 7265   4.510   4.352   5.017
 2122SOL    HW2 7266   4.571   4.468   4.920
 2123SOL     OW 7267   6.548   4.749   3.029
 2123SOL    HW1 7268   6.506   4.762   2.939
 2123SOL    HW2 7269   6.477   4.740   3.098
 2124SOL     OW 7270   2.185   1.815   1.020
 2124SOL    HW1 7271   2.113   1.828   1.089
 2124SOL    HW2 7272   2.159   1.742   0.958
 2125SOL     OW 7273   2.971   0.634   0.456
 2125SOL    HW1 7274   2.951   0.663   0.362
 2125SOL    HW2 7275   2.890   0.593   0.496
 2126SOL     OW 7276   2.999   0.740   6.475
 2126SOL    HW1 7277   2.938   0.715   6.551
 2126SOL    HW2 7278   2.944   0.762   6.395
 2127SOL     OW 7279   5.686   3.234   4.698
 2127SOL    HW1 7280   5.692   3.327   4.734
 2127SOL    HW2 7281   5.773   3.211   4.654
 2128SOL     OW 7282   0.640   4.727   4.448
 2128SOL    HW1 7283   0.560   4.686   4.404
 2128SOL    HW2 7284   0.723   4.697   4.400
 2129SOL     OW 7285   4.178   1.827   5.794
 2129SOL    HW1 7286   4.259   1.824   5.735
 2129SOL    HW2 7287   4.157   1.922   5.818
 2130SOL     OW 7288   4.432   6.613   2.285
 2130SOL    HW1 7289   4.510   6.625   2.346
 2130SOL    HW2 7290   4.464   6.605   2.191
 2131SOL     OW 7291   6.918   1.325   0.572
 2131SOL    HW1 7292   6.951   1.419   0.582
 2131SOL    HW2 7293   6.924   1.278   0.660
 2132SOL     OW 7294   1.809   2.979   0.593
 2132SOL    HW1 7295   1.805   2.889   0.635
 2132SOL    HW2 7296   1.890   2.985   0.534
 2133SOL     OW 7297   2.809   2.600   5.807
 2133SOL    HW1 7298   2.743   2.675   5.797
 2133SOL    HW2 7299   2.811   2.570   5.903
 2134SOL     OW 7300   0.735   0.991   0.533
 2134SOL    HW1 7301   0.676   0.992   0.452
 2134SOL    HW2 7302   0.711   0.913   0.590
 2135SOL     OW 7303   0.471   4.098   4.220
 2135SOL    HW1 7304   0.435   4.081   4.128
 2135SOL    HW2 7305   0.556   4.046   4.233
 2136SOL     OW 7306   2.503   5.746   1.718
 2136SOL    HW1 7307   2.468   5.734   1.625
 2136SOL    HW2 7308   2.481   5.837   1.751
 2137SOL     OW 7309   2.387   5.378   4.065
 2137SOL    HW1 7310   2.417   5.417   3.978
 2137SOL    HW2 7311   2.465   5.336   4.112
 2138SOL     OW 7312   5.480   1.510   2.360
 2138SOL    HW1 7313   5.565   1.548   2.325
 2138SOL    HW2 7314   5.447   1.566   2.437
 2139SOL     OW 7315   3.130   1.161   5.269
 2139SOL    HW1 7316   3.221   1.146   5.308
 2139SOL    HW2 7317   3.138   1.179   5.171
 2140SOL     OW 7318   2.287   1.338   5.406
 2140SOL    HW1 7319   2.342   1.357   5.325
 2140SOL    HW2 7320   2.342   1.355   5.488
 2141SOL     OW 7321   6.402   4.400   2.044
 2141SOL    HW1 7322   6.327   4.406   1.978
 2141SOL    HW2 7323   6.393   4.316   2.097
 2142SOL     OW 7324   1.959   1.886   3.440
 2142SOL    HW1 7325   1.979   1.789   3.422
 2142SOL    HW2 7326   1.880   1.892   3.502
 2143SOL     OW 7327   1.911   4.595   0.696
 2143SOL    HW1 7328   1.925   4.627   0.791
 2143SOL    HW2 7329   1.894   4.674   0.637
 2144SOL     OW 7330   6.431   6.098   4.463
 2144SOL    HW1 7331   6.383   6.063   4.543
 2144SOL    HW2 7332   6.530   6.089   4.476
 2145SOL     OW 7333   4.057   6.401   3.976
 2145SOL    HW1 7334   4.105   6.360   4.054
 2145SOL    HW2 7335   4.124   6.437   3.911
 2146SOL     OW 7336   2.260   2.866   0.876
 2146SOL    HW1 7337   2.271   2.777   0.833
 2146SOL    HW2 7338   2.228   2.854   0.970
 2147SOL     OW 7339   5.538   1.502   5.355
 2147SOL    HW1 7340   5.572   1.412   5.327
 2147SOL    HW2 7341   5.525   1.559   5.273
 2148SOL     OW 7342   0.222   3.123   7.010
 2148SOL    HW1 7343   0.240   3.084   0.076
 2148SOL    HW2 7344   0.201   3.220   7.019
 2149SOL     OW 7345   0.606   0.406   6.956
 2149SOL    HW1 7346   0.540   0.439   6.889
 2149SOL    HW2 7347   0.603   0.306   6.960
 2150SOL     OW 7348   2.275   3.347   1.386
 2150SOL    HW1 7349   2.300   3.262   1.340
 2150SOL    HW2 7350   2.178   3.366   1.370
 2151SOL     OW 7351   1.289   5.360   0.022
 2151SOL    HW1 7352   1.370   5.400   0.065
 2151SOL    HW2 7353   1.303   5.263   0.006
 2152SOL     OW 7354   4.211   6.052   3.540
 2152SOL    HW1 7355   4.149   6.030   3.464
 2152SOL    HW2 7356   4.177   6.134   3.587
 2153SOL     OW 7357   4.877   1.262   3.513
 2153SOL    HW1 7358   4.849   1.166   3.510
 2153SOL    HW2 7359   4.976   1.268   3.505
 2154SOL     OW 7360   3.066   6.855   3.067
 2154SOL    HW1 7361   3.132   6.910   3.017
 2154SOL    HW2 7362   3.114   6.792   3.128
 2155SOL     OW 7363   4.714   6.930   1.295
 2155SOL    HW1 7364   4.645   7.000   1.285
 2155SOL    HW2 7365   4.671   6.840   1.295
 2156SOL     OW 7366   5.773   1.658   3.982
 2156SOL    HW1 7367   5.807   1.663   4.076
 2156SOL    HW2 7368   5.824   1.723   3.925
 2157SOL     OW 7369   3.471   5.409   3.575
 2157SOL    HW1 7370   3.511   5.485   3.524
 2157SOL    HW2 7371   3.542   5.343   3.599
 2158SOL     OW 7372   3.253   0.775   0.307
 2158SOL    HW1 7373   3.236   0.874   0.301
 2158SOL    HW2 7374   3.350   0.760   0.327
 2159SOL     OW 7375   1.155   0.331   5.819
 2159SOL    HW1 7376   1.211   0.256   5.856
 2159SOL    HW2 7377   1.166   0.412   5.877
 2160SOL     OW 7378   5.617   6.328   0.584
 2160SOL    HW1 7379   5.701   6.277   0.565
 2160SOL    HW2 7380   5.619   6.360   0.679
 2161SOL     OW 7381   1.597   2.839   2.562
 2161SOL    HW1 7382   1.640   2.923   2.596
 2161SOL    HW2 7383   1.645   2.809   2.479
 2162SOL     OW 7384   1.739   0.198   2.611
 2162SOL    HW1 7385   1.695   0.132   2.551
 2162SOL    HW2 7386   1.836   0.207   2.586
 2163SOL     OW 7387   1.441   3.280   1.868
 2163SOL    HW1 7388   1.399   3.199   1.827
 2163SOL    HW2 7389   1.479   3.338   1.797
 2164SOL     OW 7390   1.710   2.656   2.909
 2164SOL    HW1 7391   1.696   2.630   2.813
 2164SOL    HW2 7392   1.716   2.756   2.916
 2165SOL     OW 7393   0.333   1.803   3.958
 2165SOL    HW1 7394   0.296   1.892   3.932
 2165SOL    HW2 7395   0.381   1.811   4.045
 2166SOL     OW 7396   0.022   3.924   3.350
 2166SOL    HW1 7397   6.961   3.971   3.326
 2166SOL    HW2 7398   0.082   3.920   3.270
 2167SOL     OW 7399   2.044   1.896   4.133
 2167SOL    HW1 7400   2.133   1.936   4.155
 2167SOL    HW2 7401   1.980   1.914   4.208
 2168SOL     OW 7402   1.718   1.920   3.097
 2168SOL    HW1 7403   1.801   1.904   3.043
 2168SOL    HW2 7404   1.702   1.843   3.158
 2169SOL     OW 7405   0.118   1.006   1.944
 2169SOL    HW1 7406   0.039   1.025   1.887
 2169SOL    HW2 7407   0.162   1.092   1.970
 2170SOL     OW 7408   0.828   4.303   5.833
 2170SOL    HW1 7409   0.843   4.353   5.748
 2170SOL    HW2 7410   0.735   4.319   5.865
 2171SOL     OW 7411   0.598   5.239   0.739
 2171SOL    HW1 7412   0.641   5.216   0.826
 2171SOL    HW2 7413   0.623   5.171   0.670
 2172SOL     OW 7414   0.804   1.734   5.024
 2172SOL    HW1 7415   0.794   1.829   4.995
 2172SOL    HW2 7416   0.797   1.728   5.123
 2173SOL     OW 7417   5.308   0.477   5.162
 2173SOL    HW1 7418   5.320   0.501   5.258
 2173SOL    HW2 7419   5.307   0.378   5.151
 2174SOL     OW 7420   0.244   6.374   5.351
 2174SOL    HW1 7421   0.283   6.287   5.320
 2174SOL    HW2 7422   0.305   6.416   5.418
 2175SOL     OW 7423   3.106   3.682   5.341
 2175SOL    HW1 7424   3.203   3.676   5.318
 2175SOL    HW2 7425   3.076   3.778   5.335
 2176SOL     OW 7426   5.399   2.194   1.095
 2176SOL    HW1 7427   5.487   2.178   1.141
 2176SOL    HW2 7428   5.330   2.220   1.163
 2177SOL     OW 7429   0.266   0.567   3.528
 2177SOL    HW1 7430   0.299   0.554   3.434
 2177SOL    HW2 7431   0.176   0.526   3.538
 2178SOL     OW 7432   0.755   2.425   2.621
 2178SOL    HW1 7433   0.813   2.506   2.621
 2178SOL    HW2 7434   0.736   2.397   2.715
 2179SOL     OW 7435   1.712   4.539   6.527
 2179SOL    HW1 7436   1.641   4.471   6.508
 2179SOL    HW2 7437   1.802   4.497   6.518
 2180SOL     OW 7438   0.847   5.514   1.901
 2180SOL    HW1 7439   0.868   5.595   1.846
 2180SOL    HW2 7440   0.843   5.540   1.998
 2181SOL     OW 7441   4.014   4.854   4.106
 2181SOL    HW1 7442   4.080   4.779   4.100
 2181SOL    HW2 7443   3.957   4.855   4.023
 2182SOL     OW 7444   0.255   5.500   2.631
 2182SOL    HW1 7445   0.188   5.518   2.703
 2182SOL    HW2 7446   0.241   5.408   2.595
 2183SOL     OW 7447   3.889   2.681   0.022
 2183SOL    HW1 7448   3.942   2.719   0.098
 2183SOL    HW2 7449   3.799   2.725   0.019
 2184SOL     OW 7450   6.442   0.755   0.091
 2184SOL    HW1 7451   6.459   0.851   0.114
 2184SOL    HW2 7452   6.513   0.697   0.131
 2185SOL     OW 7453   0.312   1.259   6.806
 2185SOL    HW1 7454   0.363   1.177   6.783
 2185SOL    HW2 7455   0.227   1.234   6.852
 2186SOL     OW 7456   0.029   5.568   4.859
 2186SOL    HW1 7457   6.982   5.501   4.883
 2186SOL    HW2 7458   0.047   5.563   4.761
 2187SOL     OW 7459   0.639   5.441   3.007
 2187SOL    HW1 7460   0.564   5.413   2.947
 2187SOL    HW2 7461   0.664   5.536   2.988
 2188SOL     OW 7462   1.967   0.532   0.348
 2188SOL    HW1 7463   1.928   0.473   0.418
 2188SOL    HW2 7464   1.896   0.590   0.309
 2189SOL     OW 7465   2.713   1.615   1.509
 2189SOL    HW1 7466   2.760   1.656   1.431
 2189SOL    HW2 7467   2.681   1.688   1.571
 2190SOL     OW 7468   6.241   4.270   2.497
 2190SOL    HW1 7469   6.310   4.240   2.432
 2190SOL    HW2 7470   6.210   4.363   2.474
 2191SOL     OW 7471   2.854   0.741   6.245
 2191SOL    HW1 7472   2.775   0.792   6.279
 2191SOL    HW2 7473   2.830   0.644   6.235
 2192SOL     OW 7474   4.620   0.845   1.874
 2192SOL    HW1 7475   4.587   0.762   1.919
 2192SOL    HW2 7476   4.720   0.841   1.865
 2193SOL     OW 7477   0.251   6.971   6.254
 2193SOL    HW1 7478   0.314   6.936   6.324
 2193SOL    HW2 7479   0.252   6.910   6.175
 2194SOL     OW 7480   1.102   4.428   6.130
 2194SOL    HW1 7481   1.034   4.492   6.096
 2194SOL    HW2 7482   1.063   4.374   6.204
 2195SOL     OW 7483   0.408   4.381   6.602
 2195SOL    HW1 7484   0.421   4.286   6.575
 2195SOL    HW2 7485   0.482   4.437   6.565
 2196SOL     OW 7486   2.829   6.233   5.539
 2196SOL    HW1 7487   2.866   6.264   5.627
 2196SOL    HW2 7488   2.882   6.273   5.465
 2197SOL     OW 7489   2.737   4.748   5.569
 2197SOL    HW1 7490   2.718   4.840   5.602
 2197SOL    HW2 7491   2.727   4.745   5.470
 2198SOL     OW 7492   0.545   0.672   6.280
 2198SOL    HW1 7493   0.488   0.685   6.361
 2198SOL    HW2 7494   0.620   0.609   6.302
 2199SOL     OW 7495   4.088   6.866   4.629
 2199SOL    HW1 7496   4.002   6.815   4.639
 2199SOL    HW2 7497   4.114   6.866   4.532
 2200SOL     OW 7498   2.707   1.510   4.333
 2200SOL    HW1 7499   2.776   1.564   4.382
 2200SOL    HW2 7500   2.616   1.534   4.366
 2201SOL     OW 7501   6.477   3.881   3.838
 2201SOL    HW1 7502   6.495   3.928   3.924
 2201SOL    HW2 7503   6.403   3.927   3.789
 2202SOL     OW 7504   3.919   5.560   1.918
 2202SOL    HW1 7505   3.931   5.648   1.872
 2202SOL    HW2 7506   3.948   5.569   2.013
 2203SOL     OW 7507   2.011   3.410   1.374
 2203SOL    HW1 7508   1.970   3.335   1.322
 2203SOL    HW2 7509   1.974   3.497   1.341
 2204SOL     OW 7510   4.596   2.926   1.196
 2204SOL    HW1 7511   4.680   2.960   1.238
 2204SOL    HW2 7512   4.581   2.832   1.224
 2205SOL     OW 7513   1.750   5.539   0.545
 2205SOL    HW1 7514   1.795   5.568   0.461
 2205SOL    HW2 7515   1.656   5.510   0.525
 2206SOL     OW 7516   2.630   2.921   6.477
 2206SOL    HW1 7517   2.697   2.851   6.501
 2206SOL    HW2 7518   2.676   2.998   6.434
 2207SOL     OW 7519   4.593   6.057   0.773
 2207SOL    HW1 7520   4.540   6.090   0.695
 2207SOL    HW2 7521   4.628   5.965   0.752
 2208SOL     OW 7522   0.681   5.816   4.048
 2208SOL    HW1 7523   0.669   5.755   3.969
 2208SOL    HW2 7524   0.633   5.902   4.031
 2209SOL     OW 7525   3.019   5.464   5.030
 2209SOL    HW1 7526   3.102   5.409   5.040
 2209SOL    HW2 7527   3.022   5.540   5.094
 2210SOL     OW 7528   5.411   6.198   1.334
 2210SOL    HW1 7529   5.383   6.124   1.396
 2210SOL    HW2 7530   5.478   6.163   1.268
 2211SOL     OW 7531   6.595   0.695   1.057
 2211SOL    HW1 7532   6.570   0.737   1.145
 2211SOL    HW2 7533   6.515   0.693   0.997
 2212SOL     OW 7534   2.680   6.239   6.703
 2212SOL    HW1 7535   2.715   6.175   6.635
 2212SOL    HW2 7536   2.744   6.315   6.714
 2213SOL     OW 7537   3.788   2.103   4.170
 2213SOL    HW1 7538   3.875   2.125   4.214
 2213SOL    HW2 7539   3.717   2.093   4.239
 2214SOL     OW 7540   4.266   3.121   5.768
 2214SOL    HW1 7541   4.229   3.194   5.709
 2214SOL    HW2 7542   4.194   3.086   5.827
 2215SOL     OW 7543   4.917   0.666   6.498
 2215SOL    HW1 7544   4.855   0.627   6.431
 2215SOL    HW2 7545   4.994   0.709   6.452
 2216SOL     OW 7546   0.516   6.707   6.156
 2216SOL    HW1 7547   0.488   6.611   6.160
 2216SOL    HW2 7548   0.558   6.733   6.242
 2217SOL     OW 7549   4.046   0.485   2.868
 2217SOL    HW1 7550   4.005   0.497   2.778
 2217SOL    HW2 7551   4.015   0.558   2.929
 2218SOL     OW 7552   0.384   5.165   5.771
 2218SOL    HW1 7553   0.453   5.212   5.826
 2218SOL    HW2 7554   0.302   5.149   5.827
 2219SOL     OW 7555   5.257   1.472   0.290
 2219SOL    HW1 7556   5.256   1.483   0.191
 2219SOL    HW2 7557   5.247   1.375   0.312
 2220SOL     OW 7558   0.863   6.502   5.446
 2220SOL    HW1 7559   0.764   6.499   5.430
 2220SOL    HW2 7560   0.888   6.431   5.512
 2221SOL     OW 7561   6.961   1.120   4.931
 2221SOL    HW1 7562   6.922   1.134   4.840
 2221SOL    HW2 7563   6.953   1.204   4.984
 2222SOL     OW 7564   5.058   6.283   1.329
 2222SOL    HW1 7565   5.076   6.280   1.230
 2222SOL    HW2 7566   5.108   6.210   1.374
 2223SOL     OW 7567   6.687   0.283   5.558
 2223SOL    HW1 7568   6.591   0.262   5.576
 2223SOL    HW2 7569   6.695   0.378   5.527
 2224SOL     OW 7570   5.658   4.009   1.334
 2224SOL    HW1 7571   5.577   3.985   1.281
 2224SOL    HW2 7572   5.695   3.927   1.378
 2225SOL     OW 7573   0.605   6.608   3.440
 2225SOL    HW1 7574   0.559   6.624   3.352
 2225SOL    HW2 7575   0.608   6.693   3.492
 2226SOL     OW 7576   2.266   4.996   0.595
 2226SOL    HW1 7577   2.218   4.908   0.600
 2226SOL    HW2 7578   2.363   4.981   0.611
 2227SOL     OW 7579   4.369   2.402   2.134
 2227SOL    HW1 7580   4.407   2.431   2.046
 2227SOL    HW2 7581   4.416   2.450   2.208
 2228SOL     OW 7582   4.810   4.422   0.172
 2228SOL    HW1 7583   4.825   4.324   0.164
 2228SOL    HW2 7584   4.865   4.470   0.104
 2229SOL     OW 7585   3.351   3.401   4.661
 2229SOL    HW1 7586   3.353   3.483   4.603
 2229SOL    HW2 7587   3.260   3.392   4.703
 2230SOL     OW 7588   5.326   6.712   0.476
 2230SOL    HW1 7589   5.363   6.620   0.462
 2230SOL    HW2 7590   5.353   6.745   0.566
 2231SOL     OW 7591   0.436   1.041   0.055
 2231SOL    HW1 7592   0.432   1.022   6.981
 2231SOL    HW2 7593   0.520   1.002   0.094
 2232SOL     OW 7594   1.442   0.620   5.559
 2232SOL    HW1 7595   1.378   0.627   5.482
 2232SOL    HW2 7596   1.427   0.695   5.622
 2233SOL     OW 7597   3.305   2.965   1.156
 2233SOL    HW1 7598   3.345   3.008   1.237
 2233SOL    HW2 7599   3.214   3.004   1.140
 2234SOL     OW 7600   4.037   1.492   0.652
 2234SOL    HW1 7601   3.985   1.414   0.615
 2234SOL    HW2 7602   4.112   1.458   0.709
 2235SOL     OW 7603   2.699   0.985   2.444
 2235SOL    HW1 7604   2.652   1.071   2.464
 2235SOL    HW2 7605   2.695   0.967   2.345
 2236SOL     OW 7606   1.811   4.050   5.454
 2236SOL    HW1 7607   1.841   4.101   5.373
 2236SOL    HW2 7608   1.863   3.965   5.461
 2237SOL     OW 7609   5.464   5.076   5.086
 2237SOL    HW1 7610   5.383   5.058   5.030
 2237SOL    HW2 7611   5.527   5.136   5.036
 2238SOL     OW 7612   5.064   4.553   2.339
 2238SOL    HW1 7613   5.023   4.524   2.425
 2238SOL    HW2 7614   5.148   4.501   2.323
 2239SOL     OW 7615   3.789   7.016   3.732
 2239SOL    HW1 7616   3.885   7.005   3.707
 2239SOL    HW2 7617   3.736   0.017   3.651
 2240SOL     OW 7618   5.168   6.025   3.140
 2240SOL    HW1 7619   5.071   6.048   3.132
 2240SOL    HW2 7620   5.215   6.096   3.194
 2241SOL     OW 7621   0.447   6.834   1.728
 2241SOL    HW1 7622   0.521   6.895   1.701
 2241SOL    HW2 7623   0.432   6.842   1.827
 2242SOL     OW 7624   4.970   3.214   3.053
 2242SOL    HW1 7625   4.956   3.170   2.964
 2242SOL    HW2 7626   4.946   3.149   3.126
 2243SOL     OW 7627   1.873   6.541   0.594
 2243SOL    HW1 7628   1.846   6.538   0.690
 2243SOL    HW2 7629   1.871   6.448   0.556
 2244SOL     OW 7630   2.286   0.372   0.582
 2244SOL    HW1 7631   2.220   0.445   0.602
 2244SOL    HW2 7632   2.379   0.406   0.601
 2245SOL     OW 7633   0.441   1.226   0.613
 2245SOL    HW1 7634   0.488   1.253   0.529
 2245SOL    HW2 7635   0.479   1.276   0.691
 2246SOL     OW 7636   2.326   0.847   4.900
 2246SOL    HW1 7637   2.238   0.840   4.945
 2246SOL    HW2 7638   2.357   0.756   4.871
 2247SOL     OW 7639   3.502   4.109   2.710
 2247SOL    HW1 7640   3.597   4.103   2.679
 2247SOL    HW2 7641   3.441   4.102   2.632
 2248SOL     OW 7642   5.553   4.350   5.070
 2248SOL    HW1 7643   5.479   4.308   5.016
 2248SOL    HW2 7644   5.637   4.297   5.057
 2249SOL     OW 7645   2.670   6.502   4.125
 2249SOL    HW1 7646   2.759   6.473   4.160
 2249SOL    HW2 7647   2.600   6.483   4.194
 2250SOL     OW 7648   3.842   3.660   6.225
 2250SOL    HW1 7649   3.827   3.699   6.133
 2250SOL    HW2 7650   3.756   3.664   6.276
 2251SOL     OW 7651   5.434   6.353   6.282
 2251SOL    HW1 7652   5.520   6.314   6.314
 2251SOL    HW2 7653   5.446   6.452   6.267
 2252SOL     OW 7654   5.200   1.403   2.698
 2252SOL    HW1 7655   5.191   1.440   2.791
 2252SOL    HW2 7656   5.192   1.477   2.632
 2253SOL     OW 7657   0.613   3.291   0.795
 2253SOL    HW1 7658   0.682   3.318   0.862
 2253SOL    HW2 7659   0.537   3.245   0.841
 2254SOL     OW 7660   3.898   3.946   2.712
 2254SOL    HW1 7661   3.886   3.966   2.809
 2254SOL    HW2 7662   3.969   3.877   2.700
 2255SOL     OW 7663   2.767   4.156   5.646
 2255SOL    HW1 7664   2.860   4.122   5.659
 2255SOL    HW2 7665   2.742   4.150   5.550
 2256SOL     OW 7666   5.005   6.105   2.091
 2256SOL    HW1 7667   5.010   6.109   2.191
 2256SOL    HW2 7668   4.967   6.017   2.063
 2257SOL     OW 7669   6.872   1.725   4.643
 2257SOL    HW1 7670   6.821   1.701   4.726
 2257SOL    HW2 7671   6.968   1.701   4.655
 2258SOL     OW 7672   2.160   6.639   4.546
 2258SOL    HW1 7673   2.226   6.573   4.583
 2258SOL    HW2 7674   2.068   6.614   4.575
 2259SOL     OW 7675   6.670   2.692   4.581
 2259SOL    HW1 7676   6.732   2.614   4.586
 2259SOL    HW2 7677   6.622   2.689   4.493
 2260SOL     OW 7678   1.192   4.160   1.547
 2260SOL    HW1 7679   1.183   4.086   1.481
 2260SOL    HW2 7680   1.241   4.127   1.628
 2261SOL     OW 7681   5.785   3.432   0.285
 2261SOL    HW1 7682   5.797   3.528   0.312
 2261SOL    HW2 7683   5.739   3.382   0.358
 2262SOL     OW 7684   6.597   0.466   3.973
 2262SOL    HW1 7685   6.647   0.469   4.059
 2262SOL    HW2 7686   6.635   0.394   3.914
 2263SOL     OW 7687   1.467   4.808   0.493
 2263SOL    HW1 7688   1.467   4.907   0.509
 2263SOL    HW2 7689   1.388   4.766   0.537
 2264SOL     OW 7690   1.835   6.759   6.429
 2264SOL    HW1 7691   1.846   6.769   6.331
 2264SOL    HW2 7692   1.828   6.849   6.472
 2265SOL     OW 7693   1.282   6.780   3.905
 2265SOL    HW1 7694   1.220   6.748   3.833
 2265SOL    HW2 7695   1.282   6.715   3.980
 2266SOL     OW 7696   5.128   1.699   6.466
 2266SOL    HW1 7697   5.220   1.660   6.459
 2266SOL    HW2 7698   5.061   1.626   6.470
 2267SOL     OW 7699   4.584   2.619   4.745
 2267SOL    HW1 7700   4.597   2.535   4.797
 2267SOL    HW2 7701   4.598   2.698   4.806
 2268SOL     OW 7702   6.594   4.085   6.141
 2268SOL    HW1 7703   6.559   4.163   6.089
 2268SOL    HW2 7704   6.542   4.077   6.226
 2269SOL     OW 7705   1.194   3.274   5.069
 2269SOL    HW1 7706   1.161   3.324   5.148
 2269SOL    HW2 7707   1.269   3.213   5.097
 2270SOL     OW 7708   4.158   2.951   5.977
 2270SOL    HW1 7709   4.075   2.914   6.020
 2270SOL    HW2 7710   4.221   2.876   5.956
 2271SOL     OW 7711   6.094   4.369   6.417
 2271SOL    HW1 7712   5.998   4.344   6.419
 2271SOL    HW2 7713   6.116   4.411   6.329
 2272SOL     OW 7714   6.302   0.998   6.044
 2272SOL    HW1 7715   6.249   0.914   6.057
 2272SOL    HW2 7716   6.384   0.994   6.102
 2273SOL     OW 7717   1.971   2.816   2.610
 2273SOL    HW1 7718   2.061   2.773   2.615
 2273SOL    HW2 7719   1.901   2.745   2.610
 2274SOL     OW 7720   0.310   1.265   0.164
 2274SOL    HW1 7721   0.329   1.321   0.084
 2274SOL    HW2 7722   0.360   1.178   0.157
 2275SOL     OW 7723   6.014   4.818   2.608
 2275SOL    HW1 7724   6.051   4.733   2.571
 2275SOL    HW2 7725   6.088   4.871   2.651
 2276SOL     OW 7726   1.457   1.236   1.290
 2276SOL    HW1 7727   1.445   1.333   1.308
 2276SOL    HW2 7728   1.554   1.212   1.298
 2277SOL     OW 7729   3.529   4.018   3.493
 2277SOL    HW1 7730   3.567   3.926   3.481
 2277SOL    HW2 7731   3.437   4.021   3.456
 2278SOL     OW 7732   0.656   3.017   3.844
 2278SOL    HW1 7733   0.637   2.940   3.783
 2278SOL    HW2 7734   0.616   3.101   3.806
 2279SOL     OW 7735   6.933   5.890   6.418
 2279SOL    HW1 7736   6.847   5.931   6.451
 2279SOL    HW2 7737   7.007   5.957   6.427
 2280SOL     OW 7738   4.951   0.905   5.533
 2280SOL    HW1 7739   4.885   0.907   5.609
 2280SOL    HW2 7740   4.904   0.926   5.448
 2281SOL     OW 7741   4.612   6.358   2.411
 2281SOL    HW1 7742   4.597   6.284   2.346
 2281SOL    HW2 7743   4.657   6.435   2.365
 2282SOL     OW 7744   4.539   5.270   5.609
 2282SOL    HW1 7745   4.489   5.201   5.662
 2282SOL    HW2 7746   4.523   5.255   5.511
 2283SOL     OW 7747   1.463   0.566   3.446
 2283SOL    HW1 7748   1.431   0.640   3.504
 2283SOL    HW2 7749   1.397   0.490   3.450
 2284SOL     OW 7750   0.724   3.109   6.348
 2284SOL    HW1 7751   0.703   3.016   6.379
 2284SOL    HW2 7752   0.728   3.170   6.427
 2285SOL     OW 7753   0.993   3.784   0.340
 2285SOL    HW1 7754   0.996   3.725   0.259
 2285SOL    HW2 7755   1.080   3.830   0.351
 2286SOL     OW 7756   4.848   6.772   3.144
 2286SOL    HW1 7757   4.942   6.778   3.178
 2286SOL    HW2 7758   4.850   6.752   3.046
 2287SOL     OW 7759   2.445   0.918   3.244
 2287SOL    HW1 7760   2.473   0.968   3.326
 2287SOL    HW2 7761   2.467   0.821   3.255
 2288SOL     OW 7762   0.435   5.182   3.679
 2288SOL    HW1 7763   0.452   5.173   3.777
 2288SOL    HW2 7764   0.499   5.248   3.640
 2289SOL     OW 7765   0.680   5.356   2.045
 2289SOL    HW1 7766   0.717   5.418   1.976
 2289SOL    HW2 7767   0.646   5.409   2.123
 2290SOL     OW 7768   1.050   4.699   1.247
 2290SOL    HW1 7769   0.964   4.741   1.273
 2290SOL    HW2 7770   1.032   4.611   1.202
 2291SOL     OW 7771   3.065   1.533   6.077
 2291SOL    HW1 7772   3.030   1.589   6.152
 2291SOL    HW2 7773   2.990   1.512   6.014
 2292SOL     OW 7774   1.235   0.867   4.799
 2292SOL    HW1 7775   1.139   0.855   4.774
 2292SOL    HW2 7776   1.244   0.870   4.899
 2293SOL     OW 7777   5.166   5.241   1.665
 2293SOL    HW1 7778   5.246   5.201   1.621
 2293SOL    HW2 7779   5.195   5.300   1.741
 2294SOL     OW 7780   3.963   6.802   6.997
 2294SOL    HW1 7781   4.021   6.721   6.994
 2294SOL    HW2 7782   3.916   6.807   0.062
 2295SOL     OW 7783   6.882   2.089   1.757
 2295SOL    HW1 7784   6.943   2.164   1.781
 2295SOL    HW2 7785   6.804   2.123   1.705
 2296SOL     OW 7786   3.259   1.065   0.577
 2296SOL    HW1 7787   3.317   1.040   0.499
 2296SOL    HW2 7788   3.165   1.035   0.561
 2297SOL     OW 7789   4.559   4.452   5.566
 2297SOL    HW1 7790   4.578   4.354   5.576
 2297SOL    HW2 7791   4.534   4.471   5.471
 2298SOL     OW 7792   3.390   2.186   1.379
 2298SOL    HW1 7793   3.327   2.164   1.454
 2298SOL    HW2 7794   3.481   2.151   1.401
 2299SOL     OW 7795   5.139   6.079   0.090
 2299SOL    HW1 7796   5.186   6.003   0.045
 2299SOL    HW2 7797   5.126   6.057   0.186
 2300SOL     OW 7798   1.839   5.427   1.436
 2300SOL    HW1 7799   1.848   5.330   1.414
 2300SOL    HW2 7800   1.863   5.482   1.356
 2301SOL     OW 7801   2.866   3.566   3.158
 2301SOL    HW1 7802   2.852   3.528   3.067
 2301SOL    HW2 7803   2.914   3.654   3.150
 2302SOL     OW 7804   3.699   6.106   2.307
 2302SOL    HW1 7805   3.625   6.127   2.242
 2302SOL    HW2 7806   3.726   6.010   2.297
 2303SOL     OW 7807   0.934   3.447   5.278
 2303SOL    HW1 7808   0.889   3.359   5.268
 2303SOL    HW2 7809   0.903   3.509   5.207
 2304SOL     OW 7810   2.395   0.288   3.221
 2304SOL    HW1 7811   2.432   0.216   3.280
 2304SOL    HW2 7812   2.305   0.316   3.254
 2305SOL     OW 7813   3.776   5.483   2.291
 2305SOL    HW1 7814   3.857   5.504   2.236
 2305SOL    HW2 7815   3.762   5.557   2.358
 2306SOL     OW 7816   2.271   4.657   1.929
 2306SOL    HW1 7817   2.174   4.683   1.932
 2306SOL    HW2 7818   2.305   4.667   1.836
 2307SOL     OW 7819   1.102   3.271   3.273
 2307SOL    HW1 7820   1.163   3.278   3.352
 2307SOL    HW2 7821   1.053   3.357   3.261
 2308SOL     OW 7822   0.838   0.823   6.626
 2308SOL    HW1 7823   0.930   0.821   6.587
 2308SOL    HW2 7824   0.789   0.902   6.590
 2309SOL     OW 7825   3.293   5.418   0.350
 2309SOL    HW1 7826   3.274   5.390   0.256
 2309SOL    HW2 7827   3.385   5.455   0.356
 2310SOL     OW 7828   6.059   0.212   1.868
 2310SOL    HW1 7829   5.978   0.169   1.829
 2310SOL    HW2 7830   6.038   0.306   1.894
 2311SOL     OW 7831   2.667   0.018   2.247
 2311SOL    HW1 7832   2.636   7.012   2.337
 2311SOL    HW2 7833   2.741   0.084   2.257
 2312SOL     OW 7834   3.712   0.048   2.862
 2312SOL    HW1 7835   3.675   7.015   2.935
 2312SOL    HW2 7836   3.780   0.111   2.899
 2313SOL     OW 7837   5.034   4.094   2.251
 2313SOL    HW1 7838   5.034   4.155   2.172
 2313SOL    HW2 7839   4.960   4.027   2.243
 2314SOL     OW 7840   5.796   0.550   3.774
 2314SOL    HW1 7841   5.730   0.604   3.826
 2314SOL    HW2 7842   5.886   0.594   3.778
 2315SOL     OW 7843   4.971   3.816   5.969
 2315SOL    HW1 7844   4.980   3.913   5.991
 2315SOL    HW2 7845   4.958   3.805   5.871
 2316SOL     OW 7846   2.693   0.824   5.889
 2316SOL    HW1 7847   2.781   0.787   5.919
 2316SOL    HW2 7848   2.693   0.833   5.790
 2317SOL     OW 7849   6.533   6.183   3.627
 2317SOL    HW1 7850   6.472   6.188   3.548
 2317SOL    HW2 7851   6.481   6.156   3.708
 2318SOL     OW 7852   2.105   3.716   4.649
 2318SOL    HW1 7853   2.093   3.794   4.587
 2318SOL    HW2 7854   2.199   3.717   4.686
 2319SOL     OW 7855   2.686   5.268   4.724
 2319SOL    HW1 7856   2.768   5.325   4.727
 2319SOL    HW2 7857   2.661   5.250   4.629
 2320SOL     OW 7858   1.159   3.018   5.260
 2320SOL    HW1 7859   1.139   3.064   5.174
 2320SOL    HW2 7860   1.171   3.086   5.333
 2321SOL     OW 7861   2.793   4.686   6.465
 2321SOL    HW1 7862   2.867   4.628   6.498
 2321SOL    HW2 7863   2.716   4.629   6.436
 2322SOL     OW 7864   2.098   3.704   2.184
 2322SOL    HW1 7865   2.003   3.681   2.163
 2322SOL    HW2 7866   2.158   3.634   2.145
 2323SOL     OW 7867   3.282   5.107   2.177
 2323SOL    HW1 7868   3.310   5.019   2.137
 2323SOL    HW2 7869   3.266   5.173   2.104
 2324SOL     OW 7870   6.801   6.176   1.740
 2324SOL    HW1 7871   6.805   6.147   1.644
 2324SOL    HW2 7872   6.823   6.098   1.799
 2325SOL     OW 7873   0.037   5.174   1.519
 2325SOL    HW1 7874   0.133   5.148   1.513
 2325SOL    HW2 7875   7.005   5.093   1.538
 2326SOL     OW 7876   1.639   6.124   6.634
 2326SOL    HW1 7877   1.562   6.061   6.628
 2326SOL    HW2 7878   1.617   6.197   6.699
 2327SOL     OW 7879   6.954   0.568   2.972
 2327SOL    HW1 7880   6.873   0.530   2.928
 2327SOL    HW2 7881   6.933   0.660   3.005
 2328SOL     OW 7882   1.603   1.636   2.198
 2328SOL    HW1 7883   1.667   1.599   2.265
 2328SOL    HW2 7884   1.640   1.721   2.160
 2329SOL     OW 7885   0.392   4.363   4.261
 2329SOL    HW1 7886   0.415   4.267   4.252
 2329SOL    HW2 7887   0.305   4.381   4.214
 2330SOL     OW 7888   0.209   3.172   0.519
 2330SOL    HW1 7889   0.303   3.205   0.532
 2330SOL    HW2 7890   0.153   3.244   0.480
 2331SOL     OW 7891   3.321   5.348   0.092
 2331SOL    HW1 7892   3.405   5.392   0.060
 2331SOL    HW2 7893   3.268   5.316   0.013
 2332SOL     OW 7894   5.772   0.087   5.821
 2332SOL    HW1 7895   5.713   0.007   5.833
 2332SOL    HW2 7896   5.806   0.117   5.910
 2333SOL     OW 7897   6.701   5.090   2.940
 2333SOL    HW1 7898   6.715   4.993   2.961
 2333SOL    HW2 7899   6.744   5.145   3.011
 2334SOL     OW 7900   1.351   1.201   6.420
 2334SOL    HW1 7901   1.420   1.136   6.389
 2334SOL    HW2 7902   1.260   1.164   6.402
 2335SOL     OW 7903   5.984   1.121   4.636
 2335SOL    HW1 7904   5.894   1.157   4.658
 2335SOL    HW2 7905   6.034   1.187   4.580
 2336SOL     OW 7906   2.953   1.891   3.809
 2336SOL    HW1 7907   3.015   1.813   3.817
 2336SOL    HW2 7908   2.940   1.913   3.712
 2337SOL     OW 7909   4.216   1.405   1.689
 2337SOL    HW1 7910   4.135   1.368   1.643
 2337SOL    HW2 7911   4.249   1.338   1.756
 2338SOL     OW 7912   1.077   4.036   4.349
 2338SOL    HW1 7913   1.169   4.070   4.328
 2338SOL    HW2 7914   1.063   3.947   4.304
 2339SOL     OW 7915   3.069   3.671   3.686
 2339SOL    HW1 7916   3.149   3.662   3.626
 2339SOL    HW2 7917   2.987   3.646   3.634
 2340SOL     OW 7918   0.222   4.694   6.877
 2340SOL    HW1 7919   0.293   4.632   6.910
 2340SOL    HW2 7920   0.148   4.640   6.834
 2341SOL     OW 7921   2.110   4.629   2.508
 2341SOL    HW1 7922   2.044   4.630   2.583
 2341SOL    HW2 7923   2.110   4.719   2.463
 2342SOL     OW 7924   1.949   6.847   4.354
 2342SOL    HW1 7925   2.036   6.804   4.328
 2342SOL    HW2 7926   1.967   6.917   4.424
 2343SOL     OW 7927   2.546   6.386   2.821
 2343SOL    HW1 7928   2.570   6.390   2.724
 2343SOL    HW2 7929   2.447   6.371   2.830
 2344SOL     OW 7930   6.956   5.412   0.068
 2344SOL    HW1 7931   6.956   5.427   6.993
 2344SOL    HW2 7932   6.900   5.482   0.112
 2345SOL     OW 7933   2.821   5.511   4.564
 2345SOL    HW1 7934   2.758   5.583   4.593
 2345SOL    HW2 7935   2.899   5.552   4.517
 2346SOL     OW 7936   3.901   3.106   5.507
 2346SOL    HW1 7937   3.843   3.139   5.581
 2346SOL    HW2 7938   3.944   3.184   5.462
 2347SOL     OW 7939   1.434   2.121   1.474
 2347SOL    HW1 7940   1.522   2.086   1.508
 2347SOL    HW2 7941   1.390   2.174   1.546
 2348SOL     OW 7942   1.942   6.310   3.932
 2348SOL    HW1 7943   1.961   6.397   3.887
 2348SOL    HW2 7944   1.869   6.322   3.999
 2349SOL     OW 7945   0.755   4.338   6.505
 2349SOL    HW1 7946   0.702   4.422   6.495
 2349SOL    HW2 7947   0.711   4.263   6.455
 2350SOL     OW 7948   6.127   4.137   6.259
 2350SOL    HW1 7949   6.160   4.166   6.169
 2350SOL    HW2 7950   6.033   4.168   6.271
 2351SOL     OW 7951   3.435   4.897   3.833
 2351SOL    HW1 7952   3.527   4.891   3.795
 2351SOL    HW2 7953   3.407   4.993   3.837
 2352SOL     OW 7954   6.532   2.896   3.350
 2352SOL    HW1 7955   6.612   2.943   3.387
 2352SOL    HW2 7956   6.546   2.879   3.252
 2353SOL     OW 7957   4.314   4.669   4.511
 2353SOL    HW1 7958   4.394   4.714   4.470
 2353SOL    HW2 7959   4.344   4.608   4.584
 2354SOL     OW 7960   2.211   2.141   4.593
 2354SOL    HW1 7961   2.186   2.237   4.589
 2354SOL    HW2 7962   2.139   2.090   4.641
 2355SOL     OW 7963   2.036   6.289   5.253
 2355SOL    HW1 7964   2.018   6.387   5.255
 2355SOL    HW2 7965   1.962   6.240   5.300
 2356SOL     OW 7966   1.027   2.988   6.648
 2356SOL    HW1 7967   1.020   2.943   6.559
 2356SOL    HW2 7968   1.080   3.072   6.639
 2357SOL     OW 7969   3.844   0.737   2.014
 2357SOL    HW1 7970   3.904   0.804   2.058
 2357SOL    HW2 7971   3.843   0.653   2.067
 2358SOL     OW 7972   2.893   5.150   5.454
 2358SOL    HW1 7973   2.927   5.083   5.388
 2358SOL    HW2 7974   2.799   5.126   5.479
 2359SOL     OW 7975   0.625   0.928   5.846
 2359SOL    HW1 7976   0.574   0.877   5.776
 2359SOL    HW2 7977   0.722   0.901   5.842
 2360SOL     OW 7978   6.215   3.609   0.707
 2360SOL    HW1 7979   6.252   3.645   0.621
 2360SOL    HW2 7980   6.118   3.586   0.695
 2361SOL     OW 7981   3.189   1.184   6.591
 2361SOL    HW1 7982   3.106   1.216   6.636
 2361SOL    HW2 7983   3.165   1.115   6.522
 2362SOL     OW 7984   3.029   6.133   3.733
 2362SOL    HW1 7985   3.035   6.034   3.746
 2362SOL    HW2 7986   2.933   6.159   3.724
 2363SOL     OW 7987   3.542   1.851   3.424
 2363SOL    HW1 7988   3.471   1.780   3.424
 2363SOL    HW2 7989   3.585   1.855   3.514
 2364SOL     OW 7990   1.664   2.767   2.307
 2364SOL    HW1 7991   1.715   2.808   2.231
 2364SOL    HW2 7992   1.582   2.722   2.272
 2365SOL     OW 7993   6.373   1.927   6.414
 2365SOL    HW1 7994   6.456   1.979   6.395
 2365SOL    HW2 7995   6.293   1.982   6.389
 2366SOL     OW 7996   2.946   5.030   0.018
 2366SOL    HW1 7997   2.924   5.124   7.016
 2366SOL    HW2 7998   2.885   4.967   6.995
 2367SOL     OW 7999   1.864   3.250   0.975
 2367SOL    HW1 8000   1.786   3.243   0.913
 2367SOL    HW2 8001   1.941   3.292   0.927
 2368SOL     OW 8002   5.624   6.658   4.854
 2368SOL    HW1 8003   5.553   6.587   4.845
 2368SOL    HW2 8004   5.580   6.747   4.867
 2369SOL     OW 8005   2.149   0.091   4.446
 2369SOL    HW1 8006   2.060   0.069   4.484
 2369SOL    HW2 8007   2.156   0.189   4.430
 2370SOL     OW 8008   5.526   3.140   0.112
 2370SOL    HW1 8009   5.482   3.050   0.109
 2370SOL    HW2 8010   5.616   3.132   0.154
 2371SOL     OW 8011   2.404   6.852   2.266
 2371SOL    HW1 8012   2.417   6.847   2.366
 2371SOL    HW2 8013   2.415   6.946   2.236
 2372SOL     OW 8014   6.297   2.465   2.167
 2372SOL    HW1 8015   6.214   2.503   2.209
 2372SOL    HW2 8016   6.372   2.531   2.176
 2373SOL     OW 8017   1.393   3.659   5.926
 2373SOL    HW1 8018   1.484   3.617   5.922
 2373SOL    HW2 8019   1.356   3.668   5.834
 2374SOL     OW 8020   6.822   2.454   5.056
 2374SOL    HW1 8021   6.864   2.388   4.993
 2374SOL    HW2 8022   6.876   2.538   5.058
 2375SOL     OW 8023   3.368   5.142   5.970
 2375SOL    HW1 8024   3.430   5.098   6.036
 2375SOL    HW2 8025   3.420   5.174   5.892
 2376SOL     OW 8026   6.293   3.530   4.206
 2376SOL    HW1 8027   6.204   3.485   4.201
 2376SOL    HW2 8028   6.350   3.502   4.129
 2377SOL     OW 8029   3.836   3.953   3.763
 2377SOL    HW1 8030   3.836   3.993   3.855
 2377SOL    HW2 8031   3.744   3.960   3.724
 2378SOL     OW 8032   4.885   1.830   0.270
 2378SOL    HW1 8033   4.848   1.823   0.178
 2378SOL    HW2 8034   4.811   1.850   0.334
 2379SOL     OW 8035   6.774   0.883   0.513
 2379SOL    HW1 8036   6.710   0.817   0.552
 2379SOL    HW2 8037   6.725   0.964   0.483
 2380SOL     OW 8038   6.820   2.425   0.196
 2380SOL    HW1 8039   6.794   2.330   0.212
 2380SOL    HW2 8040   6.750   2.470   0.140
 2381SOL     OW 8041   2.559   5.991   2.836
 2381SOL    HW1 8042   2.479   6.040   2.801
 2381SOL    HW2 8043   2.600   6.044   2.911
 2382SOL     OW 8044   1.686   3.826   4.223
 2382SOL    HW1 8045   1.633   3.911   4.228
 2382SOL    HW2 8046   1.768   3.835   4.279
 2383SOL     OW 8047   6.748   0.216   1.087
 2383SOL    HW1 8048   6.724   0.252   0.997
 2383SOL    HW2 8049   6.765   0.118   1.081
 2384SOL     OW 8050   5.328   1.661   2.560
 2384SOL    HW1 8051   5.277   1.722   2.500
 2384SOL    HW2 8052   5.393   1.714   2.614
 2385SOL     OW 8053   6.883   0.238   6.629
 2385SOL    HW1 8054   6.825   0.214   6.707
 2385SOL    HW2 8055   6.856   0.328   6.594
 2386SOL     OW 8056   5.066   6.145   4.233
 2386SOL    HW1 8057   5.039   6.069   4.174
 2386SOL    HW2 8058   5.076   6.112   4.327
 2387SOL     OW 8059   1.995   1.218   3.869
 2387SOL    HW1 8060   2.033   1.141   3.920
 2387SOL    HW2 8061   1.895   1.215   3.874
 2388SOL     OW 8062   6.911   2.319   3.705
 2388SOL    HW1 8063   6.946   2.399   3.656
 2388SOL    HW2 8064   6.826   2.343   3.751
 2389SOL     OW 8065   4.163   4.729   3.296
 2389SOL    HW1 8066   4.148   4.726   3.197
 2389SOL    HW2 8067   4.244   4.676   3.319
 2390SOL     OW 8068   3.663   2.931   3.173
 2390SOL    HW1 8069   3.693   2.896   3.262
 2390SOL    HW2 8070   3.734   2.989   3.134
 2391SOL     OW 8071   5.687   4.493   6.325
 2391SOL    HW1 8072   5.729   4.512   6.413
 2391SOL    HW2 8073   5.620   4.420   6.335
 2392SOL     OW 8074   3.183   6.875   6.218
 2392SOL    HW1 8075   3.279   6.851   6.202
 2392SOL    HW2 8076   3.163   6.869   6.315
 2393SOL     OW 8077   5.369   3.911   6.726
 2393SOL    HW1 8078   5.331   3.928   6.635
 2393SOL    HW2 8079   5.467   3.895   6.719
 2394SOL     OW 8080   0.574   3.680   4.659
 2394SOL    HW1 8081   0.612   3.710   4.572
 2394SOL    HW2 8082   0.476   3.702   4.662
 2395SOL     OW 8083   4.910   6.934   6.352
 2395SOL    HW1 8084   4.837   7.000   6.337
 2395SOL    HW2 8085   4.976   6.940   6.277
 2396SOL     OW 8086   3.456   5.000   1.208
 2396SOL    HW1 8087   3.494   5.092   1.218
 2396SOL    HW2 8088   3.356   5.005   1.204
 2397SOL     OW 8089   0.730   4.325   4.803
 2397SOL    HW1 8090   0.652   4.380   4.835
 2397SOL    HW2 8091   0.754   4.257   4.872
 2398SOL     OW 8092   4.703   4.012   6.949
 2398SOL    HW1 8093   4.606   4.036   6.947
 2398SOL    HW2 8094   4.720   3.935   6.887
 2399SOL     OW 8095   4.711   0.840   0.884
 2399SOL    HW1 8096   4.692   0.908   0.955
 2399SOL    HW2 8097   4.697   0.882   0.794
 2400SOL     OW 8098   2.849   3.478   0.822
 2400SOL    HW1 8099   2.877   3.482   0.918
 2400SOL    HW2 8100   2.863   3.385   0.788
 2401SOL     OW 8101   5.473   6.467   0.408
 2401SOL    HW1 8102   5.535   6.426   0.474
 2401SOL    HW2 8103   5.482   6.420   0.320
 2402SOL     OW 8104   0.634   0.424   4.589
 2402SOL    HW1 8105   0.694   0.370   4.647
 2402SOL    HW2 8106   0.541   0.388   4.594
 2403SOL     OW 8107   1.364   2.462   6.209
 2403SOL    HW1 8108   1.435   2.529   6.188
 2403SOL    HW2 8109   1.406   2.378   6.243
 2404SOL     OW 8110   2.555   1.166   1.215
 2404SOL    HW1 8111   2.491   1.231   1.257
 2404SOL    HW2 8112   2.514   1.127   1.133
 2405SOL     OW 8113   3.493   3.542   2.451
 2405SOL    HW1 8114   3.557   3.599   2.503
 2405SOL    HW2 8115   3.530   3.524   2.360
 2406SOL     OW 8116   3.336   1.223   1.058
 2406SOL    HW1 8117   3.354   1.155   0.987
 2406SOL    HW2 8118   3.423   1.260   1.091
 2407SOL     OW 8119   5.568   2.122   3.443
 2407SOL    HW1 8120   5.652   2.172   3.424
 2407SOL    HW2 8121   5.519   2.166   3.518
 2408SOL     OW 8122   4.598   4.387   2.225
 2408SOL    HW1 8123   4.573   4.344   2.138
 2408SOL    HW2 8124   4.684   4.437   2.213
 2409SOL     OW 8125   2.315   4.382   1.974
 2409SOL    HW1 8126   2.334   4.477   1.949
 2409SOL    HW2 8127   2.216   4.369   1.980
 2410SOL     OW 8128   3.562   2.902   4.392
 2410SOL    HW1 8129   3.586   2.891   4.489
 2410SOL    HW2 8130   3.521   2.991   4.377
 2411SOL     OW 8131   5.195   6.267   4.914
 2411SOL    HW1 8132   5.151   6.244   5.001
 2411SOL    HW2 8133   5.136   6.329   4.862
 2412SOL     OW 8134   5.237   4.472   1.435
 2412SOL    HW1 8135   5.245   4.382   1.479
 2412SOL    HW2 8136   5.268   4.543   1.499
 2413SOL     OW 8137   6.088   0.939   1.700
 2413SOL    HW1 8138   6.185   0.915   1.706
 2413SOL    HW2 8139   6.034   0.858   1.677
 2414SOL     OW 8140   4.930   4.267   3.521
 2414SOL    HW1 8141   4.905   4.364   3.520
 2414SOL    HW2 8142   5.002   4.251   3.588
 2415SOL     OW 8143   6.198   1.384   2.996
 2415SOL    HW1 8144   6.253   1.421   2.920
 2415SOL    HW2 8145   6.257   1.333   3.058
 2416SOL     OW 8146   5.243   2.199   5.421
 2416SOL    HW1 8147   5.334   2.236   5.441
 2416SOL    HW2 8148   5.252   2.121   5.359
 2417SOL     OW 8149   3.111   3.286   4.777
 2417SOL    HW1 8150   3.079   3.371   4.736
 2417SOL    HW2 8151   3.131   3.301   4.874
 2418SOL     OW 8152   3.416   3.224   3.871
 2418SOL    HW1 8153   3.448   3.190   3.959
 2418SOL    HW2 8154   3.349   3.297   3.885
 2419SOL     OW 8155   0.159   6.576   3.594
 2419SOL    HW1 8156   0.109   6.528   3.666
 2419SOL    HW2 8157   0.231   6.632   3.635
 2420SOL     OW 8158   3.215   0.296   2.214
 2420SOL    HW1 8159   3.158   0.359   2.161
 2420SOL    HW2 8160   3.220   0.208   2.167
 2421SOL     OW 8161   2.174   2.565   4.920
 2421SOL    HW1 8162   2.139   2.577   4.827
 2421SOL    HW2 8163   2.103   2.590   4.986
 2422SOL     OW 8164   4.976   1.458   0.545
 2422SOL    HW1 8165   4.911   1.473   0.620
 2422SOL    HW2 8166   5.028   1.374   0.563
 2423SOL     OW 8167   2.492   6.348   1.915
 2423SOL    HW1 8168   2.561   6.332   1.844
 2423SOL    HW2 8169   2.431   6.422   1.886
 2424SOL     OW 8170   6.587   0.705   0.545
 2424SOL    HW1 8171   6.643   0.700   0.628
 2424SOL    HW2 8172   6.503   0.754   0.564
 2425SOL     OW 8173   5.879   0.157   4.190
 2425SOL    HW1 8174   5.848   0.247   4.221
 2425SOL    HW2 8175   5.837   0.086   4.246
 2426SOL     OW 8176   2.004   5.097   5.510
 2426SOL    HW1 8177   1.917   5.101   5.459
 2426SOL    HW2 8178   1.989   5.053   5.598
 2427SOL     OW 8179   5.909   5.840   5.144
 2427SOL    HW1 8180   5.894   5.939   5.142
 2427SOL    HW2 8181   5.848   5.799   5.211
 2428SOL     OW 8182   0.873   0.861   1.526
 2428SOL    HW1 8183   0.805   0.826   1.462
 2428SOL    HW2 8184   0.947   0.794   1.537
 2429SOL     OW 8185   5.521   5.909   1.784
 2429SOL    HW1 8186   5.586   5.979   1.813
 2429SOL    HW2 8187   5.483   5.864   1.865
 2430SOL     OW 8188   5.996   0.959   2.491
 2430SOL    HW1 8189   6.019   0.985   2.398
 2430SOL    HW2 8190   5.910   0.908   2.492
 2431SOL     OW 8191   4.392   1.066   2.643
 2431SOL    HW1 8192   4.370   1.097   2.550
 2431SOL    HW2 8193   4.350   1.127   2.709
 2432SOL     OW 8194   4.588   6.592   1.956
 2432SOL    HW1 8195   4.591   6.492   1.963
 2432SOL    HW2 8196   4.527   6.619   1.882
 2433SOL     OW 8197   4.516   0.930   6.732
 2433SOL    HW1 8198   4.492   1.018   6.693
 2433SOL    HW2 8199   4.433   0.881   6.760
 2434SOL     OW 8200   3.974   0.787   5.716
 2434SOL    HW1 8201   3.939   0.832   5.634
 2434SOL    HW2 8202   3.958   0.688   5.709
 2435SOL     OW 8203   5.843   6.169   5.460
 2435SOL    HW1 8204   5.855   6.197   5.555
 2435SOL    HW2 8205   5.746   6.172   5.436
 2436SOL     OW 8206   2.051   6.024   0.087
 2436SOL    HW1 8207   2.135   6.039   0.034
 2436SOL    HW2 8208   1.973   6.059   0.036
 2437SOL     OW 8209   6.415   6.845   5.989
 2437SOL    HW1 8210   6.371   6.761   5.956
 2437SOL    HW2 8211   6.514   6.832   5.994
 2438SOL     OW 8212   2.656   2.433   0.622
 2438SOL    HW1 8213   2.718   2.479   0.686
 2438SOL    HW2 8214   2.671   2.334   0.627
 2439SOL     OW 8215   6.677   4.495   6.129
 2439SOL    HW1 8216   6.771   4.509   6.097
 2439SOL    HW2 8217   6.638   4.416   6.082
 2440SOL     OW 8218   5.219   5.312   5.762
 2440SOL    HW1 8219   5.289   5.354   5.818
 2440SOL    HW2 8220   5.129   5.329   5.802
 2441SOL     OW 8221   6.029   2.111   1.063
 2441SOL    HW1 8222   6.066   2.020   1.047
 2441SOL    HW2 8223   6.100   2.171   1.099
 2442SOL     OW 8224   0.941   3.832   5.131
 2442SOL    HW1 8225   0.988   3.856   5.216
 2442SOL    HW2 8226   0.976   3.888   5.056
 2443SOL     OW 8227   3.056   4.074   6.320
 2443SOL    HW1 8228   3.002   4.158   6.308
 2443SOL    HW2 8229   3.121   4.087   6.395
 2444SOL     OW 8230   2.065   4.208   5.844
 2444SOL    HW1 8231   2.075   4.110   5.827
 2444SOL    HW2 8232   2.065   4.225   5.942
 2445SOL     OW 8233   0.552   0.794   0.696
 2445SOL    HW1 8234   0.514   0.883   0.722
 2445SOL    HW2 8235   0.485   0.744   0.642
 2446SOL     OW 8236   6.303   4.689   4.949
 2446SOL    HW1 8237   6.288   4.741   4.865
 2446SOL    HW2 8238   6.320   4.752   5.025
 2447SOL     OW 8239   0.689   1.479   0.643
 2447SOL    HW1 8240   0.779   1.441   0.665
 2447SOL    HW2 8241   0.694   1.578   0.637
 2448SOL     OW 8242   1.052   6.991   4.587
 2448SOL    HW1 8243   1.002   6.949   4.663
 2448SOL    HW2 8244   1.025   0.062   4.578
 2449SOL     OW 8245   6.910   3.431   5.981
 2449SOL    HW1 8246   6.866   3.390   5.901
 2449SOL    HW2 8247   6.920   3.529   5.967
 2450SOL     OW 8248   2.314   4.497   2.677
 2450SOL    HW1 8249   2.300   4.399   2.691
 2450SOL    HW2 8250   2.267   4.526   2.594
 2451SOL     OW 8251   2.495   5.973   3.480
 2451SOL    HW1 8252   2.555   5.944   3.555
 2451SOL    HW2 8253   2.429   5.901   3.462
 2452SOL     OW 8254   1.221   2.908   3.693
 2452SOL    HW1 8255   1.291   2.951   3.751
 2452SOL    HW2 8256   1.182   2.977   3.632
 2453SOL     OW 8257   6.514   4.655   1.445
 2453SOL    HW1 8258   6.600   4.615   1.415
 2453SOL    HW2 8259   6.445   4.643   1.373
 2454SOL     OW 8260   3.142   0.734   1.849
 2454SOL    HW1 8261   3.202   0.683   1.911
 2454SOL    HW2 8262   3.173   0.829   1.843
 2455SOL     OW 8263   5.396   5.721   0.365
 2455SOL    HW1 8264   5.373   5.810   0.325
 2455SOL    HW2 8265   5.397   5.728   0.464
 2456SOL     OW 8266   5.138   5.787   1.745
 2456SOL    HW1 8267   5.098   5.696   1.733
 2456SOL    HW2 8268   5.208   5.783   1.816
 2457SOL     OW 8269   5.373   6.624   1.365
 2457SOL    HW1 8270   5.292   6.569   1.346
 2457SOL    HW2 8271   5.452   6.565   1.381
 2458SOL     OW 8272   1.038   5.194   2.905
 2458SOL    HW1 8273   1.101   5.202   2.982
 2458SOL    HW2 8274   0.945   5.218   2.936
 2459SOL     OW 8275   1.925   0.350   0.558
 2459SOL    HW1 8276   1.983   0.276   0.592
 2459SOL    HW2 8277   1.856   0.372   0.627
 2460SOL     OW 8278   3.154   5.687   1.497
 2460SOL    HW1 8279   3.218   5.734   1.558
 2460SOL    HW2 8280   3.151   5.590   1.521
 2461SOL     OW 8281   5.305   0.732   2.227
 2461SOL    HW1 8282   5.216   0.695   2.252
 2461SOL    HW2 8283   5.360   0.660   2.184
 2462SOL     OW 8284   1.797   5.301   6.523
 2462SOL    HW1 8285   1.780   5.393   6.488
 2462SOL    HW2 8286   1.711   5.263   6.559
 2463SOL     OW 8287   6.300   2.201   4.019
 2463SOL    HW1 8288   6.203   2.210   4.039
 2463SOL    HW2 8289   6.313   2.182   3.922
 2464SOL     OW 8290   1.126   3.253   1.197
 2464SOL    HW1 8291   1.099   3.165   1.158
 2464SOL    HW2 8292   1.206   3.288   1.148
 2465SOL     OW 8293   6.360   5.930   3.003
 2465SOL    HW1 8294   6.391   5.968   3.090
 2465SOL    HW2 8295   6.314   6.002   2.950
 2466SOL     OW 8296   3.647   1.857   2.758
 2466SOL    HW1 8297   3.695   1.943   2.778
 2466SOL    HW2 8298   3.570   1.875   2.696
 2467SOL     OW 8299   6.948   0.909   6.354
 2467SOL    HW1 8300   6.890   0.828   6.346
 2467SOL    HW2 8301   6.919   0.976   6.286
 2468SOL     OW 8302   0.198   5.315   1.325
 2468SOL    HW1 8303   0.105   5.311   1.362
 2468SOL    HW2 8304   0.211   5.401   1.276
 2469SOL     OW 8305   2.241   2.763   5.799
 2469SOL    HW1 8306   2.252   2.789   5.704
 2469SOL    HW2 8307   2.151   2.791   5.832
 2470SOL     OW 8308   5.177   2.934   0.353
 2470SOL    HW1 8309   5.191   2.835   0.357
 2470SOL    HW2 8310   5.094   2.954   0.300
 2471SOL     OW 8311   1.375   0.437   2.669
 2471SOL    HW1 8312   1.471   0.452   2.644
 2471SOL    HW2 8313   1.326   0.524   2.665
 2472SOL     OW 8314   6.233   1.638   3.294
 2472SOL    HW1 8315   6.214   1.576   3.218
 2472SOL    HW2 8316   6.160   1.706   3.302
 2473SOL     OW 8317   0.970   5.996   4.736
 2473SOL    HW1 8318   0.944   5.900   4.752
 2473SOL    HW2 8319   0.932   6.027   4.650
 2474SOL     OW 8320   6.701   4.864   4.931
 2474SOL    HW1 8321   6.775   4.930   4.938
 2474SOL    HW2 8322   6.687   4.820   5.020
 2475SOL     OW 8323   4.629   1.861   0.109
 2475SOL    HW1 8324   4.628   1.804   0.027
 2475SOL    HW2 8325   4.539   1.902   0.123
 2476SOL     OW 8326   1.124   1.995   4.364
 2476SOL    HW1 8327   1.216   1.958   4.376
 2476SOL    HW2 8328   1.118   2.085   4.407
 2477SOL     OW 8329   4.404   4.922   1.064
 2477SOL    HW1 8330   4.305   4.935   1.057
 2477SOL    HW2 8331   4.444   4.994   1.120
 2478SOL     OW 8332   6.769   6.973   3.120
 2478SOL    HW1 8333   6.707   6.931   3.186
 2478SOL    HW2 8334   6.861   6.933   3.129
 2479SOL     OW 8335   0.465   3.234   0.547
 2479SOL    HW1 8336   0.525   3.225   0.627
 2479SOL    HW2 8337   0.521   3.251   0.466
 2480SOL     OW 8338   0.095   3.091   1.182
 2480SOL    HW1 8339   0.074   3.000   1.145
 2480SOL    HW2 8340   0.033   3.158   1.141
 2481SOL     OW 8341   4.527   5.087   2.162
 2481SOL    HW1 8342   4.551   5.029   2.240
 2481SOL    HW2 8343   4.447   5.049   2.116
 2482SOL     OW 8344   5.126   2.225   4.464
 2482SOL    HW1 8345   5.088   2.134   4.482
 2482SOL    HW2 8346   5.154   2.268   4.550
 2483SOL     OW 8347   1.017   2.090   6.521
 2483SOL    HW1 8348   1.082   2.148   6.570
 2483SOL    HW2 8349   0.941   2.066   6.582
 2484SOL     OW 8350   3.229   2.209   6.249
 2484SOL    HW1 8351   3.219   2.177   6.155
 2484SOL    HW2 8352   3.292   2.287   6.251
 2485SOL     OW 8353   0.307   6.143   2.001
 2485SOL    HW1 8354   0.231   6.080   1.983
 2485SOL    HW2 8355   0.290   6.230   1.955
 2486SOL     OW 8356   1.341   5.565   3.263
 2486SOL    HW1 8357   1.347   5.472   3.299
 2486SOL    HW2 8358   1.263   5.572   3.201
 2487SOL     OW 8359   3.411   1.275   0.763
 2487SOL    HW1 8360   3.333   1.256   0.703
 2487SOL    HW2 8361   3.449   1.364   0.741
 2488SOL     OW 8362   3.063   6.395   6.888
 2488SOL    HW1 8363   3.017   6.318   6.933
 2488SOL    HW2 8364   3.071   6.471   6.952
 2489SOL     OW 8365   0.422   5.707   4.475
 2489SOL    HW1 8366   0.517   5.675   4.483
 2489SOL    HW2 8367   0.363   5.631   4.449
 2490SOL     OW 8368   4.965   3.266   1.675
 2490SOL    HW1 8369   4.931   3.242   1.766
 2490SOL    HW2 8370   4.899   3.236   1.606
 2491SOL     OW 8371   1.345   4.454   2.145
 2491SOL    HW1 8372   1.349   4.372   2.203
 2491SOL    HW2 8373   1.250   4.484   2.136
 2492SOL     OW 8374   4.029   3.176   6.482
 2492SOL    HW1 8375   4.066   3.216   6.398
 2492SOL    HW2 8376   4.041   3.076   6.480
 2493SOL     OW 8377   6.572   2.297   3.687
 2493SOL    HW1 8378   6.605   2.253   3.604
 2493SOL    HW2 8379   6.472   2.291   3.691
 2494SOL     OW 8380   5.353   3.343   1.780
 2494SOL    HW1 8381   5.316   3.303   1.863
 2494SOL    HW2 8382   5.336   3.442   1.780
 2495SOL     OW 8383   6.117   1.363   4.473
 2495SOL    HW1 8384   6.207   1.353   4.515
 2495SOL    HW2 8385   6.128   1.364   4.373
 2496SOL     OW 8386   0.681   6.483   0.015
 2496SOL    HW1 8387   0.775   6.452   0.024
 2496SOL    HW2 8388   0.670   6.571   0.061
 2497SOL     OW 8389   5.202   1.982   6.128
 2497SOL    HW1 8390   5.299   1.968   6.111
 2497SOL    HW2 8391   5.163   1.898   6.166
 2498SOL     OW 8392   1.517   3.761   4.722
 2498SOL    HW1 8393   1.474   3.786   4.635
 2498SOL    HW2 8394   1.612   3.790   4.721
 2499SOL     OW 8395   5.995   0.354   5.411
 2499SOL    HW1 8396   5.968   0.425   5.346
 2499SOL    HW2 8397   5.914   0.314   5.453
 2500SOL     OW 8398   4.919   3.163   6.157
 2500SOL    HW1 8399   4.940   3.208   6.244
 2500SOL    HW2 8400   4.854   3.219   6.105
 2501SOL     OW 8401   6.267   4.385   0.158
 2501SOL    HW1 8402   6.219   4.300   0.137
 2501SOL    HW2 8403   6.355   4.386   0.110
 2502SOL     OW 8404   1.914   6.600   2.831
 2502SOL    HW1 8405   1.921   6.687   2.880
 2502SOL    HW2 8406   1.930   6.524   2.895
 2503SOL     OW 8407   4.469   5.467   4.818
 2503SOL    HW1 8408   4.426   5.449   4.906
 2503SOL    HW2 8409   4.461   5.565   4.797
 2504SOL     OW 8410   2.019   4.198   3.942
 2504SOL    HW1 8411   2.033   4.203   4.041
 2504SOL    HW2 8412   2.108   4.197   3.896
 2505SOL     OW 8413   4.559   5.581   3.813
 2505SOL    HW1 8414   4.462   5.571   3.788
 2505SOL    HW2 8415   4.577   5.528   3.897
 2506SOL     OW 8416   0.400   2.211   6.693
 2506SOL    HW1 8417   0.325   2.152   6.723
 2506SOL    HW2 8418   0.371   2.307   6.697
 2507SOL     OW 8419   0.323   5.782   0.679
 2507SOL    HW1 8420   0.353   5.874   0.704
 2507SOL    HW2 8421   0.240   5.787   0.623
 2508SOL     OW 8422   2.279   2.639   2.430
 2508SOL    HW1 8423   2.287   2.586   2.515
 2508SOL    HW2 8424   2.282   2.736   2.451
 2509SOL     OW 8425   5.304   1.997   3.631
 2509SOL    HW1 8426   5.283   1.957   3.542
 2509SOL    HW2 8427   5.292   2.096   3.627
 2510SOL     OW 8428   3.570   5.734   1.171
 2510SOL    HW1 8429   3.588   5.707   1.077
 2510SOL    HW2 8430   3.653   5.774   1.210
 2511SOL     OW 8431   1.633   0.107   4.021
 2511SOL    HW1 8432   1.697   0.091   3.946
 2511SOL    HW2 8433   1.674   0.079   4.108
 2512SOL     OW 8434   4.757   2.735   4.573
 2512SOL    HW1 8435   4.828   2.743   4.643
 2512SOL    HW2 8436   4.672   2.702   4.615
 2513SOL     OW 8437   0.154   3.977   1.077
 2513SOL    HW1 8438   0.148   3.879   1.058
 2513SOL    HW2 8439   0.063   4.013   1.093
 2514SOL     OW 8440   0.996   1.448   3.709
 2514SOL    HW1 8441   1.001   1.466   3.611
 2514SOL    HW2 8442   0.915   1.492   3.747
 2515SOL     OW 8443   1.433   4.889   0.182
 2515SOL    HW1 8444   1.468   4.839   0.103
 2515SOL    HW2 8445   1.442   4.833   0.264
 2516SOL     OW 8446   4.864   6.422   3.949
 2516SOL    HW1 8447   4.861   6.514   3.911
 2516SOL    HW2 8448   4.959   6.392   3.957
 2517SOL     OW 8449   2.248   4.781   0.334
 2517SOL    HW1 8450   2.262   4.799   0.431
 2517SOL    HW2 8451   2.298   4.698   0.308
 2518SOL     OW 8452   2.486   2.164   6.385
 2518SOL    HW1 8453   2.466   2.251   6.431
 2518SOL    HW2 8454   2.483   2.177   6.286
 2519SOL     OW 8455   5.178   3.971   4.730
 2519SOL    HW1 8456   5.129   3.895   4.688
 2519SOL    HW2 8457   5.208   4.035   4.659
 2520SOL     OW 8458   2.021   4.712   1.876
 2520SOL    HW1 8459   1.969   4.679   1.797
 2520SOL    HW2 8460   1.958   4.749   1.945
 2521SOL     OW 8461   5.419   6.874   5.367
 2521SOL    HW1 8462   5.505   6.831   5.338
 2521SOL    HW2 8463   5.391   6.941   5.298
 2522SOL     OW 8464   1.482   3.058   4.592
 2522SOL    HW1 8465   1.543   2.978   4.595
 2522SOL    HW2 8466   1.396   3.036   4.639
 2523SOL     OW 8467   0.409   2.922   6.984
 2523SOL    HW1 8468   0.385   2.868   6.904
 2523SOL    HW2 8469   0.337   2.989   7.003
 2524SOL     OW 8470   1.369   6.600   4.985
 2524SOL    HW1 8471   1.307   6.542   5.037
 2524SOL    HW2 8472   1.317   6.676   4.944
 2525SOL     OW 8473   1.791   4.312   3.286
 2525SOL    HW1 8474   1.874   4.313   3.341
 2525SOL    HW2 8475   1.807   4.363   3.201
 2526SOL     OW 8476   6.756   1.542   5.397
 2526SOL    HW1 8477   6.791   1.599   5.322
 2526SOL    HW2 8478   6.657   1.531   5.387
 2527SOL     OW 8479   6.404   6.541   3.818
 2527SOL    HW1 8480   6.323   6.482   3.831
 2527SOL    HW2 8481   6.422   6.592   3.902
 2528SOL     OW 8482   6.315   5.709   0.283
 2528SOL    HW1 8483   6.295   5.807   0.295
 2528SOL    HW2 8484   6.232   5.662   0.255
 2529SOL     OW 8485   5.208   3.830   4.952
 2529SOL    HW1 8486   5.277   3.758   4.947
 2529SOL    HW2 8487   5.199   3.874   4.863
 2530SOL     OW 8488   0.695   0.101   4.197
 2530SOL    HW1 8489   0.633   0.170   4.234
 2530SOL    HW2 8490   0.645   0.016   4.182
 2531SOL     OW 8491   4.035   0.855   6.402
 2531SOL    HW1 8492   4.125   0.900   6.403
 2531SOL    HW2 8493   3.989   0.872   6.488
 2532SOL     OW 8494   1.631   4.603   6.124
 2532SOL    HW1 8495   1.625   4.655   6.039
 2532SOL    HW2 8496   1.560   4.634   6.187
 2533SOL     OW 8497   5.622   0.158   5.398
 2533SOL    HW1 8498   5.616   0.179   5.301
 2533SOL    HW2 8499   5.666   0.069   5.410
 2534SOL     OW 8500   0.463   1.745   4.202
 2534SOL    HW1 8501   0.477   1.832   4.249
 2534SOL    HW2 8502   0.552   1.708   4.173
 2535SOL     OW 8503   2.554   1.495   2.536
 2535SOL    HW1 8504   2.510   1.536   2.615
 2535SOL    HW2 8505   2.626   1.432   2.566
 2536SOL     OW 8506   6.475   0.657   3.807
 2536SOL    HW1 8507   6.522   0.583   3.855
 2536SOL    HW2 8508   6.540   0.706   3.750
 2537SOL     OW 8509   3.642   5.271   1.089
 2537SOL    HW1 8510   3.694   5.292   1.172
 2537SOL    HW2 8511   3.705   5.258   1.013
 2538SOL     OW 8512   1.975   4.364   5.040
 2538SOL    HW1 8513   2.065   4.407   5.051
 2538SOL    HW2 8514   1.983   4.287   4.976
 2539SOL     OW 8515   2.605   0.356   5.801
 2539SOL    HW1 8516   2.511   0.390   5.806
 2539SOL    HW2 8517   2.658   0.413   5.739
 2540SOL     OW 8518   5.877   1.817   2.182
 2540SOL    HW1 8519   5.811   1.884   2.215
 2540SOL    HW2 8520   5.968   1.859   2.176
 2541SOL     OW 8521   1.123   6.525   5.269
 2541SOL    HW1 8522   1.183   6.562   5.341
 2541SOL    HW2 8523   1.030   6.556   5.284
 2542SOL     OW 8524   3.399   1.770   4.368
 2542SOL    HW1 8525   3.342   1.691   4.390
 2542SOL    HW2 8526   3.345   1.837   4.316
 2543SOL     OW 8527   0.242   2.103   4.838
 2543SOL    HW1 8528   0.289   2.155   4.766
 2543SOL    HW2 8529   0.241   2.157   4.922
 2544SOL     OW 8530   6.288   5.771   2.213
 2544SOL    HW1 8531   6.360   5.702   2.226
 2544SOL    HW2 8532   6.203   5.726   2.186
 2545SOL     OW 8533   6.387   2.010   0.999
 2545SOL    HW1 8534   6.343   1.928   1.035
 2545SOL    HW2 8535   6.478   2.019   1.039
 2546SOL     OW 8536   6.584   4.027   2.658
 2546SOL    HW1 8537   6.635   4.105   2.696
 2546SOL    HW2 8538   6.488   4.036   2.682
 2547SOL     OW 8539   5.892   3.317   0.925
 2547SOL    HW1 8540   5.797   3.302   0.954
 2547SOL    HW2 8541   5.935   3.229   0.904
 2548SOL     OW 8542   0.282   6.746   5.482
 2548SOL    HW1 8543   0.192   6.784   5.460
 2548SOL    HW2 8544   0.281   6.711   5.575
 2549SOL     OW 8545   2.820   2.827   0.150
 2549SOL    HW1 8546   2.902   2.864   0.194
 2549SOL    HW2 8547   2.800   2.737   0.188
 2550SOL     OW 8548   3.679   6.047   6.650
 2550SOL    HW1 8549   3.760   6.032   6.594
 2550SOL    HW2 8550   3.670   6.144   6.671
 2551SOL     OW 8551   3.131   5.609   0.487
 2551SOL    HW1 8552   3.039   5.590   0.453
 2551SOL    HW2 8553   3.198   5.556   0.435
 2552SOL     OW 8554   2.120   5.976   1.638
 2552SOL    HW1 8555   2.037   5.941   1.682
 2552SOL    HW2 8556   2.176   5.899   1.607
 2553SOL     OW 8557   4.447   1.420   6.484
 2553SOL    HW1 8558   4.366   1.447   6.432
 2553SOL    HW2 8559   4.486   1.500   6.530
 2554SOL     OW 8560   1.733   5.682   1.486
 2554SOL    HW1 8561   1.761   5.587   1.495
 2554SOL    HW2 8562   1.754   5.714   1.393
 2555SOL     OW 8563   5.256   6.817   4.981
 2555SOL    HW1 8564   5.337   6.781   5.028
 2555SOL    HW2 8565   5.247   6.772   4.892
 2556SOL     OW 8566   4.127   0.554   0.429
 2556SOL    HW1 8567   4.168   0.609   0.357
 2556SOL    HW2 8568   4.028   0.566   0.429
 2557SOL     OW 8569   3.023   0.211   6.343
 2557SOL    HW1 8570   2.967   0.277   6.394
 2557SOL    HW2 8571   3.008   0.119   6.380
 2558SOL     OW 8572   5.471   3.601   0.208
 2558SOL    HW1 8573   5.450   3.535   0.136
 2558SOL    HW2 8574   5.550   3.657   0.181
 2559SOL     OW 8575   0.899   4.523   4.648
 2559SOL    HW1 8576   0.904   4.589   4.723
 2559SOL    HW2 8577   0.833   4.452   4.670
 2560SOL     OW 8578   4.805   2.102   3.723
 2560SOL    HW1 8579   4.755   2.016   3.720
 2560SOL    HW2 8580   4.902   2.083   3.739
 2561SOL     OW 8581   3.709   0.292   4.975
 2561SOL    HW1 8582   3.780   0.265   5.040
 2561SOL    HW2 8583   3.751   0.338   4.897
 2562SOL     OW 8584   3.052   6.513   3.794
 2562SOL    HW1 8585   2.979   6.547   3.853
 2562SOL    HW2 8586   3.012   6.469   3.713
 2563SOL     OW 8587   3.715   2.142   6.664
 2563SOL    HW1 8588   3.719   2.062   6.604
 2563SOL    HW2 8589   3.805   2.185   6.668
 2564SOL     OW 8590   1.591   1.833   7.016
 2564SOL    HW1 8591   1.529   1.890   6.961
 2564SOL    HW2 8592   1.685   1.863   7.002
 2565SOL     OW 8593   0.462   1.588   0.554
 2565SOL    HW1 8594   0.535   1.525   0.577
 2565SOL    HW2 8595   0.500   1.668   0.508
 2566SOL     OW 8596   2.195   0.633   0.636
 2566SOL    HW1 8597   2.198   0.673   0.727
 2566SOL    HW2 8598   2.207   0.704   0.567
 2567SOL     OW 8599   2.073   0.828   0.024
 2567SOL    HW1 8600   1.993   0.769   0.019
 2567SOL    HW2 8601   2.123   0.811   0.109
 2568SOL     OW 8602   3.051   6.290   0.598
 2568SOL    HW1 8603   3.091   6.382   0.595
 2568SOL    HW2 8604   3.121   6.224   0.624
 2569SOL     OW 8605   1.869   0.350   1.012
 2569SOL    HW1 8606   1.828   0.423   0.958
 2569SOL    HW2 8607   1.918   0.287   0.952
 2570SOL     OW 8608   6.837   6.605   5.579
 2570SOL    HW1 8609   6.851   6.661   5.660
 2570SOL    HW2 8610   6.800   6.662   5.505
 2571SOL     OW 8611   3.567   2.962   3.629
 2571SOL    HW1 8612   3.591   2.931   3.722
 2571SOL    HW2 8613   3.467   2.971   3.622
 2572SOL     OW 8614   1.687   5.699   1.777
 2572SOL    HW1 8615   1.714   5.750   1.696
 2572SOL    HW2 8616   1.692   5.601   1.758
 2573SOL     OW 8617   6.879   2.258   4.869
 2573SOL    HW1 8618   6.787   2.273   4.831
 2573SOL    HW2 8619   6.875   2.181   4.934
 2574SOL     OW 8620   0.736   3.716   2.494
 2574SOL    HW1 8621   0.749   3.689   2.398
 2574SOL    HW2 8622   0.703   3.810   2.498
 2575SOL     OW 8623   5.876   3.662   0.371
 2575SOL    HW1 8624   5.952   3.724   0.389
 2575SOL    HW2 8625   5.812   3.664   0.447
 2576SOL     OW 8626   2.392   6.605   3.872
 2576SOL    HW1 8627   2.361   6.659   3.794
 2576SOL    HW2 8628   2.367   6.509   3.858
 2577SOL     OW 8629   2.896   6.183   1.776
 2577SOL    HW1 8630   2.884   6.090   1.810
 2577SOL    HW2 8631   2.989   6.213   1.795
 2578SOL     OW 8632   4.959   1.887   4.051
 2578SOL    HW1 8633   5.018   1.965   4.028
 2578SOL    HW2 8634   4.939   1.835   3.969
 2579SOL     OW 8635   6.814   1.777   6.220
 2579SOL    HW1 8636   6.799   1.764   6.123
 2579SOL    HW2 8637   6.843   1.872   6.237
 2580SOL     OW 8638   1.319   2.519   6.471
 2580SOL    HW1 8639   1.334   2.492   6.376
 2580SOL    HW2 8640   1.221   2.515   6.491
 2581SOL     OW 8641   6.685   6.700   3.841
 2581SOL    HW1 8642   6.779   6.716   3.811
 2581SOL    HW2 8643   6.672   6.603   3.861
 2582SOL     OW 8644   0.381   5.404   2.862
 2582SOL    HW1 8645   0.315   5.405   2.937
 2582SOL    HW2 8646   0.353   5.469   2.791
 2583SOL     OW 8647   1.885   0.906   0.233
 2583SOL    HW1 8648   1.913   0.911   0.329
 2583SOL    HW2 8649   1.926   0.982   0.183
 2584SOL     OW 8650   5.107   6.727   1.999
 2584SOL    HW1 8651   5.139   6.660   1.932
 2584SOL    HW2 8652   5.081   6.811   1.951
 2585SOL     OW 8653   3.760   1.309   1.634
 2585SOL    HW1 8654   3.720   1.312   1.543
 2585SOL    HW2 8655   3.718   1.380   1.691
 2586SOL     OW 8656   6.780   2.458   4.501
 2586SOL    HW1 8657   6.856   2.394   4.513
 2586SOL    HW2 8658   6.698   2.407   4.473
 2587SOL     OW 8659   5.551   6.520   2.842
 2587SOL    HW1 8660   5.503   6.525   2.754
 2587SOL    HW2 8661   5.531   6.432   2.885
 2588SOL     OW 8662   5.583   0.904   1.434
 2588SOL    HW1 8663   5.645   0.921   1.511
 2588SOL    HW2 8664   5.508   0.845   1.464
 2589SOL     OW 8665   6.366   6.573   1.109
 2589SOL    HW1 8666   6.389   6.519   1.028
 2589SOL    HW2 8667   6.420   6.541   1.187
 2590SOL     OW 8668   4.062   6.288   2.300
 2590SOL    HW1 8669   4.127   6.214   2.285
 2590SOL    HW2 8670   4.056   6.308   2.397
 2591SOL     OW 8671   5.789   0.704   1.702
 2591SOL    HW1 8672   5.841   0.706   1.616
 2591SOL    HW2 8673   5.742   0.792   1.714
 2592SOL     OW 8674   3.759   5.791   1.340
 2592SOL    HW1 8675   3.752   5.874   1.396
 2592SOL    HW2 8676   3.782   5.713   1.398
 2593SOL     OW 8677   3.206   6.507   2.500
 2593SOL    HW1 8678   3.186   6.474   2.592
 2593SOL    HW2 8679   3.161   6.596   2.486
 2594SOL     OW 8680   1.132   6.130   6.308
 2594SOL    HW1 8681   1.172   6.079   6.385
 2594SOL    HW2 8682   1.056   6.077   6.270
 2595SOL     OW 8683   6.423   3.767   4.131
 2595SOL    HW1 8684   6.354   3.839   4.141
 2595SOL    HW2 8685   6.379   3.677   4.137
 2596SOL     OW 8686   3.974   2.136   2.118
 2596SOL    HW1 8687   3.903   2.154   2.049
 2596SOL    HW2 8688   4.033   2.063   2.085
 2597SOL     OW 8689   2.225   2.965   6.785
 2597SOL    HW1 8690   2.158   3.028   6.746
 2597SOL    HW2 8691   2.304   2.959   6.724
 2598SOL     OW 8692   6.656   3.018   3.078
 2598SOL    HW1 8693   6.644   3.111   3.115
 2598SOL    HW2 8694   6.701   3.023   2.989
 2599SOL     OW 8695   4.671   4.670   6.937
 2599SOL    HW1 8696   4.760   4.626   6.929
 2599SOL    HW2 8697   4.599   4.600   6.937
 2600SOL     OW 8698   6.408   3.560   3.345
 2600SOL    HW1 8699   6.504   3.563   3.317
 2600SOL    HW2 8700   6.394   3.622   3.422
 2601SOL     OW 8701   3.696   2.872   5.772
 2601SOL    HW1 8702   3.716   2.811   5.848
 2601SOL    HW2 8703   3.744   2.840   5.690
 2602SOL     OW 8704   6.310   6.065   4.690
 2602SOL    HW1 8705   6.261   6.002   4.750
 2602SOL    HW2 8706   6.257   6.149   4.679
 2603SOL     OW 8707   3.144   2.717   0.654
 2603SOL    HW1 8708   3.242   2.727   0.672
 2603SOL    HW2 8709   3.096   2.703   0.741
 2604SOL     OW 8710   6.050   1.230   1.695
 2604SOL    HW1 8711   6.047   1.133   1.720
 2604SOL    HW2 8712   6.010   1.285   1.768
 2605SOL     OW 8713   4.554   4.922   4.179
 2605SOL    HW1 8714   4.546   4.993   4.110
 2605SOL    HW2 8715   4.475   4.861   4.173
 2606SOL     OW 8716   7.021   4.559   1.593
 2606SOL    HW1 8717   7.018   4.462   1.617
 2606SOL    HW2 8718   6.933   4.602   1.616
 2607SOL     OW 8719   0.902   1.355   4.411
 2607SOL    HW1 8720   0.956   1.366   4.495
 2607SOL    HW2 8721   0.864   1.444   4.384
 2608SOL     OW 8722   5.262   0.827   0.624
 2608SOL    HW1 8723   5.171   0.854   0.592
 2608SOL    HW2 8724   5.304   0.767   0.556
 2609SOL     OW 8725   0.536   2.088   4.077
 2609SOL    HW1 8726   0.448   2.083   4.123
 2609SOL    HW2 8727   0.566   2.183   4.072
 2610SOL     OW 8728   5.996   5.585   4.689
 2610SOL    HW1 8729   5.996   5.594   4.789
 2610SOL    HW2 8730   6.050   5.658   4.649
 2611SOL     OW 8731   3.910   6.381   1.376
 2611SOL    HW1 8732   3.832   6.414   1.323
 2611SOL    HW2 8733   3.878   6.332   1.457
 2612SOL     OW 8734   6.395   6.668   4.074
 2612SOL    HW1 8735   6.336   6.605   4.125
 2612SOL    HW2 8736   6.355   6.760   4.077
 2613SOL     OW 8737   4.012   0.419   1.475
 2613SOL    HW1 8738   4.044   0.468   1.556
 2613SOL    HW2 8739   3.912   0.421   1.472
 2614SOL     OW 8740   6.897   6.164   6.787
 2614SOL    HW1 8741   6.876   6.261   6.779
 2614SOL    HW2 8742   6.823   6.117   6.836
 2615SOL     OW 8743   6.127   4.859   2.130
 2615SOL    HW1 8744   6.202   4.800   2.100
 2615SOL    HW2 8745   6.106   4.926   2.058
 2616SOL     OW 8746   3.569   2.952   2.746
 2616SOL    HW1 8747   3.530   2.900   2.822
 2616SOL    HW2 8748   3.536   2.914   2.660
 2617SOL     OW 8749   4.057   0.322   1.212
 2617SOL    HW1 8750   4.028   0.342   1.305
 2617SOL    HW2 8751   4.081   0.408   1.166
 2618SOL     OW 8752   1.077   0.739   0.926
 2618SOL    HW1 8753   1.069   0.648   0.965
 2618SOL    HW2 8754   1.045   0.739   0.832
 2619SOL     OW 8755   4.638   1.886   1.847
 2619SOL    HW1 8756   4.555   1.834   1.869
 2619SOL    HW2 8757   4.612   1.973   1.805
 2620SOL     OW 8758   1.658   4.138   4.248
 2620SOL    HW1 8759   1.730   4.195   4.287
 2620SOL    HW2 8760   1.642   4.164   4.153
 2621SOL     OW 8761   0.857   5.127   3.933
 2621SOL    HW1 8762   0.787   5.100   3.867
 2621SOL    HW2 8763   0.935   5.065   3.926
 2622SOL     OW 8764   2.834   3.151   6.431
 2622SOL    HW1 8765   2.739   3.172   6.456
 2622SOL    HW2 8766   2.879   3.234   6.399
 2623SOL     OW 8767   2.891   0.833   5.480
 2623SOL    HW1 8768   2.962   0.841   5.410
 2623SOL    HW2 8769   2.802   0.855   5.440
 2624SOL     OW 8770   6.676   2.211   3.921
 2624SOL    HW1 8771   6.608   2.243   3.854
 2624SOL    HW2 8772   6.676   2.111   3.923
 2625SOL     OW 8773   4.125   0.946   5.353
 2625SOL    HW1 8774   4.048   0.977   5.409
 2625SOL    HW2 8775   4.116   0.984   5.261
 2626SOL     OW 8776   2.178   6.656   2.449
 2626SOL    HW1 8777   2.117   6.581   2.422
 2626SOL    HW2 8778   2.228   6.629   2.531
 2627SOL     OW 8779   0.024   6.766   4.223
 2627SOL    HW1 8780   6.959   6.799   4.193
 2627SOL    HW2 8781   0.038   6.792   4.319
 2628SOL     OW 8782   4.052   5.782   6.045
 2628SOL    HW1 8783   3.959   5.818   6.034
 2628SOL    HW2 8784   4.070   5.764   6.141
 2629SOL     OW 8785   3.540   4.066   1.252
 2629SOL    HW1 8786   3.561   3.968   1.250
 2629SOL    HW2 8787   3.532   4.096   1.347
 2630SOL     OW 8788   2.697   2.339   2.503
 2630SOL    HW1 8789   2.764   2.318   2.432
 2630SOL    HW2 8790   2.624   2.395   2.464
 2631SOL     OW 8791   4.742   6.138   4.364
 2631SOL    HW1 8792   4.648   6.159   4.393
 2631SOL    HW2 8793   4.755   6.171   4.270
 2632SOL     OW 8794   4.920   2.146   0.401
 2632SOL    HW1 8795   4.879   2.076   0.458
 2632SOL    HW2 8796   4.889   2.135   0.306
 2633SOL     OW 8797   6.071   2.317   6.695
 2633SOL    HW1 8798   6.132   2.394   6.679
 2633SOL    HW2 8799   6.118   2.232   6.671
 2634SOL     OW 8800   2.504   5.079   1.040
 2634SOL    HW1 8801   2.599   5.105   1.056
 2634SOL    HW2 8802   2.466   5.134   0.966
 2635SOL     OW 8803   5.165   4.292   4.313
 2635SOL    HW1 8804   5.195   4.205   4.351
 2635SOL    HW2 8805   5.149   4.282   4.215
 2636SOL     OW 8806   5.935   0.504   4.913
 2636SOL    HW1 8807   5.909   0.533   4.821
 2636SOL    HW2 8808   5.959   0.407   4.912
 2637SOL     OW 8809   5.161   6.637   2.669
 2637SOL    HW1 8810   5.184   6.701   2.595
 2637SOL    HW2 8811   5.085   6.579   2.641
 2638SOL     OW 8812   5.534   6.137   1.031
 2638SOL    HW1 8813   5.558   6.056   1.084
 2638SOL    HW2 8814   5.617   6.187   1.007
 2639SOL     OW 8815   6.475   6.154   0.413
 2639SOL    HW1 8816   6.564   6.146   0.458
 2639SOL    HW2 8817   6.414   6.211   0.469
 2640SOL     OW 8818   0.070   6.780   5.680
 2640SOL    HW1 8819   0.119   6.856   5.721
 2640SOL    HW2 8820   0.115   6.694   5.704
 2641SOL     OW 8821   5.688   5.068   0.361
 2641SOL    HW1 8822   5.631   5.068   0.279
 2641SOL    HW2 8823   5.737   5.155   0.366
 2642SOL     OW 8824   5.684   6.780   3.964
 2642SOL    HW1 8825   5.642   6.761   3.875
 2642SOL    HW2 8826   5.681   6.878   3.982
 2643SOL     OW 8827   0.976   0.322   2.267
 2643SOL    HW1 8828   0.887   0.310   2.225
 2643SOL    HW2 8829   1.014   0.411   2.240
 2644SOL     OW 8830   0.386   4.577   6.222
 2644SOL    HW1 8831   0.315   4.564   6.153
 2644SOL    HW2 8832   0.349   4.554   6.312
 2645SOL     OW 8833   5.506   5.941   5.675
 2645SOL    HW1 8834   5.606   5.931   5.675
 2645SOL    HW2 8835   5.466   5.879   5.608
 2646SOL     OW 8836   6.362   6.505   0.403
 2646SOL    HW1 8837   6.370   6.475   0.308
 2646SOL    HW2 8838   6.272   6.547   0.417
 2647SOL     OW 8839   3.683   1.617   0.974
 2647SOL    HW1 8840   3.590   1.647   0.996
 2647SOL    HW2 8841   3.701   1.529   1.017
 2648SOL     OW 8842   4.576   0.517   2.475
 2648SOL    HW1 8843   4.653   0.458   2.451
 2648SOL    HW2 8844   4.523   0.476   2.548
 2649SOL     OW 8845   3.303   1.665   6.051
 2649SOL    HW1 8846   3.301   1.746   5.993
 2649SOL    HW2 8847   3.211   1.626   6.056
 2650SOL     OW 8848   0.461   5.987   2.389
 2650SOL    HW1 8849   0.445   5.890   2.377
 2650SOL    HW2 8850   0.548   6.013   2.346
 2651SOL     OW 8851   6.631   0.856   3.242
 2651SOL    HW1 8852   6.634   0.802   3.326
 2651SOL    HW2 8853   6.724   0.885   3.219
 2652SOL     OW 8854   2.871   3.442   2.913
 2652SOL    HW1 8855   2.945   3.380   2.888
 2652SOL    HW2 8856   2.846   3.499   2.835
 2653SOL     OW 8857   6.466   6.607   6.491
 2653SOL    HW1 8858   6.511   6.631   6.577
 2653SOL    HW2 8859   6.486   6.677   6.422
 2654SOL     OW 8860   5.641   2.852   6.019
 2654SOL    HW1 8861   5.627   2.931   5.959
 2654SOL    HW2 8862   5.685   2.778   5.969
 2655SOL     OW 8863   4.765   6.307   4.904
 2655SOL    HW1 8864   4.833   6.238   4.881
 2655SOL    HW2 8865   4.770   6.327   5.002
 2656SOL     OW 8866   5.793   3.317   3.949
 2656SOL    HW1 8867   5.739   3.277   4.023
 2656SOL    HW2 8868   5.887   3.327   3.979
 2657SOL     OW 8869   2.175   3.574   6.636
 2657SOL    HW1 8870   2.167   3.516   6.556
 2657SOL    HW2 8871   2.219   3.660   6.612
 2658SOL     OW 8872   6.003   3.880   6.098
 2658SOL    HW1 8873   6.060   3.879   6.180
 2658SOL    HW2 8874   5.976   3.974   6.076
 2659SOL     OW 8875   6.858   2.906   3.870
 2659SOL    HW1 8876   6.770   2.902   3.823
 2659SOL    HW2 8877   6.891   2.813   3.887
 2660SOL     OW 8878   7.001   2.538   3.205
 2660SOL    HW1 8879   6.909   2.530   3.165
 2660SOL    HW2 8880   0.040   2.574   3.136
 2661SOL     OW 8881   4.304   6.231   0.823
 2661SOL    HW1 8882   4.380   6.194   0.877
 2661SOL    HW2 8883   4.324   6.326   0.798
 2662SOL     OW 8884   3.115   0.012   4.055
 2662SOL    HW1 8885   3.213   0.014   4.034
 2662SOL    HW2 8886   3.102   7.007   4.150
 2663SOL     OW 8887   1.177   4.300   2.524
 2663SOL    HW1 8888   1.079   4.316   2.537
 2663SOL    HW2 8889   1.225   4.311   2.612
 2664SOL     OW 8890   4.075   3.620   2.100
 2664SOL    HW1 8891   4.020   3.564   2.162
 2664SOL    HW2 8892   4.107   3.702   2.147
 2665SOL     OW 8893   3.789   1.507   4.559
 2665SOL    HW1 8894   3.838   1.508   4.646
 2665SOL    HW2 8895   3.855   1.499   4.484
 2666SOL     OW 8896   5.359   5.453   1.367
 2666SOL    HW1 8897   5.414   5.487   1.444
 2666SOL    HW2 8898   5.397   5.367   1.335
 2667SOL     OW 8899   1.947   5.494   3.924
 2667SOL    HW1 8900   1.963   5.506   4.022
 2667SOL    HW2 8901   1.964   5.398   3.899
 2668SOL     OW 8902   0.437   2.863   5.664
 2668SOL    HW1 8903   0.440   2.883   5.566
 2668SOL    HW2 8904   0.417   2.947   5.715
 2669SOL     OW 8905   4.330   4.796   4.807
 2669SOL    HW1 8906   4.309   4.698   4.813
 2669SOL    HW2 8907   4.371   4.826   4.893
 2670SOL     OW 8908   1.463   1.231   6.690
 2670SOL    HW1 8909   1.394   1.202   6.624
 2670SOL    HW2 8910   1.523   1.299   6.647
 2671SOL     OW 8911   1.987   3.281   6.168
 2671SOL    HW1 8912   2.041   3.304   6.087
 2671SOL    HW2 8913   2.025   3.200   6.212
 2672SOL     OW 8914   1.500   5.383   1.326
 2672SOL    HW1 8915   1.590   5.341   1.314
 2672SOL    HW2 8916   1.442   5.324   1.381
 2673SOL     OW 8917   3.764   2.081   2.818
 2673SOL    HW1 8918   3.863   2.092   2.815
 2673SOL    HW2 8919   3.725   2.144   2.886
 2674SOL     OW 8920   5.118   5.023   5.310
 2674SOL    HW1 8921   5.111   5.019   5.409
 2674SOL    HW2 8922   5.184   4.955   5.278
 2675SOL     OW 8923   0.301   4.725   5.536
 2675SOL    HW1 8924   0.297   4.803   5.473
 2675SOL    HW2 8925   0.387   4.728   5.586
 2676SOL     OW 8926   4.108   0.871   2.046
 2676SOL    HW1 8927   4.123   0.785   2.096
 2676SOL    HW2 8928   4.124   0.855   1.948
 2677SOL     OW 8929   2.524   5.069   1.822
 2677SOL    HW1 8930   2.581   4.993   1.790
 2677SOL    HW2 8931   2.476   5.042   1.905
 2678SOL     OW 8932   0.524   4.661   5.764
 2678SOL    HW1 8933   0.529   4.761   5.760
 2678SOL    HW2 8934   0.433   4.634   5.796
 2679SOL     OW 8935   3.040   4.254   0.753
 2679SOL    HW1 8936   2.947   4.285   0.732
 2679SOL    HW2 8937   3.072   4.298   0.836
 2680SOL     OW 8938   1.189   2.100   1.769
 2680SOL    HW1 8939   1.139   2.039   1.708
 2680SOL    HW2 8940   1.258   2.048   1.819
 2681SOL     OW 8941   1.456   2.634   3.096
 2681SOL    HW1 8942   1.539   2.637   3.041
 2681SOL    HW2 8943   1.479   2.648   3.192
 2682SOL     OW 8944   5.528   2.519   2.881
 2682SOL    HW1 8945   5.603   2.508   2.815
 2682SOL    HW2 8946   5.510   2.616   2.895
 2683SOL     OW 8947   1.115   6.013   1.312
 2683SOL    HW1 8948   1.182   5.939   1.309
 2683SOL    HW2 8949   1.116   6.056   1.402
 2684SOL     OW 8950   2.585   6.573   2.551
 2684SOL    HW1 8951   2.684   6.576   2.536
 2684SOL    HW2 8952   2.561   6.640   2.622
 2685SOL     OW 8953   5.462   5.772   5.449
 2685SOL    HW1 8954   5.545   5.764   5.394
 2685SOL    HW2 8955   5.385   5.795   5.389
 2686SOL     OW 8956   2.307   2.874   4.477
 2686SOL    HW1 8957   2.229   2.858   4.538
 2686SOL    HW2 8958   2.323   2.972   4.468
 2687SOL     OW 8959   4.476   5.519   2.559
 2687SOL    HW1 8960   4.473   5.426   2.521
 2687SOL    HW2 8961   4.387   5.562   2.550
 2688SOL     OW 8962   4.088   4.230   6.272
 2688SOL    HW1 8963   4.117   4.135   6.283
 2688SOL    HW2 8964   4.120   4.264   6.184
 2689SOL     OW 8965   6.922   3.694   3.948
 2689SOL    HW1 8966   6.915   3.744   3.861
 2689SOL    HW2 8967   6.977   3.612   3.934
 2690SOL     OW 8968   3.951   3.780   3.585
 2690SOL    HW1 8969   3.916   3.826   3.667
 2690SOL    HW2 8970   3.996   3.695   3.611
 2691SOL     OW 8971   1.696   6.093   1.942
 2691SOL    HW1 8972   1.791   6.105   1.915
 2691SOL    HW2 8973   1.643   6.056   1.865
 2692SOL     OW 8974   0.305   6.548   3.963
 2692SOL    HW1 8975   0.213   6.534   3.925
 2692SOL    HW2 8976   0.298   6.588   4.054
 2693SOL     OW 8977   1.766   4.028   3.013
 2693SOL    HW1 8978   1.803   3.977   3.091
 2693SOL    HW2 8979   1.840   4.054   2.952
 2694SOL     OW 8980   1.802   6.701   3.211
 2694SOL    HW1 8981   1.736   6.647   3.263
 2694SOL    HW2 8982   1.774   6.797   3.210
 2695SOL     OW 8983   4.342   2.081   3.387
 2695SOL    HW1 8984   4.413   2.024   3.344
 2695SOL    HW2 8985   4.328   2.050   3.481
 2696SOL     OW 8986   3.926   3.903   5.478
 2696SOL    HW1 8987   3.975   3.902   5.565
 2696SOL    HW2 8988   3.988   3.931   5.404
 2697SOL     OW 8989   2.737   1.902   4.298
 2697SOL    HW1 8990   2.706   1.807   4.289
 2697SOL    HW2 8991   2.699   1.942   4.380
 2698SOL     OW 8992   1.898   3.439   0.655
 2698SOL    HW1 8993   1.875   3.536   0.660
 2698SOL    HW2 8994   1.985   3.422   0.702
 2699SOL     OW 8995   3.541   6.018   1.646
 2699SOL    HW1 8996   3.574   6.052   1.734
 2699SOL    HW2 8997   3.611   6.032   1.576
 2700SOL     OW 8998   1.961   3.604   2.560
 2700SOL    HW1 8999   2.017   3.549   2.622
 2700SOL    HW2 9000   1.961   3.699   2.591
 2701SOL     OW 9001   4.124   6.967   6.848
 2701SOL    HW1 9002   4.069   7.013   6.778
 2701SOL    HW2 9003   4.064   6.934   6.921
 2702SOL     OW 9004   6.800   0.492   3.730
 2702SOL    HW1 9005   6.837   0.583   3.708
 2702SOL    HW2 9006   6.710   0.482   3.687
 2703SOL     OW 9007   1.784   1.805   2.436
 2703SOL    HW1 9008   1.819   1.729   2.490
 2703SOL    HW2 9009   1.846   1.883   2.445
 2704SOL     OW 9010   2.205   4.858   1.294
 2704SOL    HW1 9011   2.273   4.865   1.367
 2704SOL    HW2 9012   2.166   4.766   1.293
 2705SOL     OW 9013   6.327   5.390   3.572
 2705SOL    HW1 9014   6.230   5.414   3.570
 2705SOL    HW2 9015   6.367   5.405   3.482
 2706SOL     OW 9016   6.733   1.111   2.084
 2706SOL    HW1 9017   6.764   1.111   1.988
 2706SOL    HW2 9018   6.778   1.037   2.133
 2707SOL     OW 9019   2.187   1.339   5.761
 2707SOL    HW1 9020   2.140   1.259   5.723
 2707SOL    HW2 9021   2.280   1.344   5.724
 2708SOL     OW 9022   1.865   2.826   1.313
 2708SOL    HW1 9023   1.874   2.745   1.372
 2708SOL    HW2 9024   1.924   2.899   1.347
 2709SOL     OW 9025   4.474   6.218   0.578
 2709SOL    HW1 9026   4.394   6.276   0.589
 2709SOL    HW2 9027   4.489   6.198   0.481
 2710SOL     OW 9028   6.721   4.093   3.055
 2710SOL    HW1 9029   6.632   4.069   3.092
 2710SOL    HW2 9030   6.712   4.115   2.957
 2711SOL     OW 9031   1.360   0.608   2.397
 2711SOL    HW1 9032   1.351   0.697   2.442
 2711SOL    HW2 9033   1.285   0.595   2.332
 2712SOL     OW 9034   2.812   3.985   0.323
 2712SOL    HW1 9035   2.812   3.977   0.223
 2712SOL    HW2 9036   2.806   4.081   0.349
 2713SOL     OW 9037   2.279   3.024   5.382
 2713SOL    HW1 9038   2.357   3.025   5.320
 2713SOL    HW2 9039   2.289   2.949   5.448
 2714SOL     OW 9040   5.117   6.851   5.646
 2714SOL    HW1 9041   5.127   6.800   5.731
 2714SOL    HW2 9042   5.176   6.812   5.576
 2715SOL     OW 9043   6.137   1.289   6.586
 2715SOL    HW1 9044   6.038   1.301   6.591
 2715SOL    HW2 9045   6.159   1.192   6.597
 2716SOL     OW 9046   0.267   6.728   2.634
 2716SOL    HW1 9047   0.187   6.708   2.577
 2716SOL    HW2 9048   0.318   6.805   2.594
 2717SOL     OW 9049   0.708   0.771   2.607
 2717SOL    HW1 9050   0.744   0.685   2.643
 2717SOL    HW2 9051   0.695   0.836   2.682
 2718SOL     OW 9052   1.920   4.853   3.847
 2718SOL    HW1 9053   1.965   4.866   3.759
 2718SOL    HW2 9054   1.935   4.760   3.879
 2719SOL     OW 9055   4.057   5.134   1.663
 2719SOL    HW1 9056   3.993   5.075   1.713
 2719SOL    HW2 9057   4.089   5.206   1.724
 2720SOL     OW 9058   1.479   6.292   3.812
 2720SOL    HW1 9059   1.543   6.313   3.739
 2720SOL    HW2 9060   1.530   6.265   3.894
 2721SOL     OW 9061   3.880   0.007   4.030
 2721SOL    HW1 9062   3.892   6.970   3.952
 2721SOL    HW2 9063   3.966   0.055   4.049
 2722SOL     OW 9064   1.183   6.150   2.127
 2722SOL    HW1 9065   1.263   6.131   2.070
 2722SOL    HW2 9066   1.213   6.190   2.214
 2723SOL     OW 9067   1.791   1.540   5.749
 2723SOL    HW1 9068   1.705   1.550   5.700
 2723SOL    HW2 9069   1.818   1.629   5.787
 2724SOL     OW 9070   4.015   5.456   6.511
 2724SOL    HW1 9071   4.093   5.517   6.526
 2724SOL    HW2 9072   3.980   5.424   6.599
 2725SOL     OW 9073   3.323   4.932   4.069
 2725SOL    HW1 9074   3.387   4.975   4.133
 2725SOL    HW2 9075   3.374   4.899   3.989
 2726SOL     OW 9076   4.340   5.292   1.959
 2726SOL    HW1 9077   4.393   5.368   1.996
 2726SOL    HW2 9078   4.402   5.226   1.916
 2727SOL     OW 9079   2.011   5.619   2.626
 2727SOL    HW1 9080   1.966   5.530   2.637
 2727SOL    HW2 9081   1.942   5.690   2.616
 2728SOL     OW 9082   3.169   6.990   5.486
 2728SOL    HW1 9083   3.119   6.909   5.518
 2728SOL    HW2 9084   3.104   0.032   5.449
 2729SOL     OW 9085   5.574   5.271   2.845
 2729SOL    HW1 9086   5.638   5.202   2.813
 2729SOL    HW2 9087   5.603   5.305   2.934
 2730SOL     OW 9088   1.710   6.327   1.197
 2730SOL    HW1 9089   1.762   6.247   1.168
 2730SOL    HW2 9090   1.618   6.298   1.226
 2731SOL     OW 9091   3.188   3.993   1.869
 2731SOL    HW1 9092   3.282   4.015   1.842
 2731SOL    HW2 9093   3.188   3.913   1.929
 2732SOL     OW 9094   6.095   2.027   2.375
 2732SOL    HW1 9095   6.169   1.994   2.433
 2732SOL    HW2 9096   6.106   1.990   2.282
 2733SOL     OW 9097   1.362   6.850   6.476
 2733SOL    HW1 9098   1.416   6.861   6.392
 2733SOL    HW2 9099   1.278   6.799   6.455
 2734SOL     OW 9100   2.168   5.668   4.196
 2734SOL    HW1 9101   2.102   5.613   4.247
 2734SOL    HW2 9102   2.261   5.634   4.213
 2735SOL     OW 9103   1.424   5.035   2.520
 2735SOL    HW1 9104   1.438   5.035   2.421
 2735SOL    HW2 9105   1.512   5.021   2.566
 2736SOL     OW 9106   4.214   0.301   5.126
 2736SOL    HW1 9107   4.295   0.356   5.109
 2736SOL    HW2 9108   4.236   0.204   5.116
 2737SOL     OW 9109   4.714   3.678   6.453
 2737SOL    HW1 9110   4.713   3.737   6.533
 2737SOL    HW2 9111   4.630   3.693   6.400
 2738SOL     OW 9112   5.596   5.190   4.439
 2738SOL    HW1 9113   5.622   5.285   4.457
 2738SOL    HW2 9114   5.643   5.158   4.356
 2739SOL     OW 9115   5.944   3.130   0.410
 2739SOL    HW1 9116   6.010   3.165   0.343
 2739SOL    HW2 9117   5.994   3.090   0.487
 2740SOL     OW 9118   5.758   2.331   3.418
 2740SOL    HW1 9119   5.740   2.402   3.350
 2740SOL    HW2 9120   5.852   2.297   3.407
 2741SOL     OW 9121   0.313   2.337   6.211
 2741SOL    HW1 9122   0.266   2.269   6.155
 2741SOL    HW2 9123   0.396   2.297   6.250
 2742SOL     OW 9124   2.032   6.483   6.415
 2742SOL    HW1 9125   2.004   6.408   6.355
 2742SOL    HW2 9126   1.962   6.555   6.414
 2743SOL     OW 9127   5.549   5.075   0.959
 2743SOL    HW1 9128   5.571   5.013   1.035
 2743SOL    HW2 9129   5.585   5.036   0.874
 2744SOL     OW 9130   4.038   1.313   6.204
 2744SOL    HW1 9131   3.951   1.363   6.203
 2744SOL    HW2 9132   4.020   1.214   6.200
 2745SOL     OW 9133   2.585   6.383   0.616
 2745SOL    HW1 9134   2.608   6.466   0.666
 2745SOL    HW2 9135   2.667   6.348   0.571
 2746SOL     OW 9136   1.856   2.284   6.160
 2746SOL    HW1 9137   1.788   2.304   6.231
 2746SOL    HW2 9138   1.876   2.186   6.160
 2747SOL     OW 9139   4.232   6.286   4.509
 2747SOL    HW1 9140   4.196   6.243   4.426
 2747SOL    HW2 9141   4.165   6.352   4.543
 2748SOL     OW 9142   3.950   1.171   3.631
 2748SOL    HW1 9143   4.015   1.095   3.635
 2748SOL    HW2 9144   3.857   1.135   3.628
 2749SOL     OW 9145   4.575   5.473   3.557
 2749SOL    HW1 9146   4.480   5.457   3.530
 2749SOL    HW2 9147   4.577   5.530   3.640
 2750SOL     OW 9148   0.379   5.583   2.408
 2750SOL    HW1 9149   0.336   5.529   2.480
 2750SOL    HW2 9150   0.458   5.632   2.445
 2751SOL     OW 9151   1.528   0.137   6.344
 2751SOL    HW1 9152   1.566   0.109   6.433
 2751SOL    HW2 9153   1.468   0.064   6.310
 2752SOL     OW 9154   6.070   6.304   5.640
 2752SOL    HW1 9155   6.110   6.258   5.560
 2752SOL    HW2 9156   6.092   6.253   5.723
 2753SOL     OW 9157   2.818   5.382   5.801
 2753SOL    HW1 9158   2.906   5.420   5.771
 2753SOL    HW2 9159   2.823   5.282   5.800
 2754SOL     OW 9160   1.316   0.364   4.077
 2754SOL    HW1 9161   1.397   0.415   4.051
 2754SOL    HW2 9162   1.336   0.305   4.155
 2755SOL     OW 9163   3.502   6.183   2.103
 2755SOL    HW1 9164   3.533   6.265   2.055
 2755SOL    HW2 9165   3.427   6.207   2.166
 2756SOL     OW 9166   0.537   3.108   6.060
 2756SOL    HW1 9167   0.520   3.193   6.109
 2756SOL    HW2 9168   0.631   3.079   6.078
 2757SOL     OW 9169   4.396   3.248   6.754
 2757SOL    HW1 9170   4.490   3.216   6.748
 2757SOL    HW2 9171   4.381   3.322   6.689
 2758SOL     OW 9172   6.611   5.877   2.400
 2758SOL    HW1 9173   6.559   5.803   2.442
 2758SOL    HW2 9174   6.683   5.839   2.341
 2759SOL     OW 9175   2.976   3.809   6.022
 2759SOL    HW1 9176   3.012   3.900   6.042
 2759SOL    HW2 9177   3.050   3.750   5.990
 2760SOL     OW 9178   5.227   6.418   3.010
 2760SOL    HW1 9179   5.184   6.360   2.941
 2760SOL    HW2 9180   5.236   6.367   3.095
 2761SOL     OW 9181   1.344   2.932   3.380
 2761SOL    HW1 9182   1.364   2.974   3.468
 2761SOL    HW2 9183   1.388   2.842   3.375
 2762SOL     OW 9184   2.422   2.447   0.420
 2762SOL    HW1 9185   2.440   2.367   0.363
 2762SOL    HW2 9186   2.491   2.451   0.493
 2763SOL     OW 9187   5.892   1.910   4.593
 2763SOL    HW1 9188   5.910   2.007   4.578
 2763SOL    HW2 9189   5.846   1.898   4.680
 2764SOL     OW 9190   0.518   3.481   2.543
 2764SOL    HW1 9191   0.567   3.562   2.511
 2764SOL    HW2 9192   0.420   3.495   2.532
 2765SOL     OW 9193   6.484   6.540   0.062
 2765SOL    HW1 9194   6.525   6.468   0.119
 2765SOL    HW2 9195   6.536   6.625   0.074
 2766SOL     OW 9196   5.064   0.881   6.364
 2766SOL    HW1 9197   5.154   0.922   6.350
 2766SOL    HW2 9198   5.010   0.938   6.426
 2767SOL     OW 9199   6.332   5.454   6.592
 2767SOL    HW1 9200   6.331   5.528   6.524
 2767SOL    HW2 9201   6.251   5.397   6.580
 2768SOL     OW 9202   4.200   0.131   1.078
 2768SOL    HW1 9203   4.145   0.181   1.145
 2768SOL    HW2 9204   4.258   0.195   1.027
 2769SOL     OW 9205   0.564   4.357   5.934
 2769SOL    HW1 9206   0.623   4.352   6.015
 2769SOL    HW2 9207   0.531   4.450   5.922
 2770SOL     OW 9208   3.146   6.696   0.727
 2770SOL    HW1 9209   3.106   6.786   0.743
 2770SOL    HW2 9210   3.245   6.702   0.730
 2771SOL     OW 9211   4.383   6.878   4.788
 2771SOL    HW1 9212   4.389   6.806   4.857
 2771SOL    HW2 9213   4.423   6.846   4.702
 2772SOL     OW 9214   4.613   0.067   3.553
 2772SOL    HW1 9215   4.517   0.050   3.529
 2772SOL    HW2 9216   4.621   0.157   3.596
 2773SOL     OW 9217   5.670   2.710   5.092
 2773SOL    HW1 9218   5.662   2.611   5.104
 2773SOL    HW2 9219   5.598   2.756   5.143
 2774SOL     OW 9220   6.177   2.089   4.425
 2774SOL    HW1 9221   6.164   2.047   4.335
 2774SOL    HW2 9222   6.248   2.040   4.475
 2775SOL     OW 9223   0.385   3.795   4.020
 2775SOL    HW1 9224   0.475   3.831   3.996
 2775SOL    HW2 9225   0.318   3.869   4.018
 2776SOL     OW 9226   4.992   4.460   6.050
 2776SOL    HW1 9227   4.980   4.559   6.055
 2776SOL    HW2 9228   4.906   4.418   6.021
 2777SOL     OW 9229   2.953   2.224   6.323
 2777SOL    HW1 9230   2.927   2.147   6.382
 2777SOL    HW2 9231   3.052   2.234   6.324
 2778SOL     OW 9232   3.195   0.154   5.863
 2778SOL    HW1 9233   3.168   0.194   5.951
 2778SOL    HW2 9234   3.150   0.204   5.789
 2779SOL     OW 9235   5.526   0.531   1.416
 2779SOL    HW1 9236   5.453   0.480   1.369
 2779SOL    HW2 9237   5.487   0.578   1.495
 2780SOL     OW 9238   6.828   2.094   4.628
 2780SOL    HW1 9239   6.803   2.001   4.603
 2780SOL    HW2 9240   6.751   2.138   4.674
 2781SOL     OW 9241   5.716   1.503   3.344
 2781SOL    HW1 9242   5.783   1.486   3.416
 2781SOL    HW2 9243   5.742   1.451   3.262
 2782SOL     OW 9244   5.074   0.167   5.950
 2782SOL    HW1 9245   5.140   0.092   5.951
 2782SOL    HW2 9246   5.118   0.251   5.983
 2783SOL     OW 9247   5.547   4.360   1.536
 2783SOL    HW1 9248   5.632   4.341   1.487
 2783SOL    HW2 9249   5.535   4.459   1.544
 2784SOL     OW 9250   1.226   1.915   1.390
 2784SOL    HW1 9251   1.324   1.914   1.410
 2784SOL    HW2 9252   1.183   1.992   1.437
 2785SOL     OW 9253   6.082   2.936   1.662
 2785SOL    HW1 9254   6.059   2.856   1.606
 2785SOL    HW2 9255   6.022   3.012   1.638
 2786SOL     OW 9256   6.980   5.978   0.032
 2786SOL    HW1 9257   7.004   6.071   0.060
 2786SOL    HW2 9258   6.939   5.981   6.965
 2787SOL     OW 9259   6.391   5.168   6.649
 2787SOL    HW1 9260   6.336   5.235   6.600
 2787SOL    HW2 9261   6.387   5.080   6.601
 2788SOL     OW 9262   3.178   5.993   5.980
 2788SOL    HW1 9263   3.153   6.089   5.993
 2788SOL    HW2 9264   3.134   5.937   6.051
 2789SOL     OW 9265   1.105   2.275   5.240
 2789SOL    HW1 9266   1.189   2.328   5.254
 2789SOL    HW2 9267   1.109   2.228   5.152
 2790SOL     OW 9268   1.500   5.524   2.199
 2790SOL    HW1 9269   1.529   5.556   2.290
 2790SOL    HW2 9270   1.487   5.425   2.201
 2791SOL     OW 9271   0.385   4.179   3.228
 2791SOL    HW1 9272   0.315   4.122   3.186
 2791SOL    HW2 9273   0.400   4.261   3.173
 2792SOL     OW 9274   3.417   1.125   6.020
 2792SOL    HW1 9275   3.495   1.150   6.076
 2792SOL    HW2 9276   3.446   1.065   5.945
 2793SOL     OW 9277   3.636   3.834   0.317
 2793SOL    HW1 9278   3.716   3.809   0.371
 2793SOL    HW2 9279   3.577   3.895   0.370
 2794SOL     OW 9280   0.992   2.725   0.276
 2794SOL    HW1 9281   0.910   2.669   0.273
 2794SOL    HW2 9282   0.994   2.785   0.195
 2795SOL     OW 9283   0.765   5.413   1.617
 2795SOL    HW1 9284   0.761   5.313   1.623
 2795SOL    HW2 9285   0.783   5.451   1.708
 2796SOL     OW 9286   2.063   5.625   6.326
 2796SOL    HW1 9287   2.103   5.568   6.398
 2796SOL    HW2 9288   2.117   5.708   6.316
 2797SOL     OW 9289   5.116   6.175   3.528
 2797SOL    HW1 9290   5.043   6.121   3.570
 2797SOL    HW2 9291   5.146   6.246   3.592
 2798SOL     OW 9292   4.819   0.639   1.796
 2798SOL    HW1 9293   4.816   0.580   1.876
 2798SOL    HW2 9294   4.746   0.612   1.732
 2799SOL     OW 9295   3.616   6.110   5.149
 2799SOL    HW1 9296   3.662   6.043   5.208
 2799SOL    HW2 9297   3.573   6.063   5.072
 2800SOL     OW 9298   6.027   7.005   6.560
 2800SOL    HW1 9299   5.956   0.019   6.501
 2800SOL    HW2 9300   5.987   6.931   6.616
 2801SOL     OW 9301   0.526   4.661   4.960
 2801SOL    HW1 9302   0.570   4.748   4.983
 2801SOL    HW2 9303   0.448   4.678   4.900
 2802SOL     OW 9304   1.727   5.349   5.365
 2802SOL    HW1 9305   1.825   5.368   5.371
 2802SOL    HW2 9306   1.706   5.263   5.413
 2803SOL     OW 9307   3.782   2.034   5.795
 2803SOL    HW1 9308   3.764   1.945   5.753
 2803SOL    HW2 9309   3.698   2.071   5.833
 2804SOL     OW 9310   0.319   2.611   4.154
 2804SOL    HW1 9311   0.240   2.576   4.205
 2804SOL    HW2 9312   0.300   2.704   4.123
 2805SOL     OW 9313   3.803   3.195   0.823
 2805SOL    HW1 9314   3.812   3.102   0.858
 2805SOL    HW2 9315   3.894   3.233   0.807
 2806SOL     OW 9316   0.266   4.122   6.333
 2806SOL    HW1 9317   0.279   4.106   6.431
 2806SOL    HW2 9318   0.316   4.204   6.306
 2807SOL     OW 9319   3.913   0.249   3.845
 2807SOL    HW1 9320   3.927   0.274   3.941
 2807SOL    HW2 9321   3.824   0.207   3.834
 2808SOL     OW 9322   0.204   5.530   5.630
 2808SOL    HW1 9323   0.211   5.431   5.618
 2808SOL    HW2 9324   0.110   5.559   5.614
 2809SOL     OW 9325   6.839   5.613   1.708
 2809SOL    HW1 9326   6.920   5.555   1.702
 2809SOL    HW2 9327   6.791   5.595   1.794
 2810SOL     OW 9328   2.567   6.788   2.761
 2810SOL    HW1 9329   2.598   6.713   2.820
 2810SOL    HW2 9330   2.478   6.821   2.793
 2811SOL     OW 9331   1.228   1.147   1.408
 2811SOL    HW1 9332   1.318   1.178   1.376
 2811SOL    HW2 9333   1.162   1.159   1.334
 2812SOL     OW 9334   0.670   2.029   0.949
 2812SOL    HW1 9335   0.679   1.930   0.956
 2812SOL    HW2 9336   0.676   2.070   1.040
 2813SOL     OW 9337   0.804   2.815   1.210
 2813SOL    HW1 9338   0.806   2.775   1.118
 2813SOL    HW2 9339   0.789   2.914   1.202
 2814SOL     OW 9340   2.385   4.555   0.301
 2814SOL    HW1 9341   2.396   4.464   0.340
 2814SOL    HW2 9342   2.405   4.553   0.203
 2815SOL     OW 9343   0.706   4.853   5.166
 2815SOL    HW1 9344   0.750   4.778   5.116
 2815SOL    HW2 9345   0.714   4.937   5.113
 2816SOL     OW 9346   0.946   6.287   5.671
 2816SOL    HW1 9347   0.849   6.266   5.686
 2816SOL    HW2 9348   1.000   6.204   5.682
 2817SOL     OW 9349   4.348   0.630   2.347
 2817SOL    HW1 9350   4.425   0.573   2.376
 2817SOL    HW2 9351   4.372   0.726   2.355
 2818SOL     OW 9352   1.435   0.375   0.269
 2818SOL    HW1 9353   1.430   0.302   0.337
 2818SOL    HW2 9354   1.486   0.453   0.308
 2819SOL     OW 9355   0.788   0.734   0.386
 2819SOL    HW1 9356   0.851   0.763   0.458
 2819SOL    HW2 9357   0.837   0.726   0.300
 2820SOL     OW 9358   1.823   2.692   0.182
 2820SOL    HW1 9359   1.805   2.785   0.151
 2820SOL    HW2 9360   1.922   2.674   0.176
 2821SOL     OW 9361   3.130   3.230   6.143
 2821SOL    HW1 9362   3.076   3.159   6.189
 2821SOL    HW2 9363   3.159   3.196   6.054
 2822SOL     OW 9364   4.345   2.313   0.760
 2822SOL    HW1 9365   4.297   2.375   0.697
 2822SOL    HW2 9366   4.443   2.327   0.752
 2823SOL     OW 9367   5.247   2.359   1.740
 2823SOL    HW1 9368   5.256   2.398   1.832
 2823SOL    HW2 9369   5.310   2.282   1.730
 2824SOL     OW 9370   1.197   3.512   4.574
 2824SOL    HW1 9371   1.270   3.561   4.527
 2824SOL    HW2 9372   1.184   3.422   4.533
 2825SOL     OW 9373   5.410   1.980   5.882
 2825SOL    HW1 9374   5.329   2.038   5.891
 2825SOL    HW2 9375   5.492   2.034   5.901
 2826SOL     OW 9376   2.538   2.584   6.662
 2826SOL    HW1 9377   2.580   2.653   6.604
 2826SOL    HW2 9378   2.596   2.569   6.743
 2827SOL     OW 9379   5.846   1.024   6.363
 2827SOL    HW1 9380   5.924   1.065   6.316
 2827SOL    HW2 9381   5.866   1.019   6.461
 2828SOL     OW 9382   1.736   3.537   0.905
 2828SOL    HW1 9383   1.667   3.500   0.842
 2828SOL    HW2 9384   1.715   3.507   0.998
 2829SOL     OW 9385   3.059   3.771   2.628
 2829SOL    HW1 9386   3.100   3.821   2.705
 2829SOL    HW2 9387   3.065   3.826   2.545
 2830SOL     OW 9388   3.293   5.566   5.519
 2830SOL    HW1 9389   3.279   5.649   5.464
 2830SOL    HW2 9390   3.390   5.543   5.518
 2831SOL     OW 9391   5.824   1.813   1.823
 2831SOL    HW1 9392   5.749   1.830   1.887
 2831SOL    HW2 9393   5.877   1.734   1.855
 2832SOL     OW 9394   0.643   3.829   2.064
 2832SOL    HW1 9395   0.637   3.892   1.986
 2832SOL    HW2 9396   0.683   3.877   2.142
 2833SOL     OW 9397   2.043   2.760   2.016
 2833SOL    HW1 9398   2.140   2.765   2.039
 2833SOL    HW2 9399   2.029   2.692   1.944
 2834SOL     OW 9400   3.390   5.925   5.503
 2834SOL    HW1 9401   3.355   5.971   5.585
 2834SOL    HW2 9402   3.490   5.921   5.507
 2835SOL     OW 9403   6.948   0.466   0.691
 2835SOL    HW1 9404   6.922   0.520   0.611
 2835SOL    HW2 9405   0.023   0.471   0.704
 2836SOL     OW 9406   3.776   5.851   2.281
 2836SOL    HW1 9407   3.796   5.809   2.370
 2836SOL    HW2 9408   3.691   5.813   2.245
 2837SOL     OW 9409   5.211   4.330   1.757
 2837SOL    HW1 9410   5.268   4.280   1.822
 2837SOL    HW2 9411   5.231   4.299   1.664
 2838SOL     OW 9412   6.037   4.674   6.387
 2838SOL    HW1 9413   6.129   4.643   6.409
 2838SOL    HW2 9414   5.976   4.654   6.465
 2839SOL     OW 9415   6.366   3.358   4.664
 2839SOL    HW1 9416   6.272   3.394   4.660
 2839SOL    HW2 9417   6.365   3.261   4.642
 2840SOL     OW 9418   0.053   6.412   3.814
 2840SOL    HW1 9419   0.069   6.367   3.902
 2840SOL    HW2 9420   6.996   6.372   3.771
 2841SOL     OW 9421   5.989   3.961   2.534
 2841SOL    HW1 9422   6.024   4.055   2.531
 2841SOL    HW2 9423   6.037   3.911   2.606
 2842SOL     OW 9424   1.354   0.166   3.586
 2842SOL    HW1 9425   1.342   0.215   3.672
 2842SOL    HW2 9426   1.303   0.213   3.514
 2843SOL     OW 9427   2.111   2.535   3.821
 2843SOL    HW1 9428   2.157   2.567   3.738
 2843SOL    HW2 9429   2.150   2.581   3.901
 2844SOL     OW 9430   5.084   4.025   0.029
 2844SOL    HW1 9431   5.086   3.987   0.122
 2844SOL    HW2 9432   5.160   4.089   0.018
 2845SOL     OW 9433   3.142   2.192   2.833
 2845SOL    HW1 9434   3.060   2.245   2.812
 2845SOL    HW2 9435   3.144   2.109   2.777
 2846SOL     OW 9436   6.101   0.067   0.157
 2846SOL    HW1 9437   6.046   0.125   0.218
 2846SOL    HW2 9438   6.040   0.009   0.103
 2847SOL     OW 9439   4.452   4.475   1.496
 2847SOL    HW1 9440   4.525   4.411   1.521
 2847SOL    HW2 9441   4.415   4.450   1.407
 2848SOL     OW 9442   0.353   3.922   5.541
 2848SOL    HW1 9443   0.298   3.838   5.535
 2848SOL    HW2 9444   0.413   3.927   5.461
 2849SOL     OW 9445   4.668   0.202   1.621
 2849SOL    HW1 9446   4.677   0.274   1.690
 2849SOL    HW2 9447   4.577   0.161   1.627
 2850SOL     OW 9448   2.150   0.472   2.024
 2850SOL    HW1 9449   2.089   0.487   1.947
 2850SOL    HW2 9450   2.150   0.552   2.084
 2851SOL     OW 9451   3.519   2.898   1.567
 2851SOL    HW1 9452   3.462   2.929   1.643
 2851SOL    HW2 9453   3.497   2.803   1.546
 2852SOL     OW 9454   6.420   4.440   6.740
 2852SOL    HW1 9455   6.477   4.504   6.690
 2852SOL    HW2 9456   6.324   4.452   6.713
 2853SOL     OW 9457   6.789   4.385   5.885
 2853SOL    HW1 9458   6.840   4.300   5.899
 2853SOL    HW2 9459   6.764   4.394   5.789
 2854SOL     OW 9460   3.950   0.556   5.422
 2854SOL    HW1 9461   4.017   0.630   5.424
 2854SOL    HW2 9462   3.953   0.511   5.333
 2855SOL     OW 9463   2.393   1.946   5.452
 2855SOL    HW1 9464   2.361   1.875   5.515
 2855SOL    HW2 9465   2.324   2.018   5.445
 2856SOL     OW 9466   1.025   5.313   4.043
 2856SOL    HW1 9467   1.103   5.344   3.988
 2856SOL    HW2 9468   0.972   5.247   3.990
 2857SOL     OW 9469   6.910   4.135   1.054
 2857SOL    HW1 9470   6.903   4.231   1.025
 2857SOL    HW2 9471   6.834   4.114   1.116
 2858SOL     OW 9472   4.589   4.698   2.141
 2858SOL    HW1 9473   4.566   4.716   2.045
 2858SOL    HW2 9474   4.548   4.611   2.169
 2859SOL     OW 9475   5.428   5.204   0.733
 2859SOL    HW1 9476   5.340   5.248   0.749
 2859SOL    HW2 9477   5.468   5.178   0.820
 2860SOL     OW 9478   0.847   0.056   2.378
 2860SOL    HW1 9479   0.764   0.110   2.365
 2860SOL    HW2 9480   0.834   6.989   2.340
 2861SOL     OW 9481   4.706   5.016   5.777
 2861SOL    HW1 9482   4.717   5.046   5.683
 2861SOL    HW2 9483   4.613   5.038   5.808
 2862SOL     OW 9484   4.248   2.712   0.312
 2862SOL    HW1 9485   4.191   2.743   0.388
 2862SOL    HW2 9486   4.199   2.642   0.261
 2863SOL     OW 9487   5.977   0.537   5.191
 2863SOL    HW1 9488   5.975   0.629   5.231
 2863SOL    HW2 9489   5.991   0.544   5.092
 2864SOL     OW 9490   3.697   4.729   0.310
 2864SOL    HW1 9491   3.634   4.804   0.329
 2864SOL    HW2 9492   3.791   4.761   0.321
 2865SOL     OW 9493   5.541   5.389   4.818
 2865SOL    HW1 9494   5.456   5.365   4.772
 2865SOL    HW2 9495   5.563   5.486   4.801
 2866SOL     OW 9496   4.515   4.284   0.767
 2866SOL    HW1 9497   4.613   4.269   0.757
 2866SOL    HW2 9498   4.471   4.200   0.796
 2867SOL     OW 9499   5.091   6.441   1.831
 2867SOL    HW1 9500   5.148   6.380   1.885
 2867SOL    HW2 9501   5.028   6.387   1.774
 2868SOL     OW 9502   1.273   0.667   5.335
 2868SOL    HW1 9503   1.185   0.655   5.382
 2868SOL    HW2 9504   1.299   0.582   5.291
 2869SOL     OW 9505   6.358   5.478   4.537
 2869SOL    HW1 9506   6.419   5.501   4.613
 2869SOL    HW2 9507   6.411   5.469   4.453
 2870SOL     OW 9508   6.787   2.335   1.994
 2870SOL    HW1 9509   6.866   2.368   1.942
 2870SOL    HW2 9510   6.818   2.269   2.063
 2871SOL     OW 9511   5.850   1.850   2.723
 2871SOL    HW1 9512   5.949   1.865   2.725
 2871SOL    HW2 9513   5.803   1.937   2.740
 2872SOL     OW 9514   3.083   2.142   2.472
 2872SOL    HW1 9515   3.022   2.208   2.428
 2872SOL    HW2 9516   3.063   2.138   2.570
 2873SOL     OW 9517   1.293   6.908   1.259
 2873SOL    HW1 9518   1.266   6.929   1.354
 2873SOL    HW2 9519   1.222   6.851   1.217
 2874SOL     OW 9520   2.820   1.077   2.731
 2874SOL    HW1 9521   2.733   1.050   2.688
 2874SOL    HW2 9522   2.851   1.003   2.791
 2875SOL     OW 9523   2.183   6.668   2.716
 2875SOL    HW1 9524   2.216   6.753   2.758
 2875SOL    HW2 9525   2.089   6.651   2.745
 2876SOL     OW 9526   1.596   0.513   2.259
 2876SOL    HW1 9527   1.513   0.546   2.305
 2876SOL    HW2 9528   1.654   0.591   2.235
 2877SOL     OW 9529   1.517   2.383   6.652
 2877SOL    HW1 9530   1.520   2.453   6.724
 2877SOL    HW2 9531   1.470   2.421   6.572
 2878SOL     OW 9532   4.047   3.159   3.916
 2878SOL    HW1 9533   4.133   3.108   3.918
 2878SOL    HW2 9534   3.997   3.143   4.001
 2879SOL     OW 9535   4.324   3.918   0.375
 2879SOL    HW1 9536   4.273   3.884   0.296
 2879SOL    HW2 9537   4.415   3.948   0.346
 2880SOL     OW 9538   2.450   1.005   3.510
 2880SOL    HW1 9539   2.489   1.062   3.583
 2880SOL    HW2 9540   2.372   0.954   3.545
 2881SOL     OW 9541   4.659   5.574   6.729
 2881SOL    HW1 9542   4.617   5.486   6.750
 2881SOL    HW2 9543   4.616   5.645   6.784
 2882SOL     OW 9544   4.905   6.217   0.360
 2882SOL    HW1 9545   5.004   6.229   0.355
 2882SOL    HW2 9546   4.860   6.305   0.345
 2883SOL     OW 9547   5.851   5.938   3.936
 2883SOL    HW1 9548   5.764   5.900   3.965
 2883SOL    HW2 9549   5.925   5.899   3.990
 2884SOL     OW 9550   6.718   5.248   4.236
 2884SOL    HW1 9551   6.704   5.309   4.158
 2884SOL    HW2 9552   6.630   5.211   4.267
 2885SOL     OW 9553   1.274   2.266   3.713
 2885SOL    HW1 9554   1.271   2.355   3.760
 2885SOL    HW2 9555   1.364   2.225   3.725
 2886SOL     OW 9556   2.321   4.291   5.784
 2886SOL    HW1 9557   2.233   4.246   5.797
 2886SOL    HW2 9558   2.340   4.299   5.686
 2887SOL     OW 9559   0.435   5.706   3.384
 2887SOL    HW1 9560   0.533   5.687   3.392
 2887SOL    HW2 9561   0.401   5.669   3.297
 2888SOL     OW 9562   6.024   6.711   6.752
 2888SOL    HW1 9563   6.121   6.719   6.773
 2888SOL    HW2 9564   6.008   6.626   6.701
 2889SOL     OW 9565   3.341   6.332   2.345
 2889SOL    HW1 9566   3.437   6.339   2.372
 2889SOL    HW2 9567   3.283   6.375   2.415
 2890SOL     OW 9568   1.430   1.840   1.629
 2890SOL    HW1 9569   1.530   1.839   1.627
 2890SOL    HW2 9570   1.396   1.746   1.621
 2891SOL     OW 9571   0.699   2.458   4.464
 2891SOL    HW1 9572   0.718   2.548   4.504
 2891SOL    HW2 9573   0.660   2.470   4.372
 2892SOL     OW 9574   6.179   4.170   2.909
 2892SOL    HW1 9575   6.254   4.230   2.935
 2892SOL    HW2 9576   6.153   4.113   2.988
 2893SOL     OW 9577   6.335   5.399   4.903
 2893SOL    HW1 9578   6.375   5.312   4.932
 2893SOL    HW2 9579   6.396   5.443   4.837
 2894SOL     OW 9580   1.971   6.082   2.494
 2894SOL    HW1 9581   2.004   6.166   2.451
 2894SOL    HW2 9582   1.933   6.021   2.424
 2895SOL     OW 9583   4.307   6.573   6.395
 2895SOL    HW1 9584   4.399   6.544   6.369
 2895SOL    HW2 9585   4.268   6.628   6.322
 2896SOL     OW 9586   5.836   6.108   5.053
 2896SOL    HW1 9587   5.756   6.161   5.082
 2896SOL    HW2 9588   5.904   6.170   5.015
 2897SOL     OW 9589   4.055   4.963   3.099
 2897SOL    HW1 9590   3.996   4.886   3.124
 2897SOL    HW2 9591   4.044   4.984   3.002
 2898SOL     OW 9592   5.322   2.949   2.728
 2898SOL    HW1 9593   5.399   2.911   2.676
 2898SOL    HW2 9594   5.333   2.926   2.824
 2899SOL     OW 9595   6.821   3.898   0.870
 2899SOL    HW1 9596   6.828   3.997   0.872
 2899SOL    HW2 9597   6.846   3.860   0.959
 2900SOL     OW 9598   2.464   2.607   5.971
 2900SOL    HW1 9599   2.426   2.651   5.890
 2900SOL    HW2 9600   2.412   2.636   6.052
 2901SOL     OW 9601   0.923   4.337   3.596
 2901SOL    HW1 9602   0.869   4.273   3.542
 2901SOL    HW2 9603   1.003   4.290   3.633
 2902SOL     OW 9604   6.949   5.932   3.649
 2902SOL    HW1 9605   0.025   5.928   3.659
 2902SOL    HW2 9606   6.927   5.962   3.556
 2903SOL     OW 9607   4.788   4.741   0.342
 2903SOL    HW1 9608   4.792   4.810   0.269
 2903SOL    HW2 9609   4.694   4.731   0.374
 2904SOL     OW 9610   2.393   4.082   5.402
 2904SOL    HW1 9611   2.488   4.098   5.430
 2904SOL    HW2 9612   2.392   4.033   5.314
 2905SOL     OW 9613   1.039   5.991   1.789
 2905SOL    HW1 9614   0.955   6.003   1.842
 2905SOL    HW2 9615   1.053   6.070   1.729
 2906SOL     OW 9616   6.667   6.487   3.990
 2906SOL    HW1 9617   6.730   6.441   4.054
 2906SOL    HW2 9618   6.578   6.498   4.033
 2907SOL     OW 9619   0.616   1.008   4.220
 2907SOL    HW1 9620   0.623   0.908   4.213
 2907SOL    HW2 9621   0.674   1.040   4.295
 2908SOL     OW 9622   4.366   6.057   2.971
 2908SOL    HW1 9623   4.303   6.026   2.900
 2908SOL    HW2 9624   4.458   6.064   2.933
 2909SOL     OW 9625   0.554   6.586   1.549
 2909SOL    HW1 9626   0.481   6.520   1.530
 2909SOL    HW2 9627   0.524   6.651   1.618
 2910SOL     OW 9628   0.014   0.836   4.136
 2910SOL    HW1 9629   0.077   0.912   4.120
 2910SOL    HW2 9630   6.944   0.871   4.135
 2911SOL     OW 9631   0.078   4.594   5.449
 2911SOL    HW1 9632   0.169   4.621   5.481
 2911SOL    HW2 9633   0.073   4.494   5.445
 2912SOL     OW 9634   0.538   1.016   1.462
 2912SOL    HW1 9635   0.617   1.053   1.414
 2912SOL    HW2 9636   0.566   0.936   1.515
 2913SOL     OW 9637   2.738   0.012   1.576
 2913SOL    HW1 9638   2.721   0.081   1.505
 2913SOL    HW2 9639   2.760   6.949   1.534
 2914SOL     OW 9640   4.311   5.205   0.745
 2914SOL    HW1 9641   4.406   5.195   0.773
 2914SOL    HW2 9642   4.307   5.221   0.646
 2915SOL     OW 9643   2.341   0.369   2.496
 2915SOL    HW1 9644   2.408   0.429   2.539
 2915SOL    HW2 9645   2.384   0.282   2.471
 2916SOL     OW 9646   1.296   6.648   0.386
 2916SOL    HW1 9647   1.292   6.726   0.449
 2916SOL    HW2 9648   1.368   6.665   0.318
 2917SOL     OW 9649   2.548   6.005   4.001
 2917SOL    HW1 9650   2.501   6.094   3.995
 2917SOL    HW2 9651   2.549   5.974   4.096
 2918SOL     OW 9652   5.013   2.598   1.962
 2918SOL    HW1 9653   5.051   2.561   2.046
 2918SOL    HW2 9654   5.005   2.697   1.970
 2919SOL     OW 9655   0.980   5.591   4.726
 2919SOL    HW1 9656   0.933   5.674   4.694
 2919SOL    HW2 9657   0.973   5.585   4.825
 2920SOL     OW 9658   1.347   2.695   2.827
 2920SOL    HW1 9659   1.407   2.652   2.760
 2920SOL    HW2 9660   1.253   2.664   2.812
 2921SOL     OW 9661   1.086   0.032   3.871
 2921SOL    HW1 9662   1.097   0.129   3.893
 2921SOL    HW2 9663   1.174   7.010   3.880
 2922SOL     OW 9664   3.649   6.527   3.617
 2922SOL    HW1 9665   3.559   6.500   3.582
 2922SOL    HW2 9666   3.638   6.588   3.695
 2923SOL     OW 9667   6.663   5.953   5.057
 2923SOL    HW1 9668   6.760   5.957   5.081
 2923SOL    HW2 9669   6.610   5.924   5.137
 2924SOL     OW 9670   5.816   2.018   4.836
 2924SOL    HW1 9671   5.851   2.111   4.849
 2924SOL    HW2 9672   5.776   1.985   4.922
 2925SOL     OW 9673   4.920   6.337   6.229
 2925SOL    HW1 9674   5.010   6.294   6.230
 2925SOL    HW2 9675   4.905   6.388   6.314
 2926SOL     OW 9676   6.750   3.006   4.289
 2926SOL    HW1 9677   6.686   2.979   4.217
 2926SOL    HW2 9678   6.725   3.096   4.324
 2927SOL     OW 9679   0.772   2.011   1.885
 2927SOL    HW1 9680   0.850   2.029   1.946
 2927SOL    HW2 9681   0.728   1.926   1.913
 2928SOL     OW 9682   6.636   2.998   0.197
 2928SOL    HW1 9683   6.681   2.988   0.108
 2928SOL    HW2 9684   6.705   2.996   0.269
 2929SOL     OW 9685   2.497   2.322   4.384
 2929SOL    HW1 9686   2.565   2.350   4.316
 2929SOL    HW2 9687   2.520   2.362   4.473
 2930SOL     OW 9688   7.022   4.498   4.533
 2930SOL    HW1 9689   6.962   4.431   4.578
 2930SOL    HW2 9690   6.990   4.514   4.440
 2931SOL     OW 9691   4.917   3.731   5.697
 2931SOL    HW1 9692   5.000   3.687   5.663
 2931SOL    HW2 9693   4.838   3.672   5.679
 2932SOL     OW 9694   6.599   5.403   0.759
 2932SOL    HW1 9695   6.507   5.365   0.747
 2932SOL    HW2 9696   6.655   5.337   0.810
 2933SOL     OW 9697   1.126   0.699   0.287
 2933SOL    HW1 9698   1.122   0.701   0.387
 2933SOL    HW2 9699   1.034   0.697   0.250
 2934SOL     OW 9700   3.607   4.468   0.332
 2934SOL    HW1 9701   3.601   4.555   0.381
 2934SOL    HW2 9702   3.515   4.433   0.314
 2935SOL     OW 9703   0.368   2.011   6.331
 2935SOL    HW1 9704   0.436   1.943   6.303
 2935SOL    HW2 9705   0.312   2.035   6.251
 2936SOL     OW 9706   4.874   6.277   0.761
 2936SOL    HW1 9707   4.959   6.306   0.717
 2936SOL    HW2 9708   4.839   6.196   0.713
 2937SOL     OW 9709   5.153   4.880   2.538
 2937SOL    HW1 9710   5.204   4.865   2.454
 2937SOL    HW2 9711   5.075   4.818   2.541
 2938SOL     OW 9712   6.938   5.640   6.563
 2938SOL    HW1 9713   6.901   5.549   6.541
 2938SOL    HW2 9714   6.941   5.695   6.479
 2939SOL     OW 9715   0.319   6.171   1.665
 2939SOL    HW1 9716   0.275   6.242   1.721
 2939SOL    HW2 9717   0.350   6.211   1.579
 2940SOL     OW 9718   4.072   6.434   3.333
 2940SOL    HW1 9719   4.076   6.340   3.299
 2940SOL    HW2 9720   4.051   6.434   3.430
 2941SOL     OW 9721   1.861   4.377   3.703
 2941SOL    HW1 9722   1.880   4.464   3.658
 2941SOL    HW2 9723   1.837   4.392   3.799
 2942SOL     OW 9724   3.416   1.638   1.077
 2942SOL    HW1 9725   3.385   1.618   1.169
 2942SOL    HW2 9726   3.408   1.736   1.059
 2943SOL     OW 9727   5.892   3.898   3.111
 2943SOL    HW1 9728   5.913   3.889   3.013
 2943SOL    HW2 9729   5.850   3.814   3.144
 2944SOL     OW 9730   2.210   6.375   2.423
 2944SOL    HW1 9731   2.250   6.435   2.354
 2944SOL    HW2 9732   2.114   6.401   2.438
 2945SOL     OW 9733   5.112   4.142   1.246
 2945SOL    HW1 9734   5.024   4.189   1.257
 2945SOL    HW2 9735   5.142   4.107   1.335
 2946SOL     OW 9736   3.889   3.607   5.385
 2946SOL    HW1 9737   3.921   3.692   5.429
 2946SOL    HW2 9738   3.925   3.529   5.436
 2947SOL     OW 9739   6.296   6.872   0.852
 2947SOL    HW1 9740   6.359   6.865   0.930
 2947SOL    HW2 9741   6.202   6.864   0.884
 2948SOL     OW 9742   6.816   3.931   1.676
 2948SOL    HW1 9743   6.825   3.869   1.755
 2948SOL    HW2 9744   6.906   3.943   1.634
 2949SOL     OW 9745   1.209   6.844   0.930
 2949SOL    HW1 9746   1.193   6.908   0.855
 2949SOL    HW2 9747   1.127   6.838   0.987
 2950SOL     OW 9748   5.807   5.104   3.380
 2950SOL    HW1 9749   5.907   5.099   3.373
 2950SOL    HW2 9750   5.781   5.161   3.458
 2951SOL     OW 9751   6.651   1.375   2.092
 2951SOL    HW1 9752   6.673   1.279   2.105
 2951SOL    HW2 9753   6.553   1.385   2.071
 2952SOL     OW 9754   6.366   2.011   4.603
 2952SOL    HW1 9755   6.465   1.995   4.599
 2952SOL    HW2 9756   6.346   2.074   4.677
 2953SOL     OW 9757   1.213   5.596   4.358
 2953SOL    HW1 9758   1.154   5.643   4.292
 2953SOL    HW2 9759   1.170   5.510   4.385
 2954SOL     OW 9760   6.860   4.312   6.244
 2954SOL    HW1 9761   6.788   4.380   6.228
 2954SOL    HW2 9762   6.880   4.264   6.159
 2955SOL     OW 9763   1.782   4.045   5.826
 2955SOL    HW1 9764   1.784   3.985   5.746
 2955SOL    HW2 9765   1.721   4.123   5.808
 2956SOL     OW 9766   5.435   5.133   3.606
 2956SOL    HW1 9767   5.344   5.152   3.643
 2956SOL    HW2 9768   5.425   5.075   3.524
 2957SOL     OW 9769   2.233   5.139   0.845
 2957SOL    HW1 9770   2.244   5.057   0.902
 2957SOL    HW2 9771   2.255   5.116   0.750
 2958SOL     OW 9772   1.318   5.620   2.562
 2958SOL    HW1 9773   1.318   5.529   2.521
 2958SOL    HW2 9774   1.412   5.655   2.565
 2959SOL     OW 9775   6.715   3.777   2.749
 2959SOL    HW1 9776   6.698   3.856   2.691
 2959SOL    HW2 9777   6.652   3.778   2.827
 2960SOL     OW 9778   5.747   0.283   0.536
 2960SOL    HW1 9779   5.683   0.341   0.586
 2960SOL    HW2 9780   5.712   0.189   0.534
 2961SOL     OW 9781   5.637   3.682   2.121
 2961SOL    HW1 9782   5.614   3.718   2.211
 2961SOL    HW2 9783   5.625   3.754   2.053
 2962SOL     OW 9784   6.816   0.438   3.386
 2962SOL    HW1 9785   6.771   0.478   3.306
 2962SOL    HW2 9786   6.856   0.350   3.361
 2963SOL     OW 9787   1.712   1.142   5.122
 2963SOL    HW1 9788   1.638   1.115   5.061
 2963SOL    HW2 9789   1.694   1.108   5.215
 2964SOL     OW 9790   1.008   1.632   6.796
 2964SOL    HW1 9791   1.067   1.560   6.759
 2964SOL    HW2 9792   0.985   1.611   6.891
 2965SOL     OW 9793   0.189   6.567   5.147
 2965SOL    HW1 9794   0.152   6.647   5.193
 2965SOL    HW2 9795   0.204   6.494   5.214
 2966SOL     OW 9796   3.252   5.796   2.222
 2966SOL    HW1 9797   3.349   5.779   2.207
 2966SOL    HW2 9798   3.234   5.803   2.320
 2967SOL     OW 9799   5.128   0.671   4.916
 2967SOL    HW1 9800   5.045   0.626   4.883
 2967SOL    HW2 9801   5.208   0.621   4.885
 2968SOL     OW 9802   1.673   3.649   1.482
 2968SOL    HW1 9803   1.661   3.638   1.383
 2968SOL    HW2 9804   1.610   3.589   1.530
 2969SOL     OW 9805   5.127   3.316   4.927
 2969SOL    HW1 9806   5.126   3.219   4.952
 2969SOL    HW2 9807   5.072   3.368   4.992
 2970SOL     OW 9808   2.601   1.862   4.546
 2970SOL    HW1 9809   2.556   1.936   4.595
 2970SOL    HW2 9810   2.565   1.774   4.578
 2971SOL     OW 9811   5.346   2.801   6.034
 2971SOL    HW1 9812   5.441   2.833   6.032
 2971SOL    HW2 9813   5.285   2.876   6.010
 2972SOL     OW 9814   6.079   5.555   0.261
 2972SOL    HW1 9815   6.037   5.552   0.352
 2972SOL    HW2 9816   6.032   5.492   0.200
 2973SOL     OW 9817   4.400   1.036   3.215
 2973SOL    HW1 9818   4.374   1.027   3.119
 2973SOL    HW2 9819   4.414   1.132   3.237
 2974SOL     OW 9820   4.533   7.015   2.346
 2974SOL    HW1 9821   4.448   7.012   2.292
 2974SOL    HW2 9822   4.604   6.965   2.298
 2975SOL     OW 9823   4.696   4.322   3.882
 2975SOL    HW1 9824   4.658   4.305   3.973
 2975SOL    HW2 9825   4.730   4.237   3.843
 2976SOL     OW 9826   4.246   1.328   2.140
 2976SOL    HW1 9827   4.284   1.370   2.223
 2976SOL    HW2 9828   4.249   1.394   2.065
 2977SOL     OW 9829   1.451   0.952   1.442
 2977SOL    HW1 9830   1.421   0.995   1.356
 2977SOL    HW2 9831   1.500   1.019   1.497
 2978SOL     OW 9832   4.518   5.025   6.571
 2978SOL    HW1 9833   4.602   5.072   6.544
 2978SOL    HW2 9834   4.445   5.049   6.507
 2979SOL     OW 9835   3.242   0.914   4.043
 2979SOL    HW1 9836   3.252   0.859   3.960
 2979SOL    HW2 9837   3.329   0.919   4.091
 2980SOL     OW 9838   3.681   3.904   5.056
 2980SOL    HW1 9839   3.653   3.970   5.125
 2980SOL    HW2 9840   3.605   3.889   4.992
 2981SOL     OW 9841   2.135   1.549   1.561
 2981SOL    HW1 9842   2.083   1.605   1.625
 2981SOL    HW2 9843   2.159   1.462   1.605
 2982SOL     OW 9844   1.518   0.253   1.265
 2982SOL    HW1 9845   1.556   0.209   1.346
 2982SOL    HW2 9846   1.593   0.295   1.213
 2983SOL     OW 9847   6.403   3.460   5.638
 2983SOL    HW1 9848   6.453   3.546   5.649
 2983SOL    HW2 9849   6.336   3.451   5.712
 2984SOL     OW 9850   0.645   5.123   1.339
 2984SOL    HW1 9851   0.700   5.205   1.325
 2984SOL    HW2 9852   0.553   5.138   1.302
 2985SOL     OW 9853   0.239   6.976   5.805
 2985SOL    HW1 9854   0.285   0.026   5.756
 2985SOL    HW2 9855   0.187   7.014   5.882
 2986SOL     OW 9856   3.628   3.458   2.236
 2986SOL    HW1 9857   3.635   3.365   2.273
 2986SOL    HW2 9858   3.697   3.472   2.166
 2987SOL     OW 9859   1.744   6.734   5.317
 2987SOL    HW1 9860   1.742   6.819   5.370
 2987SOL    HW2 9861   1.679   6.740   5.241
 2988SOL     OW 9862   0.392   1.445   6.344
 2988SOL    HW1 9863   0.369   1.438   6.441
 2988SOL    HW2 9864   0.388   1.541   6.316
 2989SOL     OW 9865   4.886   3.620   4.280
 2989SOL    HW1 9866   4.958   3.592   4.344
 2989SOL    HW2 9867   4.847   3.538   4.236
 2990SOL     OW 9868   5.650   1.773   4.379
 2990SOL    HW1 9869   5.574   1.723   4.339
 2990SOL    HW2 9870   5.712   1.709   4.425
 2991SOL     OW 9871   0.828   4.007   1.210
 2991SOL    HW1 9872   0.802   4.103   1.206
 2991SOL    HW2 9873   0.862   3.978   1.120
 2992SOL     OW 9874   7.010   3.867   5.739
 2992SOL    HW1 9875   0.041   3.943   5.707
 2992SOL    HW2 9876   6.940   3.846   5.672
 2993SOL     OW 9877   2.108   3.283   0.799
 2993SOL    HW1 9878   2.186   3.314   0.854
 2993SOL    HW2 9879   2.130   3.194   0.758
 2994SOL     OW 9880   3.798   5.893   6.019
 2994SOL    HW1 9881   3.738   5.963   5.982
 2994SOL    HW2 9882   3.778   5.805   5.975
 2995SOL     OW 9883   4.996   0.970   0.574
 2995SOL    HW1 9884   5.036   1.061   0.584
 2995SOL    HW2 9885   4.907   0.967   0.621
 2996SOL     OW 9886   6.774   0.509   4.203
 2996SOL    HW1 9887   6.716   0.587   4.227
 2996SOL    HW2 9888   6.756   0.433   4.265
 2997SOL     OW 9889   4.887   6.409   4.363
 2997SOL    HW1 9890   4.811   6.376   4.307
 2997SOL    HW2 9891   4.972   6.369   4.330
 2998SOL     OW 9892   2.674   1.434   2.800
 2998SOL    HW1 9893   2.746   1.400   2.741
 2998SOL    HW2 9894   2.712   1.500   2.865
 2999SOL     OW 9895   3.048   3.669   0.945
 2999SOL    HW1 9896   3.054   3.639   1.040
 2999SOL    HW2 9897   3.121   3.734   0.925
 3000SOL     OW 9898   3.136   4.057   5.242
 3000SOL    HW1 9899   3.056   4.006   5.275
 3000SOL    HW2 9900   3.118   4.155   5.249
 3001SOL     OW 9901   5.609   0.697   5.559
 3001SOL    HW1 9902   5.533   0.677   5.621
 3001SOL    HW2 9903   5.580   0.686   5.465
 3002SOL     OW 9904   1.728   2.182   1.776
 3002SOL    HW1 9905   1.716   2.174   1.875
 3002SOL    HW2 9906   1.713   2.276   1.748
 3003SOL     OW 9907   1.634   6.443   0.124
 3003SOL    HW1 9908   1.729   6.452   0.094
 3003SOL    HW2 9909   1.597   6.533   0.145
 3004SOL     OW 9910   2.574   6.314   3.960
 3004SOL    HW1 9911   2.483   6.326   3.920
 3004SOL    HW2 9912   2.596   6.390   4.020
 3005SOL     OW 9913   0.757   2.356   6.794
 3005SOL    HW1 9914   0.855   2.373   6.807
 3005SOL    HW2 9915   0.716   2.332   6.881
 3006SOL     OW 9916   5.025   1.640   5.762
 3006SOL    HW1 9917   4.976   1.581   5.698
 3006SOL    HW2 9918   4.988   1.733   5.757
 3007SOL     OW 9919   5.282   5.488   0.241
 3007SOL    HW1 9920   5.211   5.463   0.176
 3007SOL    HW2 9921   5.298   5.587   0.236
 3008SOL     OW 9922   5.242   3.346   5.625
 3008SOL    HW1 9923   5.329   3.300   5.646
 3008SOL    HW2 9924   5.174   3.278   5.599
 3009SOL     OW 9925   0.494   3.134   2.036
 3009SOL    HW1 9926   0.526   3.155   1.943
 3009SOL    HW2 9927   0.395   3.143   2.040
 3010SOL     OW 9928   4.240   5.684   0.570
 3010SOL    HW1 9929   4.186   5.655   0.490
 3010SOL    HW2 9930   4.194   5.653   0.653
 3011SOL     OW 9931   6.771   0.657   1.378
 3011SOL    HW1 9932   6.674   0.641   1.395
 3011SOL    HW2 9933   6.796   0.614   1.290
 3012SOL     OW 9934   2.355   2.456   5.436
 3012SOL    HW1 9935   2.426   2.385   5.429
 3012SOL    HW2 9936   2.302   2.459   5.352
 3013SOL     OW 9937   1.221   4.463   5.258
 3013SOL    HW1 9938   1.122   4.453   5.245
 3013SOL    HW2 9939   1.247   4.558   5.244
 3014SOL     OW 9940   5.312   6.666   6.284
 3014SOL    HW1 9941   5.408   6.654   6.309
 3014SOL    HW2 9942   5.305   6.681   6.185
 3015SOL     OW 9943   1.075   1.001   6.888
 3015SOL    HW1 9944   1.104   0.905   6.882
 3015SOL    HW2 9945   1.126   1.047   6.960
 3016SOL     OW 9946   1.643   6.014   4.235
 3016SOL    HW1 9947   1.657   5.944   4.306
 3016SOL    HW2 9948   1.590   5.975   4.160
 3017SOL     OW 9949   1.105   4.760   0.614
 3017SOL    HW1 9950   1.005   4.757   0.618
 3017SOL    HW2 9951   1.137   4.848   0.649
 3018SOL     OW 9952   3.613   6.949   0.823
 3018SOL    HW1 9953   3.555   6.934   0.903
 3018SOL    HW2 9954   3.709   6.945   0.851
 3019SOL     OW 9955   2.026   0.832   5.944
 3019SOL    HW1 9956   2.073   0.921   5.942
 3019SOL    HW2 9957   2.082   0.766   5.994
 3020SOL     OW 9958   6.708   3.779   6.784
 3020SOL    HW1 9959   6.695   3.781   6.684
 3020SOL    HW2 9960   6.629   3.821   6.828
 3021SOL     OW 9961   4.267   0.006   5.053
 3021SOL    HW1 9962   4.213   7.003   4.974
 3021SOL    HW2 9963   4.245   6.971   5.131
 3022SOL     OW 9964   3.612   5.919   3.481
 3022SOL    HW1 9965   3.633   5.941   3.577
 3022SOL    HW2 9966   3.568   5.997   3.438
 3023SOL     OW 9967   4.935   5.948   4.114
 3023SOL    HW1 9968   4.957   5.880   4.044
 3023SOL    HW2 9969   4.844   5.931   4.150
 3024SOL     OW 9970   0.395   6.857   0.450
 3024SOL    HW1 9971   0.330   6.782   0.460
 3024SOL    HW2 9972   0.390   6.915   0.532
 3025SOL     OW 9973   3.857   5.123   0.345
 3025SOL    HW1 9974   3.936   5.168   0.387
 3025SOL    HW2 9975   3.800   5.192   0.300
 3026SOL     OW 9976   6.787   0.530   2.386
 3026SOL    HW1 9977   6.723   0.506   2.313
 3026SOL    HW2 9978   6.854   0.595   2.350
 3027SOL     OW 9979   4.389   0.872   0.499
 3027SOL    HW1 9980   4.388   0.956   0.552
 3027SOL    HW2 9981   4.476   0.864   0.450
 3028SOL     OW 9982   3.071   3.192   5.666
 3028SOL    HW1 9983   3.042   3.278   5.707
 3028SOL    HW2 9984   3.029   3.182   5.576
 3029SOL     OW 9985   0.188   3.141   4.383
 3029SOL    HW1 9986   0.094   3.166   4.357
 3029SOL    HW2 9987   0.186   3.096   4.472
 3030SOL     OW 9988   2.191   3.030   0.010
 3030SOL    HW1 9989   2.164   3.124   0.029
 3030SOL    HW2 9990   2.183   3.012   6.936
 3031SOL     OW 9991   0.862   6.335   0.433
 3031SOL    HW1 9992   0.803   6.258   0.413
 3031SOL    HW2 9993   0.955   6.302   0.450
 3032SOL     OW 9994   2.500   0.490   2.738
 3032SOL    HW1 9995   2.525   0.437   2.820
 3032SOL    HW2 9996   2.420   0.546   2.759
 3033SOL     OW 9997   0.514   1.813   5.176
 3033SOL    HW1 9998   0.577   1.837   5.250
 3033SOL    HW2 9999   0.436   1.762   5.213
 3034SOL     OW10000   6.318   4.766   3.206
 3034SOL    HW110001   6.242   4.710   3.239
 3034SOL    HW210002   6.371   4.799   3.284
 3035SOL     OW10003   0.682   2.990   0.677
 3035SOL    HW110004   0.615   2.931   0.632
 3035SOL    HW210005   0.642   3.027   0.761
 3036SOL     OW10006   3.470   2.204   5.525
 3036SOL    HW110007   3.432   2.129   5.581
 3036SOL    HW210008   3.567   2.216   5.546
 3037SOL     OW10009   0.915   6.110   6.689
 3037SOL    HW110010   0.842   6.094   6.623
 3037SOL    HW210011   0.896   6.193   6.741
 3038SOL     OW10012   6.163   4.517   6.665
 3038SOL    HW110013   6.132   4.504   6.571
 3038SOL    HW210014   6.084   4.521   6.726
 3039SOL     OW10015   6.936   3.515   6.465
 3039SOL    HW110016   6.919   3.440   6.401
 3039SOL    HW210017   6.999   3.581   6.422
 3040SOL     OW10018   5.352   4.720   5.902
 3040SOL    HW110019   5.413   4.723   5.982
 3040SOL    HW210020   5.312   4.629   5.895
 3041SOL     OW10021   1.591   4.714   5.875
 3041SOL    HW110022   1.513   4.776   5.864
 3041SOL    HW210023   1.623   4.684   5.785
 3042SOL     OW10024   6.539   5.062   3.636
 3042SOL    HW110025   6.554   5.144   3.692
 3042SOL    HW210026   6.627   5.027   3.605
 3043SOL     OW10027   2.807   5.132   0.514
 3043SOL    HW110028   2.889   5.133   0.571
 3043SOL    HW210029   2.805   5.046   0.462
 3044SOL     OW10030   3.591   3.686   4.601
 3044SOL    HW110031   3.626   3.620   4.534
 3044SOL    HW210032   3.651   3.687   4.681
 3045SOL     OW10033   4.149   1.654   2.559
 3045SOL    HW110034   4.050   1.655   2.551
 3045SOL    HW210035   4.175   1.666   2.655
 3046SOL     OW10036   5.338   6.278   0.876
 3046SOL    HW110037   5.292   6.250   0.792
 3046SOL    HW210038   5.386   6.199   0.915
 3047SOL     OW10039   5.771   1.384   5.198
 3047SOL    HW110040   5.760   1.372   5.099
 3047SOL    HW210041   5.832   1.314   5.234
 3048SOL     OW10042   3.662   4.588   0.956
 3048SOL    HW110043   3.602   4.645   1.012
 3048SOL    HW210044   3.649   4.610   0.860
 3049SOL     OW10045   1.244   1.616   2.847
 3049SOL    HW110046   1.328   1.566   2.871
 3049SOL    HW210047   1.165   1.565   2.880
 3050SOL     OW10048   3.665   1.901   0.578
 3050SOL    HW110049   3.588   1.935   0.524
 3050SOL    HW210050   3.695   1.812   0.541
 3051SOL     OW10051   2.283   5.092   5.566
 3051SOL    HW110052   2.253   5.096   5.661
 3051SOL    HW210053   2.204   5.104   5.505
 3052SOL     OW10054   0.042   7.020   2.242
 3052SOL    HW110055   0.104   6.944   2.223
 3052SOL    HW210056   0.056   0.029   2.335
 3053SOL     OW10057   1.441   4.100   0.472
 3053SOL    HW110058   1.424   4.149   0.558
 3053SOL    HW210059   1.357   4.054   0.444
 3054SOL     OW10060   5.554   0.565   2.603
 3054SOL    HW110061   5.465   0.552   2.560
 3054SOL    HW210062   5.623   0.512   2.553
 3055SOL     OW10063   6.119   6.085   6.371
 3055SOL    HW110064   6.057   6.018   6.330
 3055SOL    HW210065   6.197   6.100   6.311
 3056SOL     OW10066   5.017   1.425   6.000
 3056SOL    HW110067   5.014   1.327   5.982
 3056SOL    HW210068   5.067   1.471   5.928
 3057SOL     OW10069   5.041   3.969   2.799
 3057SOL    HW110070   5.070   3.897   2.863
 3057SOL    HW210071   5.094   4.052   2.817
 3058SOL     OW10072   6.970   4.079   6.408
 3058SOL    HW110073   0.025   4.047   6.355
 3058SOL    HW210074   6.939   4.167   6.370
 3059SOL     OW10075   1.641   1.723   3.560
 3059SOL    HW110076   1.618   1.727   3.657
 3059SOL    HW210077   1.673   1.813   3.530
 3060SOL     OW10078   5.461   5.010   4.674
 3060SOL    HW110079   5.555   4.986   4.650
 3060SOL    HW210080   5.447   5.108   4.661
 3061SOL     OW10081   5.753   6.451   4.993
 3061SOL    HW110082   5.721   6.545   4.981
 3061SOL    HW210083   5.674   6.392   5.010
 3062SOL     OW10084   4.154   4.319   1.074
 3062SOL    HW110085   4.066   4.362   1.053
 3062SOL    HW210086   4.199   4.368   1.149
 3063SOL     OW10087   0.935   4.385   2.596
 3063SOL    HW110088   0.839   4.386   2.624
 3063SOL    HW210089   0.965   4.478   2.576
 3064SOL     OW10090   4.693   2.133   6.539
 3064SOL    HW110091   4.647   2.168   6.458
 3064SOL    HW210092   4.792   2.138   6.526
 3065SOL     OW10093   5.895   1.485   0.148
 3065SOL    HW110094   5.860   1.569   0.190
 3065SOL    HW210095   5.853   1.406   0.192
 3066SOL     OW10096   5.058   6.539   5.044
 3066SOL    HW110097   5.129   6.576   5.104
 3066SOL    HW210098   5.032   6.448   5.076
 3067SOL     OW10099   1.407   2.548   5.727
 3067SOL    HW110100   1.416   2.639   5.767
 3067SOL    HW210101   1.355   2.554   5.641
 3068SOL     OW10102   0.215   0.578   0.675
 3068SOL    HW110103   0.193   0.675   0.668
 3068SOL    HW210104   0.230   0.540   0.584
 3069SOL     OW10105   5.566   0.279   3.164
 3069SOL    HW110106   5.661   0.271   3.195
 3069SOL    HW210107   5.562   0.276   3.064
 3070SOL     OW10108   2.228   0.864   0.466
 3070SOL    HW110109   2.137   0.905   0.464
 3070SOL    HW210110   2.292   0.926   0.510
 3071SOL     OW10111   6.137   4.621   5.268
 3071SOL    HW110112   6.232   4.654   5.267
 3071SOL    HW210113   6.083   4.679   5.329
 3072SOL     OW10114   1.838   6.827   6.152
 3072SOL    HW110115   1.916   6.883   6.178
 3072SOL    HW210116   1.769   6.885   6.107
 3073SOL     OW10117   6.808   4.846   1.418
 3073SOL    HW110118   6.792   4.791   1.499
 3073SOL    HW210119   6.888   4.811   1.369
 3074SOL     OW10120   2.840   2.931   1.405
 3074SOL    HW110121   2.886   2.844   1.423
 3074SOL    HW210122   2.781   2.954   1.483
 3075SOL     OW10123   3.622   5.592   1.936
 3075SOL    HW110124   3.721   5.584   1.928
 3075SOL    HW210125   3.593   5.560   2.026
 3076SOL     OW10126   0.762   0.646   5.220
 3076SOL    HW110127   0.721   0.724   5.174
 3076SOL    HW210128   0.691   0.577   5.238
 3077SOL     OW10129   6.819   4.196   2.498
 3077SOL    HW110130   6.859   4.105   2.483
 3077SOL    HW210131   6.734   4.204   2.448
 3078SOL     OW10132   0.094   3.377   1.876
 3078SOL    HW110133   0.039   3.387   1.959
 3078SOL    HW210134   0.160   3.451   1.870
 3079SOL     OW10135   1.979   3.637   5.338
 3079SOL    HW110136   1.890   3.644   5.291
 3079SOL    HW210137   2.051   3.629   5.269
 3080SOL     OW10138   3.658   4.378   0.707
 3080SOL    HW110139   3.719   4.327   0.646
 3080SOL    HW210140   3.568   4.335   0.707
 3081SOL     OW10141   1.151   3.481   0.903
 3081SOL    HW110142   1.145   3.384   0.880
 3081SOL    HW210143   1.232   3.498   0.958
 3082SOL     OW10144   4.473   5.089   4.495
 3082SOL    HW110145   4.488   5.032   4.576
 3082SOL    HW210146   4.560   5.100   4.446
 3083SOL     OW10147   4.084   6.001   1.716
 3083SOL    HW110148   4.105   6.017   1.620
 3083SOL    HW210149   4.167   5.974   1.764
 3084SOL     OW10150   0.201   4.161   4.406
 3084SOL    HW110151   0.250   4.191   4.488
 3084SOL    HW210152   0.258   4.097   4.354
 3085SOL     OW10153   5.829   5.297   0.398
 3085SOL    HW110154   5.874   5.374   0.354
 3085SOL    HW210155   5.793   5.326   0.487
 3086SOL     OW10156   6.315   6.853   6.255
 3086SOL    HW110157   6.363   6.922   6.310
 3086SOL    HW210158   6.342   6.863   6.159
 3087SOL     OW10159   3.343   6.979   1.877
 3087SOL    HW110160   3.362   6.895   1.929
 3087SOL    HW210161   3.266   6.964   1.816
 3088SOL     OW10162   1.990   2.918   5.821
 3088SOL    HW110163   1.958   2.955   5.734
 3088SOL    HW210164   2.021   2.993   5.879
 3089SOL     OW10165   4.265   5.554   6.051
 3089SOL    HW110166   4.255   5.614   6.130
 3089SOL    HW210167   4.266   5.609   5.967
 3090SOL     OW10168   0.634   2.851   2.587
 3090SOL    HW110169   0.557   2.907   2.558
 3090SOL    HW210170   0.718   2.886   2.546
 3091SOL     OW10171   0.948   2.469   1.499
 3091SOL    HW110172   0.925   2.565   1.512
 3091SOL    HW210173   1.004   2.437   1.575
 3092SOL     OW10174   5.873   1.395   2.582
 3092SOL    HW110175   5.798   1.328   2.575
 3092SOL    HW210176   5.836   1.484   2.608
 3093SOL     OW10177   5.674   5.756   0.308
 3093SOL    HW110178   5.686   5.658   0.324
 3093SOL    HW210179   5.595   5.770   0.247
 3094SOL     OW10180   2.517   1.888   6.371
 3094SOL    HW110181   2.606   1.860   6.406
 3094SOL    HW210182   2.506   1.987   6.379
 3095SOL     OW10183   1.765   3.593   5.190
 3095SOL    HW110184   1.665   3.588   5.186
 3095SOL    HW210185   1.802   3.600   5.098
 3096SOL     OW10186   0.508   3.580   4.177
 3096SOL    HW110187   0.448   3.638   4.122
 3096SOL    HW210188   0.554   3.513   4.118
 3097SOL     OW10189   5.840   2.394   5.294
 3097SOL    HW110190   5.768   2.374   5.228
 3097SOL    HW210191   5.895   2.471   5.261
 3098SOL     OW10192   1.851   3.424   2.969
 3098SOL    HW110193   1.793   3.356   3.013
 3098SOL    HW210194   1.822   3.437   2.874
 3099SOL     OW10195   0.435   6.143   4.723
 3099SOL    HW110196   0.348   6.178   4.758
 3099SOL    HW210197   0.498   6.130   4.800
 3100SOL     OW10198   5.910   5.099   1.933
 3100SOL    HW110199   5.871   5.105   1.841
 3100SOL    HW210200   5.946   5.008   1.949
 3101SOL     OW10201   3.995   6.767   5.794
 3101SOL    HW110202   3.975   6.783   5.698
 3101SOL    HW210203   3.950   6.682   5.824
 3102SOL     OW10204   7.010   4.739   1.277
 3102SOL    HW110205   6.998   4.640   1.273
 3102SOL    HW210206   0.014   4.772   1.186
 3103SOL     OW10207   3.279   1.342   1.565
 3103SOL    HW110208   3.263   1.314   1.470
 3103SOL    HW210209   3.221   1.289   1.626
 3104SOL     OW10210   4.819   1.486   5.225
 3104SOL    HW110211   4.863   1.539   5.297
 3104SOL    HW210212   4.789   1.546   5.152
 3105SOL     OW10213   6.084   3.382   0.454
 3105SOL    HW110214   6.072   3.428   0.366
 3105SOL    HW210215   6.003   3.397   0.511
 3106SOL     OW10216   6.055   0.826   6.094
 3106SOL    HW110217   6.021   0.793   6.183
 3106SOL    HW210218   6.097   0.750   6.044
 3107SOL     OW10219   3.370   1.949   5.643
 3107SOL    HW110220   3.394   1.888   5.719
 3107SOL    HW210221   3.287   1.917   5.599
 3108SOL     OW10222   2.260   4.165   3.826
 3108SOL    HW110223   2.230   4.079   3.784
 3108SOL    HW210224   2.305   4.222   3.758
 3109SOL     OW10225   6.546   6.396   4.343
 3109SOL    HW110226   6.624   6.342   4.374
 3109SOL    HW210227   6.491   6.342   4.279
 3110SOL     OW10228   1.046   4.394   3.037
 3110SOL    HW110229   1.006   4.485   3.032
 3110SOL    HW210230   0.994   4.338   3.103
 3111SOL     OW10231   5.777   4.678   3.693
 3111SOL    HW110232   5.744   4.670   3.787
 3111SOL    HW210233   5.719   4.741   3.642
 3112SOL     OW10234   3.777   1.470   6.015
 3112SOL    HW110235   3.690   1.463   5.965
 3112SOL    HW210236   3.761   1.513   6.104
 3113SOL     OW10237   2.128   6.237   3.152
 3113SOL    HW110238   2.145   6.334   3.167
 3113SOL    HW210239   2.131   6.189   3.240
 3114SOL     OW10240   4.719   0.942   5.373
 3114SOL    HW110241   4.666   0.921   5.455
 3114SOL    HW210242   4.710   1.040   5.352
 3115SOL     OW10243   4.406   5.736   5.231
 3115SOL    HW110244   4.490   5.788   5.215
 3115SOL    HW210245   4.422   5.668   5.302
 3116SOL     OW10246   0.224   0.924   0.369
 3116SOL    HW110247   0.196   0.846   0.312
 3116SOL    HW210248   0.143   0.974   0.399
 3117SOL     OW10249   4.904   0.884   6.147
 3117SOL    HW110250   4.956   0.902   6.231
 3117SOL    HW210251   4.894   0.970   6.095
 3118SOL     OW10252   1.160   1.229   3.368
 3118SOL    HW110253   1.125   1.196   3.280
 3118SOL    HW210254   1.243   1.281   3.353
 3119SOL     OW10255   4.426   5.170   4.935
 3119SOL    HW110256   4.376   5.255   4.922
 3119SOL    HW210257   4.523   5.190   4.952
 3120SOL     OW10258   2.142   5.656   5.576
 3120SOL    HW110259   2.201   5.576   5.569
 3120SOL    HW210260   2.144   5.707   5.490
 3121SOL     OW10261   3.775   1.431   4.207
 3121SOL    HW110262   3.723   1.455   4.126
 3121SOL    HW210263   3.713   1.411   4.282
 3122SOL     OW10264   4.733   5.082   4.318
 3122SOL    HW110265   4.765   5.152   4.254
 3122SOL    HW210266   4.685   5.010   4.267
 3123SOL     OW10267   2.225   1.223   3.541
 3123SOL    HW110268   2.289   1.270   3.481
 3123SOL    HW210269   2.228   1.264   3.633
 3124SOL     OW10270   4.825   0.260   4.335
 3124SOL    HW110271   4.727   0.252   4.314
 3124SOL    HW210272   4.873   0.296   4.255
 3125SOL     OW10273   1.477   1.217   4.894
 3125SOL    HW110274   1.403   1.208   4.828
 3125SOL    HW210275   1.482   1.134   4.950
 3126SOL     OW10276   5.702   5.748   5.312
 3126SOL    HW110277   5.752   5.769   5.397
 3126SOL    HW210278   5.709   5.651   5.292
 3127SOL     OW10279   0.467   1.490   5.218
 3127SOL    HW110280   0.522   1.479   5.302
 3127SOL    HW210281   0.398   1.561   5.233
 3128SOL     OW10282   4.459   0.274   0.658
 3128SOL    HW110283   4.362   0.280   0.634
 3128SOL    HW210284   4.489   0.361   0.697
 3129SOL     OW10285   4.623   3.576   0.445
 3129SOL    HW110286   4.574   3.585   0.358
 3129SOL    HW210287   4.717   3.546   0.427
 3130SOL     OW10288   0.149   4.672   2.261
 3130SOL    HW110289   0.058   4.631   2.264
 3130SOL    HW210290   0.183   4.670   2.167
 3131SOL     OW10291   6.248   4.552   2.890
 3131SOL    HW110292   6.309   4.475   2.910
 3131SOL    HW210293   6.301   4.626   2.848
 3132SOL     OW10294   4.480   4.463   6.962
 3132SOL    HW110295   4.403   4.428   6.909
 3132SOL    HW210296   4.511   4.393   0.003
 3133SOL     OW10297   3.811   0.046   4.536
 3133SOL    HW110298   3.833   6.974   4.552
 3133SOL    HW210299   3.861   0.079   4.456
 3134SOL     OW10300   4.844   4.829   2.163
 3134SOL    HW110301   4.781   4.760   2.129
 3134SOL    HW210302   4.828   4.845   2.261
 3135SOL     OW10303   4.829   5.444   6.552
 3135SOL    HW110304   4.913   5.483   6.589
 3135SOL    HW210305   4.751   5.479   6.604
 3136SOL     OW10306   6.775   1.616   2.970
 3136SOL    HW110307   6.749   1.575   3.057
 3136SOL    HW210308   6.694   1.634   2.915
 3137SOL     OW10309   6.091   6.666   6.334
 3137SOL    HW110310   6.020   6.723   6.376
 3137SOL    HW210311   6.159   6.725   6.290
 3138SOL     OW10312   5.651   6.143   3.975
 3138SOL    HW110313   5.582   6.173   4.041
 3138SOL    HW210314   5.705   6.069   4.015
 3139SOL     OW10315   2.746   4.823   1.402
 3139SOL    HW110316   2.703   4.751   1.457
 3139SOL    HW210317   2.676   4.872   1.351
 3140SOL     OW10318   6.604   6.847   6.467
 3140SOL    HW110319   6.657   6.900   6.400
 3140SOL    HW210320   6.512   6.885   6.474
 3141SOL     OW10321   0.011   2.377   6.139
 3141SOL    HW110322   0.100   2.381   6.184
 3141SOL    HW210323   0.018   2.324   6.055
 3142SOL     OW10324   4.440   0.753   3.635
 3142SOL    HW110325   4.389   0.838   3.623
 3142SOL    HW210326   4.380   0.684   3.677
 3143SOL     OW10327   6.414   1.043   0.679
 3143SOL    HW110328   6.356   0.974   0.722
 3143SOL    HW210329   6.491   1.065   0.739
 3144SOL     OW10330   3.829   3.927   0.135
 3144SOL    HW110331   3.883   3.844   0.126
 3144SOL    HW210332   3.732   3.904   0.147
 3145SOL     OW10333   0.106   6.432   0.546
 3145SOL    HW110334   0.029   6.477   0.592
 3145SOL    HW210335   0.175   6.408   0.615
 3146SOL     OW10336   0.200   0.086   5.226
 3146SOL    HW110337   0.262   0.101   5.303
 3146SOL    HW210338   0.116   0.140   5.239
 3147SOL     OW10339   4.075   5.236   0.458
 3147SOL    HW110340   4.174   5.231   0.466
 3147SOL    HW210341   4.040   5.309   0.517
 3148SOL     OW10342   0.042   5.574   2.207
 3148SOL    HW110343   7.015   5.500   2.163
 3148SOL    HW210344   0.050   5.556   2.305
 3149SOL     OW10345   3.024   1.801   6.931
 3149SOL    HW110346   2.975   1.808   7.018
 3149SOL    HW210347   3.091   1.875   6.925
 3150SOL     OW10348   6.644   5.583   5.227
 3150SOL    HW110349   6.716   5.642   5.190
 3150SOL    HW210350   6.569   5.576   5.161
 3151SOL     OW10351   0.086   0.699   5.861
 3151SOL    HW110352   0.108   0.646   5.943
 3151SOL    HW210353   0.070   0.637   5.785
 3152SOL     OW10354   1.363   3.482   6.186
 3152SOL    HW110355   1.413   3.441   6.109
 3152SOL    HW210356   1.275   3.436   6.196
 3153SOL     OW10357   6.503   4.950   0.840
 3153SOL    HW110358   6.552   4.879   0.789
 3153SOL    HW210359   6.569   5.016   0.877
 3154SOL     OW10360   4.499   1.069   0.088
 3154SOL    HW110361   4.546   0.985   0.058
 3154SOL    HW210362   4.407   1.046   0.120
 3155SOL     OW10363   1.345   4.990   1.031
 3155SOL    HW110364   1.269   5.049   1.058
 3155SOL    HW210365   1.423   5.047   1.002
 3156SOL     OW10366   3.631   4.234   1.848
 3156SOL    HW110367   3.657   4.328   1.826
 3156SOL    HW210368   3.702   4.192   1.904
 3157SOL     OW10369   0.780   1.355   5.904
 3157SOL    HW110370   0.719   1.401   5.840
 3157SOL    HW210371   0.815   1.271   5.863
 3158SOL     OW10372   1.632   1.308   5.861
 3158SOL    HW110373   1.676   1.396   5.843
 3158SOL    HW210374   1.679   1.262   5.936
 3159SOL     OW10375   5.993   0.210   0.346
 3159SOL    HW110376   5.895   0.210   0.324
 3159SOL    HW210377   6.007   0.248   0.437
 3160SOL     OW10378   1.854   6.990   6.610
 3160SOL    HW110379   1.788   0.038   6.587
 3160SOL    HW210380   1.910   7.020   6.687
 3161SOL     OW10381   2.341   2.255   2.438
 3161SOL    HW110382   2.406   2.330   2.424
 3161SOL    HW210383   2.327   2.240   2.535
 3162SOL     OW10384   2.533   5.280   0.814
 3162SOL    HW110385   2.616   5.323   0.850
 3162SOL    HW210386   2.499   5.332   0.736
 3163SOL     OW10387   4.582   4.266   0.150
 3163SOL    HW110388   4.564   4.188   0.210
 3163SOL    HW210389   4.581   4.350   0.205
 3164SOL     OW10390   2.741   6.506   2.966
 3164SOL    HW110391   2.811   6.536   2.901
 3164SOL    HW210392   2.668   6.459   2.916
 3165SOL     OW10393   0.590   6.765   6.687
 3165SOL    HW110394   0.669   6.704   6.672
 3165SOL    HW210395   0.602   6.814   6.773
 3166SOL     OW10396   4.930   0.581   4.752
 3166SOL    HW110397   4.856   0.513   4.758
 3166SOL    HW210398   4.891   0.672   4.761
 3167SOL     OW10399   5.586   3.281   0.707
 3167SOL    HW110400   5.546   3.196   0.743
 3167SOL    HW210401   5.610   3.267   0.611
 3168SOL     OW10402   5.211   2.196   0.460
 3168SOL    HW110403   5.222   2.190   0.559
 3168SOL    HW210404   5.115   2.176   0.436
 3169SOL     OW10405   1.960   4.366   1.932
 3169SOL    HW110406   2.021   4.294   1.899
 3169SOL    HW210407   1.907   4.403   1.856
 3170SOL     OW10408   2.833   4.815   3.378
 3170SOL    HW110409   2.791   4.733   3.340
 3170SOL    HW210410   2.787   4.897   3.343
 3171SOL     OW10411   5.099   2.389   3.628
 3171SOL    HW110412   5.048   2.328   3.567
 3171SOL    HW210413   5.062   2.482   3.620
 3172SOL     OW10414   6.234   4.479   1.840
 3172SOL    HW110415   6.256   4.410   1.772
 3172SOL    HW210416   6.155   4.532   1.810
 3173SOL     OW10417   4.299   2.619   1.050
 3173SOL    HW110418   4.311   2.531   1.096
 3173SOL    HW210419   4.341   2.614   0.959
 3174SOL     OW10420   2.863   3.725   6.273
 3174SOL    HW110421   2.810   3.645   6.243
 3174SOL    HW210422   2.914   3.762   6.196
 3175SOL     OW10423   5.664   0.726   3.934
 3175SOL    HW110424   5.625   0.818   3.934
 3175SOL    HW210425   5.616   0.669   4.000
 3176SOL     OW10426   1.083   4.706   4.848
 3176SOL    HW110427   1.124   4.790   4.811
 3176SOL    HW210428   1.127   4.627   4.806
 3177SOL     OW10429   5.766   3.922   3.704
 3177SOL    HW110430   5.745   3.914   3.606
 3177SOL    HW210431   5.681   3.911   3.756
 3178SOL     OW10432   6.933   0.769   1.571
 3178SOL    HW110433   7.003   0.709   1.609
 3178SOL    HW210434   6.890   0.725   1.492
 3179SOL     OW10435   1.141   1.798   2.181
 3179SOL    HW110436   1.089   1.745   2.113
 3179SOL    HW210437   1.079   1.825   2.255
 3180SOL     OW10438   6.867   5.949   0.283
 3180SOL    HW110439   6.909   5.931   0.194
 3180SOL    HW210440   6.927   6.008   0.336
 3181SOL     OW10441   1.576   0.020   4.488
 3181SOL    HW110442   1.604   7.010   4.578
 3181SOL    HW210443   1.477   0.012   4.478
 3182SOL     OW10444   2.518   1.250   0.315
 3182SOL    HW110445   2.497   1.176   0.251
 3182SOL    HW210446   2.457   1.245   0.393
 3183SOL     OW10447   4.196   3.834   1.205
 3183SOL    HW110448   4.291   3.835   1.238
 3183SOL    HW210449   4.135   3.811   1.280
 3184SOL     OW10450   0.815   2.404   5.268
 3184SOL    HW110451   0.762   2.331   5.223
 3184SOL    HW210452   0.912   2.391   5.250
 3185SOL     OW10453   0.595   5.260   5.954
 3185SOL    HW110454   0.619   5.174   6.000
 3185SOL    HW210455   0.599   5.335   6.020
 3186SOL     OW10456   0.528   1.774   6.627
 3186SOL    HW110457   0.439   1.818   6.621
 3186SOL    HW210458   0.581   1.817   6.701
 3187SOL     OW10459   4.062   5.815   2.401
 3187SOL    HW110460   3.997   5.891   2.403
 3187SOL    HW210461   4.148   5.843   2.445
 3188SOL     OW10462   2.279   5.025   5.824
 3188SOL    HW110463   2.248   5.099   5.884
 3188SOL    HW210464   2.289   4.941   5.878
 3189SOL     OW10465   3.444   1.876   5.908
 3189SOL    HW110466   3.466   1.952   5.846
 3189SOL    HW210467   3.520   1.861   5.971
 3190SOL     OW10468   6.022   5.647   4.979
 3190SOL    HW110469   5.973   5.720   5.027
 3190SOL    HW210470   6.100   5.618   5.034
 3191SOL     OW10471   4.104   5.585   1.398
 3191SOL    HW110472   4.169   5.610   1.327
 3191SOL    HW210473   4.138   5.617   1.487
 3192SOL     OW10474   5.803   2.171   2.573
 3192SOL    HW110475   5.890   2.163   2.621
 3192SOL    HW210476   5.731   2.195   2.638
 3193SOL     OW10477   3.686   6.951   5.246
 3193SOL    HW110478   3.723   0.018   5.264
 3193SOL    HW210479   3.701   6.927   5.150
 3194SOL     OW10480   1.487   0.992   6.344
 3194SOL    HW110481   1.505   0.976   6.247
 3194SOL    HW210482   1.570   0.977   6.397
 3195SOL     OW10483   0.219   2.293   1.328
 3195SOL    HW110484   0.293   2.274   1.392
 3195SOL    HW210485   0.202   2.212   1.272
 3196SOL     OW10486   6.188   0.429   4.443
 3196SOL    HW110487   6.173   0.525   4.419
 3196SOL    HW210488   6.269   0.395   4.396
 3197SOL     OW10489   1.672   0.893   6.522
 3197SOL    HW110490   1.709   0.922   6.610
 3197SOL    HW210491   1.736   0.830   6.478
 3198SOL     OW10492   5.567   2.932   3.074
 3198SOL    HW110493   5.579   2.959   2.978
 3198SOL    HW210494   5.605   3.003   3.133
 3199SOL     OW10495   5.639   4.423   3.444
 3199SOL    HW110496   5.681   4.368   3.516
 3199SOL    HW210497   5.550   4.384   3.421
 3200SOL     OW10498   5.660   3.144   3.603
 3200SOL    HW110499   5.745   3.192   3.624
 3200SOL    HW210500   5.591   3.165   3.673
 3201SOL     OW10501   5.988   4.346   2.828
 3201SOL    HW110502   5.979   4.435   2.872
 3201SOL    HW210503   6.073   4.302   2.856
 3202SOL     OW10504   1.803   3.873   6.758
 3202SOL    HW110505   1.763   3.782   6.746
 3202SOL    HW210506   1.776   3.910   6.846
 3203SOL     OW10507   3.420   0.306   1.309
 3203SOL    HW110508   3.343   0.365   1.334
 3203SOL    HW210509   3.470   0.278   1.391
 3204SOL     OW10510   2.604   1.545   3.265
 3204SOL    HW110511   2.670   1.521   3.337
 3204SOL    HW210512   2.537   1.471   3.257
 3205SOL     OW10513   5.298   3.440   5.329
 3205SOL    HW110514   5.371   3.450   5.396
 3205SOL    HW210515   5.279   3.528   5.286
 3206SOL     OW10516   2.943   3.205   1.377
 3206SOL    HW110517   2.996   3.200   1.292
 3206SOL    HW210518   2.904   3.115   1.397
 3207SOL     OW10519   1.767   5.695   5.578
 3207SOL    HW110520   1.679   5.665   5.541
 3207SOL    HW210521   1.804   5.624   5.638
 3208SOL     OW10522   6.278   5.184   6.138
 3208SOL    HW110523   6.347   5.133   6.190
 3208SOL    HW210524   6.263   5.273   6.180
 3209SOL     OW10525   5.109   5.806   6.741
 3209SOL    HW110526   5.033   5.839   6.797
 3209SOL    HW210527   5.142   5.881   6.684
 3210SOL     OW10528   6.158   5.180   1.487
 3210SOL    HW110529   6.154   5.240   1.568
 3210SOL    HW210530   6.183   5.088   1.516
 3211SOL     OW10531   0.756   5.021   6.661
 3211SOL    HW110532   0.771   5.014   6.760
 3211SOL    HW210533   0.672   5.071   6.643
 3212SOL     OW10534   2.159   0.222   3.010
 3212SOL    HW110535   2.239   0.201   3.066
 3212SOL    HW210536   2.083   0.251   3.069
 3213SOL     OW10537   1.465   0.671   6.370
 3213SOL    HW110538   1.461   0.705   6.276
 3213SOL    HW210539   1.549   0.617   6.382
 3214SOL     OW10540   3.320   0.859   2.613
 3214SOL    HW110541   3.300   0.943   2.663
 3214SOL    HW210542   3.239   0.801   2.611
 3215SOL     OW10543   1.923   2.952   0.955
 3215SOL    HW110544   1.981   2.928   1.033
 3215SOL    HW210545   1.925   3.051   0.942
 3216SOL     OW10546   5.990   4.269   0.525
 3216SOL    HW110547   5.920   4.331   0.487
 3216SOL    HW210548   5.956   4.175   0.522
 3217SOL     OW10549   0.542   5.943   2.837
 3217SOL    HW110550   0.591   5.981   2.758
 3217SOL    HW210551   0.559   6.000   2.917
 3218SOL     OW10552   5.799   0.796   3.110
 3218SOL    HW110553   5.783   0.792   3.012
 3218SOL    HW210554   5.890   0.834   3.128
 3219SOL     OW10555   5.838   0.813   5.602
 3219SOL    HW110556   5.876   0.793   5.692
 3219SOL    HW210557   5.749   0.768   5.593
 3220SOL     OW10558   6.772   4.395   0.049
 3220SOL    HW110559   6.807   4.313   0.094
 3220SOL    HW210560   6.768   4.470   0.115
 3221SOL     OW10561   3.742   0.434   1.387
 3221SOL    HW110562   3.692   0.368   1.443
 3221SOL    HW210563   3.722   0.417   1.290
 3222SOL     OW10564   3.290   1.401   3.122
 3222SOL    HW110565   3.349   1.324   3.098
 3222SOL    HW210566   3.302   1.474   3.056
 3223SOL     OW10567   1.416   6.711   1.034
 3223SOL    HW110568   1.332   6.753   1.001
 3223SOL    HW210569   1.475   6.782   1.075
 3224SOL     OW10570   3.928   1.982   3.969
 3224SOL    HW110571   3.868   2.023   4.038
 3224SOL    HW210572   3.907   2.021   3.879
 3225SOL     OW10573   4.201   0.457   3.755
 3225SOL    HW110574   4.121   0.490   3.804
 3225SOL    HW210575   4.206   0.501   3.665
 3226SOL     OW10576   0.203   0.162   1.248
 3226SOL    HW110577   0.250   0.250   1.243
 3226SOL    HW210578   0.105   0.176   1.243
 3227SOL     OW10579   5.040   3.650   5.111
 3227SOL    HW110580   5.047   3.737   5.062
 3227SOL    HW210581   4.966   3.596   5.072
 3228SOL     OW10582   2.137   3.778   0.472
 3228SOL    HW110583   2.039   3.759   0.465
 3228SOL    HW210584   2.169   3.752   0.562
 3229SOL     OW10585   1.688   1.572   0.841
 3229SOL    HW110586   1.601   1.579   0.889
 3229SOL    HW210587   1.750   1.513   0.893
 3230SOL     OW10588   2.451   5.986   5.679
 3230SOL    HW110589   2.510   6.023   5.607
 3230SOL    HW210590   2.497   5.992   5.767
 3231SOL     OW10591   2.424   1.792   2.001
 3231SOL    HW110592   2.371   1.876   2.012
 3231SOL    HW210593   2.464   1.790   1.910
 3232SOL     OW10594   4.035   5.590   3.887
 3232SOL    HW110595   4.027   5.493   3.911
 3232SOL    HW210596   3.945   5.625   3.859
 3233SOL     OW10597   0.311   2.385   0.481
 3233SOL    HW110598   0.244   2.404   0.409
 3233SOL    HW210599   0.351   2.471   0.512
 3234SOL     OW10600   2.603   2.980   0.257
 3234SOL    HW110601   2.634   2.957   0.165
 3234SOL    HW210602   2.534   3.052   0.252
 3235SOL     OW10603   1.119   0.079   2.396
 3235SOL    HW110604   1.161   0.146   2.458
 3235SOL    HW210605   1.023   0.103   2.382
 3236SOL     OW10606   3.403   2.592   0.331
 3236SOL    HW110607   3.413   2.494   0.320
 3236SOL    HW210608   3.402   2.637   0.242
 3237SOL     OW10609   5.784   1.304   4.934
 3237SOL    HW110610   5.733   1.218   4.923
 3237SOL    HW210611   5.797   1.346   4.845
 3238SOL     OW10612   6.786   5.335   1.517
 3238SOL    HW110613   6.807   5.426   1.553
 3238SOL    HW210614   6.865   5.275   1.531
 3239SOL     OW10615   6.676   6.907   4.461
 3239SOL    HW110616   6.639   6.843   4.395
 3239SOL    HW210617   6.608   6.923   4.533
 3240SOL     OW10618   0.392   0.990   6.799
 3240SOL    HW110619   0.487   0.961   6.812
 3240SOL    HW210620   0.374   1.001   6.702
 3241SOL     OW10621   6.074   1.645   6.069
 3241SOL    HW110622   6.032   1.578   6.130
 3241SOL    HW210623   6.173   1.636   6.074
 3242SOL     OW10624   5.322   4.764   4.747
 3242SOL    HW110625   5.403   4.721   4.786
 3242SOL    HW210626   5.344   4.856   4.715
 3243SOL     OW10627   5.471   5.227   5.319
 3243SOL    HW110628   5.430   5.312   5.287
 3243SOL    HW210629   5.469   5.159   5.246
 3244SOL     OW10630   5.278   6.558   7.003
 3244SOL    HW110631   5.261   6.528   6.909
 3244SOL    HW210632   5.276   6.479   0.040
 3245SOL     OW10633   3.998   1.092   4.800
 3245SOL    HW110634   4.069   1.093   4.870
 3245SOL    HW210635   4.018   1.162   4.731
 3246SOL     OW10636   6.700   0.472   3.133
 3246SOL    HW110637   6.714   0.542   3.063
 3246SOL    HW210638   6.618   0.419   3.112
 3247SOL     OW10639   0.656   4.287   2.697
 3247SOL    HW110640   0.718   4.209   2.696
 3247SOL    HW210641   0.563   4.257   2.678
 3248SOL     OW10642   5.348   2.293   3.643
 3248SOL    HW110643   5.398   2.379   3.634
 3248SOL    HW210644   5.250   2.311   3.653
 3249SOL     OW10645   3.011   3.877   3.921
 3249SOL    HW110646   2.944   3.802   3.914
 3249SOL    HW210647   3.014   3.910   4.015
 3250SOL     OW10648   4.871   5.578   2.372
 3250SOL    HW110649   4.869   5.670   2.410
 3250SOL    HW210650   4.966   5.551   2.354
 3251SOL     OW10651   2.615   1.242   3.411
 3251SOL    HW110652   2.615   1.147   3.443
 3251SOL    HW210653   2.553   1.251   3.333
 3252SOL     OW10654   2.333   1.648   3.430
 3252SOL    HW110655   2.383   1.563   3.449
 3252SOL    HW210656   2.361   1.718   3.495
 3253SOL     OW10657   6.720   3.367   0.413
 3253SOL    HW110658   6.764   3.329   0.332
 3253SOL    HW210659   6.705   3.293   0.480
 3254SOL     OW10660   6.137   0.269   1.187
 3254SOL    HW110661   6.060   0.224   1.142
 3254SOL    HW210662   6.213   0.204   1.196
 3255SOL     OW10663   5.075   5.464   1.305
 3255SOL    HW110664   5.171   5.479   1.327
 3255SOL    HW210665   5.046   5.530   1.236
 3256SOL     OW10666   4.978   1.609   1.202
 3256SOL    HW110667   5.021   1.679   1.145
 3256SOL    HW210668   5.038   1.586   1.278
 3257SOL     OW10669   2.689   2.405   3.031
 3257SOL    HW110670   2.694   2.404   3.131
 3257SOL    HW210671   2.778   2.378   2.993
 3258SOL     OW10672   2.058   6.094   3.372
 3258SOL    HW110673   2.086   6.024   3.306
 3258SOL    HW210674   2.049   6.053   3.462
 3259SOL     OW10675   4.472   4.684   3.118
 3259SOL    HW110676   4.535   4.621   3.072
 3259SOL    HW210677   4.465   4.659   3.214
 3260SOL     OW10678   1.275   4.586   2.432
 3260SOL    HW110679   1.370   4.618   2.430
 3260SOL    HW210680   1.274   4.486   2.425
 3261SOL     OW10681   5.251   6.907   4.123
 3261SOL    HW110682   5.200   6.970   4.181
 3261SOL    HW210683   5.187   6.845   4.077
 3262SOL     OW10684   3.331   2.125   2.463
 3262SOL    HW110685   3.372   2.133   2.372
 3262SOL    HW210686   3.232   2.137   2.456
 3263SOL     OW10687   0.877   1.315   2.682
 3263SOL    HW110688   0.948   1.376   2.645
 3263SOL    HW210689   0.814   1.367   2.739
 3264SOL     OW10690   1.781   5.897   0.845
 3264SOL    HW110691   1.761   5.870   0.751
 3264SOL    HW210692   1.823   5.988   0.846
 3265SOL     OW10693   5.554   4.767   6.079
 3265SOL    HW110694   5.588   4.677   6.052
 3265SOL    HW210695   5.608   4.838   6.034
 3266SOL     OW10696   3.287   5.147   6.527
 3266SOL    HW110697   3.188   5.142   6.544
 3266SOL    HW210698   3.302   5.148   6.428
 3267SOL     OW10699   3.987   0.173   0.589
 3267SOL    HW110700   4.070   0.211   0.549
 3267SOL    HW210701   3.944   0.242   0.649
 3268SOL     OW10702   6.502   5.247   1.852
 3268SOL    HW110703   6.513   5.148   1.853
 3268SOL    HW210704   6.469   5.276   1.762
 3269SOL     OW10705   1.696   4.959   2.504
 3269SOL    HW110706   1.759   4.975   2.427
 3269SOL    HW210707   1.737   4.894   2.567
 3270SOL     OW10708   0.340   2.483   4.896
 3270SOL    HW110709   0.410   2.436   4.949
 3270SOL    HW210710   0.377   2.509   4.807
 3271SOL     OW10711   0.440   3.466   2.878
 3271SOL    HW110712   0.411   3.407   2.803
 3271SOL    HW210713   0.512   3.528   2.846
 3272SOL     OW10714   4.128   6.424   0.665
 3272SOL    HW110715   4.031   6.408   0.684
 3272SOL    HW210716   4.139   6.447   0.568
 3273SOL     OW10717   4.606   2.596   6.756
 3273SOL    HW110718   4.594   2.687   6.796
 3273SOL    HW210719   4.696   2.591   6.712
 3274SOL     OW10720   5.852   0.280   0.015
 3274SOL    HW110721   5.791   0.359   0.006
 3274SOL    HW210722   5.931   0.293   6.979
 3275SOL     OW10723   5.025   0.137   1.216
 3275SOL    HW110724   4.981   0.165   1.301
 3275SOL    HW210725   5.119   0.111   1.234
 3276SOL     OW10726   5.005   6.872   0.225
 3276SOL    HW110727   5.096   6.898   0.257
 3276SOL    HW210728   4.943   6.949   0.234
 3277SOL     OW10729   3.868   1.788   1.944
 3277SOL    HW110730   3.827   1.703   1.913
 3277SOL    HW210731   3.797   1.856   1.961
 3278SOL     OW10732   6.645   0.072   6.951
 3278SOL    HW110733   6.577   0.000   6.937
 3278SOL    HW210734   6.737   0.035   6.938
 3279SOL     OW10735   3.704   0.105   1.281
 3279SOL    HW110736   3.618   0.054   1.293
 3279SOL    HW210737   3.746   0.120   1.370
 3280SOL     OW10738   5.655   3.532   4.484
 3280SOL    HW110739   5.632   3.587   4.404
 3280SOL    HW210740   5.571   3.497   4.526
 3281SOL     OW10741   6.241   3.565   1.498
 3281SOL    HW110742   6.160   3.560   1.439
 3281SOL    HW210743   6.221   3.519   1.584
 3282SOL     OW10744   0.252   4.855   4.617
 3282SOL    HW110745   0.335   4.892   4.575
 3282SOL    HW210746   0.202   4.801   4.550
 3283SOL     OW10747   3.743   1.685   0.449
 3283SOL    HW110748   3.811   1.695   0.522
 3283SOL    HW210749   3.788   1.650   0.367
 3284SOL     OW10750   1.238   5.766   4.573
 3284SOL    HW110751   1.247   5.713   4.488
 3284SOL    HW210752   1.222   5.862   4.551
 3285SOL     OW10753   4.846   1.638   4.592
 3285SOL    HW110754   4.836   1.731   4.628
 3285SOL    HW210755   4.910   1.639   4.515
 3286SOL     OW10756   2.942   1.403   1.124
 3286SOL    HW110757   2.856   1.410   1.073
 3286SOL    HW210758   2.946   1.316   1.172
 3287SOL     OW10759   2.086   0.020   6.734
 3287SOL    HW110760   2.123   0.113   6.746
 3287SOL    HW210761   2.122   6.985   6.806
 3288SOL     OW10762   2.131   6.756   1.506
 3288SOL    HW110763   2.033   6.762   1.484
 3288SOL    HW210764   2.142   6.739   1.604
 3289SOL     OW10765   4.127   1.554   6.853
 3289SOL    HW110766   4.146   1.532   6.949
 3289SOL    HW210767   4.187   1.629   6.824
 3290SOL     OW10768   6.883   4.804   0.667
 3290SOL    HW110769   6.905   4.895   0.629
 3290SOL    HW210770   6.814   4.760   0.609
 3291SOL     OW10771   4.553   6.598   5.430
 3291SOL    HW110772   4.508   6.627   5.346
 3291SOL    HW210773   4.544   6.670   5.499
 3292SOL     OW10774   6.711   2.246   1.594
 3292SOL    HW110775   6.767   2.329   1.607
 3292SOL    HW210776   6.614   2.271   1.597
 3293SOL     OW10777   5.781   5.151   3.107
 3293SOL    HW110778   5.784   5.135   3.206
 3293SOL    HW210779   5.826   5.237   3.086
 3294SOL     OW10780   5.224   2.270   4.719
 3294SOL    HW110781   5.204   2.362   4.752
 3294SOL    HW210782   5.195   2.203   4.787
 3295SOL     OW10783   1.247   3.318   2.356
 3295SOL    HW110784   1.311   3.332   2.280
 3295SOL    HW210785   1.166   3.271   2.322
 3296SOL     OW10786   1.297   0.097   5.906
 3296SOL    HW110787   1.249   0.011   5.886
 3296SOL    HW210788   1.377   0.104   5.846
 3297SOL     OW10789   3.130   1.533   4.849
 3297SOL    HW110790   3.164   1.465   4.785
 3297SOL    HW210791   3.187   1.533   4.932
 3298SOL     OW10792   5.501   4.148   5.943
 3298SOL    HW110793   5.592   4.124   5.910
 3298SOL    HW210794   5.434   4.082   5.907
 3299SOL     OW10795   2.898   4.772   4.471
 3299SOL    HW110796   2.867   4.748   4.379
 3299SOL    HW210797   2.819   4.778   4.533
 3300SOL     OW10798   2.002   0.041   4.102
 3300SOL    HW110799   1.975   6.981   4.055
 3300SOL    HW210800   2.083   0.023   4.158
 3301SOL     OW10801   1.895   1.804   2.741
 3301SOL    HW110802   1.799   1.776   2.746
 3301SOL    HW210803   1.908   1.861   2.659
 3302SOL     OW10804   2.419   4.891   6.290
 3302SOL    HW110805   2.488   4.895   6.363
 3302SOL    HW210806   2.444   4.955   6.217
 3303SOL     OW10807   3.769   3.079   0.237
 3303SOL    HW110808   3.705   3.059   0.163
 3303SOL    HW210809   3.739   3.034   0.321
 3304SOL     OW10810   2.840   5.076   6.347
 3304SOL    HW110811   2.855   5.170   6.377
 3304SOL    HW210812   2.916   5.018   6.377
 3305SOL     OW10813   3.433   1.542   0.683
 3305SOL    HW110814   3.441   1.590   0.595
 3305SOL    HW210815   3.339   1.546   0.715
 3306SOL     OW10816   1.903   0.649   6.764
 3306SOL    HW110817   1.902   0.567   6.822
 3306SOL    HW210818   1.869   0.727   6.816
 3307SOL     OW10819   1.704   6.908   4.699
 3307SOL    HW110820   1.781   6.895   4.762
 3307SOL    HW210821   1.650   6.824   4.694
 3308SOL     OW10822   3.721   4.288   1.171
 3308SOL    HW110823   3.639   4.232   1.166
 3308SOL    HW210824   3.773   4.264   1.254
 3309SOL     OW10825   5.947   3.653   3.750
 3309SOL    HW110826   5.965   3.746   3.783
 3309SOL    HW210827   5.895   3.658   3.665
 3310SOL     OW10828   6.502   5.263   5.731
 3310SOL    HW110829   6.455   5.351   5.719
 3310SOL    HW210830   6.599   5.275   5.712
 3311SOL     OW10831   3.447   3.489   0.341
 3311SOL    HW110832   3.516   3.517   0.275
 3311SOL    HW210833   3.488   3.431   0.411
 3312SOL     OW10834   4.516   2.600   5.716
 3312SOL    HW110835   4.458   2.669   5.674
 3312SOL    HW210836   4.474   2.568   5.801
 3313SOL     OW10837   1.031   0.985   3.006
 3313SOL    HW110838   1.028   1.021   2.913
 3313SOL    HW210839   1.001   0.889   3.005
 3314SOL     OW10840   2.536   5.706   2.460
 3314SOL    HW110841   2.454   5.702   2.403
 3314SOL    HW210842   2.559   5.801   2.479
 3315SOL     OW10843   0.149   4.922   5.201
 3315SOL    HW110844   0.152   4.834   5.154
 3315SOL    HW210845   0.215   4.922   5.276
 3316SOL     OW10846   3.437   1.849   6.273
 3316SOL    HW110847   3.450   1.838   6.371
 3316SOL    HW210848   3.352   1.804   6.245
 3317SOL     OW10849   5.260   2.635   3.252
 3317SOL    HW110850   5.199   2.687   3.192
 3317SOL    HW210851   5.342   2.608   3.201
 3318SOL     OW10852   2.946   2.359   0.495
 3318SOL    HW110853   3.027   2.347   0.554
 3318SOL    HW210854   2.872   2.399   0.549
 3319SOL     OW10855   6.829   6.277   3.446
 3319SOL    HW110856   6.796   6.350   3.386
 3319SOL    HW210857   6.929   6.274   3.444
 3320SOL     OW10858   6.560   0.370   1.280
 3320SOL    HW110859   6.508   0.295   1.321
 3320SOL    HW210860   6.613   0.335   1.203
 3321SOL     OW10861   4.826   1.201   7.004
 3321SOL    HW110862   4.869   1.119   0.017
 3321SOL    HW210863   4.732   1.180   6.977
 3322SOL     OW10864   6.541   3.848   1.043
 3322SOL    HW110865   6.621   3.889   1.086
 3322SOL    HW210866   6.541   3.749   1.061
 3323SOL     OW10867   1.401   1.878   2.144
 3323SOL    HW110868   1.456   1.929   2.210
 3323SOL    HW210869   1.304   1.896   2.161
 3324SOL     OW10870   5.154   5.789   5.706
 3324SOL    HW110871   5.219   5.731   5.657
 3324SOL    HW210872   5.091   5.830   5.641
 3325SOL     OW10873   1.661   3.454   6.581
 3325SOL    HW110874   1.620   3.366   6.561
 3325SOL    HW210875   1.681   3.502   6.495
 3326SOL     OW10876   4.694   0.826   2.816
 3326SOL    HW110877   4.603   0.835   2.776
 3326SOL    HW210878   4.739   0.915   2.815
 3327SOL     OW10879   1.741   5.650   0.973
 3327SOL    HW110880   1.645   5.633   0.949
 3327SOL    HW210881   1.770   5.738   0.935
 3328SOL     OW10882   4.779   2.094   0.158
 3328SOL    HW110883   4.865   2.073   0.111
 3328SOL    HW210884   4.721   2.013   0.161
 3329SOL     OW10885   6.083   5.241   5.539
 3329SOL    HW110886   6.126   5.167   5.591
 3329SOL    HW210887   5.985   5.223   5.531
 3330SOL     OW10888   6.352   3.622   2.586
 3330SOL    HW110889   6.335   3.715   2.551
 3330SOL    HW210890   6.282   3.560   2.551
 3331SOL     OW10891   2.081   2.431   1.371
 3331SOL    HW110892   2.064   2.518   1.325
 3331SOL    HW210893   2.142   2.445   1.449
 3332SOL     OW10894   6.121   4.498   0.807
 3332SOL    HW110895   6.175   4.544   0.737
 3332SOL    HW210896   6.027   4.533   0.805
 3333SOL     OW10897   4.306   4.821   5.754
 3333SOL    HW110898   4.218   4.774   5.757
 3333SOL    HW210899   4.361   4.786   5.678
 3334SOL     OW10900   2.516   4.189   1.724
 3334SOL    HW110901   2.471   4.186   1.635
 3334SOL    HW210902   2.470   4.125   1.786
 3335SOL     OW10903   4.930   4.332   5.366
 3335SOL    HW110904   4.890   4.300   5.452
 3335SOL    HW210905   4.999   4.266   5.334
 3336SOL     OW10906   3.620   4.766   6.220
 3336SOL    HW110907   3.629   4.671   6.190
 3336SOL    HW210908   3.640   4.826   6.143
 3337SOL     OW10909   3.332   2.289   1.106
 3337SOL    HW110910   3.318   2.237   1.190
 3337SOL    HW210911   3.277   2.373   1.109
 3338SOL     OW10912   6.932   4.380   0.941
 3338SOL    HW110913   7.014   4.425   0.905
 3338SOL    HW210914   6.852   4.411   0.890
 3339SOL     OW10915   6.938   5.813   6.800
 3339SOL    HW110916   6.917   5.736   6.739
 3339SOL    HW210917   6.862   5.877   6.800
 3340SOL     OW10918   3.222   6.601   1.375
 3340SOL    HW110919   3.304   6.581   1.430
 3340SOL    HW210920   3.140   6.587   1.431
 3341SOL     OW10921   0.342   0.981   2.569
 3341SOL    HW110922   0.266   1.033   2.607
 3341SOL    HW210923   0.396   1.040   2.509
 3342SOL     OW10924   2.171   6.717   4.267
 3342SOL    HW110925   2.262   6.749   4.240
 3342SOL    HW210926   2.174   6.688   4.363
 3343SOL     OW10927   5.188   2.831   0.719
 3343SOL    HW110928   5.132   2.823   0.802
 3343SOL    HW210929   5.144   2.781   0.645
 3344SOL     OW10930   6.746   3.274   5.741
 3344SOL    HW110931   6.785   3.184   5.763
 3344SOL    HW210932   6.800   3.315   5.667
 3345SOL     OW10933   3.310   3.416   6.027
 3345SOL    HW110934   3.377   3.352   6.064
 3345SOL    HW210935   3.218   3.382   6.044
 3346SOL     OW10936   0.844   0.401   1.817
 3346SOL    HW110937   0.898   0.484   1.804
 3346SOL    HW210938   0.860   0.338   1.741
 3347SOL     OW10939   5.619   3.784   5.227
 3347SOL    HW110940   5.704   3.733   5.214
 3347SOL    HW210941   5.550   3.724   5.267
 3348SOL     OW10942   3.965   3.067   4.162
 3348SOL    HW110943   3.995   3.065   4.257
 3348SOL    HW210944   3.870   3.038   4.156
 3349SOL     OW10945   6.376   3.811   4.621
 3349SOL    HW110946   6.360   3.754   4.702
 3349SOL    HW210947   6.320   3.778   4.545
 3350SOL     OW10948   1.140   1.530   0.953
 3350SOL    HW110949   1.219   1.469   0.961
 3350SOL    HW210950   1.155   1.595   0.879
 3351SOL     OW10951   5.206   1.654   1.474
 3351SOL    HW110952   5.239   1.734   1.424
 3351SOL    HW210953   5.230   1.662   1.570
 3352SOL     OW10954   0.418   3.516   1.140
 3352SOL    HW110955   0.405   3.484   1.046
 3352SOL    HW210956   0.489   3.586   1.143
 3353SOL     OW10957   2.124   0.040   6.000
 3353SOL    HW110958   2.215   0.073   5.974
 3353SOL    HW210959   2.104   6.980   5.951
 3354SOL     OW10960   0.733   2.492   3.494
 3354SOL    HW110961   0.650   2.530   3.453
 3354SOL    HW210962   0.798   2.565   3.513
 3355SOL     OW10963   6.590   1.221   2.890
 3355SOL    HW110964   6.555   1.257   2.803
 3355SOL    HW210965   6.573   1.122   2.894
 3356SOL     OW10966   2.561   3.420   0.292
 3356SOL    HW110967   2.652   3.386   0.315
 3356SOL    HW210968   2.554   3.517   0.318
 3357SOL     OW10969   2.845   5.442   1.972
 3357SOL    HW110970   2.818   5.461   1.878
 3357SOL    HW210971   2.922   5.499   1.998
 3358SOL     OW10972   5.109   5.297   2.153
 3358SOL    HW110973   5.058   5.337   2.077
 3358SOL    HW210974   5.057   5.222   2.193
 3359SOL     OW10975   2.239   1.374   2.778
 3359SOL    HW110976   2.320   1.351   2.832
 3359SOL    HW210977   2.223   1.304   2.709
 3360SOL     OW10978   0.898   0.719   0.139
 3360SOL    HW110979   0.887   0.677   0.049
 3360SOL    HW210980   0.948   0.805   0.130
 3361SOL     OW10981   5.936   6.677   3.088
 3361SOL    HW110982   5.960   6.749   3.154
 3361SOL    HW210983   5.930   6.717   2.997
 3362SOL     OW10984   1.676   1.007   5.634
 3362SOL    HW110985   1.756   1.060   5.662
 3362SOL    HW210986   1.594   1.062   5.649
 3363SOL     OW10987   0.348   1.464   6.618
 3363SOL    HW110988   0.389   1.382   6.659
 3363SOL    HW210989   0.404   1.544   6.640
 3364SOL     OW10990   1.669   4.979   6.433
 3364SOL    HW110991   1.755   4.995   6.385
 3364SOL    HW210992   1.620   4.903   6.391
 3365SOL     OW10993   6.361   1.860   5.295
 3365SOL    HW110994   6.346   1.908   5.382
 3365SOL    HW210995   6.305   1.777   5.292
 3366SOL     OW10996   5.410   0.987   5.626
 3366SOL    HW110997   5.464   0.934   5.691
 3366SOL    HW210998   5.322   0.943   5.612
 3367SOL     OW10999   1.098   1.038   1.863
 3367SOL    HW111000   1.088   1.081   1.774
 3367SOL    HW211001   1.039   0.957   1.868
 3368SOL     OW11002   6.381   6.138   5.979
 3368SOL    HW111003   6.434   6.053   5.982
 3368SOL    HW211004   6.415   6.195   5.904
 3369SOL     OW11005   4.217   0.329   6.971
 3369SOL    HW111006   4.288   0.297   6.908
 3369SOL    HW211007   4.127   0.315   6.929
 3370SOL     OW11008   6.062   6.600   5.598
 3370SOL    HW111009   6.021   6.687   5.570
 3370SOL    HW211010   6.040   6.583   5.694
 3371SOL     OW11011   0.408   5.562   1.929
 3371SOL    HW111012   0.448   5.537   1.840
 3371SOL    HW211013   0.412   5.661   1.940
 3372SOL     OW11014   0.614   0.975   2.779
 3372SOL    HW111015   0.578   0.957   2.870
 3372SOL    HW211016   0.588   1.067   2.749
 3373SOL     OW11017   6.498   2.102   5.091
 3373SOL    HW111018   6.480   2.016   5.138
 3373SOL    HW211019   6.500   2.176   5.158
 3374SOL     OW11020   3.038   5.158   5.683
 3374SOL    HW111021   2.996   5.098   5.751
 3374SOL    HW211022   2.980   5.162   5.602
 3375SOL     OW11023   4.298   4.703   5.235
 3375SOL    HW111024   4.221   4.641   5.250
 3375SOL    HW211025   4.300   4.771   5.309
 3376SOL     OW11026   3.199   3.797   2.085
 3376SOL    HW111027   3.262   3.801   2.163
 3376SOL    HW211028   3.141   3.716   2.093
 3377SOL     OW11029   1.541   6.251   5.257
 3377SOL    HW111030   1.487   6.235   5.175
 3377SOL    HW211031   1.489   6.308   5.320
 3378SOL     OW11032   6.766   2.117   1.340
 3378SOL    HW111033   6.864   2.096   1.344
 3378SOL    HW211034   6.738   2.163   1.425
 3379SOL     OW11035   0.377   4.374   5.556
 3379SOL    HW111036   0.332   4.383   5.645
 3379SOL    HW211037   0.343   4.445   5.495
 3380SOL     OW11038   6.939   4.126   6.687
 3380SOL    HW111039   6.976   4.050   6.741
 3380SOL    HW211040   6.954   4.109   6.590
 3381SOL     OW11041   3.217   2.293   0.099
 3381SOL    HW111042   3.299   2.248   0.136
 3381SOL    HW211043   3.172   2.232   0.035
 3382SOL     OW11044   0.069   1.758   1.103
 3382SOL    HW111045   0.015   1.721   1.179
 3382SOL    HW211046   0.116   1.842   1.134
 3383SOL     OW11047   5.965   4.955   2.981
 3383SOL    HW111048   5.913   4.912   2.907
 3383SOL    HW211049   5.906   5.021   3.029
 3384SOL     OW11050   3.669   3.147   4.277
 3384SOL    HW111051   3.670   3.170   4.374
 3384SOL    HW211052   3.720   3.062   4.263
 3385SOL     OW11053   6.185   3.867   3.263
 3385SOL    HW111054   6.181   3.773   3.229
 3385SOL    HW211055   6.270   3.880   3.314
 3386SOL     OW11056   5.924   4.632   5.676
 3386SOL    HW111057   5.895   4.574   5.753
 3386SOL    HW211058   5.871   4.716   5.676
 3387SOL     OW11059   2.252   2.468   3.031
 3387SOL    HW111060   2.253   2.554   3.081
 3387SOL    HW211061   2.158   2.437   3.020
 3388SOL     OW11062   5.697   2.007   1.665
 3388SOL    HW111063   5.716   2.102   1.690
 3388SOL    HW211064   5.742   1.946   1.730
 3389SOL     OW11065   5.419   4.785   3.719
 3389SOL    HW111066   5.457   4.742   3.637
 3389SOL    HW211067   5.445   4.881   3.721
 3390SOL     OW11068   4.834   2.780   5.482
 3390SOL    HW111069   4.830   2.878   5.500
 3390SOL    HW211070   4.824   2.729   5.568
 3391SOL     OW11071   4.004   2.214   4.798
 3391SOL    HW111072   4.099   2.233   4.775
 3391SOL    HW211073   3.956   2.300   4.816
 3392SOL     OW11074   3.738   0.734   4.059
 3392SOL    HW111075   3.765   0.641   4.032
 3392SOL    HW211076   3.702   0.783   3.979
 3393SOL     OW11077   6.624   6.786   0.138
 3393SOL    HW111078   6.608   6.752   0.230
 3393SOL    HW211079   6.712   6.752   0.104
 3394SOL     OW11080   6.468   2.867   1.201
 3394SOL    HW111081   6.501   2.783   1.159
 3394SOL    HW211082   6.397   2.907   1.143
 3395SOL     OW11083   0.914   3.347   4.610
 3395SOL    HW111084   0.982   3.309   4.673
 3395SOL    HW211085   0.880   3.274   4.550
 3396SOL     OW11086   7.012   4.268   3.906
 3396SOL    HW111087   6.948   4.215   3.961
 3396SOL    HW211088   0.047   4.322   3.966
 3397SOL     OW11089   3.640   6.675   6.224
 3397SOL    HW111090   3.692   6.619   6.159
 3397SOL    HW211091   3.635   6.628   6.312
 3398SOL     OW11092   1.249   6.775   4.355
 3398SOL    HW111093   1.182   6.714   4.312
 3398SOL    HW211094   1.318   6.801   4.288
 3399SOL     OW11095   5.156   4.791   3.608
 3399SOL    HW111096   5.108   4.709   3.640
 3399SOL    HW211097   5.243   4.799   3.655
 3400SOL     OW11098   4.925   2.359   0.168
 3400SOL    HW111099   4.989   2.341   0.243
 3400SOL    HW211100   4.943   2.295   0.093
 3401SOL     OW11101   5.974   3.996   0.586
 3401SOL    HW111102   6.022   4.033   0.666
 3401SOL    HW211103   5.930   3.909   0.610
 3402SOL     OW11104   5.776   5.496   1.221
 3402SOL    HW111105   5.725   5.545   1.151
 3402SOL    HW211106   5.874   5.507   1.204
 3403SOL     OW11107   3.687   0.695   5.158
 3403SOL    HW111108   3.783   0.683   5.131
 3403SOL    HW211109   3.666   0.793   5.160
 3404SOL     OW11110   4.608   0.857   0.336
 3404SOL    HW111111   4.690   0.803   0.355
 3404SOL    HW211112   4.630   0.954   0.346
 3405SOL     OW11113   6.634   3.450   6.526
 3405SOL    HW111114   6.567   3.520   6.500
 3405SOL    HW211115   6.726   3.489   6.520
 3406SOL     OW11116   1.660   3.951   2.673
 3406SOL    HW111117   1.563   3.926   2.668
 3406SOL    HW211118   1.669   4.050   2.672
 3407SOL     OW11119   0.975   5.555   2.407
 3407SOL    HW111120   1.005   5.642   2.447
 3407SOL    HW211121   1.046   5.520   2.347
 3408SOL     OW11122   5.274   3.983   2.381
 3408SOL    HW111123   5.252   3.893   2.342
 3408SOL    HW211124   5.196   4.045   2.368
 3409SOL     OW11125   3.519   0.458   5.833
 3409SOL    HW111126   3.425   0.489   5.839
 3409SOL    HW211127   3.520   0.358   5.824
 3410SOL     OW11128   6.664   6.788   0.671
 3410SOL    HW111129   6.637   6.763   0.764
 3410SOL    HW211130   6.587   6.774   0.609
 3411SOL     OW11131   4.863   1.522   3.105
 3411SOL    HW111132   4.772   1.539   3.067
 3411SOL    HW211133   4.907   1.610   3.128
 3412SOL     OW11134   3.626   4.267   0.152
 3412SOL    HW111135   3.555   4.263   0.083
 3412SOL    HW211136   3.618   4.353   0.202
 3413SOL     OW11137   3.353   1.642   3.519
 3413SOL    HW111138   3.267   1.618   3.564
 3413SOL    HW211139   3.408   1.560   3.507
 3414SOL     OW11140   3.018   2.396   5.347
 3414SOL    HW111141   3.007   2.495   5.345
 3414SOL    HW211142   3.092   2.370   5.285
 3415SOL     OW11143   0.393   4.704   3.804
 3415SOL    HW111144   0.352   4.676   3.891
 3415SOL    HW211145   0.479   4.656   3.790
 3416SOL     OW11146   0.834   5.372   5.130
 3416SOL    HW111147   0.933   5.369   5.144
 3416SOL    HW211148   0.793   5.434   5.197
 3417SOL     OW11149   6.928   6.805   2.615
 3417SOL    HW111150   6.953   6.737   2.684
 3417SOL    HW211151   6.954   6.771   2.525
 3418SOL     OW11152   3.061   1.475   5.525
 3418SOL    HW111153   3.012   1.545   5.577
 3418SOL    HW211154   2.997   1.402   5.498
 3419SOL     OW11155   4.262   4.375   6.819
 3419SOL    HW111156   4.184   4.325   6.856
 3419SOL    HW211157   4.256   4.377   6.719
 3420SOL     OW11158   4.303   2.185   3.824
 3420SOL    HW111159   4.261   2.103   3.783
 3420SOL    HW211160   4.263   2.202   3.914
 3421SOL     OW11161   6.739   5.657   5.744
 3421SOL    HW111162   6.801   5.647   5.821
 3421SOL    HW211163   6.680   5.736   5.759
 3422SOL     OW11164   3.345   0.794   1.526
 3422SOL    HW111165   3.296   0.722   1.476
 3422SOL    HW211166   3.420   0.829   1.469
 3423SOL     OW11167   2.213   0.717   0.908
 3423SOL    HW111168   2.270   0.797   0.891
 3423SOL    HW211169   2.183   0.717   1.003
 3424SOL     OW11170   4.445   0.796   2.700
 3424SOL    HW111171   4.426   0.888   2.666
 3424SOL    HW211172   4.389   0.730   2.651
 3425SOL     OW11173   4.737   4.605   1.819
 3425SOL    HW111174   4.660   4.660   1.852
 3425SOL    HW211175   4.785   4.656   1.747
 3426SOL     OW11176   4.105   3.510   0.496
 3426SOL    HW111177   4.170   3.440   0.528
 3426SOL    HW211178   4.091   3.578   0.568
 3427SOL     OW11179   6.993   1.035   0.428
 3427SOL    HW111180   6.935   1.006   0.504
 3427SOL    HW211181   0.026   1.112   0.457
 3428SOL     OW11182   4.262   4.622   2.077
 3428SOL    HW111183   4.282   4.577   1.990
 3428SOL    HW211184   4.165   4.648   2.079
 3429SOL     OW11185   1.390   3.321   1.074
 3429SOL    HW111186   1.403   3.416   1.047
 3429SOL    HW211187   1.418   3.261   0.999
 3430SOL     OW11188   1.274   0.200   0.499
 3430SOL    HW111189   1.282   0.125   0.433
 3430SOL    HW211190   1.184   0.242   0.491
 3431SOL     OW11191   1.022   5.635   0.558
 3431SOL    HW111192   0.959   5.569   0.600
 3431SOL    HW211193   0.993   5.728   0.580
 3432SOL     OW11194   3.194   1.243   5.873
 3432SOL    HW111195   3.127   1.300   5.920
 3432SOL    HW211196   3.246   1.190   5.941
 3433SOL     OW11197   3.440   0.563   4.833
 3433SOL    HW111198   3.379   0.636   4.864
 3433SOL    HW211199   3.493   0.529   4.910
 3434SOL     OW11200   4.698   2.720   2.027
 3434SOL    HW111201   4.719   2.811   1.992
 3434SOL    HW211202   4.619   2.726   2.088
 3435SOL     OW11203   0.035   1.849   2.283
 3435SOL    HW111204   7.022   1.853   2.376
 3435SOL    HW211205   0.003   1.929   2.232
 3436SOL     OW11206   4.548   6.764   4.596
 3436SOL    HW111207   4.591   6.725   4.676
 3436SOL    HW211208   4.546   6.697   4.522
 3437SOL     OW11209   4.188   6.795   5.204
 3437SOL    HW111210   4.100   6.766   5.240
 3437SOL    HW211211   4.217   6.730   5.133
 3438SOL     OW11212   0.964   2.557   6.445
 3438SOL    HW111213   0.955   2.462   6.413
 3438SOL    HW211214   0.898   2.574   6.518
 3439SOL     OW11215   2.557   6.609   4.577
 3439SOL    HW111216   2.472   6.596   4.627
 3439SOL    HW211217   2.559   6.547   4.499
 3440SOL     OW11218   4.865   3.244   1.112
 3440SOL    HW111219   4.885   3.224   1.016
 3440SOL    HW211220   4.933   3.201   1.170
 3441SOL     OW11221   3.073   6.876   3.698
 3441SOL    HW111222   3.154   6.834   3.739
 3441SOL    HW211223   3.016   6.916   3.770
 3442SOL     OW11224   1.785   5.310   3.588
 3442SOL    HW111225   1.883   5.319   3.610
 3442SOL    HW211226   1.734   5.289   3.671
 3443SOL     OW11227   5.829   1.745   2.978
 3443SOL    HW111228   5.816   1.819   2.912
 3443SOL    HW211229   5.756   1.678   2.967
 3444SOL     OW11230   4.972   5.382   0.298
 3444SOL    HW111231   5.069   5.399   0.315
 3444SOL    HW211232   4.937   5.451   0.235
 3445SOL     OW11233   6.636   4.718   3.926
 3445SOL    HW111234   6.612   4.635   3.975
 3445SOL    HW211235   6.725   4.752   3.957
 3446SOL     OW11236   4.007   0.209   2.852
 3446SOL    HW111237   4.082   0.156   2.893
 3446SOL    HW211238   4.021   0.306   2.871
 3447SOL     OW11239   5.553   6.303   0.208
 3447SOL    HW111240   5.618   6.337   0.140
 3447SOL    HW211241   5.580   6.212   0.239
 3448SOL     OW11242   3.607   1.292   1.408
 3448SOL    HW111243   3.626   1.240   1.324
 3448SOL    HW211244   3.592   1.388   1.385
 3449SOL     OW11245   6.562   0.270   2.436
 3449SOL    HW111246   6.590   0.196   2.496
 3449SOL    HW211247   6.639   0.295   2.377
 3450SOL     OW11248   0.644   2.025   1.605
 3450SOL    HW111249   0.659   2.035   1.703
 3450SOL    HW211250   0.724   2.061   1.556
 3451SOL     OW11251   1.086   5.616   3.821
 3451SOL    HW111252   1.076   5.626   3.920
 3451SOL    HW211253   1.152   5.683   3.788
 3452SOL     OW11254   6.226   1.177   0.481
 3452SOL    HW111255   6.265   1.145   0.567
 3452SOL    HW211256   6.220   1.101   0.417
 3453SOL     OW11257   5.653   5.651   4.761
 3453SOL    HW111258   5.586   5.723   4.745
 3453SOL    HW211259   5.730   5.689   4.813
 3454SOL     OW11260   1.349   1.326   0.958
 3454SOL    HW111261   1.361   1.241   1.009
 3454SOL    HW211262   1.323   1.305   0.864
 3455SOL     OW11263   1.651   2.844   4.638
 3455SOL    HW111264   1.718   2.844   4.564
 3455SOL    HW211265   1.698   2.864   4.724
 3456SOL     OW11266   5.643   6.815   1.548
 3456SOL    HW111267   5.742   6.816   1.561
 3456SOL    HW211268   5.621   6.825   1.451
 3457SOL     OW11269   2.403   5.011   3.369
 3457SOL    HW111270   2.496   4.994   3.336
 3457SOL    HW211271   2.388   5.110   3.375
 3458SOL     OW11272   5.691   0.039   0.699
 3458SOL    HW111273   5.790   0.051   0.692
 3458SOL    HW211274   5.657   0.091   0.777
 3459SOL     OW11275   0.260   4.837   3.611
 3459SOL    HW111276   0.287   4.772   3.682
 3459SOL    HW211277   0.340   4.861   3.556
 3460SOL     OW11278   4.161   2.516   0.134
 3460SOL    HW111279   4.228   2.441   0.135
 3460SOL    HW211280   4.069   2.477   0.126
 3461SOL     OW11281   3.820   5.565   4.255
 3461SOL    HW111282   3.825   5.465   4.249
 3461SOL    HW211283   3.904   5.605   4.219
 3462SOL     OW11284   4.883   3.831   2.605
 3462SOL    HW111285   4.931   3.857   2.689
 3462SOL    HW211286   4.887   3.906   2.539
 3463SOL     OW11287   2.231   2.775   1.662
 3463SOL    HW111288   2.324   2.798   1.692
 3463SOL    HW211289   2.168   2.847   1.693
 3464SOL     OW11290   5.171   3.033   6.020
 3464SOL    HW111291   5.226   3.114   6.002
 3464SOL    HW211292   5.092   3.058   6.077
 3465SOL     OW11293   2.155   3.748   1.912
 3465SOL    HW111294   2.133   3.656   1.942
 3465SOL    HW211295   2.167   3.808   1.991
 3466SOL     OW11296   5.280   4.607   5.143
 3466SOL    HW111297   5.367   4.592   5.096
 3466SOL    HW211298   5.228   4.522   5.144
 3467SOL     OW11299   2.758   2.365   1.114
 3467SOL    HW111300   2.762   2.458   1.151
 3467SOL    HW211301   2.779   2.299   1.186
 3468SOL     OW11302   4.800   1.387   1.572
 3468SOL    HW111303   4.796   1.311   1.637
 3468SOL    HW211304   4.742   1.462   1.605
 3469SOL     OW11305   4.641   6.799   5.849
 3469SOL    HW111306   4.602   6.710   5.874
 3469SOL    HW211307   4.714   6.786   5.782
 3470SOL     OW11308   6.972   2.419   2.228
 3470SOL    HW111309   6.989   2.441   2.324
 3470SOL    HW211310   0.018   2.462   2.171
 3471SOL     OW11311   4.489   4.476   2.880
 3471SOL    HW111312   4.391   4.493   2.866
 3471SOL    HW211313   4.527   4.433   2.798
 3472SOL     OW11314   4.562   2.341   3.401
 3472SOL    HW111315   4.483   2.280   3.413
 3472SOL    HW211316   4.646   2.287   3.404
 3473SOL     OW11317   0.238   4.129   3.559
 3473SOL    HW111318   0.280   4.045   3.594
 3473SOL    HW211319   0.148   4.109   3.521
 3474SOL     OW11320   6.686   5.327   4.666
 3474SOL    HW111321   6.717   5.369   4.580
 3474SOL    HW211322   6.694   5.228   4.659
 3475SOL     OW11323   0.165   4.683   4.398
 3475SOL    HW111324   0.112   4.767   4.386
 3475SOL    HW211325   0.112   4.617   4.451
 3476SOL     OW11326   1.610   1.716   3.227
 3476SOL    HW111327   1.531   1.680   3.177
 3476SOL    HW211328   1.596   1.703   3.325
 3477SOL     OW11329   0.467   3.826   1.655
 3477SOL    HW111330   0.464   3.917   1.614
 3477SOL    HW211331   0.383   3.776   1.630
 3478SOL     OW11332   2.312   0.106   6.947
 3478SOL    HW111333   2.341   0.103   0.019
 3478SOL    HW211334   2.261   0.023   6.925
 3479SOL     OW11335   0.739   3.396   3.543
 3479SOL    HW111336   0.694   3.393   3.632
 3479SOL    HW211337   0.824   3.448   3.550
 3480SOL     OW11338   1.052   5.867   6.734
 3480SOL    HW111339   1.108   5.867   6.818
 3480SOL    HW211340   1.014   5.958   6.719
 3481SOL     OW11341   5.988   0.346   6.533
 3481SOL    HW111342   5.906   0.395   6.563
 3481SOL    HW211343   6.064   0.410   6.526
 3482SOL     OW11344   5.843   3.351   4.420
 3482SOL    HW111345   5.881   3.296   4.495
 3482SOL    HW211346   5.781   3.419   4.458
 3483SOL     OW11347   4.742   2.335   3.838
 3483SOL    HW111348   4.798   2.256   3.814
 3483SOL    HW211349   4.654   2.303   3.875
 3484SOL     OW11350   1.904   3.675   6.274
 3484SOL    HW111351   1.827   3.738   6.284
 3484SOL    HW211352   1.871   3.581   6.280
 3485SOL     OW11353   6.877   1.656   5.618
 3485SOL    HW111354   6.964   1.680   5.575
 3485SOL    HW211355   6.825   1.595   5.559
 3486SOL     OW11356   2.353   0.339   4.537
 3486SOL    HW111357   2.432   0.400   4.532
 3486SOL    HW211358   2.269   0.394   4.544
 3487SOL     OW11359   6.220   1.718   6.524
 3487SOL    HW111360   6.285   1.764   6.463
 3487SOL    HW211361   6.183   1.783   6.590
 3488SOL     OW11362   5.874   0.401   4.443
 3488SOL    HW111363   5.974   0.393   4.439
 3488SOL    HW211364   5.838   0.415   4.351
 3489SOL     OW11365   2.950   0.396   0.958
 3489SOL    HW111366   3.020   0.365   0.895
 3489SOL    HW211367   2.987   0.468   1.017
 3490SOL     OW11368   3.868   4.728   0.551
 3490SOL    HW111369   3.861   4.798   0.622
 3490SOL    HW211370   3.952   4.676   0.563
 3491SOL     OW11371   5.090   3.943   0.283
 3491SOL    HW111372   5.172   3.986   0.321
 3491SOL    HW211373   5.038   3.900   0.356
 3492SOL     OW11374   5.775   4.162   2.734
 3492SOL    HW111375   5.786   4.074   2.780
 3492SOL    HW211376   5.836   4.230   2.775
 3493SOL     OW11377   6.192   3.672   4.443
 3493SOL    HW111378   6.110   3.708   4.399
 3493SOL    HW211379   6.231   3.598   4.388
 3494SOL     OW11380   3.425   1.829   2.568
 3494SOL    HW111381   3.427   1.876   2.480
 3494SOL    HW211382   3.356   1.756   2.565
 3495SOL     OW11383   1.132   3.744   2.091
 3495SOL    HW111384   1.192   3.740   2.171
 3495SOL    HW211385   1.124   3.653   2.051
 3496SOL     OW11386   6.697   4.981   0.503
 3496SOL    HW111387   6.597   4.981   0.509
 3496SOL    HW211388   6.734   5.036   0.578
 3497SOL     OW11389   4.303   0.384   2.922
 3497SOL    HW111390   4.298   0.400   3.021
 3497SOL    HW211391   4.218   0.413   2.879
 3498SOL     OW11392   2.364   1.764   1.581
 3498SOL    HW111393   2.360   1.665   1.564
 3498SOL    HW211394   2.439   1.783   1.644
 3499SOL     OW11395   6.156   5.641   5.481
 3499SOL    HW111396   6.155   5.710   5.409
 3499SOL    HW211397   6.169   5.685   5.570
 3500SOL     OW11398   1.315   1.541   3.630
 3500SOL    HW111399   1.263   1.474   3.683
 3500SOL    HW211400   1.393   1.573   3.685
 3501SOL     OW11401   2.155   6.929   6.353
 3501SOL    HW111402   2.185   6.855   6.413
 3501SOL    HW211403   2.144   7.013   6.405
 3502SOL     OW11404   5.531   3.115   1.719
 3502SOL    HW111405   5.449   3.170   1.710
 3502SOL    HW211406   5.552   3.101   1.816
 3503SOL     OW11407   6.682   6.000   6.499
 3503SOL    HW111408   6.582   5.991   6.496
 3503SOL    HW211409   6.710   6.077   6.442
 3504SOL     OW11410   1.301   1.196   1.955
 3504SOL    HW111411   1.266   1.258   2.025
 3504SOL    HW211412   1.226   1.141   1.918
 3505SOL     OW11413   5.667   5.284   5.504
 3505SOL    HW111414   5.730   5.210   5.528
 3505SOL    HW211415   5.593   5.247   5.448
 3506SOL     OW11416   5.343   4.433   4.513
 3506SOL    HW111417   5.280   4.427   4.590
 3506SOL    HW211418   5.295   4.407   4.428
 3507SOL     OW11419   2.147   0.578   0.156
 3507SOL    HW111420   2.103   0.578   0.246
 3507SOL    HW211421   2.088   0.531   0.090
 3508SOL     OW11422   3.282   2.556   5.350
 3508SOL    HW111423   3.262   2.491   5.277
 3508SOL    HW211424   3.198   2.600   5.380
 3509SOL     OW11425   4.528   6.251   0.296
 3509SOL    HW111426   4.448   6.275   0.241
 3509SOL    HW211427   4.594   6.326   0.293
 3510SOL     OW11428   1.913   0.710   1.109
 3510SOL    HW111429   1.987   0.767   1.146
 3510SOL    HW211430   1.825   0.753   1.128
 3511SOL     OW11431   2.312   4.604   1.498
 3511SOL    HW111432   2.245   4.531   1.508
 3511SOL    HW211433   2.334   4.641   1.589
 3512SOL     OW11434   0.957   4.336   0.101
 3512SOL    HW111435   0.865   4.298   0.091
 3512SOL    HW211436   0.969   4.369   0.195
 3513SOL     OW11437   6.188   2.124   0.705
 3513SOL    HW111438   6.247   2.179   0.764
 3513SOL    HW211439   6.205   2.027   0.721
 3514SOL     OW11440   5.252   0.669   2.788
 3514SOL    HW111441   5.277   0.648   2.882
 3514SOL    HW211442   5.306   0.747   2.755
 3515SOL     OW11443   5.772   5.941   4.657
 3515SOL    HW111444   5.778   6.036   4.687
 3515SOL    HW211445   5.773   5.937   4.557
 3516SOL     OW11446   5.324   0.075   1.279
 3516SOL    HW111447   5.417   0.080   1.242
 3516SOL    HW211448   5.286   7.008   1.262
 3517SOL     OW11449   6.698   1.345   0.430
 3517SOL    HW111450   6.698   1.396   0.344
 3517SOL    HW211451   6.790   1.346   0.469
 3518SOL     OW11452   5.998   1.821   4.872
 3518SOL    HW111453   6.089   1.828   4.831
 3518SOL    HW211454   5.935   1.882   4.824
 3519SOL     OW11455   3.114   0.973   0.106
 3519SOL    HW111456   3.170   1.056   0.111
 3519SOL    HW211457   3.023   0.995   0.071
 3520SOL     OW11458   3.044   5.559   5.691
 3520SOL    HW111459   3.049   5.657   5.710
 3520SOL    HW211460   3.132   5.527   5.654
 3521SOL     OW11461   3.391   3.235   6.916
 3521SOL    HW111462   3.370   3.206   7.009
 3521SOL    HW211463   3.309   3.275   6.874
 3522SOL     OW11464   6.629   5.516   6.667
 3522SOL    HW111465   6.553   5.473   6.618
 3522SOL    HW211466   6.604   5.609   6.693
 3523SOL     OW11467   1.631   4.833   5.390
 3523SOL    HW111468   1.673   4.822   5.300
 3523SOL    HW211469   1.534   4.857   5.380
 3524SOL     OW11470   5.972   2.179   3.303
 3524SOL    HW111471   5.912   2.176   3.223
 3524SOL    HW211472   6.062   2.141   3.280
 3525SOL     OW11473   6.431   4.740   4.310
 3525SOL    HW111474   6.491   4.660   4.308
 3525SOL    HW211475   6.386   4.745   4.400
 3526SOL     OW11476   1.285   5.821   3.470
 3526SOL    HW111477   1.304   5.791   3.563
 3526SOL    HW211478   1.346   5.896   3.446
 3527SOL     OW11479   6.213   2.297   5.952
 3527SOL    HW111480   6.297   2.316   6.004
 3527SOL    HW211481   6.134   2.332   6.003
 3528SOL     OW11482   2.566   6.550   5.434
 3528SOL    HW111483   2.590   6.556   5.531
 3528SOL    HW211484   2.645   6.578   5.379
 3529SOL     OW11485   4.825   5.813   0.081
 3529SOL    HW111486   4.777   5.894   0.116
 3529SOL    HW211487   4.916   5.809   0.122
 3530SOL     OW11488   0.033   5.862   2.183
 3530SOL    HW111489   0.043   5.765   2.163
 3530SOL    HW211490   0.060   5.916   2.104
 3531SOL     OW11491   4.809   1.861   2.072
 3531SOL    HW111492   4.762   1.879   1.985
 3531SOL    HW211493   4.750   1.887   2.148
 3532SOL     OW11494   2.059   0.949   2.158
 3532SOL    HW111495   2.017   1.037   2.178
 3532SOL    HW211496   2.057   0.933   2.059
 3533SOL     OW11497   6.705   1.434   2.371
 3533SOL    HW111498   6.655   1.351   2.395
 3533SOL    HW211499   6.678   1.464   2.280
 3534SOL     OW11500   0.499   2.403   2.367
 3534SOL    HW111501   0.577   2.359   2.411
 3534SOL    HW211502   0.520   2.500   2.351
 3535SOL     OW11503   2.989   4.932   5.301
 3535SOL    HW111504   3.035   4.843   5.306
 3535SOL    HW211505   2.906   4.923   5.245
 3536SOL     OW11506   3.196   1.998   3.316
 3536SOL    HW111507   3.270   2.000   3.383
 3536SOL    HW211508   3.228   2.035   3.229
 3537SOL     OW11509   1.030   5.937   2.952
 3537SOL    HW111510   0.944   5.906   2.993
 3537SOL    HW211511   1.106   5.907   3.009
 3538SOL     OW11512   3.092   5.627   5.237
 3538SOL    HW111513   3.033   5.707   5.243
 3538SOL    HW211514   3.100   5.584   5.327
 3539SOL     OW11515   3.380   4.111   4.462
 3539SOL    HW111516   3.341   4.088   4.372
 3539SOL    HW211517   3.456   4.050   4.482
 3540SOL     OW11518   2.026   1.842   3.849
 3540SOL    HW111519   2.104   1.878   3.798
 3540SOL    HW211520   2.021   1.887   3.938
 3541SOL     OW11521   3.367   3.197   5.243
 3541SOL    HW111522   3.406   3.133   5.178
 3541SOL    HW211523   3.342   3.282   5.195
 3542SOL     OW11524   1.615   4.696   3.011
 3542SOL    HW111525   1.714   4.682   3.008
 3542SOL    HW211526   1.575   4.635   3.080
 3543SOL     OW11527   5.440   2.406   4.072
 3543SOL    HW111528   5.367   2.364   4.125
 3543SOL    HW211529   5.469   2.491   4.117
 3544SOL     OW11530   2.068   3.982   6.697
 3544SOL    HW111531   2.148   3.934   6.660
 3544SOL    HW211532   1.986   3.928   6.682
 3545SOL     OW11533   4.097   5.679   6.290
 3545SOL    HW111534   4.040   5.654   6.368
 3545SOL    HW211535   4.177   5.730   6.321
 3546SOL     OW11536   0.040   5.711   3.309
 3546SOL    HW111537   7.002   5.648   3.356
 3546SOL    HW211538   0.125   5.720   3.360
 3547SOL     OW11539   3.688   5.240   3.934
 3547SOL    HW111540   3.677   5.184   3.852
 3547SOL    HW211541   3.642   5.196   4.011
 3548SOL     OW11542   4.827   2.174   5.754
 3548SOL    HW111543   4.914   2.201   5.712
 3548SOL    HW211544   4.757   2.242   5.730
 3549SOL     OW11545   6.405   4.912   3.419
 3549SOL    HW111546   6.486   4.906   3.478
 3549SOL    HW211547   6.327   4.942   3.474
 3550SOL     OW11548   5.049   2.168   3.413
 3550SOL    HW111549   5.115   2.093   3.423
 3550SOL    HW211550   5.048   2.199   3.318
 3551SOL     OW11551   3.523   5.813   2.536
 3551SOL    HW111552   3.447   5.824   2.471
 3551SOL    HW211553   3.486   5.791   2.626
 3552SOL     OW11554   5.335   6.024   2.928
 3552SOL    HW111555   5.262   6.019   2.996
 3552SOL    HW211556   5.408   5.960   2.952
 3553SOL     OW11557   5.470   2.316   2.415
 3553SOL    HW111558   5.435   2.392   2.470
 3553SOL    HW211559   5.423   2.231   2.441
 3554SOL     OW11560   4.442   3.829   6.516
 3554SOL    HW111561   4.345   3.806   6.516
 3554SOL    HW211562   4.453   3.928   6.526
 3555SOL     OW11563   0.885   3.527   2.910
 3555SOL    HW111564   0.980   3.556   2.902
 3555SOL    HW211565   0.846   3.512   2.819
 3556SOL     OW11566   3.209   0.481   5.364
 3556SOL    HW111567   3.221   0.580   5.368
 3556SOL    HW211568   3.237   0.448   5.273
 3557SOL     OW11569   1.649   0.289   4.706
 3557SOL    HW111570   1.692   0.379   4.716
 3557SOL    HW211571   1.642   0.266   4.609
 3558SOL     OW11572   0.304   5.910   1.750
 3558SOL    HW111573   0.309   5.865   1.661
 3558SOL    HW211574   0.323   6.007   1.740
 3559SOL     OW11575   0.511   0.688   4.546
 3559SOL    HW111576   0.578   0.617   4.525
 3559SOL    HW211577   0.472   0.671   4.636
 3560SOL     OW11578   1.056   5.817   0.824
 3560SOL    HW111579   1.081   5.766   0.907
 3560SOL    HW211580   0.957   5.823   0.818
 3561SOL     OW11581   4.825   4.457   5.696
 3561SOL    HW111582   4.847   4.370   5.653
 3561SOL    HW211583   4.741   4.493   5.657
 3562SOL     OW11584   5.654   0.091   3.630
 3562SOL    HW111585   5.747   0.056   3.622
 3562SOL    HW211586   5.612   0.057   3.714
 3563SOL     OW11587   5.146   1.167   0.980
 3563SOL    HW111588   5.179   1.083   0.939
 3563SOL    HW211589   5.161   1.164   1.079
 3564SOL     OW11590   0.645   4.187   4.591
 3564SOL    HW111591   0.719   4.126   4.564
 3564SOL    HW211592   0.676   4.247   4.665
 3565SOL     OW11593   2.413   0.613   4.782
 3565SOL    HW111594   2.343   0.578   4.720
 3565SOL    HW211595   2.483   0.543   4.796
 3566SOL     OW11596   6.848   2.960   6.125
 3566SOL    HW111597   6.916   2.891   6.148
 3566SOL    HW211598   6.890   3.032   6.070
 3567SOL     OW11599   0.530   3.522   1.393
 3567SOL    HW111600   0.478   3.476   1.320
 3567SOL    HW211601   0.593   3.588   1.353
 3568SOL     OW11602   4.669   4.701   2.577
 3568SOL    HW111603   4.622   4.777   2.531
 3568SOL    HW211604   4.669   4.717   2.675
 3569SOL     OW11605   2.902   3.572   4.464
 3569SOL    HW111606   2.948   3.593   4.378
 3569SOL    HW211607   2.803   3.574   4.450
 3570SOL     OW11608   6.409   1.664   5.709
 3570SOL    HW111609   6.506   1.653   5.684
 3570SOL    HW211610   6.381   1.587   5.766
 3571SOL     OW11611   1.941   7.019   5.044
 3571SOL    HW111612   1.868   0.058   5.021
 3571SOL    HW211613   1.931   6.935   4.989
 3572SOL     OW11614   5.312   4.219   1.508
 3572SOL    HW111615   5.405   4.253   1.520
 3572SOL    HW211616   5.312   4.119   1.513
 3573SOL     OW11617   6.335   4.172   2.210
 3573SOL    HW111618   6.364   4.079   2.187
 3573SOL    HW211619   6.236   4.172   2.227
 3574SOL     OW11620   2.700   2.987   6.014
 3574SOL    HW111621   2.674   3.083   6.006
 3574SOL    HW211622   2.639   2.941   6.077
 3575SOL     OW11623   4.902   6.572   0.625
 3575SOL    HW111624   4.944   6.484   0.603
 3575SOL    HW211625   4.963   6.646   0.594
 3576SOL     OW11626   0.258   2.968   0.224
 3576SOL    HW111627   0.352   2.932   0.220
 3576SOL    HW211628   0.236   2.993   0.318
 3577SOL     OW11629   2.231   2.546   5.215
 3577SOL    HW111630   2.300   2.618   5.216
 3577SOL    HW211631   2.143   2.585   5.190
 3578SOL     OW11632   3.167   2.794   6.984
 3578SOL    HW111633   3.101   2.724   7.011
 3578SOL    HW211634   3.259   2.756   6.990
 3579SOL     OW11635   0.179   3.643   2.649
 3579SOL    HW111636   0.083   3.663   2.668
 3579SOL    HW211637   0.191   3.544   2.641
 3580SOL     OW11638   0.161   3.764   1.676
 3580SOL    HW111639   0.222   3.713   1.736
 3580SOL    HW211640   0.079   3.710   1.657
 3581SOL     OW11641   0.798   0.510   2.685
 3581SOL    HW111642   0.744   0.444   2.738
 3581SOL    HW211643   0.864   0.461   2.629
 3582SOL     OW11644   3.494   3.677   5.798
 3582SOL    HW111645   3.564   3.627   5.851
 3582SOL    HW211646   3.482   3.768   5.837
 3583SOL     OW11647   0.267   4.534   1.190
 3583SOL    HW111648   0.180   4.537   1.142
 3583SOL    HW211649   0.250   4.528   1.289
 3584SOL     OW11650   5.192   4.518   4.786
 3584SOL    HW111651   5.224   4.602   4.741
 3584SOL    HW211652   5.175   4.537   4.883
 3585SOL     OW11653   2.837   2.161   4.159
 3585SOL    HW111654   2.820   2.080   4.215
 3585SOL    HW211655   2.932   2.162   4.129
 3586SOL     OW11656   6.523   2.890   3.766
 3586SOL    HW111657   6.509   2.845   3.854
 3586SOL    HW211658   6.536   2.820   3.695
 3587SOL     OW11659   3.782   6.745   6.674
 3587SOL    HW111660   3.786   6.745   6.574
 3587SOL    HW211661   3.691   6.776   6.703
 3588SOL     OW11662   6.854   4.346   4.668
 3588SOL    HW111663   6.761   4.310   4.658
 3588SOL    HW211664   6.915   4.271   4.696
 3589SOL     OW11665   7.004   6.952   6.311
 3589SOL    HW111666   0.071   6.994   6.311
 3589SOL    HW211667   6.965   6.958   6.403
 3590SOL     OW11668   0.427   4.370   0.953
 3590SOL    HW111669   0.403   4.273   0.962
 3590SOL    HW211670   0.456   4.406   1.041
 3591SOL     OW11671   5.226   2.300   6.576
 3591SOL    HW111672   5.309   2.250   6.603
 3591SOL    HW211673   5.237   2.333   6.482
 3592SOL     OW11674   1.578   0.105   2.089
 3592SOL    HW111675   1.600   0.024   2.034
 3592SOL    HW211676   1.483   0.099   2.122
 3593SOL     OW11677   5.619   3.416   5.555
 3593SOL    HW111678   5.548   3.388   5.619
 3593SOL    HW211679   5.644   3.339   5.497
 3594SOL     OW11680   4.064   5.189   4.218
 3594SOL    HW111681   4.091   5.120   4.150
 3594SOL    HW211682   4.108   5.169   4.305
 3595SOL     OW11683   5.764   5.882   6.034
 3595SOL    HW111684   5.793   5.797   5.991
 3595SOL    HW211685   5.740   5.949   5.963
 3596SOL     OW11686   3.566   1.119   3.285
 3596SOL    HW111687   3.509   1.038   3.269
 3596SOL    HW211688   3.540   1.191   3.221
 3597SOL     OW11689   2.197   3.221   5.578
 3597SOL    HW111690   2.228   3.174   5.495
 3597SOL    HW211691   2.242   3.180   5.658
 3598SOL     OW11692   1.652   5.455   4.572
 3598SOL    HW111693   1.588   5.420   4.504
 3598SOL    HW211694   1.602   5.485   4.653
 3599SOL     OW11695   4.887   1.499   5.570
 3599SOL    HW111696   4.915   1.404   5.585
 3599SOL    HW211697   4.807   1.520   5.626
 3600SOL     OW11698   3.412   3.532   0.728
 3600SOL    HW111699   3.375   3.471   0.798
 3600SOL    HW211700   3.337   3.566   0.671
 3601SOL     OW11701   4.734   0.794   5.151
 3601SOL    HW111702   4.732   0.836   5.242
 3601SOL    HW211703   4.784   0.707   5.155
 3602SOL     OW11704   2.456   2.300   1.141
 3602SOL    HW111705   2.543   2.300   1.093
 3602SOL    HW211706   2.414   2.209   1.136
 3603SOL     OW11707   3.209   0.958   5.772
 3603SOL    HW111708   3.153   1.029   5.730
 3603SOL    HW211709   3.193   0.871   5.726
 3604SOL     OW11710   6.613   0.375   3.572
 3604SOL    HW111711   6.536   0.435   3.553
 3604SOL    HW211712   6.672   0.369   3.492
 3605SOL     OW11713   0.664   5.847   3.658
 3605SOL    HW111714   0.703   5.862   3.567
 3605SOL    HW211715   0.580   5.901   3.667
 3606SOL     OW11716   2.308   6.657   1.323
 3606SOL    HW111717   2.231   6.697   1.374
 3606SOL    HW211718   2.299   6.557   1.323
 3607SOL     OW11719   5.012   2.380   2.926
 3607SOL    HW111720   4.983   2.332   3.009
 3607SOL    HW211721   5.042   2.472   2.950
 3608SOL     OW11722   3.509   2.153   4.744
 3608SOL    HW111723   3.476   2.166   4.837
 3608SOL    HW211724   3.608   2.169   4.741
 3609SOL     OW11725   2.275   0.052   4.212
 3609SOL    HW111726   2.314   6.987   4.233
 3609SOL    HW211727   2.221   0.084   4.290
 3610SOL     OW11728   2.276   6.971   4.991
 3610SOL    HW111729   2.327   7.005   5.070
 3610SOL    HW211730   2.258   0.022   4.927
 3611SOL     OW11731   5.436   4.669   3.459
 3611SOL    HW111732   5.505   4.617   3.407
 3611SOL    HW211733   5.354   4.613   3.471
 3612SOL     OW11734   5.680   1.496   6.746
 3612SOL    HW111735   5.733   1.542   6.818
 3612SOL    HW211736   5.644   1.564   6.683
 3613SOL     OW11737   3.100   4.965   0.786
 3613SOL    HW111738   3.117   4.929   0.878
 3613SOL    HW211739   3.187   4.989   0.743
 3614SOL     OW11740   3.780   4.023   6.163
 3614SOL    HW111741   3.855   4.020   6.230
 3614SOL    HW211742   3.818   4.014   6.071
 3615SOL     OW11743   6.022   2.588   5.226
 3615SOL    HW111744   6.092   2.629   5.284
 3615SOL    HW211745   6.041   2.611   5.130
 3616SOL     OW11746   1.840   1.800   6.608
 3616SOL    HW111747   1.758   1.827   6.557
 3616SOL    HW211748   1.828   1.706   6.642
 3617SOL     OW11749   3.812   6.374   6.307
 3617SOL    HW111750   3.884   6.443   6.310
 3617SOL    HW211751   3.850   6.284   6.330
 3618SOL     OW11752   1.759   3.841   4.774
 3618SOL    HW111753   1.781   3.847   4.872
 3618SOL    HW211754   1.821   3.776   4.730
 3619SOL     OW11755   6.431   3.075   1.342
 3619SOL    HW111756   6.440   2.984   1.301
 3619SOL    HW211757   6.340   3.084   1.383
 3620SOL     OW11758   6.185   6.355   5.109
 3620SOL    HW111759   6.201   6.378   5.205
 3620SOL    HW211760   6.270   6.367   5.057
 3621SOL     OW11761   3.160   3.345   3.573
 3621SOL    HW111762   3.066   3.361   3.604
 3621SOL    HW211763   3.161   3.336   3.473
 3622SOL     OW11764   1.021   0.078   0.144
 3622SOL    HW111765   1.032   7.017   0.093
 3622SOL    HW211766   0.933   0.077   0.191
 3623SOL     OW11767   1.033   4.870   6.159
 3623SOL    HW111768   1.011   4.808   6.234
 3623SOL    HW211769   1.081   4.950   6.194
 3624SOL     OW11770   3.207   0.562   2.543
 3624SOL    HW111771   3.179   0.469   2.517
 3624SOL    HW211772   3.129   0.624   2.531
 3625SOL     OW11773   0.106   2.382   0.264
 3625SOL    HW111774   0.080   2.468   0.219
 3625SOL    HW211775   0.023   2.336   0.297
 3626SOL     OW11776   1.134   2.217   4.947
 3626SOL    HW111777   1.047   2.266   4.954
 3626SOL    HW211778   1.196   2.269   4.889
 3627SOL     OW11779   4.214   2.302   1.597
 3627SOL    HW111780   4.264   2.235   1.543
 3627SOL    HW211781   4.168   2.367   1.537
 3628SOL     OW11782   0.111   1.687   2.061
 3628SOL    HW111783   0.044   1.616   2.038
 3628SOL    HW211784   0.090   1.726   2.150
 3629SOL     OW11785   1.701   1.394   4.412
 3629SOL    HW111786   1.702   1.451   4.494
 3629SOL    HW211787   1.768   1.428   4.347
 3630SOL     OW11788   6.681   2.543   3.771
 3630SOL    HW111789   6.620   2.469   3.799
 3630SOL    HW211790   6.656   2.573   3.679
 3631SOL     OW11791   1.697   6.646   2.290
 3631SOL    HW111792   1.714   6.548   2.297
 3631SOL    HW211793   1.697   6.687   2.381
 3632SOL     OW11794   4.687   3.696   1.293
 3632SOL    HW111795   4.725   3.604   1.281
 3632SOL    HW211796   4.723   3.736   1.377
 3633SOL     OW11797   3.802   3.139   5.999
 3633SOL    HW111798   3.712   3.103   5.977
 3633SOL    HW211799   3.859   3.066   6.036
 3634SOL     OW11800   3.023   5.161   6.591
 3634SOL    HW111801   3.004   5.092   6.661
 3634SOL    HW211802   2.994   5.251   6.625
 3635SOL     OW11803   2.883   0.374   1.442
 3635SOL    HW111804   2.830   0.348   1.362
 3635SOL    HW211805   2.822   0.405   1.514
 3636SOL     OW11806   1.152   4.932   6.875
 3636SOL    HW111807   1.134   4.833   6.877
 3636SOL    HW211808   1.167   4.964   6.969
 3637SOL     OW11809   6.976   2.591   6.723
 3637SOL    HW111810   6.916   2.527   6.773
 3637SOL    HW211811   6.921   2.645   6.659
 3638SOL     OW11812   5.543   4.505   2.701
 3638SOL    HW111813   5.584   4.569   2.636
 3638SOL    HW211814   5.510   4.424   2.653
 3639SOL     OW11815   3.139   3.879   4.593
 3639SOL    HW111816   3.229   3.864   4.553
 3639SOL    HW211817   3.132   3.827   4.678
 3640SOL     OW11818   5.586   1.913   0.700
 3640SOL    HW111819   5.492   1.935   0.725
 3640SOL    HW211820   5.590   1.884   0.604
 3641SOL     OW11821   6.302   3.868   2.486
 3641SOL    HW111822   6.301   3.947   2.547
 3641SOL    HW211823   6.227   3.875   2.420
 3642SOL     OW11824   6.428   2.936   6.537
 3642SOL    HW111825   6.400   3.032   6.538
 3642SOL    HW211826   6.378   2.888   6.464
 3643SOL     OW11827   3.756   5.570   5.329
 3643SOL    HW111828   3.783   5.632   5.255
 3643SOL    HW211829   3.829   5.503   5.345
 3644SOL     OW11830   2.878   0.630   2.157
 3644SOL    HW111831   2.962   0.653   2.207
 3644SOL    HW211832   2.824   0.567   2.212
 3645SOL     OW11833   1.665   4.172   3.989
 3645SOL    HW111834   1.633   4.147   3.897
 3645SOL    HW211835   1.744   4.116   4.013
 3646SOL     OW11836   2.166   4.306   4.775
 3646SOL    HW111837   2.152   4.251   4.857
 3646SOL    HW211838   2.250   4.360   4.784
 3647SOL     OW11839   3.071   0.104   0.319
 3647SOL    HW111840   3.027   0.189   0.292
 3647SOL    HW211841   3.030   0.028   0.270
 3648SOL     OW11842   4.207   5.343   3.722
 3648SOL    HW111843   4.233   5.385   3.635
 3648SOL    HW211844   4.249   5.394   3.797
 3649SOL     OW11845   5.798   2.682   0.222
 3649SOL    HW111846   5.762   2.671   0.314
 3649SOL    HW211847   5.740   2.746   0.171
 3650SOL     OW11848   5.604   5.435   0.040
 3650SOL    HW111849   5.636   5.504   6.999
 3650SOL    HW211850   5.624   5.465   0.133
 3651SOL     OW11851   0.963   2.881   5.923
 3651SOL    HW111852   0.881   2.826   5.937
 3651SOL    HW211853   1.044   2.822   5.929
 3652SOL     OW11854   4.539   1.401   2.276
 3652SOL    HW111855   4.573   1.404   2.182
 3652SOL    HW211856   4.462   1.465   2.286
 3653SOL     OW11857   0.614   1.603   1.308
 3653SOL    HW111858   0.541   1.547   1.268
 3653SOL    HW211859   0.574   1.671   1.369
 3654SOL     OW11860   5.607   0.189   0.905
 3654SOL    HW111861   5.523   0.231   0.872
 3654SOL    HW211862   5.660   0.256   0.957
 3655SOL     OW11863   1.950   2.371   4.462
 3655SOL    HW111864   1.894   2.444   4.424
 3655SOL    HW211865   2.045   2.384   4.434
 3656SOL     OW11866   0.143   6.874   1.909
 3656SOL    HW111867   0.107   6.805   1.846
 3656SOL    HW211868   0.121   6.965   1.873
 3657SOL     OW11869   4.889   6.078   4.842
 3657SOL    HW111870   4.960   6.026   4.890
 3657SOL    HW211871   4.874   6.038   4.752
 3658SOL     OW11872   1.417   4.741   6.283
 3658SOL    HW111873   1.439   4.752   6.380
 3658SOL    HW211874   1.427   4.828   6.236
 3659SOL     OW11875   6.683   1.135   6.399
 3659SOL    HW111876   6.633   1.160   6.482
 3659SOL    HW211877   6.757   1.201   6.384
 3660SOL     OW11878   5.507   5.082   6.009
 3660SOL    HW111879   5.494   5.053   5.914
 3660SOL    HW211880   5.418   5.091   6.054
 3661SOL     OW11881   0.017   1.965   4.813
 3661SOL    HW111882   6.986   2.038   4.774
 3661SOL    HW211883   0.113   1.992   4.815
 3662SOL     OW11884   2.895   1.067   5.658
 3662SOL    HW111885   2.913   0.987   5.601
 3662SOL    HW211886   2.916   1.150   5.605
 3663SOL     OW11887   2.387   2.388   6.523
 3663SOL    HW111888   2.455   2.441   6.573
 3663SOL    HW211889   2.300   2.438   6.522
 3664SOL     OW11890   4.054   1.075   2.200
 3664SOL    HW111891   4.043   1.166   2.160
 3664SOL    HW211892   4.084   1.011   2.130
 3665SOL     OW11893   0.956   5.944   5.906
 3665SOL    HW111894   0.970   5.948   6.004
 3665SOL    HW211895   1.027   5.998   5.860
 3666SOL     OW11896   2.030   2.316   4.979
 3666SOL    HW111897   2.012   2.308   4.881
 3666SOL    HW211898   2.110   2.374   4.994
 3667SOL     OW11899   2.087   0.448   2.582
 3667SOL    HW111900   2.033   0.364   2.580
 3667SOL    HW211901   2.179   0.429   2.548
 3668SOL     OW11902   0.382   0.878   1.851
 3668SOL    HW111903   0.290   0.917   1.856
 3668SOL    HW211904   0.450   0.951   1.848
 3669SOL     OW11905   0.007   1.216   3.904
 3669SOL    HW111906   0.059   1.153   3.961
 3669SOL    HW211907   6.939   1.228   3.943
 3670SOL     OW11908   3.436   5.387   1.834
 3670SOL    HW111909   3.509   5.440   1.878
 3670SOL    HW211910   3.363   5.369   1.899
 3671SOL     OW11911   6.547   0.115   3.612
 3671SOL    HW111912   6.588   0.206   3.618
 3671SOL    HW211913   6.604   0.050   3.662
 3672SOL     OW11914   4.262   6.449   2.471
 3672SOL    HW111915   4.288   6.355   2.495
 3672SOL    HW211916   4.335   6.491   2.416
 3673SOL     OW11917   4.371   6.042   1.174
 3673SOL    HW111918   4.384   6.118   1.237
 3673SOL    HW211919   4.458   6.023   1.127
 3674SOL     OW11920   1.218   5.086   6.246
 3674SOL    HW111921   1.252   5.074   6.339
 3674SOL    HW211922   1.294   5.081   6.182
 3675SOL     OW11923   0.886   0.937   3.732
 3675SOL    HW111924   0.935   1.017   3.699
 3675SOL    HW211925   0.788   0.956   3.732
 3676SOL     OW11926   3.968   1.535   3.888
 3676SOL    HW111927   4.023   1.452   3.889
 3676SOL    HW211928   3.939   1.555   3.795
 3677SOL     OW11929   2.041   0.331   4.362
 3677SOL    HW111930   2.095   0.373   4.289
 3677SOL    HW211931   1.950   0.308   4.326
 3678SOL     OW11932   1.096   0.638   3.531
 3678SOL    HW111933   0.999   0.661   3.518
 3678SOL    HW211934   1.151   0.720   3.516
 3679SOL     OW11935   4.646   0.796   2.443
 3679SOL    HW111936   4.585   0.849   2.503
 3679SOL    HW211937   4.626   0.698   2.454
 3680SOL     OW11938   3.976   1.536   4.338
 3680SOL    HW111939   4.064   1.539   4.290
 3680SOL    HW211940   3.905   1.503   4.275
 3681SOL     OW11941   1.834   6.061   4.624
 3681SOL    HW111942   1.896   6.138   4.639
 3681SOL    HW211943   1.887   5.977   4.611
 3682SOL     OW11944   5.683   1.791   1.295
 3682SOL    HW111945   5.597   1.786   1.346
 3682SOL    HW211946   5.742   1.861   1.335
 3683SOL     OW11947   6.139   1.137   5.744
 3683SOL    HW111948   6.124   1.172   5.836
 3683SOL    HW211949   6.235   1.109   5.735
 3684SOL     OW11950   2.505   6.604   5.735
 3684SOL    HW111951   2.436   6.676   5.748
 3684SOL    HW211952   2.561   6.597   5.818
 3685SOL     OW11953   1.936   6.420   5.594
 3685SOL    HW111954   1.884   6.363   5.656
 3685SOL    HW211955   1.951   6.510   5.635
 3686SOL     OW11956   1.026   4.493   4.053
 3686SOL    HW111957   1.124   4.494   4.033
 3686SOL    HW211958   0.996   4.586   4.073
 3687SOL     OW11959   5.681   5.444   4.528
 3687SOL    HW111960   5.615   5.511   4.563
 3687SOL    HW211961   5.718   5.476   4.441
 3688SOL     OW11962   5.867   2.979   0.666
 3688SOL    HW111963   5.781   3.023   0.641
 3688SOL    HW211964   5.901   3.018   0.752
 3689SOL     OW11965   1.841   6.758   5.706
 3689SOL    HW111966   1.900   6.769   5.626
 3689SOL    HW211967   1.889   6.788   5.788
 3690SOL     OW11968   5.199   4.891   1.449
 3690SOL    HW111969   5.144   4.974   1.440
 3690SOL    HW211970   5.142   4.816   1.484
 3691SOL     OW11971   1.977   2.328   0.358
 3691SOL    HW111972   1.981   2.259   0.286
 3691SOL    HW211973   1.938   2.287   0.441
 3692SOL     OW11974   0.491   3.428   5.929
 3692SOL    HW111975   0.531   3.519   5.933
 3692SOL    HW211976   0.539   3.373   5.861
 3693SOL     OW11977   6.918   1.276   2.567
 3693SOL    HW111978   6.918   1.321   2.656
 3693SOL    HW211979   6.911   1.345   2.495
 3694SOL     OW11980   6.389   0.904   1.757
 3694SOL    HW111981   6.446   0.824   1.775
 3694SOL    HW211982   6.356   0.941   1.844
 3695SOL     OW11983   6.314   2.943   2.243
 3695SOL    HW111984   6.292   3.036   2.215
 3695SOL    HW211985   6.412   2.935   2.257
 3696SOL     OW11986   4.206   0.977   4.543
 3696SOL    HW111987   4.261   0.984   4.626
 3696SOL    HW211988   4.146   0.897   4.550
 3697SOL     OW11989   0.052   6.206   3.358
 3697SOL    HW111990   0.137   6.197   3.409
 3697SOL    HW211991   0.054   6.146   3.277
 3698SOL     OW11992   1.802   0.522   2.970
 3698SOL    HW111993   1.757   0.577   3.041
 3698SOL    HW211994   1.733   0.474   2.917
 3699SOL     OW11995   2.420   2.619   3.758
 3699SOL    HW111996   2.405   2.682   3.834
 3699SOL    HW211997   2.430   2.526   3.794
 3700SOL     OW11998   1.227   4.630   4.299
 3700SOL    HW111999   1.164   4.554   4.288
 3700SOL    HW212000   1.277   4.621   4.386
 3701SOL     OW12001   2.017   1.119   2.776
 3701SOL    HW112002   1.965   1.204   2.763
 3701SOL    HW212003   1.987   1.050   2.710
 3702SOL     OW12004   5.190   4.155   3.580
 3702SOL    HW112005   5.129   4.090   3.534
 3702SOL    HW212006   5.227   4.114   3.663
 3703SOL     OW12007   1.203   1.403   4.313
 3703SOL    HW112008   1.173   1.470   4.244
 3703SOL    HW212009   1.219   1.450   4.400
 3704SOL     OW12010   6.677   2.319   0.897
 3704SOL    HW112011   6.711   2.249   0.960
 3704SOL    HW212012   6.754   2.364   0.853
 3705SOL     OW12013   5.122   4.822   2.862
 3705SOL    HW112014   5.189   4.784   2.926
 3705SOL    HW212015   5.164   4.833   2.772
 3706SOL     OW12016   0.610   3.756   0.474
 3706SOL    HW112017   0.580   3.720   0.386
 3706SOL    HW212018   0.590   3.690   0.546
 3707SOL     OW12019   1.180   5.362   3.823
 3707SOL    HW112020   1.277   5.378   3.842
 3707SOL    HW212021   1.138   5.447   3.790
 3708SOL     OW12022   3.443   6.718   0.715
 3708SOL    HW112023   3.497   6.785   0.766
 3708SOL    HW212024   3.501   6.642   0.687
 3709SOL     OW12025   1.750   1.442   2.426
 3709SOL    HW112026   1.712   1.500   2.498
 3709SOL    HW212027   1.829   1.393   2.462
 3710SOL     OW12028   6.840   4.840   5.880
 3710SOL    HW112029   6.808   4.826   5.787
 3710SOL    HW212030   6.768   4.883   5.934
 3711SOL     OW12031   1.676   5.813   4.417
 3711SOL    HW112032   1.662   5.851   4.509
 3711SOL    HW212033   1.596   5.761   4.390
 3712SOL     OW12034   2.338   5.037   4.706
 3712SOL    HW112035   2.246   5.056   4.742
 3712SOL    HW212036   2.405   5.044   4.780
 3713SOL     OW12037   5.963   6.794   4.541
 3713SOL    HW112038   5.954   6.731   4.619
 3713SOL    HW212039   5.873   6.828   4.515
 3714SOL     OW12040   0.357   4.770   1.055
 3714SOL    HW112041   0.341   4.673   1.071
 3714SOL    HW212042   0.336   4.792   0.959
 3715SOL     OW12043   5.644   5.466   3.525
 3715SOL    HW112044   5.711   5.445   3.454
 3715SOL    HW212045   5.603   5.555   3.507
 3716SOL     OW12046   4.941   5.529   3.973
 3716SOL    HW112047   4.884   5.607   3.996
 3716SOL    HW212048   4.942   5.517   3.873
 3717SOL     OW12049   4.403   1.350   1.155
 3717SOL    HW112050   4.325   1.412   1.163
 3717SOL    HW212051   4.483   1.400   1.122
 3718SOL     OW12052   6.834   0.025   5.620
 3718SOL    HW112053   6.777   0.103   5.596
 3718SOL    HW212054   6.837   0.015   5.720
 3719SOL     OW12055   3.722   4.112   6.466
 3719SOL    HW112056   3.754   4.163   6.545
 3719SOL    HW212057   3.640   4.156   6.429
 3720SOL     OW12058   0.274   2.772   1.485
 3720SOL    HW112059   0.372   2.783   1.470
 3720SOL    HW212060   0.258   2.694   1.546
 3721SOL     OW12061   6.477   5.101   5.947
 3721SOL    HW112062   6.403   5.142   6.001
 3721SOL    HW212063   6.478   5.142   5.855
 3722SOL     OW12064   4.645   6.477   3.308
 3722SOL    HW112065   4.637   6.576   3.307
 3722SOL    HW212066   4.627   6.441   3.217
 3723SOL     OW12067   4.861   4.137   0.143
 3723SOL    HW112068   4.953   4.115   0.111
 3723SOL    HW212069   4.796   4.125   0.068
 3724SOL     OW12070   1.423   4.788   4.957
 3724SOL    HW112071   1.485   4.865   4.944
 3724SOL    HW212072   1.444   4.717   4.890
 3725SOL     OW12073   0.770   5.752   6.609
 3725SOL    HW112074   0.712   5.687   6.658
 3725SOL    HW212075   0.735   5.845   6.624
 3726SOL     OW12076   6.562   3.833   4.411
 3726SOL    HW112077   6.519   3.847   4.500
 3726SOL    HW212078   6.493   3.807   4.344
 3727SOL     OW12079   6.540   3.612   3.789
 3727SOL    HW112080   6.547   3.708   3.816
 3727SOL    HW212081   6.457   3.572   3.829
 3728SOL     OW12082   3.303   3.171   0.139
 3728SOL    HW112083   3.212   3.132   0.154
 3728SOL    HW212084   3.365   3.138   0.210
 3729SOL     OW12085   0.419   0.111   5.399
 3729SOL    HW112086   0.494   0.165   5.361
 3729SOL    HW212087   0.433   0.015   5.376
 3730SOL     OW12088   3.481   5.775   4.476
 3730SOL    HW112089   3.392   5.815   4.453
 3730SOL    HW212090   3.523   5.828   4.549
 3731SOL     OW12091   0.556   2.303   6.954
 3731SOL    HW112092   0.523   2.251   0.009
 3731SOL    HW212093   0.525   2.260   6.870
 3732SOL     OW12094   3.204   2.122   6.741
 3732SOL    HW112095   3.208   2.058   6.818
 3732SOL    HW212096   3.109   2.138   6.715
 3733SOL     OW12097   1.946   1.609   3.499
 3733SOL    HW112098   1.877   1.548   3.461
 3733SOL    HW212099   2.036   1.566   3.493
 3734SOL     OW12100   4.243   6.859   0.617
 3734SOL    HW112101   4.244   6.873   0.716
 3734SOL    HW212102   4.280   6.769   0.595
 3735SOL     OW12103   4.196   6.785   2.396
 3735SOL    HW112104   4.104   6.771   2.361
 3735SOL    HW212105   4.259   6.722   2.349
 3736SOL     OW12106   6.763   1.356   1.253
 3736SOL    HW112107   6.841   1.394   1.203
 3736SOL    HW212108   6.793   1.275   1.303
 3737SOL     OW12109   0.182   2.897   2.942
 3737SOL    HW112110   0.120   2.938   3.009
 3737SOL    HW212111   0.275   2.928   2.960
 3738SOL     OW12112   6.741   6.622   1.299
 3738SOL    HW112113   6.773   6.716   1.305
 3738SOL    HW212114   6.695   6.598   1.385
 3739SOL     OW12115   2.928   3.860   0.742
 3739SOL    HW112116   2.936   3.775   0.794
 3739SOL    HW212117   3.018   3.898   0.725
 3740SOL     OW12118   4.994   5.098   6.405
 3740SOL    HW112119   5.048   5.027   6.360
 3740SOL    HW212120   5.021   5.188   6.369
 3741SOL     OW12121   5.008   3.740   7.013
 3741SOL    HW112122   5.074   3.703   0.055
 3741SOL    HW212123   5.018   3.840   7.009
 3742SOL     OW12124   4.164   5.568   0.216
 3742SOL    HW112125   4.072   5.577   0.255
 3742SOL    HW212126   4.181   5.472   0.195
 3743SOL     OW12127   4.166   3.309   1.563
 3743SOL    HW112128   4.257   3.323   1.604
 3743SOL    HW212129   4.103   3.278   1.634
 3744SOL     OW12130   0.450   0.055   2.210
 3744SOL    HW112131   0.481   0.123   2.277
 3744SOL    HW212132   0.383   0.097   2.149
 3745SOL     OW12133   4.857   3.818   2.195
 3745SOL    HW112134   4.887   3.725   2.217
 3745SOL    HW212135   4.806   3.817   2.109
 3746SOL     OW12136   6.331   0.449   4.695
 3746SOL    HW112137   6.311   0.368   4.751
 3746SOL    HW212138   6.283   0.442   4.608
 3747SOL     OW12139   3.406   6.500   6.119
 3747SOL    HW112140   3.490   6.446   6.127
 3747SOL    HW212141   3.420   6.573   6.052
 3748SOL     OW12142   5.654   1.527   2.992
 3748SOL    HW112143   5.746   1.490   2.998
 3748SOL    HW212144   5.587   1.453   2.989
 3749SOL     OW12145   7.008   6.567   2.825
 3749SOL    HW112146   0.010   6.624   2.903
 3749SOL    HW212147   6.947   6.494   2.857
 3750SOL     OW12148   5.561   4.116   0.406
 3750SOL    HW112149   5.622   4.091   0.331
 3750SOL    HW212150   5.610   4.109   0.493
 3751SOL     OW12151   1.986   3.911   2.325
 3751SOL    HW112152   2.041   3.836   2.288
 3751SOL    HW212153   1.945   3.962   2.249
 3752SOL     OW12154   1.045   6.527   6.750
 3752SOL    HW112155   1.034   6.493   6.656
 3752SOL    HW212156   1.021   6.454   6.814
 3753SOL     OW12157   6.414   6.463   4.578
 3753SOL    HW112158   6.343   6.526   4.547
 3753SOL    HW212159   6.472   6.437   4.500
 3754SOL     OW12160   6.786   6.213   1.448
 3754SOL    HW112161   6.824   6.127   1.413
 3754SOL    HW212162   6.845   6.289   1.420
 3755SOL     OW12163   5.438   4.015   3.436
 3755SOL    HW112164   5.361   4.066   3.395
 3755SOL    HW212165   5.406   3.925   3.464
 3756SOL     OW12166   3.028   0.698   6.789
 3756SOL    HW112167   3.057   0.667   6.879
 3756SOL    HW212168   3.059   0.632   6.720
 3757SOL     OW12169   2.926   5.332   6.764
 3757SOL    HW112170   2.836   5.307   6.800
 3757SOL    HW212171   2.968   5.401   6.823
 3758SOL     OW12172   2.536   1.266   4.294
 3758SOL    HW112173   2.606   1.330   4.326
 3758SOL    HW212174   2.477   1.312   4.228
 3759SOL     OW12175   4.925   4.716   6.103
 3759SOL    HW112176   4.929   4.767   6.017
 3759SOL    HW212177   4.852   4.753   6.160
 3760SOL     OW12178   1.502   2.500   4.776
 3760SOL    HW112179   1.576   2.446   4.816
 3760SOL    HW212180   1.536   2.548   4.695
 3761SOL     OW12181   0.032   6.294   4.062
 3761SOL    HW112182   0.023   6.196   4.044
 3761SOL    HW212183   6.972   6.328   4.105
 3762SOL     OW12184   0.614   3.917   0.896
 3762SOL    HW112185   0.541   3.971   0.938
 3762SOL    HW212186   0.671   3.877   0.968
 3763SOL     OW12187   6.879   3.110   6.793
 3763SOL    HW112188   6.842   3.047   6.724
 3763SOL    HW212189   6.906   3.195   6.750
 3764SOL     OW12190   2.568   6.724   3.485
 3764SOL    HW112191   2.517   6.652   3.533
 3764SOL    HW212192   2.568   6.807   3.540
 3765SOL     OW12193   5.805   0.945   4.442
 3765SOL    HW112194   5.880   0.984   4.496
 3765SOL    HW212195   5.821   0.963   4.345
 3766SOL     OW12196   1.161   0.567   4.664
 3766SOL    HW112197   1.143   0.621   4.581
 3766SOL    HW212198   1.259   0.570   4.685
 3767SOL     OW12199   1.560   5.188   0.951
 3767SOL    HW112200   1.633   5.249   0.920
 3767SOL    HW212201   1.561   5.183   1.051
 3768SOL     OW12202   5.006   6.600   0.126
 3768SOL    HW112203   5.104   6.592   0.105
 3768SOL    HW212204   4.988   6.692   0.161
 3769SOL     OW12205   4.613   6.317   5.502
 3769SOL    HW112206   4.592   6.323   5.404
 3769SOL    HW212207   4.667   6.396   5.529
 3770SOL     OW12208   2.118   1.647   6.671
 3770SOL    HW112209   2.049   1.577   6.651
 3770SOL    HW212210   2.142   1.695   6.587
 3771SOL     OW12211   5.500   2.390   5.989
 3771SOL    HW112212   5.402   2.374   5.976
 3771SOL    HW212213   5.551   2.306   5.971
 3772SOL     OW12214   5.592   1.337   1.713
 3772SOL    HW112215   5.551   1.363   1.625
 3772SOL    HW212216   5.637   1.416   1.754
 3773SOL     OW12217   6.599   2.662   6.257
 3773SOL    HW112218   6.619   2.607   6.338
 3773SOL    HW212219   6.625   2.757   6.274
 3774SOL     OW12220   0.372   0.763   1.130
 3774SOL    HW112221   0.465   0.761   1.093
 3774SOL    HW212222   0.376   0.762   1.230
 3775SOL     OW12223   6.071   4.122   4.164
 3775SOL    HW112224   6.061   4.210   4.118
 3775SOL    HW212225   6.015   4.121   4.247
 3776SOL     OW12226   2.416   3.347   0.918
 3776SOL    HW112227   2.432   3.438   0.879
 3776SOL    HW212228   2.461   3.278   0.860
 3777SOL     OW12229   2.348   4.312   4.339
 3777SOL    HW112230   2.429   4.358   4.376
 3777SOL    HW212231   2.364   4.288   4.244
 3778SOL     OW12232   2.952   5.747   1.698
 3778SOL    HW112233   2.949   5.653   1.662
 3778SOL    HW212234   3.000   5.805   1.632
 3779SOL     OW12235   2.824   4.937   6.091
 3779SOL    HW112236   2.865   4.990   6.017
 3779SOL    HW212237   2.869   4.960   6.178
 3780SOL     OW12238   3.032   6.302   5.272
 3780SOL    HW112239   3.110   6.245   5.294
 3780SOL    HW212240   3.026   6.314   5.172
 3781SOL     OW12241   2.829   5.947   4.434
 3781SOL    HW112242   2.841   5.991   4.523
 3781SOL    HW212243   2.895   5.985   4.369
 3782SOL     OW12244   2.422   1.344   3.845
 3782SOL    HW112245   2.333   1.370   3.807
 3782SOL    HW212246   2.471   1.426   3.873
 3783SOL     OW12247   5.196   6.220   5.298
 3783SOL    HW112248   5.264   6.184   5.234
 3783SOL    HW212249   5.192   6.161   5.379
 3784SOL     OW12250   5.186   1.165   3.041
 3784SOL    HW112251   5.143   1.126   2.960
 3784SOL    HW212252   5.171   1.104   3.119
 3785SOL     OW12253   2.289   1.941   1.319
 3785SOL    HW112254   2.360   1.986   1.372
 3785SOL    HW212255   2.297   1.969   1.223
 3786SOL     OW12256   3.326   5.374   2.970
 3786SOL    HW112257   3.298   5.346   2.878
 3786SOL    HW212258   3.426   5.375   2.975
 3787SOL     OW12259   4.042   1.394   3.531
 3787SOL    HW112260   4.007   1.314   3.580
 3787SOL    HW212261   3.973   1.467   3.533
 3788SOL     OW12262   5.641   3.073   2.467
 3788SOL    HW112263   5.582   3.126   2.407
 3788SOL    HW212264   5.664   3.128   2.548
 3789SOL     OW12265   1.707   5.554   3.458
 3789SOL    HW112266   1.712   5.462   3.497
 3789SOL    HW212267   1.676   5.549   3.364
 3790SOL     OW12268   2.174   3.125   3.918
 3790SOL    HW112269   2.080   3.129   3.954
 3790SOL    HW212270   2.197   3.212   3.875
 3791SOL     OW12271   4.468   0.016   1.292
 3791SOL    HW112272   4.473   7.018   1.389
 3791SOL    HW212273   4.400   0.088   1.278
 3792SOL     OW12274   6.257   6.692   5.371
 3792SOL    HW112275   6.251   6.592   5.368
 3792SOL    HW212276   6.170   6.729   5.404
 3793SOL     OW12277   2.131   1.176   3.052
 3793SOL    HW112278   2.126   1.272   3.080
 3793SOL    HW212279   2.076   1.163   2.970
 3794SOL     OW12280   4.555   5.926   1.821
 3794SOL    HW112281   4.637   5.982   1.813
 3794SOL    HW212282   4.474   5.981   1.802
 3795SOL     OW12283   5.538   6.559   6.564
 3795SOL    HW112284   5.634   6.586   6.565
 3795SOL    HW212285   5.483   6.630   6.607
 3796SOL     OW12286   1.595   2.694   1.776
 3796SOL    HW112287   1.663   2.747   1.725
 3796SOL    HW212288   1.505   2.707   1.735
 3797SOL     OW12289   0.640   4.845   2.936
 3797SOL    HW112290   0.629   4.916   2.867
 3797SOL    HW212291   0.664   4.759   2.892
 3798SOL     OW12292   1.931   5.266   2.311
 3798SOL    HW112293   1.988   5.258   2.393
 3798SOL    HW212294   1.976   5.222   2.234
 3799SOL     OW12295   1.842   0.728   5.298
 3799SOL    HW112296   1.768   0.662   5.313
 3799SOL    HW212297   1.805   0.821   5.303
 3800SOL     OW12298   4.568   2.302   4.358
 3800SOL    HW112299   4.596   2.389   4.317
 3800SOL    HW212300   4.500   2.319   4.429
 3801SOL     OW12301   7.017   6.423   6.138
 3801SOL    HW112302   6.942   6.356   6.129
 3801SOL    HW212303   6.984   6.501   6.191
 3802SOL     OW12304   1.151   1.621   5.369
 3802SOL    HW112305   1.171   1.540   5.314
 3802SOL    HW212306   1.182   1.703   5.320
 3803SOL     OW12307   3.572   1.073   1.654
 3803SOL    HW112308   3.477   1.088   1.680
 3803SOL    HW212309   3.619   1.161   1.645
 3804SOL     OW12310   4.878   2.382   4.255
 3804SOL    HW112311   4.892   2.384   4.354
 3804SOL    HW212312   4.789   2.422   4.233
 3805SOL     OW12313   2.801   4.198   1.696
 3805SOL    HW112314   2.832   4.278   1.747
 3805SOL    HW212315   2.705   4.210   1.670
 3806SOL     OW12316   2.564   1.885   0.043
 3806SOL    HW112317   2.565   1.878   6.968
 3806SOL    HW212318   2.469   1.880   0.075
 3807SOL     OW12319   1.547   6.599   3.298
 3807SOL    HW112320   1.472   6.649   3.255
 3807SOL    HW212321   1.519   6.568   3.389
 3808SOL     OW12322   3.570   0.241   1.539
 3808SOL    HW112323   3.509   0.293   1.598
 3808SOL    HW212324   3.600   0.158   1.586
 3809SOL     OW12325   5.586   1.241   6.779
 3809SOL    HW112326   5.640   1.161   6.750
 3809SOL    HW212327   5.635   1.324   6.754
 3810SOL     OW12328   3.385   2.991   5.024
 3810SOL    HW112329   3.343   2.965   4.937
 3810SOL    HW212330   3.409   2.908   5.075
 3811SOL     OW12331   0.755   5.107   5.061
 3811SOL    HW112332   0.801   5.092   4.973
 3811SOL    HW212333   0.775   5.200   5.093
 3812SOL     OW12334   5.847   1.675   5.234
 3812SOL    HW112335   5.855   1.577   5.212
 3812SOL    HW212336   5.776   1.687   5.303
 3813SOL     OW12337   3.170   5.227   0.529
 3813SOL    HW112338   3.116   5.275   0.598
 3813SOL    HW212339   3.209   5.294   0.465
 3814SOL     OW12340   0.239   6.110   2.292
 3814SOL    HW112341   0.301   6.044   2.334
 3814SOL    HW212342   0.273   6.136   2.202
 3815SOL     OW12343   5.329   1.861   1.653
 3815SOL    HW112344   5.406   1.808   1.616
 3815SOL    HW212345   5.297   1.926   1.584
 3816SOL     OW12346   1.257   0.288   1.398
 3816SOL    HW112347   1.331   0.317   1.338
 3816SOL    HW212348   1.293   0.273   1.490
 3817SOL     OW12349   4.887   1.908   5.044
 3817SOL    HW112350   4.919   1.996   5.078
 3817SOL    HW212351   4.893   1.840   5.117
 3818SOL     OW12352   4.416   5.426   1.673
 3818SOL    HW112353   4.423   5.334   1.712
 3818SOL    HW212354   4.458   5.426   1.582
 3819SOL     OW12355   5.318   4.973   0.691
 3819SOL    HW112356   5.386   5.047   0.695
 3819SOL    HW212357   5.265   4.982   0.606
 3820SOL     OW12358   4.797   6.402   4.612
 3820SOL    HW112359   4.713   6.348   4.614
 3820SOL    HW212360   4.836   6.400   4.520
 3821SOL     OW12361   1.392   3.878   2.016
 3821SOL    HW112362   1.399   3.932   2.100
 3821SOL    HW212363   1.366   3.784   2.039
 3822SOL     OW12364   2.710   5.850   1.381
 3822SOL    HW112365   2.777   5.909   1.426
 3822SOL    HW212366   2.747   5.757   1.375
 3823SOL     OW12367   3.219   2.970   5.696
 3823SOL    HW112368   3.147   2.900   5.698
 3823SOL    HW212369   3.177   3.061   5.693
 3824SOL     OW12370   0.032   2.271   5.890
 3824SOL    HW112371   0.099   2.328   5.842
 3824SOL    HW212372   6.964   2.299   5.865
 3825SOL     OW12373   6.664   6.513   6.732
 3825SOL    HW112374   6.757   6.492   6.700
 3825SOL    HW212375   6.669   6.581   6.805
 3826SOL     OW12376   6.596   3.230   1.878
 3826SOL    HW112377   6.519   3.171   1.855
 3826SOL    HW212378   6.676   3.204   1.822
 3827SOL     OW12379   4.150   3.102   1.048
 3827SOL    HW112380   4.203   3.021   1.023
 3827SOL    HW212381   4.166   3.125   1.144
 3828SOL     OW12382   4.518   1.416   2.850
 3828SOL    HW112383   4.549   1.506   2.822
 3828SOL    HW212384   4.531   1.406   2.949
 3829SOL     OW12385   2.220   4.954   4.271
 3829SOL    HW112386   2.300   4.894   4.266
 3829SOL    HW212387   2.159   4.933   4.195
 3830SOL     OW12388   2.681   0.878   5.121
 3830SOL    HW112389   2.663   0.844   5.028
 3830SOL    HW212390   2.776   0.908   5.128
 3831SOL     OW12391   3.873   1.668   2.217
 3831SOL    HW112392   3.932   1.739   2.178
 3831SOL    HW212393   3.908   1.578   2.191
 3832SOL     OW12394   6.648   0.634   2.109
 3832SOL    HW112395   6.644   0.728   2.145
 3832SOL    HW212396   6.730   0.624   2.053
 3833SOL     OW12397   1.666   4.717   0.076
 3833SOL    HW112398   1.657   4.720   0.175
 3833SOL    HW212399   1.704   4.628   0.049
 3834SOL     OW12400   2.773   2.030   6.954
 3834SOL    HW112401   2.749   2.021   6.857
 3834SOL    HW212402   2.720   1.965   7.008
 3835SOL     OW12403   3.676   4.894   5.210
 3835SOL    HW112404   3.766   4.895   5.256
 3835SOL    HW212405   3.686   4.931   5.118
 3836SOL     OW12406   0.742   4.087   6.338
 3836SOL    HW112407   0.699   4.042   6.259
 3836SOL    HW212408   0.840   4.067   6.338
 3837SOL     OW12409   3.572   3.181   0.579
 3837SOL    HW112410   3.548   3.193   0.676
 3837SOL    HW212411   3.653   3.123   0.572
 3838SOL     OW12412   6.172   3.026   4.920
 3838SOL    HW112413   6.132   3.118   4.913
 3838SOL    HW212414   6.100   2.958   4.908
 3839SOL     OW12415   5.946   6.558   5.851
 3839SOL    HW112416   5.886   6.487   5.815
 3839SOL    HW212417   5.962   6.543   5.948
 3840SOL     OW12418   1.390   1.121   3.948
 3840SOL    HW112419   1.466   1.064   3.918
 3840SOL    HW212420   1.346   1.079   4.028
 3841SOL     OW12421   0.681   3.831   5.161
 3841SOL    HW112422   0.781   3.828   5.161
 3841SOL    HW212423   0.646   3.804   5.072
 3842SOL     OW12424   0.827   4.676   6.853
 3842SOL    HW112425   0.871   4.587   6.860
 3842SOL    HW212426   0.825   4.720   6.943
 3843SOL     OW12427   5.803   2.858   1.007
 3843SOL    HW112428   5.893   2.814   1.012
 3843SOL    HW212429   5.795   2.925   1.080
 3844SOL     OW12430   2.106   4.647   6.407
 3844SOL    HW112431   2.088   4.742   6.432
 3844SOL    HW212432   2.040   4.618   6.337
 3845SOL     OW12433   3.538   4.167   3.980
 3845SOL    HW112434   3.528   4.147   3.883
 3845SOL    HW212435   3.523   4.265   3.995
 3846SOL     OW12436   0.194   4.640   5.088
 3846SOL    HW112437   0.169   4.544   5.095
 3846SOL    HW212438   0.248   4.654   5.005
 3847SOL     OW12439   0.729   0.056   0.224
 3847SOL    HW112440   0.656   7.011   0.228
 3847SOL    HW212441   0.692   0.140   0.184
 3848SOL     OW12442   2.754   5.433   0.872
 3848SOL    HW112443   2.738   5.530   0.890
 3848SOL    HW212444   2.752   5.383   0.959
 3849SOL     OW12445   1.086   2.162   5.819
 3849SOL    HW112446   1.142   2.229   5.867
 3849SOL    HW212447   1.094   2.177   5.720
 3850SOL     OW12448   2.947   3.821   1.472
 3850SOL    HW112449   2.886   3.854   1.544
 3850SOL    HW212450   3.000   3.897   1.436
 3851SOL     OW12451   2.499   2.485   2.382
 3851SOL    HW112452   2.523   2.525   2.294
 3851SOL    HW212453   2.423   2.536   2.422
 3852SOL     OW12454   3.784   0.954   4.695
 3852SOL    HW112455   3.847   1.023   4.728
 3852SOL    HW212456   3.782   0.877   4.758
 3853SOL     OW12457   1.401   3.054   1.720
 3853SOL    HW112458   1.385   3.110   1.639
 3853SOL    HW212459   1.483   2.999   1.706
 3854SOL     OW12460   1.125   3.566   4.154
 3854SOL    HW112461   1.150   3.559   4.058
 3854SOL    HW212462   1.080   3.481   4.183
 3855SOL     OW12463   6.834   2.473   5.485
 3855SOL    HW112464   6.735   2.484   5.487
 3855SOL    HW212465   6.859   2.404   5.417
 3856SOL     OW12466   0.640   6.180   5.928
 3856SOL    HW112467   0.584   6.104   5.960
 3856SOL    HW212468   0.626   6.192   5.829
 3857SOL     OW12469   0.485   6.894   5.374
 3857SOL    HW112470   0.424   6.825   5.412
 3857SOL    HW212471   0.557   6.849   5.320
 3858SOL     OW12472   2.458   5.384   7.021
 3858SOL    HW112473   2.521   5.408   0.071
 3858SOL    HW212474   2.509   5.344   6.945
 3859SOL     OW12475   0.264   2.632   2.321
 3859SOL    HW112476   0.211   2.627   2.236
 3859SOL    HW212477   0.354   2.672   2.302
 3860SOL     OW12478   2.204   6.634   5.389
 3860SOL    HW112479   2.232   6.725   5.358
 3860SOL    HW212480   2.114   6.613   5.352
 3861SOL     OW12481   4.249   4.381   0.727
 3861SOL    HW112482   4.348   4.369   0.729
 3861SOL    HW212483   4.214   4.386   0.821
 3862SOL     OW12484   1.211   6.123   6.047
 3862SOL    HW112485   1.281   6.051   6.040
 3862SOL    HW212486   1.176   6.127   6.140
 3863SOL     OW12487   3.403   3.103   1.445
 3863SOL    HW112488   3.311   3.102   1.483
 3863SOL    HW212489   3.454   3.023   1.478
 3864SOL     OW12490   3.448   2.148   0.156
 3864SOL    HW112491   3.460   2.079   0.227
 3864SOL    HW212492   3.522   2.140   0.089
 3865SOL     OW12493   4.684   0.204   2.615
 3865SOL    HW112494   4.669   0.231   2.710
 3865SOL    HW212495   4.693   0.105   2.609
 3866SOL     OW12496   4.202   6.432   6.635
 3866SOL    HW112497   4.251   6.483   6.707
 3866SOL    HW212498   4.238   6.458   6.546
 3867SOL     OW12499   1.805   3.104   3.811
 3867SOL    HW112500   1.741   3.028   3.806
 3867SOL    HW212501   1.807   3.141   3.903
 3868SOL     OW12502   1.833   5.816   2.604
 3868SOL    HW112503   1.741   5.853   2.593
 3868SOL    HW212504   1.892   5.885   2.645
 3869SOL     OW12505   1.121   2.578   3.417
 3869SOL    HW112506   1.097   2.619   3.329
 3869SOL    HW212507   1.155   2.485   3.403
 3870SOL     OW12508   3.212   4.916   0.389
 3870SOL    HW112509   3.129   4.869   0.419
 3870SOL    HW212510   3.199   4.951   0.297
 3871SOL     OW12511   2.628   0.789   3.772
 3871SOL    HW112512   2.623   0.772   3.870
 3871SOL    HW212513   2.585   0.877   3.752
 3872SOL     OW12514   4.181   3.269   0.175
 3872SOL    HW112515   4.198   3.217   0.092
 3872SOL    HW212516   4.268   3.294   0.218
 3873SOL     OW12517   5.329   5.159   2.025
 3873SOL    HW112518   5.288   5.074   1.993
 3873SOL    HW212519   5.258   5.218   2.063
 3874SOL     OW12520   4.300   6.508   6.086
 3874SOL    HW112521   4.256   6.591   6.050
 3874SOL    HW212522   4.234   6.454   6.136
 3875SOL     OW12523   2.101   4.410   0.422
 3875SOL    HW112524   2.197   4.437   0.429
 3875SOL    HW212525   2.083   4.336   0.487
 3876SOL     OW12526   4.868   4.082   2.470
 3876SOL    HW112527   4.928   4.081   2.390
 3876SOL    HW212528   4.804   4.158   2.462
 3877SOL     OW12529   5.448   1.377   2.136
 3877SOL    HW112530   5.435   1.421   2.047
 3877SOL    HW212531   5.453   1.447   2.208
 3878SOL     OW12532   3.173   5.988   5.278
 3878SOL    HW112533   3.205   5.973   5.185
 3878SOL    HW212534   3.242   5.955   5.343
 3879SOL     OW12535   3.917   6.312   1.067
 3879SOL    HW112536   3.895   6.267   0.981
 3879SOL    HW212537   4.013   6.298   1.090
 3880SOL     OW12538   5.386   3.020   4.004
 3880SOL    HW112539   5.402   2.974   4.091
 3880SOL    HW212540   5.462   3.001   3.941
 3881SOL     OW12541   1.071   4.558   0.805
 3881SOL    HW112542   1.134   4.572   0.881
 3881SOL    HW212543   1.103   4.608   0.725
 3882SOL     OW12544   0.195   0.215   6.285
 3882SOL    HW112545   0.237   0.126   6.269
 3882SOL    HW212546   0.266   0.285   6.285
 3883SOL     OW12547   3.179   0.866   6.031
 3883SOL    HW112548   3.194   0.909   5.942
 3883SOL    HW212549   3.267   0.849   6.075
 3884SOL     OW12550   1.841   4.841   5.944
 3884SOL    HW112551   1.748   4.814   5.922
 3884SOL    HW212552   1.900   4.760   5.947
 3885SOL     OW12553   0.476   1.578   4.742
 3885SOL    HW112554   0.396   1.591   4.683
 3885SOL    HW212555   0.462   1.497   4.799
 3886SOL     OW12556   7.000   5.971   5.130
 3886SOL    HW112557   6.974   6.054   5.179
 3886SOL    HW212558   6.995   5.893   5.193
 3887SOL     OW12559   4.994   2.395   5.264
 3887SOL    HW112560   5.033   2.483   5.239
 3887SOL    HW212561   5.027   2.324   5.202
 3888SOL     OW12562   5.803   2.008   1.393
 3888SOL    HW112563   5.772   2.003   1.488
 3888SOL    HW212564   5.747   2.073   1.342
 3889SOL     OW12565   0.187   5.595   6.755
 3889SOL    HW112566   0.186   5.689   6.789
 3889SOL    HW212567   0.093   5.564   6.741
 3890SOL     OW12568   5.998   3.596   1.290
 3890SOL    HW112569   5.968   3.690   1.309
 3890SOL    HW212570   5.960   3.534   1.359
 3891SOL     OW12571   5.751   4.846   5.735
 3891SOL    HW112572   5.654   4.869   5.744
 3891SOL    HW212573   5.797   4.916   5.682
 3892SOL     OW12574   5.440   6.654   4.089
 3892SOL    HW112575   5.517   6.716   4.078
 3892SOL    HW212576   5.360   6.691   4.041
 3893SOL     OW12577   3.103   5.885   4.029
 3893SOL    HW112578   3.105   5.863   3.932
 3893SOL    HW212579   3.186   5.853   4.073
 3894SOL     OW12580   5.039   4.803   0.060
 3894SOL    HW112581   5.025   4.839   6.991
 3894SOL    HW212582   4.963   4.833   0.118
 3895SOL     OW12583   1.820   1.816   5.818
 3895SOL    HW112584   1.899   1.843   5.873
 3895SOL    HW212585   1.826   1.858   5.728
 3896SOL     OW12586   6.833   2.382   5.777
 3896SOL    HW112587   6.891   2.461   5.796
 3896SOL    HW212588   6.786   2.395   5.690
 3897SOL     OW12589   3.642   6.379   2.386
 3897SOL    HW112590   3.651   6.282   2.362
 3897SOL    HW212591   3.716   6.405   2.448
 3898SOL     OW12592   3.548   4.199   4.703
 3898SOL    HW112593   3.642   4.166   4.693
 3898SOL    HW212594   3.506   4.206   4.613
 3899SOL     OW12595   5.244   1.653   5.243
 3899SOL    HW112596   5.322   1.663   5.182
 3899SOL    HW212597   5.162   1.634   5.189
 3900SOL     OW12598   6.916   2.319   4.055
 3900SOL    HW112599   6.841   2.285   3.999
 3900SOL    HW212600   6.892   2.408   4.094
 3901SOL     OW12601   2.647   5.820   5.160
 3901SOL    HW112602   2.649   5.732   5.113
 3901SOL    HW212603   2.694   5.889   5.105
 3902SOL     OW12604   3.903   4.962   1.789
 3902SOL    HW112605   3.808   4.985   1.811
 3902SOL    HW212606   3.909   4.866   1.762
 3903SOL     OW12607   4.006   2.696   6.311
 3903SOL    HW112608   4.100   2.690   6.278
 3903SOL    HW212609   3.998   2.651   6.400
 3904SOL     OW12610   2.294   6.154   0.622
 3904SOL    HW112611   2.306   6.246   0.584
 3904SOL    HW212612   2.293   6.087   0.547
 3905SOL     OW12613   0.346   0.441   5.398
 3905SOL    HW112614   0.308   0.353   5.370
 3905SOL    HW212615   0.317   0.462   5.491
 3906SOL     OW12616   0.932   5.657   4.994
 3906SOL    HW112617   0.953   5.752   5.020
 3906SOL    HW212618   0.882   5.612   5.068
 3907SOL     OW12619   1.042   1.214   4.692
 3907SOL    HW112620   0.973   1.215   4.764
 3907SOL    HW212621   1.022   1.141   4.627
 3908SOL     OW12622   2.300   0.674   4.345
 3908SOL    HW112623   2.393   0.687   4.381
 3908SOL    HW212624   2.296   0.589   4.293
 3909SOL     OW12625   5.496   2.180   1.636
 3909SOL    HW112626   5.540   2.090   1.632
 3909SOL    HW212627   5.528   2.229   1.717
 3910SOL     OW12628   3.264   2.693   1.322
 3910SOL    HW112629   3.271   2.766   1.255
 3910SOL    HW212630   3.350   2.686   1.373
 3911SOL     OW12631   6.527   1.049   1.360
 3911SOL    HW112632   6.521   1.116   1.286
 3911SOL    HW212633   6.491   0.961   1.329
 3912SOL     OW12634   4.271   3.138   6.975
 3912SOL    HW112635   4.294   3.164   6.881
 3912SOL    HW212636   4.196   3.072   6.974
 3913SOL     OW12637   4.106   5.999   1.182
 3913SOL    HW112638   4.204   5.986   1.168
 3913SOL    HW212639   4.083   6.096   1.170
 3914SOL     OW12640   6.423   1.408   7.005
 3914SOL    HW112641   6.347   1.452   0.028
 3914SOL    HW212642   6.504   1.411   0.038
 3915SOL     OW12643   4.840   5.925   5.298
 3915SOL    HW112644   4.840   5.872   5.382
 3915SOL    HW212645   4.851   6.022   5.319
 3916SOL     OW12646   2.295   2.062   2.865
 3916SOL    HW112647   2.327   2.103   2.950
 3916SOL    HW212648   2.278   1.965   2.879
 3917SOL     OW12649   3.525   4.751   1.126
 3917SOL    HW112650   3.547   4.691   1.202
 3917SOL    HW212651   3.503   4.843   1.160
 3918SOL     OW12652   4.810   0.857   6.645
 3918SOL    HW112653   4.717   0.830   6.673
 3918SOL    HW212654   4.859   0.777   6.609
 3919SOL     OW12655   4.542   6.074   2.254
 3919SOL    HW112656   4.453   6.073   2.210
 3919SOL    HW212657   4.568   5.981   2.280
 3920SOL     OW12658   3.376   1.473   5.312
 3920SOL    HW112659   3.335   1.547   5.364
 3920SOL    HW212660   3.362   1.386   5.360
 3921SOL     OW12661   0.148   2.714   6.849
 3921SOL    HW112662   0.175   2.802   6.809
 3921SOL    HW212663   0.082   2.669   6.789
 3922SOL     OW12664   4.740   4.094   3.084
 3922SOL    HW112665   4.764   4.077   2.989
 3922SOL    HW212666   4.682   4.175   3.090
 3923SOL     OW12667   5.236   1.629   2.039
 3923SOL    HW112668   5.181   1.566   1.984
 3923SOL    HW212669   5.333   1.612   2.022
 3924SOL     OW12670   5.660   5.391   3.985
 3924SOL    HW112671   5.667   5.299   4.023
 3924SOL    HW212672   5.598   5.390   3.906
 3925SOL     OW12673   5.339   5.202   1.143
 3925SOL    HW112674   5.274   5.253   1.087
 3925SOL    HW212675   5.406   5.159   1.083
 3926SOL     OW12676   1.056   5.334   4.756
 3926SOL    HW112677   1.143   5.345   4.804
 3926SOL    HW212678   1.010   5.423   4.749
 3927SOL     OW12679   5.768   1.758   6.213
 3927SOL    HW112680   5.845   1.789   6.157
 3927SOL    HW212681   5.683   1.772   6.162
 3928SOL     OW12682   3.430   5.775   1.875
 3928SOL    HW112683   3.456   5.872   1.871
 3928SOL    HW212684   3.513   5.719   1.875
 3929SOL     OW12685   0.808   2.054   5.663
 3929SOL    HW112686   0.831   2.039   5.567
 3929SOL    HW212687   0.761   2.142   5.673
 3930SOL     OW12688   2.440   4.453   4.005
 3930SOL    HW112689   2.358   4.503   4.033
 3930SOL    HW212690   2.434   4.358   4.034
 3931SOL     OW12691   1.904   2.178   0.585
 3931SOL    HW112692   1.846   2.098   0.571
 3931SOL    HW212693   1.875   2.226   0.668
 3932SOL     OW12694   2.442   4.357   3.708
 3932SOL    HW112695   2.462   4.359   3.806
 3932SOL    HW212696   2.440   4.450   3.673
 3933SOL     OW12697   1.451   6.289   1.332
 3933SOL    HW112698   1.459   6.267   1.430
 3933SOL    HW212699   1.425   6.385   1.322
 3934SOL     OW12700   1.196   6.951   1.519
 3934SOL    HW112701   1.271   6.901   1.561
 3934SOL    HW212702   1.117   6.951   1.581
 3935SOL     OW12703   6.791   3.746   5.602
 3935SOL    HW112704   6.744   3.680   5.660
 3935SOL    HW212705   6.857   3.699   5.544
 3936SOL     OW12706   6.615   4.156   5.523
 3936SOL    HW112707   6.631   4.073   5.469
 3936SOL    HW212708   6.539   4.207   5.484
 3937SOL     OW12709   0.717   6.443   1.361
 3937SOL    HW112710   0.668   6.463   1.445
 3937SOL    HW212711   0.675   6.366   1.315
 3938SOL     OW12712   1.017   3.261   1.753
 3938SOL    HW112713   1.009   3.193   1.826
 3938SOL    HW212714   1.051   3.217   1.670
 3939SOL     OW12715   0.283   1.050   2.834
 3939SOL    HW112716   0.325   1.131   2.875
 3939SOL    HW212717   0.342   1.017   2.759
 3940SOL     OW12718   3.058   6.475   0.338
 3940SOL    HW112719   3.152   6.510   0.338
 3940SOL    HW212720   3.007   6.516   0.413
 3941SOL     OW12721   5.140   5.735   2.132
 3941SOL    HW112722   5.125   5.790   2.214
 3941SOL    HW212723   5.053   5.720   2.085
 3942SOL     OW12724   6.790   6.240   5.681
 3942SOL    HW112725   6.865   6.238   5.746
 3942SOL    HW212726   6.800   6.319   5.621
 3943SOL     OW12727   2.305   2.943   0.439
 3943SOL    HW112728   2.267   2.869   0.384
 3943SOL    HW212729   2.402   2.956   0.417
 3944SOL     OW12730   5.001   2.810   6.977
 3944SOL    HW112731   4.935   2.758   0.007
 3944SOL    HW212732   4.999   2.777   6.882
 3945SOL     OW12733   5.645   0.035   3.965
 3945SOL    HW112734   5.545   0.036   3.961
 3945SOL    HW212735   5.678   0.128   3.978
 3946SOL     OW12736   0.020   3.762   0.802
 3946SOL    HW112737   0.043   3.716   0.716
 3946SOL    HW212738   6.975   3.832   0.785
 3947SOL     OW12739   6.008   5.717   2.174
 3947SOL    HW112740   5.941   5.643   2.162
 3947SOL    HW212741   5.961   5.805   2.170
 3948SOL     OW12742   1.524   2.762   5.881
 3948SOL    HW112743   1.577   2.847   5.881
 3948SOL    HW212744   1.534   2.717   5.970
 3949SOL     OW12745   5.953   0.172   2.592
 3949SOL    HW112746   5.877   0.226   2.628
 3949SOL    HW212747   5.928   0.136   2.501
 3950SOL     OW12748   2.894   4.646   1.640
 3950SOL    HW112749   2.894   4.622   1.737
 3950SOL    HW212750   2.825   4.592   1.592
 3951SOL     OW12751   0.700   2.708   4.578
 3951SOL    HW112752   0.666   2.790   4.533
 3951SOL    HW212753   0.770   2.733   4.644
 3952SOL     OW12754   5.293   4.064   0.431
 3952SOL    HW112755   5.392   4.060   0.415
 3952SOL    HW212756   5.267   4.158   0.453
 3953SOL     OW12757   3.208   3.354   6.775
 3953SOL    HW112758   3.109   3.363   6.765
 3953SOL    HW212759   3.249   3.444   6.785
 3954SOL     OW12760   0.816   3.206   5.251
 3954SOL    HW112761   0.840   3.136   5.184
 3954SOL    HW212762   0.836   3.173   5.343
 3955SOL     OW12763   6.903   3.567   0.462
 3955SOL    HW112764   6.864   3.646   0.509
 3955SOL    HW212765   6.832   3.499   0.446
 3956SOL     OW12766   6.975   2.584   5.959
 3956SOL    HW112767   7.023   2.672   5.960
 3956SOL    HW212768   7.003   2.530   6.038
 3957SOL     OW12769   0.998   1.463   2.937
 3957SOL    HW112770   0.918   1.472   2.878
 3957SOL    HW212771   0.977   1.401   3.013
 3958SOL     OW12772   5.300   6.304   0.123
 3958SOL    HW112773   5.268   6.215   0.090
 3958SOL    HW212774   5.395   6.295   0.154
 3959SOL     OW12775   2.262   6.363   1.280
 3959SOL    HW112776   2.218   6.274   1.295
 3959SOL    HW212777   2.353   6.348   1.241
 3960SOL     OW12778   5.225   3.111   1.669
 3960SOL    HW112779   5.279   3.192   1.692
 3960SOL    HW212780   5.129   3.129   1.688
 3961SOL     OW12781   5.777   0.488   0.799
 3961SOL    HW112782   5.754   0.582   0.822
 3961SOL    HW212783   5.707   0.450   0.739
 3962SOL     OW12784   0.966   6.765   5.412
 3962SOL    HW112785   0.928   6.674   5.430
 3962SOL    HW212786   1.021   6.794   5.491
 3963SOL     OW12787   4.559   4.884   2.390
 3963SOL    HW112788   4.466   4.879   2.427
 3963SOL    HW212789   4.570   4.814   2.319
 3964SOL     OW12790   6.172   6.229   6.600
 3964SOL    HW112791   6.208   6.321   6.583
 3964SOL    HW212792   6.138   6.190   6.515
 3965SOL     OW12793   3.816   2.719   1.014
 3965SOL    HW112794   3.856   2.807   0.990
 3965SOL    HW212795   3.814   2.709   1.114
 3966SOL     OW12796   6.193   3.687   5.351
 3966SOL    HW112797   6.175   3.771   5.300
 3966SOL    HW212798   6.177   3.703   5.448
 3967SOL     OW12799   1.591   0.077   6.577
 3967SOL    HW112800   1.565   0.159   6.629
 3967SOL    HW212801   1.540   7.022   6.610
 3968SOL     OW12802   5.379   0.716   1.561
 3968SOL    HW112803   5.413   0.761   1.643
 3968SOL    HW212804   5.281   0.700   1.570
 3969SOL     OW12805   0.970   6.435   1.523
 3969SOL    HW112806   0.974   6.503   1.596
 3969SOL    HW212807   0.879   6.437   1.481
 3970SOL     OW12808   4.669   4.238   4.145
 3970SOL    HW112809   4.654   4.223   4.243
 3970SOL    HW212810   4.767   4.250   4.128
 3971SOL     OW12811   1.061   6.119   3.635
 3971SOL    HW112812   1.049   6.217   3.623
 3971SOL    HW212813   1.051   6.073   3.547
 3972SOL     OW12814   1.013   0.582   6.708
 3972SOL    HW112815   0.992   0.547   6.799
 3972SOL    HW212816   1.077   0.659   6.716
 3973SOL     OW12817   3.296   3.099   3.664
 3973SOL    HW112818   3.351   3.139   3.737
 3973SOL    HW212819   3.264   3.171   3.604
 3974SOL     OW12820   5.499   0.075   6.317
 3974SOL    HW112821   5.419   0.016   6.324
 3974SOL    HW212822   5.515   0.097   6.221
 3975SOL     OW12823   6.762   6.390   5.445
 3975SOL    HW112824   6.793   6.475   5.489
 3975SOL    HW212825   6.701   6.413   5.370
 3976SOL     OW12826   0.987   3.180   7.021
 3976SOL    HW112827   0.981   3.258   6.958
 3976SOL    HW212828   1.031   3.104   6.975
 3977SOL     OW12829   3.632   5.195   6.104
 3977SOL    HW112830   3.646   5.230   6.011
 3977SOL    HW212831   3.708   5.223   6.162
 3978SOL     OW12832   6.257   3.879   6.549
 3978SOL    HW112833   6.247   3.788   6.589
 3978SOL    HW212834   6.217   3.947   6.609
 3979SOL     OW12835   1.114   6.623   2.984
 3979SOL    HW112836   1.025   6.608   2.941
 3979SOL    HW212837   1.110   6.704   3.043
 3980SOL     OW12838   4.888   3.530   4.762
 3980SOL    HW112839   4.904   3.436   4.732
 3980SOL    HW212840   4.848   3.530   4.853
 3981SOL     OW12841   6.482   2.090   5.514
 3981SOL    HW112842   6.385   2.108   5.498
 3981SOL    HW212843   6.511   2.137   5.597
 3982SOL     OW12844   2.246   2.694   4.000
 3982SOL    HW112845   2.208   2.713   4.090
 3982SOL    HW212846   2.336   2.651   4.011
 3983SOL     OW12847   3.720   0.145   3.458
 3983SOL    HW112848   3.629   0.121   3.492
 3983SOL    HW212849   3.746   0.235   3.492
 3984SOL     OW12850   2.006   0.227   1.502
 3984SOL    HW112851   2.022   0.172   1.420
 3984SOL    HW212852   2.027   0.172   1.583
 3985SOL     OW12853   1.741   3.343   1.522
 3985SOL    HW112854   1.758   3.247   1.498
 3985SOL    HW212855   1.818   3.399   1.490
 3986SOL     OW12856   1.642   2.362   2.328
 3986SOL    HW112857   1.559   2.412   2.355
 3986SOL    HW212858   1.710   2.427   2.295
 3987SOL     OW12859   1.711   4.273   5.601
 3987SOL    HW112860   1.637   4.257   5.667
 3987SOL    HW212861   1.707   4.204   5.529
 3988SOL     OW12862   4.628   1.268   6.778
 3988SOL    HW112863   4.547   1.321   6.801
 3988SOL    HW212864   4.604   1.171   6.774
 3989SOL     OW12865   4.204   0.208   6.092
 3989SOL    HW112866   4.278   0.231   6.155
 3989SOL    HW212867   4.226   0.122   6.046
 3990SOL     OW12868   1.428   2.798   4.054
 3990SOL    HW112869   1.431   2.886   4.006
 3990SOL    HW212870   1.387   2.729   3.995
 3991SOL     OW12871   0.555   1.126   3.982
 3991SOL    HW112872   0.469   1.175   3.995
 3991SOL    HW212873   0.580   1.078   4.066
 3992SOL     OW12874   5.620   3.798   6.789
 3992SOL    HW112875   5.711   3.837   6.806
 3992SOL    HW212876   5.581   3.765   6.875
 3993SOL     OW12877   1.538   0.539   4.006
 3993SOL    HW112878   1.571   0.614   4.063
 3993SOL    HW212879   1.486   0.576   3.929
 3994SOL     OW12880   2.804   2.034   3.262
 3994SOL    HW112881   2.858   2.004   3.183
 3994SOL    HW212882   2.709   2.006   3.249
 3995SOL     OW12883   1.172   3.466   2.564
 3995SOL    HW112884   1.210   3.422   2.483
 3995SOL    HW212885   1.092   3.415   2.596
 3996SOL     OW12886   6.089   6.744   3.950
 3996SOL    HW112887   6.007   6.771   4.000
 3996SOL    HW212888   6.161   6.812   3.964
 3997SOL     OW12889   4.888   3.576   2.508
 3997SOL    HW112890   4.802   3.553   2.462
 3997SOL    HW212891   4.884   3.670   2.542
 3998SOL     OW12892   5.526   2.318   3.057
 3998SOL    HW112893   5.506   2.392   2.992
 3998SOL    HW212894   5.449   2.254   3.059
 3999SOL     OW12895   4.795   2.565   1.456
 3999SOL    HW112896   4.718   2.622   1.483
 3999SOL    HW212897   4.864   2.564   1.529
 4000SOL     OW12898   2.728   5.234   2.266
 4000SOL    HW112899   2.629   5.231   2.277
 4000SOL    HW212900   2.752   5.199   2.175
 4001SOL     OW12901   1.184   4.871   4.134
 4001SOL    HW112902   1.171   4.780   4.174
 4001SOL    HW212903   1.107   4.929   4.159
 4002SOL     OW12904   3.814   4.073   3.513
 4002SOL    HW112905   3.859   4.047   3.598
 4002SOL    HW212906   3.717   4.049   3.519
 4003SOL     OW12907   1.688   0.962   5.350
 4003SOL    HW112908   1.680   0.955   5.449
 4003SOL    HW212909   1.603   1.000   5.313
 4004SOL     OW12910   1.028   4.023   3.536
 4004SOL    HW112911   1.050   4.075   3.453
 4004SOL    HW212912   0.928   4.017   3.545
 4005SOL     OW12913   4.765   3.220   0.045
 4005SOL    HW112914   4.824   3.159   0.098
 4005SOL    HW212915   4.791   3.315   0.062
 4006SOL     OW12916   5.352   5.466   2.830
 4006SOL    HW112917   5.424   5.397   2.833
 4006SOL    HW212918   5.279   5.436   2.769
 4007SOL     OW12919   6.832   0.867   2.755
 4007SOL    HW112920   6.928   0.857   2.782
 4007SOL    HW212921   6.806   0.791   2.695
 4008SOL     OW12922   3.584   1.019   0.530
 4008SOL    HW112923   3.541   0.957   0.595
 4008SOL    HW212924   3.684   1.015   0.540
 4009SOL     OW12925   4.910   1.921   0.535
 4009SOL    HW112926   4.879   1.840   0.584
 4009SOL    HW212927   4.987   1.898   0.476
 4010SOL     OW12928   3.138   5.203   1.776
 4010SOL    HW112929   3.147   5.157   1.687
 4010SOL    HW212930   3.071   5.154   1.832
 4011SOL     OW12931   5.212   6.043   6.631
 4011SOL    HW112932   5.266   6.096   6.696
 4011SOL    HW212933   5.141   6.101   6.591
 4012SOL     OW12934   4.544   6.547   2.840
 4012SOL    HW112935   4.451   6.581   2.844
 4012SOL    HW212936   4.607   6.624   2.829
 4013SOL     OW12937   0.216   1.058   5.788
 4013SOL    HW112938   0.152   1.120   5.744
 4013SOL    HW212939   0.186   1.040   5.882
 4014SOL     OW12940   3.146   4.839   2.749
 4014SOL    HW112941   3.116   4.909   2.814
 4014SOL    HW212942   3.066   4.797   2.705
 4015SOL     OW12943   4.460   4.845   6.015
 4015SOL    HW112944   4.451   4.805   5.924
 4015SOL    HW212945   4.473   4.772   6.082
 4016SOL     OW12946   4.109   5.121   5.287
 4016SOL    HW112947   4.099   5.042   5.226
 4016SOL    HW212948   4.130   5.088   5.380
 4017SOL     OW12949   0.704   4.620   5.549
 4017SOL    HW112950   0.686   4.643   5.645
 4017SOL    HW212951   0.667   4.529   5.529
 4018SOL     OW12952   4.575   6.026   1.438
 4018SOL    HW112953   4.568   6.085   1.519
 4018SOL    HW212954   4.575   5.930   1.467
 4019SOL     OW12955   5.166   3.831   2.990
 4019SOL    HW112956   5.214   3.760   2.938
 4019SOL    HW212957   5.230   3.875   3.052
 4020SOL     OW12958   6.938   5.642   4.308
 4020SOL    HW112959   0.010   5.614   4.308
 4020SOL    HW212960   6.929   5.734   4.270
 4021SOL     OW12961   4.271   3.452   6.610
 4021SOL    HW112962   4.189   3.412   6.570
 4021SOL    HW212963   4.308   3.521   6.549
 4022SOL     OW12964   2.299   0.296   1.292
 4022SOL    HW112965   2.292   0.329   1.386
 4022SOL    HW212966   2.212   0.310   1.245
 4023SOL     OW12967   0.370   1.259   5.092
 4023SOL    HW112968   0.377   1.331   5.162
 4023SOL    HW212969   0.303   1.191   5.121
 4024SOL     OW12970   0.564   5.889   4.662
 4024SOL    HW112971   0.494   5.821   4.640
 4024SOL    HW212972   0.526   5.981   4.652
 4025SOL     OW12973   6.990   5.638   3.630
 4025SOL    HW112974   6.957   5.723   3.671
 4025SOL    HW212975   0.049   5.657   3.578
 4026SOL     OW12976   6.796   6.998   3.733
 4026SOL    HW112977   6.797   6.924   3.800
 4026SOL    HW212978   6.821   6.962   3.643
 4027SOL     OW12979   2.539   3.936   6.165
 4027SOL    HW112980   2.566   4.028   6.191
 4027SOL    HW212981   2.598   3.904   6.091
 4028SOL     OW12982   4.438   1.699   3.349
 4028SOL    HW112983   4.491   1.645   3.415
 4028SOL    HW212984   4.474   1.792   3.346
 4029SOL     OW12985   1.907   5.716   0.108
 4029SOL    HW112986   1.885   5.731   0.012
 4029SOL    HW212987   1.940   5.801   0.148
 4030SOL     OW12988   7.020   1.219   2.892
 4030SOL    HW112989   6.949   1.288   2.882
 4030SOL    HW212990   7.006   1.169   2.978
 4031SOL     OW12991   6.118   6.414   0.738
 4031SOL    HW112992   6.050   6.472   0.782
 4031SOL    HW212993   6.206   6.424   0.785
 4032SOL     OW12994   5.665   0.838   1.972
 4032SOL    HW112995   5.722   0.920   1.966
 4032SOL    HW212996   5.676   0.797   2.062
 4033SOL     OW12997   1.737   2.919   2.930
 4033SOL    HW112998   1.764   2.957   3.019
 4033SOL    HW212999   1.701   2.992   2.872
 4034SOL     OW13000   0.118   3.398   5.252
 4034SOL    HW113001   0.067   3.394   5.338
 4034SOL    HW213002   0.206   3.444   5.268
 4035SOL     OW13003   4.681   2.041   2.289
 4035SOL    HW113004   4.629   2.072   2.210
 4035SOL    HW213005   4.642   2.082   2.372
 4036SOL     OW13006   2.655   5.721   2.794
 4036SOL    HW113007   2.610   5.810   2.804
 4036SOL    HW213008   2.751   5.735   2.773
 4037SOL     OW13009   2.726   1.101   6.167
 4037SOL    HW113010   2.776   1.093   6.081
 4037SOL    HW213011   2.629   1.115   6.148
 4038SOL     OW13012   3.644   3.492   5.982
 4038SOL    HW113013   3.612   3.399   6.003
 4038SOL    HW213014   3.586   3.558   6.029
 4039SOL     OW13015   6.256   4.904   1.485
 4039SOL    HW113016   6.341   4.937   1.443
 4039SOL    HW213017   6.205   4.850   1.419
 4040SOL     OW13018   3.067   6.087   4.768
 4040SOL    HW113019   3.041   6.163   4.708
 4040SOL    HW213020   3.167   6.082   4.773
 4041SOL     OW13021   2.339   6.570   0.602
 4041SOL    HW113022   2.407   6.507   0.639
 4041SOL    HW213023   2.269   6.518   0.553
 4042SOL     OW13024   6.221   0.957   3.389
 4042SOL    HW113025   6.314   0.992   3.399
 4042SOL    HW213026   6.172   0.968   3.475
 4043SOL     OW13027   5.373   3.373   0.041
 4043SOL    HW113028   5.288   3.362   7.013
 4043SOL    HW213029   5.405   3.283   0.072
 4044SOL     OW13030   4.508   5.511   2.839
 4044SOL    HW113031   4.550   5.423   2.862
 4044SOL    HW213032   4.487   5.512   2.741
 4045SOL     OW13033   4.871   0.557   5.457
 4045SOL    HW113034   4.874   0.457   5.457
 4045SOL    HW213035   4.937   0.591   5.524
 4046SOL     OW13036   6.132   1.934   2.693
 4046SOL    HW113037   6.113   2.033   2.691
 4046SOL    HW213038   6.215   1.915   2.641
 4047SOL     OW13039   2.632   3.310   0.036
 4047SOL    HW113040   2.673   3.219   0.046
 4047SOL    HW213041   2.619   3.351   0.126
 4048SOL     OW13042   4.541   1.711   2.492
 4048SOL    HW113043   4.481   1.786   2.465
 4048SOL    HW213044   4.564   1.656   2.412
 4049SOL     OW13045   3.795   4.251   6.699
 4049SOL    HW113046   3.786   4.343   6.736
 4049SOL    HW213047   3.776   4.184   6.771
 4050SOL     OW13048   0.588   5.717   2.523
 4050SOL    HW113049   0.624   5.642   2.579
 4050SOL    HW213050   0.643   5.799   2.540
 4051SOL     OW13051   5.560   1.206   5.249
 4051SOL    HW113052   5.649   1.247   5.230
 4051SOL    HW213053   5.498   1.223   5.173
 4052SOL     OW13054   6.328   2.158   3.729
 4052SOL    HW113055   6.250   2.164   3.667
 4052SOL    HW213056   6.399   2.100   3.689
 4053SOL     OW13057   1.037   5.342   4.320
 4053SOL    HW113058   0.981   5.424   4.334
 4053SOL    HW213059   1.038   5.319   4.223
 4054SOL     OW13060   4.287   3.846   0.651
 4054SOL    HW113061   4.283   3.861   0.553
 4054SOL    HW213062   4.324   3.927   0.696
 4055SOL     OW13063   0.536   4.751   1.313
 4055SOL    HW113064   0.450   4.723   1.271
 4055SOL    HW213065   0.531   4.847   1.339
 4056SOL     OW13066   5.373   3.350   1.115
 4056SOL    HW113067   5.293   3.304   1.077
 4056SOL    HW213068   5.348   3.442   1.145
 4057SOL     OW13069   6.811   2.920   6.990
 4057SOL    HW113070   6.894   2.890   0.014
 4057SOL    HW213071   6.831   3.002   6.937
 4058SOL     OW13072   2.954   6.368   5.753
 4058SOL    HW113073   3.001   6.451   5.725
 4058SOL    HW213074   2.889   6.389   5.827
 4059SOL     OW13075   0.690   1.681   4.086
 4059SOL    HW113076   0.663   1.585   4.086
 4059SOL    HW213077   0.708   1.711   3.993
 4060SOL     OW13078   6.267   6.035   5.583
 4060SOL    HW113079   6.205   6.049   5.660
 4060SOL    HW213080   6.216   6.042   5.497
 4061SOL     OW13081   2.174   5.875   1.047
 4061SOL    HW113082   2.210   5.957   1.002
 4061SOL    HW213083   2.243   5.840   1.111
 4062SOL     OW13084   1.366   2.289   1.662
 4062SOL    HW113085   1.312   2.242   1.733
 4062SOL    HW213086   1.429   2.354   1.706
 4063SOL     OW13087   4.939   0.937   6.996
 4063SOL    HW113088   4.998   0.871   0.019
 4063SOL    HW213089   4.973   0.952   6.904
 4064SOL     OW13090   2.173   2.119   5.421
 4064SOL    HW113091   2.148   2.196   5.479
 4064SOL    HW213092   2.122   2.123   5.335
 4065SOL     OW13093   2.464   6.751   0.909
 4065SOL    HW113094   2.408   6.668   0.898
 4065SOL    HW213095   2.437   6.819   0.841
 4066SOL     OW13096   0.272   4.386   3.724
 4066SOL    HW113097   0.272   4.382   3.824
 4066SOL    HW213098   0.261   4.294   3.687
 4067SOL     OW13099   4.704   4.843   1.408
 4067SOL    HW113100   4.613   4.814   1.438
 4067SOL    HW213101   4.697   4.890   1.320
 4068SOL     OW13102   1.807   2.656   5.271
 4068SOL    HW113103   1.813   2.636   5.369
 4068SOL    HW213104   1.748   2.587   5.227
 4069SOL     OW13105   4.097   0.244   6.620
 4069SOL    HW113106   4.032   0.168   6.613
 4069SOL    HW213107   4.052   0.329   6.594
 4070SOL     OW13108   1.862   3.315   3.660
 4070SOL    HW113109   1.789   3.382   3.648
 4070SOL    HW213110   1.829   3.239   3.717
 4071SOL     OW13111   0.800   0.570   3.806
 4071SOL    HW113112   0.738   0.641   3.772
 4071SOL    HW213113   0.823   0.588   3.902
 4072SOL     OW13114   2.361   5.750   3.178
 4072SOL    HW113115   2.420   5.692   3.235
 4072SOL    HW213116   2.343   5.704   3.091
 4073SOL     OW13117   3.012   4.709   0.056
 4073SOL    HW113118   3.087   4.776   0.058
 4073SOL    HW213119   2.973   4.706   6.988
 4074SOL     OW13120   1.219   6.108   2.786
 4074SOL    HW113121   1.285   6.094   2.860
 4074SOL    HW213122   1.126   6.105   2.824
 4075SOL     OW13123   6.156   0.868   0.409
 4075SOL    HW113124   6.067   0.843   0.449
 4075SOL    HW213125   6.215   0.788   0.407
 4076SOL     OW13126   2.947   3.916   5.385
 4076SOL    HW113127   2.861   3.901   5.337
 4076SOL    HW213128   2.945   3.871   5.474
 4077SOL     OW13129   3.077   1.285   1.815
 4077SOL    HW113130   3.155   1.263   1.874
 4077SOL    HW213131   3.079   1.383   1.793
 4078SOL     OW13132   2.555   4.605   2.608
 4078SOL    HW113133   2.471   4.575   2.653
 4078SOL    HW213134   2.532   4.663   2.530
 4079SOL     OW13135   1.225   2.291   4.419
 4079SOL    HW113136   1.218   2.254   4.511
 4079SOL    HW213137   1.273   2.378   4.421
 4080SOL     OW13138   6.044   1.527   4.975
 4080SOL    HW113139   6.023   1.614   4.932
 4080SOL    HW213140   6.122   1.485   4.929
 4081SOL     OW13141   1.704   3.531   3.587
 4081SOL    HW113142   1.779   3.596   3.579
 4081SOL    HW213143   1.664   3.515   3.497
 4082SOL     OW13144   1.085   3.035   1.534
 4082SOL    HW113145   1.017   3.083   1.479
 4082SOL    HW213146   1.106   2.947   1.491
 4083SOL     OW13147   5.631   2.422   5.106
 4083SOL    HW113148   5.655   2.419   5.009
 4083SOL    HW213149   5.546   2.372   5.122
 4084SOL     OW13150   0.365   1.310   4.128
 4084SOL    HW113151   0.332   1.382   4.066
 4084SOL    HW213152   0.288   1.270   4.178
 4085SOL     OW13153   3.304   6.687   0.461
 4085SOL    HW113154   3.339   6.702   0.554
 4085SOL    HW213155   3.282   6.775   0.419
 4086SOL     OW13156   1.781   4.232   0.976
 4086SOL    HW113157   1.733   4.306   1.023
 4086SOL    HW213158   1.876   4.260   0.960
 4087SOL     OW13159   1.782   1.561   3.061
 4087SOL    HW113160   1.749   1.650   3.092
 4087SOL    HW213161   1.846   1.524   3.129
 4088SOL     OW13162   6.600   1.711   1.284
 4088SOL    HW113163   6.662   1.718   1.363
 4088SOL    HW213164   6.586   1.615   1.261
 4089SOL     OW13165   1.078   0.495   4.199
 4089SOL    HW113166   1.161   0.457   4.158
 4089SOL    HW213167   1.000   0.435   4.179
 4090SOL     OW13168   2.052   4.257   6.127
 4090SOL    HW113169   2.000   4.336   6.158
 4090SOL    HW213170   1.997   4.174   6.139
 4091SOL     OW13171   4.448   5.862   0.533
 4091SOL    HW113172   4.373   5.797   0.542
 4091SOL    HW213173   4.412   5.951   0.504
 4092SOL     OW13174   0.217   2.839   4.723
 4092SOL    HW113175   0.210   2.765   4.657
 4092SOL    HW213176   0.299   2.893   4.705
 4093SOL     OW13177   5.464   0.402   3.879
 4093SOL    HW113178   5.531   0.346   3.927
 4093SOL    HW213179   5.424   0.469   3.942
 4094SOL     OW13180   1.914   4.139   5.215
 4094SOL    HW113181   1.995   4.082   5.216
 4094SOL    HW213182   1.927   4.215   5.151
 4095SOL     OW13183   1.103   3.388   6.126
 4095SOL    HW113184   1.011   3.408   6.160
 4095SOL    HW213185   1.122   3.446   6.046
 4096SOL     OW13186   3.897   4.177   0.235
 4096SOL    HW113187   3.993   4.170   0.264
 4096SOL    HW213188   3.862   4.085   0.217
 4097SOL     OW13189   3.509   3.248   6.104
 4097SOL    HW113190   3.527   3.169   6.044
 4097SOL    HW213191   3.450   3.219   6.179
 4098SOL     OW13192   0.401   2.025   3.173
 4098SOL    HW113193   0.383   2.090   3.099
 4098SOL    HW213194   0.482   2.055   3.225
 4099SOL     OW13195   3.897   5.817   1.766
 4099SOL    HW113196   3.901   5.744   1.698
 4099SOL    HW213197   3.966   5.887   1.744
 4100SOL     OW13198   3.930   5.938   3.605
 4100SOL    HW113199   3.836   5.959   3.630
 4100SOL    HW213200   3.959   5.995   3.528
 4101SOL     OW13201   5.969   1.579   6.456
 4101SOL    HW113202   5.900   1.652   6.454
 4101SOL    HW213203   6.058   1.619   6.479
 4102SOL     OW13204   5.913   1.186   0.467
 4102SOL    HW113205   5.891   1.280   0.495
 4102SOL    HW213206   6.007   1.164   0.493
 4103SOL     OW13207   0.517   0.606   2.240
 4103SOL    HW113208   0.507   0.613   2.141
 4103SOL    HW213209   0.603   0.650   2.268
 4104SOL     OW13210   1.407   4.614   2.746
 4104SOL    HW113211   1.379   4.658   2.660
 4104SOL    HW213212   1.363   4.524   2.753
 4105SOL     OW13213   4.069   4.564   0.165
 4105SOL    HW113214   4.005   4.621   0.113
 4105SOL    HW213215   4.024   4.530   0.247
 4106SOL     OW13216   0.161   3.733   4.367
 4106SOL    HW113217   0.106   3.705   4.288
 4106SOL    HW213218   0.112   3.804   4.418
 4107SOL     OW13219   0.175   0.578   1.309
 4107SOL    HW113220   0.115   0.513   1.355
 4107SOL    HW213221   0.128   0.617   1.229
 4108SOL     OW13222   6.447   3.632   6.423
 4108SOL    HW113223   6.360   3.624   6.375
 4108SOL    HW213224   6.519   3.656   6.358
 4109SOL     OW13225   3.322   6.451   3.602
 4109SOL    HW113226   3.229   6.453   3.565
 4109SOL    HW213227   3.320   6.417   3.696
 4110SOL     OW13228   5.189   3.533   5.909
 4110SOL    HW113229   5.170   3.533   5.811
 4110SOL    HW213230   5.126   3.594   5.956
 4111SOL     OW13231   4.453   2.722   0.023
 4111SOL    HW113232   4.398   2.756   0.099
 4111SOL    HW213233   4.508   2.644   0.053
 4112SOL     OW13234   3.152   1.708   3.879
 4112SOL    HW113235   3.234   1.755   3.911
 4112SOL    HW213236   3.111   1.658   3.955
 4113SOL     OW13237   3.407   4.778   5.192
 4113SOL    HW113238   3.349   4.829   5.128
 4113SOL    HW213239   3.500   4.815   5.188
 4114SOL     OW13240   2.758   1.672   3.015
 4114SOL    HW113241   2.853   1.646   3.036
 4114SOL    HW213242   2.704   1.670   3.098
 4115SOL     OW13243   4.990   4.946   1.753
 4115SOL    HW113244   5.015   5.006   1.677
 4115SOL    HW213245   4.935   4.870   1.718
 4116SOL     OW13246   3.900   1.560   1.557
 4116SOL    HW113247   3.875   1.653   1.585
 4116SOL    HW213248   3.868   1.495   1.626
 4117SOL     OW13249   1.161   5.557   1.559
 4117SOL    HW113250   1.174   5.463   1.590
 4117SOL    HW213251   1.250   5.602   1.554
 4118SOL     OW13252   1.103   6.527   0.592
 4118SOL    HW113253   1.094   6.428   0.600
 4118SOL    HW213254   1.162   6.549   0.514
 4119SOL     OW13255   3.333   0.698   4.320
 4119SOL    HW113256   3.259   0.763   4.336
 4119SOL    HW213257   3.409   0.744   4.275
 4120SOL     OW13258   3.841   0.184   1.041
 4120SOL    HW113259   3.911   0.217   1.105
 4120SOL    HW213260   3.763   0.148   1.092
 4121SOL     OW13261   6.967   2.819   4.210
 4121SOL    HW113262   6.891   2.883   4.226
 4121SOL    HW213263   7.002   2.787   4.298
 4122SOL     OW13264   1.515   5.611   5.921
 4122SOL    HW113265   1.580   5.540   5.948
 4122SOL    HW213266   1.446   5.571   5.861
 4123SOL     OW13267   5.310   3.851   5.996
 4123SOL    HW113268   5.229   3.796   6.014
 4123SOL    HW213269   5.321   3.862   5.897
 4124SOL     OW13270   5.689   6.526   4.358
 4124SOL    HW113271   5.675   6.489   4.266
 4124SOL    HW213272   5.623   6.599   4.375
 4125SOL     OW13273   4.357   1.061   1.068
 4125SOL    HW113274   4.275   1.030   1.020
 4125SOL    HW213275   4.354   1.160   1.078
 4126SOL     OW13276   2.094   4.070   4.925
 4126SOL    HW113277   2.020   4.003   4.934
 4126SOL    HW213278   2.182   4.024   4.940
 4127SOL     OW13279   5.578   3.513   5.250
 4127SOL    HW113280   5.544   3.424   5.220
 4127SOL    HW213281   5.647   3.500   5.321
 4128SOL     OW13282   1.682   3.316   2.350
 4128SOL    HW113283   1.755   3.359   2.297
 4128SOL    HW213284   1.642   3.241   2.296
 4129SOL     OW13285   5.853   1.951   5.794
 4129SOL    HW113286   5.799   1.888   5.738
 4129SOL    HW213287   5.941   1.909   5.815
 4130SOL     OW13288   6.504   3.905   6.913
 4130SOL    HW113289   6.444   3.971   6.868
 4130SOL    HW213290   6.514   3.930   7.010
 4131SOL     OW13291   6.539   4.912   4.144
 4131SOL    HW113292   6.485   4.935   4.063
 4131SOL    HW213293   6.492   4.839   4.195
 4132SOL     OW13294   5.049   2.899   3.462
 4132SOL    HW113295   5.042   2.808   3.502
 4132SOL    HW213296   5.139   2.938   3.482
 4133SOL     OW13297   2.689   1.353   1.034
 4133SOL    HW113298   2.672   1.288   1.108
 4133SOL    HW213299   2.705   1.304   0.949
 4134SOL     OW13300   1.839   1.957   6.992
 4134SOL    HW113301   1.868   1.944   0.062
 4134SOL    HW213302   1.919   1.951   6.931
 4135SOL     OW13303   2.402   1.693   2.425
 4135SOL    HW113304   2.424   1.618   2.487
 4135SOL    HW213305   2.356   1.766   2.476
 4136SOL     OW13306   0.041   2.137   4.137
 4136SOL    HW113307   7.017   2.214   4.094
 4136SOL    HW213308   6.999   2.074   4.177
 4137SOL     OW13309   3.184   3.705   6.592
 4137SOL    HW113310   3.088   3.678   6.586
 4137SOL    HW213311   3.216   3.694   6.686
 4138SOL     OW13312   3.967   4.773   3.457
 4138SOL    HW113313   3.996   4.799   3.549
 4138SOL    HW213314   4.048   4.750   3.402
 4139SOL     OW13315   1.865   2.008   6.168
 4139SOL    HW113316   1.777   1.984   6.127
 4139SOL    HW213317   1.938   1.960   6.118
 4140SOL     OW13318   4.462   1.151   5.175
 4140SOL    HW113319   4.506   1.083   5.117
 4140SOL    HW213320   4.378   1.183   5.131
 4141SOL     OW13321   5.531   5.557   0.665
 4141SOL    HW113322   5.577   5.474   0.633
 4141SOL    HW213323   5.483   5.537   0.750
 4142SOL     OW13324   0.009   4.226   1.328
 4142SOL    HW113325   0.074   4.206   1.400
 4142SOL    HW213326   6.990   4.142   1.297
 4143SOL     OW13327   6.829   2.891   0.715
 4143SOL    HW113328   6.868   2.973   0.672
 4143SOL    HW213329   6.893   2.815   0.705
 4144SOL     OW13330   5.028   1.331   2.452
 4144SOL    HW113331   5.042   1.349   2.549
 4144SOL    HW213332   4.930   1.320   2.434
 4145SOL     OW13333   2.057   0.147   1.239
 4145SOL    HW113334   2.110   0.065   1.221
 4145SOL    HW213335   1.980   0.152   1.175
 4146SOL     OW13336   5.060   6.886   6.973
 4146SOL    HW113337   5.044   6.884   0.048
 4146SOL    HW213338   5.159   6.888   6.956
 4147SOL     OW13339   3.148   1.869   5.530
 4147SOL    HW113340   3.105   1.852   5.441
 4147SOL    HW213341   3.083   1.913   5.591
 4148SOL     OW13342   6.343   0.518   3.276
 4148SOL    HW113343   6.310   0.605   3.238
 4148SOL    HW213344   6.356   0.528   3.375
 4149SOL     OW13345   5.913   4.073   1.877
 4149SOL    HW113346   5.882   4.085   1.782
 4149SOL    HW213347   5.838   4.094   1.939
 4150SOL     OW13348   5.649   0.003   6.775
 4150SOL    HW113349   5.719   6.958   6.795
 4150SOL    HW213350   5.593   6.997   6.698
 4151SOL     OW13351   0.175   5.587   0.258
 4151SOL    HW113352   0.259   5.537   0.239
 4151SOL    HW213353   0.136   5.620   0.172
 4152SOL     OW13354   3.925   4.662   1.766
 4152SOL    HW113355   4.000   4.618   1.716
 4152SOL    HW213356   3.840   4.649   1.716
 4153SOL     OW13357   6.345   4.738   6.336
 4153SOL    HW113358   6.395   4.655   6.359
 4153SOL    HW213359   6.321   4.737   6.239
 4154SOL     OW13360   6.289   3.059   5.534
 4154SOL    HW113361   6.375   3.085   5.578
 4154SOL    HW213362   6.299   3.068   5.435
 4155SOL     OW13363   1.173   3.437   2.054
 4155SOL    HW113364   1.154   3.468   1.961
 4155SOL    HW213365   1.271   3.428   2.067
 4156SOL     OW13366   5.432   6.931   5.639
 4156SOL    HW113367   5.455   6.900   5.546
 4156SOL    HW213368   5.391   7.022   5.634
 4157SOL     OW13369   4.231   0.300   4.469
 4157SOL    HW113370   4.162   0.303   4.542
 4157SOL    HW213371   4.322   0.299   4.510
 4158SOL     OW13372   0.488   5.987   3.351
 4158SOL    HW113373   0.585   5.987   3.376
 4158SOL    HW213374   0.457   5.893   3.338
 4159SOL     OW13375   1.130   2.776   4.472
 4159SOL    HW113376   1.065   2.713   4.429
 4159SOL    HW213377   1.194   2.810   4.402
 4160SOL     OW13378   0.335   0.751   1.422
 4160SOL    HW113379   0.269   0.682   1.393
 4160SOL    HW213380   0.297   0.802   1.499
 4161SOL     OW13381   0.596   1.799   0.412
 4161SOL    HW113382   0.518   1.805   0.350
 4161SOL    HW213383   0.602   1.883   0.466
 4162SOL     OW13384   5.796   6.988   5.032
 4162SOL    HW113385   5.865   6.917   5.019
 4162SOL    HW213386   5.835   0.039   5.086
 4163SOL     OW13387   5.542   1.523   3.968
 4163SOL    HW113388   5.477   1.548   4.039
 4163SOL    HW213389   5.626   1.576   3.978
 4164SOL     OW13390   1.707   0.463   6.613
 4164SOL    HW113391   1.717   0.464   6.514
 4164SOL    HW213392   1.765   0.534   6.653
 4165SOL     OW13393   3.662   6.757   1.409
 4165SOL    HW113394   3.670   6.843   1.460
 4165SOL    HW213395   3.732   6.754   1.338
 4166SOL     OW13396   4.720   2.932   0.822
 4166SOL    HW113397   4.660   2.991   0.876
 4166SOL    HW213398   4.734   2.973   0.732
 4167SOL     OW13399   2.448   2.597   1.550
 4167SOL    HW113400   2.483   2.551   1.468
 4167SOL    HW213401   2.354   2.567   1.567
 4168SOL     OW13402   1.004   5.697   1.747
 4168SOL    HW113403   1.025   5.794   1.733
 4168SOL    HW213404   1.059   5.642   1.685
 4169SOL     OW13405   5.382   3.160   3.716
 4169SOL    HW113406   5.331   3.118   3.642
 4169SOL    HW213407   5.345   3.131   3.804
 4170SOL     OW13408   3.832   2.796   5.551
 4170SOL    HW113409   3.746   2.755   5.521
 4170SOL    HW213410   3.891   2.811   5.472
 4171SOL     OW13411   4.981   3.622   1.679
 4171SOL    HW113412   4.899   3.565   1.679
 4171SOL    HW213413   5.058   3.570   1.716
 4172SOL     OW13414   1.035   2.075   1.051
 4172SOL    HW113415   1.128   2.039   1.055
 4172SOL    HW213416   0.983   2.042   1.130
 4173SOL     OW13417   5.186   3.067   4.997
 4173SOL    HW113418   5.275   3.036   5.030
 4173SOL    HW213419   5.172   3.036   4.903
 4174SOL     OW13420   4.477   0.502   3.878
 4174SOL    HW113421   4.521   0.414   3.893
 4174SOL    HW213422   4.385   0.488   3.841
 4175SOL     OW13423   2.840   0.307   3.505
 4175SOL    HW113424   2.744   0.326   3.527
 4175SOL    HW213425   2.845   0.257   3.419
 4176SOL     OW13426   4.648   6.752   3.328
 4176SOL    HW113427   4.673   6.785   3.419
 4176SOL    HW213428   4.726   6.764   3.266
 4177SOL     OW13429   0.472   6.236   2.535
 4177SOL    HW113430   0.380   6.244   2.575
 4177SOL    HW213431   0.474   6.158   2.473
 4178SOL     OW13432   3.738   2.254   5.586
 4178SOL    HW113433   3.745   2.352   5.606
 4178SOL    HW213434   3.796   2.202   5.649
 4179SOL     OW13435   5.679   3.840   5.618
 4179SOL    HW113436   5.621   3.804   5.692
 4179SOL    HW213437   5.763   3.787   5.613
 4180SOL     OW13438   4.755   4.029   1.666
 4180SOL    HW113439   4.667   4.077   1.668
 4180SOL    HW213440   4.828   4.095   1.683
 4181SOL     OW13441   0.973   1.438   0.423
 4181SOL    HW113442   0.948   1.347   0.389
 4181SOL    HW213443   0.938   1.449   0.516
 4182SOL     OW13444   5.796   0.383   2.843
 4182SOL    HW113445   5.775   0.317   2.771
 4182SOL    HW213446   5.711   0.415   2.885
 4183SOL     OW13447   1.360   1.932   1.881
 4183SOL    HW113448   1.406   1.874   1.948
 4183SOL    HW213449   1.395   1.912   1.789
 4184SOL     OW13450   4.338   5.229   0.483
 4184SOL    HW113451   4.398   5.291   0.432
 4184SOL    HW213452   4.358   5.135   0.458
 4185SOL     OW13453   0.409   0.222   3.765
 4185SOL    HW113454   0.435   0.249   3.672
 4185SOL    HW213455   0.492   0.201   3.818
 4186SOL     OW13456   2.459   3.660   1.099
 4186SOL    HW113457   2.521   3.700   1.032
 4186SOL    HW213458   2.385   3.613   1.052
 4187SOL     OW13459   3.839   3.486   6.600
 4187SOL    HW113460   3.914   3.531   6.551
 4187SOL    HW213461   3.855   3.492   6.698
 4188SOL     OW13462   4.175   0.056   4.781
 4188SOL    HW113463   4.136   7.006   4.726
 4188SOL    HW213464   4.270   0.071   4.754
 4189SOL     OW13465   2.194   1.760   4.808
 4189SOL    HW113466   2.218   1.784   4.902
 4189SOL    HW213467   2.145   1.835   4.766
 4190SOL     OW13468   3.513   1.230   0.377
 4190SOL    HW113469   3.493   1.319   0.418
 4190SOL    HW213470   3.520   1.161   0.449
 4191SOL     OW13471   6.566   1.905   2.659
 4191SOL    HW113472   6.591   1.930   2.565
 4191SOL    HW213473   6.645   1.918   2.719
 4192SOL     OW13474   6.231   1.277   3.708
 4192SOL    HW113475   6.222   1.249   3.804
 4192SOL    HW213476   6.172   1.220   3.651
 4193SOL     OW13477   1.950   6.921   2.013
 4193SOL    HW113478   2.022   6.853   2.004
 4193SOL    HW213479   1.983   7.010   1.980
 4194SOL     OW13480   0.180   1.049   4.047
 4194SOL    HW113481   0.263   1.044   4.103
 4194SOL    HW213482   0.194   0.998   3.963
 4195SOL     OW13483   5.126   0.223   1.671
 4195SOL    HW113484   5.192   0.284   1.713
 4195SOL    HW213485   5.075   0.272   1.600
 4196SOL     OW13486   5.123   2.719   3.910
 4196SOL    HW113487   5.093   2.647   3.971
 4196SOL    HW213488   5.141   2.803   3.962
 4197SOL     OW13489   4.897   4.431   4.356
 4197SOL    HW113490   4.895   4.473   4.266
 4197SOL    HW213491   4.929   4.336   4.349
 4198SOL     OW13492   6.662   3.629   0.113
 4198SOL    HW113493   6.761   3.637   0.112
 4198SOL    HW213494   6.630   3.591   0.026
 4199SOL     OW13495   3.006   3.432   5.748
 4199SOL    HW113496   3.020   3.506   5.814
 4199SOL    HW213497   3.066   3.447   5.669
 4200SOL     OW13498   1.861   0.158   0.064
 4200SOL    HW113499   1.774   0.200   0.090
 4200SOL    HW213500   1.844   0.088   7.018
 4201SOL     OW13501   5.541   6.076   3.561
 4201SOL    HW113502   5.540   6.144   3.488
 4201SOL    HW213503   5.635   6.045   3.576
 4202SOL     OW13504   5.330   4.892   4.434
 4202SOL    HW113505   5.329   4.990   4.455
 4202SOL    HW213506   5.242   4.852   4.459
 4203SOL     OW13507   5.329   5.840   3.400
 4203SOL    HW113508   5.324   5.924   3.455
 4203SOL    HW213509   5.251   5.837   3.338
 4204SOL     OW13510   3.175   3.190   1.616
 4204SOL    HW113511   3.086   3.147   1.632
 4204SOL    HW213512   3.162   3.289   1.605
 4205SOL     OW13513   2.611   5.290   3.545
 4205SOL    HW113514   2.656   5.338   3.470
 4205SOL    HW213515   2.550   5.353   3.594
 4206SOL     OW13516   5.040   0.392   4.572
 4206SOL    HW113517   4.957   0.403   4.518
 4206SOL    HW213518   5.049   0.469   4.636
 4207SOL     OW13519   1.059   1.754   1.885
 4207SOL    HW113520   1.062   1.828   1.817
 4207SOL    HW213521   1.138   1.695   1.872
 4208SOL     OW13522   0.842   3.343   0.999
 4208SOL    HW113523   0.873   3.355   0.904
 4208SOL    HW213524   0.881   3.416   1.056
 4209SOL     OW13525   2.876   0.323   4.940
 4209SOL    HW113526   2.916   0.261   5.007
 4209SOL    HW213527   2.928   0.319   4.855
 4210SOL     OW13528   4.455   2.856   0.540
 4210SOL    HW113529   4.514   2.777   0.525
 4210SOL    HW213530   4.371   2.827   0.587
 4211SOL     OW13531   4.352   4.955   3.163
 4211SOL    HW113532   4.258   4.964   3.131
 4211SOL    HW213533   4.371   4.859   3.186
 4212SOL     OW13534   6.132   1.120   2.878
 4212SOL    HW113535   6.151   1.038   2.823
 4212SOL    HW213536   6.181   1.113   2.965
 4213SOL     OW13537   1.113   1.231   2.459
 4213SOL    HW113538   1.076   1.312   2.504
 4213SOL    HW213539   1.191   1.196   2.511
 4214SOL     OW13540   0.978   2.974   4.582
 4214SOL    HW113541   0.930   3.020   4.507
 4214SOL    HW213542   1.033   2.899   4.545
 4215SOL     OW13543   0.663   5.583   4.478
 4215SOL    HW113544   0.762   5.585   4.488
 4215SOL    HW213545   0.628   5.495   4.511
 4216SOL     OW13546   1.230   3.014   4.694
 4216SOL    HW113547   1.131   3.029   4.705
 4216SOL    HW213548   1.245   2.929   4.643
 4217SOL     OW13549   0.078   0.375   3.082
 4217SOL    HW113550   0.053   0.466   3.049
 4217SOL    HW213551   0.009   0.309   3.053
 4218SOL     OW13552   4.469   0.107   1.893
 4218SOL    HW113553   4.480   0.008   1.899
 4218SOL    HW213554   4.407   0.130   1.818
 4219SOL     OW13555   4.124   5.650   3.521
 4219SOL    HW113556   4.087   5.707   3.448
 4219SOL    HW213557   4.189   5.703   3.576
 4220SOL     OW13558   6.159   2.774   3.825
 4220SOL    HW113559   6.195   2.821   3.745
 4220SOL    HW213560   6.071   2.732   3.802
 4221SOL     OW13561   5.440   5.475   5.836
 4221SOL    HW113562   5.428   5.524   5.922
 4221SOL    HW213563   5.492   5.391   5.852
 4222SOL     OW13564   4.712   2.050   1.177
 4222SOL    HW113565   4.799   2.020   1.216
 4222SOL    HW213566   4.730   2.111   1.099
 4223SOL     OW13567   3.719   4.093   2.568
 4223SOL    HW113568   3.807   4.075   2.612
 4223SOL    HW213569   3.734   4.138   2.480
 4224SOL     OW13570   4.474   2.391   5.081
 4224SOL    HW113571   4.512   2.412   4.991
 4224SOL    HW213572   4.386   2.436   5.091
 4225SOL     OW13573   5.408   0.166   4.854
 4225SOL    HW113574   5.452   0.225   4.787
 4225SOL    HW213575   5.310   0.186   4.857
 4226SOL     OW13576   1.037   1.188   3.591
 4226SOL    HW113577   1.090   1.192   3.506
 4226SOL    HW213578   1.012   1.281   3.619
 4227SOL     OW13579   5.439   4.428   0.199
 4227SOL    HW113580   5.366   4.362   0.181
 4227SOL    HW213581   5.430   4.464   0.292
 4228SOL     OW13582   6.153   5.434   2.437
 4228SOL    HW113583   6.185   5.510   2.493
 4228SOL    HW213584   6.059   5.452   2.407
 4229SOL     OW13585   5.272   4.711   5.467
 4229SOL    HW113586   5.338   4.721   5.392
 4229SOL    HW213587   5.305   4.641   5.531
 4230SOL     OW13588   3.070   6.840   4.942
 4230SOL    HW113589   3.133   6.839   5.019
 4230SOL    HW213590   2.982   6.877   4.973
 4231SOL     OW13591   4.842   6.819   5.640
 4231SOL    HW113592   4.941   6.812   5.633
 4231SOL    HW213593   4.811   6.903   5.594
 4232SOL     OW13594   2.316   4.225   2.238
 4232SOL    HW113595   2.240   4.277   2.277
 4232SOL    HW213596   2.348   4.270   2.155
 4233SOL     OW13597   6.484   6.511   0.663
 4233SOL    HW113598   6.432   6.505   0.577
 4233SOL    HW213599   6.573   6.468   0.651
 4234SOL     OW13600   2.744   4.431   5.699
 4234SOL    HW113601   2.790   4.481   5.626
 4234SOL    HW213602   2.742   4.333   5.677
 4235SOL     OW13603   6.486   3.731   5.688
 4235SOL    HW113604   6.563   3.671   5.712
 4235SOL    HW213605   6.480   3.805   5.755
 4236SOL     OW13606   1.081   3.277   4.820
 4236SOL    HW113607   1.094   3.294   4.918
 4236SOL    HW213608   1.149   3.328   4.767
 4237SOL     OW13609   5.224   2.987   4.745
 4237SOL    HW113610   5.310   2.938   4.727
 4237SOL    HW213611   5.218   3.066   4.684
 4238SOL     OW13612   4.177   5.140   3.891
 4238SOL    HW113613   4.254   5.079   3.908
 4238SOL    HW213614   4.202   5.205   3.819
 4239SOL     OW13615   4.861   5.513   6.013
 4239SOL    HW113616   4.917   5.466   5.944
 4239SOL    HW213617   4.916   5.585   6.055
 4240SOL     OW13618   2.331   4.388   6.847
 4240SOL    HW113619   2.279   4.439   6.778
 4240SOL    HW213620   2.343   4.294   6.816
 4241SOL     OW13621   3.953   0.458   6.552
 4241SOL    HW113622   3.982   0.438   6.458
 4241SOL    HW213623   3.860   0.493   6.551
 4242SOL     OW13624   2.393   0.790   2.512
 4242SOL    HW113625   2.327   0.850   2.465
 4242SOL    HW213626   2.368   0.783   2.608
 4243SOL     OW13627   1.821   2.964   3.242
 4243SOL    HW113628   1.842   3.008   3.330
 4243SOL    HW213629   1.727   2.986   3.216
 4244SOL     OW13630   3.504   6.535   1.437
 4244SOL    HW113631   3.565   6.613   1.450
 4244SOL    HW213632   3.495   6.514   1.340
 4245SOL     OW13633   6.253   3.668   0.995
 4245SOL    HW113634   6.258   3.665   0.895
 4245SOL    HW213635   6.186   3.601   1.027
 4246SOL     OW13636   5.293   1.571   3.641
 4246SOL    HW113637   5.331   1.623   3.718
 4246SOL    HW213638   5.356   1.575   3.564
 4247SOL     OW13639   1.573   5.090   5.679
 4247SOL    HW113640   1.516   5.153   5.627
 4247SOL    HW213641   1.519   5.011   5.708
 4248SOL     OW13642   1.612   0.892   3.500
 4248SOL    HW113643   1.668   0.973   3.515
 4248SOL    HW213644   1.661   0.828   3.441
 4249SOL     OW13645   0.004   6.918   4.935
 4249SOL    HW113646   7.023   6.959   4.843
 4249SOL    HW213647   0.063   6.975   4.993
 4250SOL     OW13648   0.209   5.571   4.333
 4250SOL    HW113649   0.172   5.497   4.276
 4250SOL    HW213650   0.247   5.643   4.273
 4251SOL     OW13651   6.377   2.245   5.739
 4251SOL    HW113652   6.349   2.299   5.660
 4251SOL    HW213653   6.318   2.266   5.817
 4252SOL     OW13654   6.925   6.396   0.346
 4252SOL    HW113655   6.898   6.306   0.312
 4252SOL    HW213656   7.016   6.390   0.387
 4253SOL     OW13657   4.705   5.698   2.558
 4253SOL    HW113658   4.748   5.763   2.620
 4253SOL    HW213659   4.621   5.662   2.599
 4254SOL     OW13660   1.624   3.164   0.484
 4254SOL    HW113661   1.668   3.213   0.558
 4254SOL    HW213662   1.675   3.081   0.463
 4255SOL     OW13663   1.406   3.559   3.147
 4255SOL    HW113664   1.334   3.627   3.130
 4255SOL    HW213665   1.445   3.530   3.060
 4256SOL     OW13666   0.783   5.848   2.009
 4256SOL    HW113667   0.685   5.829   2.017
 4256SOL    HW213668   0.796   5.945   1.990
 4257SOL     OW13669   6.446   0.561   4.281
 4257SOL    HW113670   6.437   0.466   4.310
 4257SOL    HW213671   6.528   0.601   4.324
 4258SOL     OW13672   3.591   6.234   0.965
 4258SOL    HW113673   3.690   6.217   0.962
 4258SOL    HW213674   3.559   6.257   0.873
 4259SOL     OW13675   1.269   0.460   1.886
 4259SOL    HW113676   1.205   0.385   1.903
 4259SOL    HW213677   1.354   0.444   1.935
 4260SOL     OW13678   5.578   0.980   4.632
 4260SOL    HW113679   5.649   0.919   4.598
 4260SOL    HW213680   5.495   0.968   4.578
 4261SOL     OW13681   1.825   6.212   4.269
 4261SOL    HW113682   1.904   6.212   4.331
 4261SOL    HW213683   1.790   6.119   4.260
 4262SOL     OW13684   1.764   4.054   6.524
 4262SOL    HW113685   1.783   3.994   6.602
 4262SOL    HW213686   1.748   3.998   6.443
 4263SOL     OW13687   2.473   1.753   4.237
 4263SOL    HW113688   2.509   1.762   4.329
 4263SOL    HW213689   2.381   1.713   4.240
 4264SOL     OW13690   5.040   1.568   5.081
 4264SOL    HW113691   4.952   1.521   5.079
 4264SOL    HW213692   5.062   1.603   4.990
 4265SOL     OW13693   3.478   0.599   0.034
 4265SOL    HW113694   3.422   0.682   0.028
 4265SOL    HW213695   3.575   0.625   0.037
 4266SOL     OW13696   0.973   5.493   0.941
 4266SOL    HW113697   1.042   5.540   0.995
 4266SOL    HW213698   0.894   5.553   0.928
 4267SOL     OW13699   1.704   4.487   4.666
 4267SOL    HW113700   1.802   4.483   4.683
 4267SOL    HW213701   1.656   4.426   4.730
 4268SOL     OW13702   1.231   4.357   0.249
 4268SOL    HW113703   1.216   4.425   0.178
 4268SOL    HW213704   1.326   4.361   0.280
 4269SOL     OW13705   2.718   1.434   4.948
 4269SOL    HW113706   2.761   1.346   4.968
 4269SOL    HW213707   2.776   1.486   4.885
 4270SOL     OW13708   3.977   2.489   1.101
 4270SOL    HW113709   4.052   2.469   1.039
 4270SOL    HW213710   3.933   2.575   1.075
 4271SOL     OW13711   0.022   1.026   1.547
 4271SOL    HW113712   0.016   0.926   1.542
 4271SOL    HW213713   0.118   1.054   1.551
 4272SOL     OW13714   7.022   0.899   6.606
 4272SOL    HW113715   6.968   0.900   6.521
 4272SOL    HW213716   6.967   0.862   6.680
 4273SOL     OW13717   3.251   5.919   4.392
 4273SOL    HW113718   3.264   6.015   4.367
 4273SOL    HW213719   3.262   5.861   4.310
 4274SOL     OW13720   0.022   1.594   1.810
 4274SOL    HW113721   6.948   1.585   1.829
 4274SOL    HW213722   0.047   1.691   1.809
 4275SOL     OW13723   6.897   3.203   3.254
 4275SOL    HW113724   6.919   3.300   3.262
 4275SOL    HW213725   6.845   3.174   3.334
 4276SOL     OW13726   2.429   5.784   3.937
 4276SOL    HW113727   2.479   5.864   3.970
 4276SOL    HW213728   2.482   5.738   3.866
 4277SOL     OW13729   5.974   5.697   2.770
 4277SOL    HW113730   6.067   5.716   2.799
 4277SOL    HW213731   5.912   5.710   2.848
 4278SOL     OW13732   1.401   6.814   1.629
 4278SOL    HW113733   1.469   6.745   1.657
 4278SOL    HW213734   1.443   6.905   1.631
 4279SOL     OW13735   1.058   1.527   3.432
 4279SOL    HW113736   1.134   1.588   3.452
 4279SOL    HW213737   1.093   1.442   3.392
 4280SOL     OW13738   0.657   0.041   6.428
 4280SOL    HW113739   0.643   0.065   6.333
 4280SOL    HW213740   0.681   6.968   6.435
 4281SOL     OW13741   5.097   5.535   3.018
 4281SOL    HW113742   5.110   5.438   3.042
 4281SOL    HW213743   5.095   5.590   3.102
 4282SOL     OW13744   3.637   4.133   0.915
 4282SOL    HW113745   3.556   4.105   0.863
 4282SOL    HW213746   3.698   4.054   0.925
 4283SOL     OW13747   5.137   1.343   4.315
 4283SOL    HW113748   5.160   1.426   4.364
 4283SOL    HW213749   5.037   1.336   4.307
 4284SOL     OW13750   4.593   5.657   6.392
 4284SOL    HW113751   4.605   5.745   6.440
 4284SOL    HW213752   4.665   5.594   6.421
 4285SOL     OW13753   3.613   0.364   5.559
 4285SOL    HW113754   3.618   0.447   5.504
 4285SOL    HW213755   3.586   0.387   5.652
 4286SOL     OW13756   5.688   0.718   6.597
 4286SOL    HW113757   5.621   0.769   6.651
 4286SOL    HW213758   5.644   0.682   6.515
 4287SOL     OW13759   4.676   0.230   0.483
 4287SOL    HW113760   4.594   0.256   0.535
 4287SOL    HW213761   4.649   0.173   0.405
 4288SOL     OW13762   0.024   6.253   2.425
 4288SOL    HW113763   0.099   6.201   2.386
 4288SOL    HW213764   0.039   6.264   2.523
 4289SOL     OW13765   0.259   4.131   4.038
 4289SOL    HW113766   0.301   4.150   3.950
 4289SOL    HW213767   0.251   4.216   4.091
 4290SOL     OW13768   0.618   0.933   3.527
 4290SOL    HW113769   0.626   0.990   3.609
 4290SOL    HW213770   0.696   0.871   3.521
 4291SOL     OW13771   4.716   3.242   5.997
 4291SOL    HW113772   4.717   3.243   5.897
 4291SOL    HW213773   4.664   3.320   6.031
 4292SOL     OW13774   6.175   2.354   1.545
 4292SOL    HW113775   6.119   2.274   1.565
 4292SOL    HW213776   6.118   2.436   1.545
 4293SOL     OW13777   4.068   4.161   6.849
 4293SOL    HW113778   4.091   4.100   6.925
 4293SOL    HW213779   3.986   4.213   6.871
 4294SOL     OW13780   1.707   1.882   6.383
 4294SOL    HW113781   1.610   1.865   6.365
 4294SOL    HW213782   1.749   1.925   6.303
 4295SOL     OW13783   4.212   5.884   2.806
 4295SOL    HW113784   4.115   5.864   2.800
 4295SOL    HW213785   4.257   5.819   2.868
 4296SOL     OW13786   2.828   6.109   2.639
 4296SOL    HW113787   2.834   6.026   2.695
 4296SOL    HW213788   2.851   6.188   2.695
 4297SOL     OW13789   5.674   5.042   0.694
 4297SOL    HW113790   5.636   5.014   0.606
 4297SOL    HW213791   5.772   5.022   0.695
 4298SOL     OW13792   2.002   6.930   0.656
 4298SOL    HW113793   2.043   6.858   0.600
 4298SOL    HW213794   2.015   7.018   0.612
 4299SOL     OW13795   0.627   3.298   0.325
 4299SOL    HW113796   0.673   3.254   0.248
 4299SOL    HW213797   0.676   3.381   0.349
 4300SOL     OW13798   2.492   1.045   0.986
 4300SOL    HW113799   2.549   0.964   0.985
 4300SOL    HW213800   2.410   1.029   0.931
 4301SOL     OW13801   2.739   6.790   0.911
 4301SOL    HW113802   2.640   6.775   0.916
 4301SOL    HW213803   2.758   6.888   0.918
 4302SOL     OW13804   2.488   5.469   6.151
 4302SOL    HW113805   2.464   5.536   6.081
 4302SOL    HW213806   2.487   5.377   6.112
 4303SOL     OW13807   6.012   5.391   3.051
 4303SOL    HW113808   5.979   5.341   2.970
 4303SOL    HW213809   6.010   5.489   3.032
 4304SOL     OW13810   3.750   3.684   1.423
 4304SOL    HW113811   3.655   3.674   1.453
 4304SOL    HW213812   3.794   3.594   1.421
 4305SOL     OW13813   1.608   0.153   5.264
 4305SOL    HW113814   1.693   0.101   5.266
 4305SOL    HW213815   1.591   0.192   5.355
 4306SOL     OW13816   5.926   3.591   4.934
 4306SOL    HW113817   5.843   3.564   4.885
 4306SOL    HW213818   5.994   3.625   4.870
 4307SOL     OW13819   0.322   1.341   5.941
 4307SOL    HW113820   0.382   1.261   5.934
 4307SOL    HW213821   0.370   1.422   5.906
 4308SOL     OW13822   4.926   5.918   6.880
 4308SOL    HW113823   4.934   6.018   6.880
 4308SOL    HW213824   4.892   5.888   6.970
 4309SOL     OW13825   1.187   2.331   0.676
 4309SOL    HW113826   1.126   2.361   0.749
 4309SOL    HW213827   1.142   2.342   0.588
 4310SOL     OW13828   7.011   1.889   3.399
 4310SOL    HW113829   0.056   1.957   3.374
 4310SOL    HW213830   0.002   1.859   3.493
 4311SOL     OW13831   0.632   0.249   2.354
 4311SOL    HW113832   0.585   0.293   2.430
 4311SOL    HW213833   0.640   0.313   2.278
 4312SOL     OW13834   0.481   4.795   2.526
 4312SOL    HW113835   0.449   4.884   2.493
 4312SOL    HW213836   0.579   4.800   2.546
 4313SOL     OW13837   6.404   2.446   6.851
 4313SOL    HW113838   6.500   2.419   6.848
 4313SOL    HW213839   6.353   2.380   6.906
 4314SOL     OW13840   0.032   1.803   5.455
 4314SOL    HW113841   0.059   1.873   5.521
 4314SOL    HW213842   7.013   1.846   5.376
 4315SOL     OW13843   2.853   1.541   4.573
 4315SOL    HW113844   2.863   1.581   4.664
 4315SOL    HW213845   2.830   1.444   4.582
 4316SOL     OW13846   5.523   6.597   1.674
 4316SOL    HW113847   5.569   6.678   1.639
 4316SOL    HW213848   5.529   6.524   1.606
 4317SOL     OW13849   4.867   0.749   5.848
 4317SOL    HW113850   4.803   0.822   5.869
 4317SOL    HW213851   4.832   0.663   5.886
 4318SOL     OW13852   0.754   0.501   4.322
 4318SOL    HW113853   0.787   0.588   4.361
 4318SOL    HW213854   0.691   0.458   4.387
 4319SOL     OW13855   1.849   5.220   2.988
 4319SOL    HW113856   1.937   5.208   2.942
 4319SOL    HW213857   1.780   5.249   2.922
 4320SOL     OW13858   3.257   6.564   1.103
 4320SOL    HW113859   3.250   6.571   1.203
 4320SOL    HW213860   3.191   6.626   1.061
 4321SOL     OW13861   6.760   6.575   2.498
 4321SOL    HW113862   6.815   6.583   2.581
 4321SOL    HW213863   6.692   6.503   2.510
 4322SOL     OW13864   0.608   3.609   5.311
 4322SOL    HW113865   0.649   3.691   5.272
 4322SOL    HW213866   0.648   3.593   5.402
 4323SOL     OW13867   3.931   4.923   6.807
 4323SOL    HW113868   4.022   4.923   6.849
 4323SOL    HW213869   3.912   4.832   6.770
 4324SOL     OW13870   6.913   4.620   6.016
 4324SOL    HW113871   6.889   4.708   5.974
 4324SOL    HW213872   6.894   4.546   5.951
 4325SOL     OW13873   2.673   0.745   2.577
 4325SOL    HW113874   2.574   0.759   2.569
 4325SOL    HW213875   2.720   0.821   2.531
 4326SOL     OW13876   4.924   2.357   2.406
 4326SOL    HW113877   4.830   2.325   2.418
 4326SOL    HW213878   4.981   2.280   2.376
 4327SOL     OW13879   2.740   6.223   3.735
 4327SOL    HW113880   2.723   6.272   3.650
 4327SOL    HW213881   2.687   6.264   3.809
 4328SOL     OW13882   6.031   6.801   5.037
 4328SOL    HW113883   6.059   6.831   5.128
 4328SOL    HW213884   6.112   6.786   4.980
 4329SOL     OW13885   0.172   1.647   6.433
 4329SOL    HW113886   0.201   1.729   6.483
 4329SOL    HW213887   0.186   1.567   6.490
 4330SOL     OW13888   2.986   4.859   4.936
 4330SOL    HW113889   3.067   4.891   4.986
 4330SOL    HW213890   2.943   4.785   4.987
 4331SOL     OW13891   6.022   1.379   1.976
 4331SOL    HW113892   5.929   1.351   2.000
 4331SOL    HW213893   6.056   1.445   2.043
 4332SOL     OW13894   0.359   5.145   2.780
 4332SOL    HW113895   0.386   5.239   2.805
 4332SOL    HW213896   0.259   5.138   2.781
 4333SOL     OW13897   3.715   2.531   5.727
 4333SOL    HW113898   3.729   2.488   5.816
 4333SOL    HW213899   3.671   2.620   5.739
 4334SOL     OW13900   0.227   2.654   4.524
 4334SOL    HW113901   0.285   2.581   4.559
 4334SOL    HW213902   0.278   2.709   4.458
 4335SOL     OW13903   2.496   3.711   1.506
 4335SOL    HW113904   2.430   3.688   1.578
 4335SOL    HW213905   2.557   3.784   1.538
 4336SOL     OW13906   2.641   4.978   5.730
 4336SOL    HW113907   2.553   5.015   5.700
 4336SOL    HW213908   2.627   4.920   5.811
 4337SOL     OW13909   1.455   5.530   3.824
 4337SOL    HW113910   1.449   5.552   3.727
 4337SOL    HW213911   1.548   5.549   3.857
 4338SOL     OW13912   3.803   0.792   5.499
 4338SOL    HW113913   3.835   0.871   5.447
 4338SOL    HW213914   3.818   0.709   5.446
 4339SOL     OW13915   4.090   3.506   6.380
 4339SOL    HW113916   4.114   3.421   6.334
 4339SOL    HW213917   4.003   3.540   6.344
 4340SOL     OW13918   6.463   4.047   0.893
 4340SOL    HW113919   6.489   3.965   0.944
 4340SOL    HW213920   6.438   4.120   0.958
 4341SOL     OW13921   0.247   0.016   2.486
 4341SOL    HW113922   0.246   0.101   2.433
 4341SOL    HW213923   0.340   7.022   2.517
 4342SOL     OW13924   4.942   3.535   2.153
 4342SOL    HW113925   4.950   3.444   2.195
 4342SOL    HW213926   4.939   3.525   2.054
 4343SOL     OW13927   3.946   6.930   6.047
 4343SOL    HW113928   3.931   0.003   6.026
 4343SOL    HW213929   3.926   6.875   5.966
 4344SOL     OW13930   0.147   3.567   3.953
 4344SOL    HW113931   0.145   3.666   3.963
 4344SOL    HW213932   0.180   3.525   4.038
 4345SOL     OW13933   3.184   2.891   2.190
 4345SOL    HW113934   3.196   2.983   2.153
 4345SOL    HW213935   3.151   2.897   2.285
 4346SOL     OW13936   1.049   2.967   2.277
 4346SOL    HW113937   1.143   2.951   2.307
 4346SOL    HW213938   1.049   3.023   2.195
 4347SOL     OW13939   5.784   5.676   0.666
 4347SOL    HW113940   5.689   5.647   0.658
 4347SOL    HW213941   5.843   5.608   0.623
 4348SOL     OW13942   5.981   5.481   4.011
 4348SOL    HW113943   5.990   5.400   3.953
 4348SOL    HW213944   5.890   5.520   3.999
 4349SOL     OW13945   6.971   3.716   4.197
 4349SOL    HW113946   6.925   3.644   4.248
 4349SOL    HW213947   6.950   3.706   4.099
 4350SOL     OW13948   4.294   1.664   4.779
 4350SOL    HW113949   4.376   1.615   4.810
 4350SOL    HW213950   4.299   1.678   4.680
 4351SOL     OW13951   0.696   6.749   0.579
 4351SOL    HW113952   0.713   6.665   0.529
 4351SOL    HW213953   0.678   6.824   0.515
 4352SOL     OW13954   3.816   3.753   0.735
 4352SOL    HW113955   3.906   3.709   0.733
 4352SOL    HW213956   3.759   3.716   0.663
 4353SOL     OW13957   2.602   2.950   1.264
 4353SOL    HW113958   2.609   3.022   1.195
 4353SOL    HW213959   2.692   2.933   1.304
 4354SOL     OW13960   5.552   6.755   3.725
 4354SOL    HW113961   5.568   6.792   3.634
 4354SOL    HW213962   5.454   6.749   3.743
 4355SOL     OW13963   1.307   6.210   3.075
 4355SOL    HW113964   1.235   6.148   3.108
 4355SOL    HW213965   1.264   6.291   3.034
 4356SOL     OW13966   5.227   2.428   5.922
 4356SOL    HW113967   5.250   2.500   5.857
 4356SOL    HW213968   5.203   2.470   6.010
 4357SOL     OW13969   5.731   0.485   2.429
 4357SOL    HW113970   5.750   0.533   2.343
 4357SOL    HW213971   5.681   0.401   2.409
 4358SOL     OW13972   1.703   6.901   6.900
 4358SOL    HW113973   1.621   6.931   6.851
 4358SOL    HW213974   1.773   6.871   6.835
 4359SOL     OW13975   2.332   2.248   6.958
 4359SOL    HW113976   2.348   2.223   6.862
 4359SOL    HW213977   2.410   2.300   6.992
 4360SOL     OW13978   1.890   3.735   3.599
 4360SOL    HW113979   1.971   3.787   3.573
 4360SOL    HW213980   1.882   3.734   3.699
 4361SOL     OW13981   6.616   2.085   0.747
 4361SOL    HW113982   6.638   2.156   0.814
 4361SOL    HW213983   6.535   2.112   0.694
 4362SOL     OW13984   1.103   5.853   3.281
 4362SOL    HW113985   1.147   5.826   3.196
 4362SOL    HW213986   1.170   5.848   3.356
 4363SOL     OW13987   4.291   1.246   2.814
 4363SOL    HW113988   4.198   1.281   2.815
 4363SOL    HW213989   4.352   1.313   2.857
 4364SOL     OW13990   4.189   3.371   2.450
 4364SOL    HW113991   4.205   3.287   2.501
 4364SOL    HW213992   4.108   3.361   2.393
 4365SOL     OW13993   2.450   2.050   1.510
 4365SOL    HW113994   2.418   1.968   1.557
 4365SOL    HW213995   2.462   2.124   1.576
 4366SOL     OW13996   4.203   5.858   5.075
 4366SOL    HW113997   4.276   5.829   5.137
 4366SOL    HW213998   4.243   5.889   4.989
 4367SOL     OW13999   2.639   5.638   3.236
 4367SOL    HW114000   2.637   5.599   3.143
 4367SOL    HW214001   2.666   5.734   3.231
 4368SOL     OW14002   4.630   4.360   3.104
 4368SOL    HW114003   4.679   4.431   3.154
 4368SOL    HW214004   4.605   4.395   3.013
 4369SOL     OW14005   4.157   4.709   3.023
 4369SOL    HW114006   4.233   4.644   3.024
 4369SOL    HW214007   4.131   4.728   2.928
 4370SOL     OW14008   3.675   4.495   1.684
 4370SOL    HW114009   3.690   4.524   1.590
 4370SOL    HW214010   3.640   4.572   1.738
 4371SOL     OW14011   2.942   1.753   0.827
 4371SOL    HW114012   3.029   1.797   0.809
 4371SOL    HW214013   2.937   1.667   0.776
 4372SOL     OW14014   1.869   3.133   4.556
 4372SOL    HW114015   1.965   3.148   4.580
 4372SOL    HW214016   1.818   3.107   4.638
 4373SOL     OW14017   4.118   1.428   5.686
 4373SOL    HW114018   4.172   1.389   5.611
 4373SOL    HW214019   4.154   1.395   5.774
 4374SOL     OW14020   2.402   1.045   1.797
 4374SOL    HW114021   2.308   1.048   1.762
 4374SOL    HW214022   2.434   0.951   1.799
 4375SOL     OW14023   4.900   1.483   3.737
 4375SOL    HW114024   4.976   1.420   3.725
 4375SOL    HW214025   4.821   1.433   3.775
 4376SOL     OW14026   1.262   6.239   0.277
 4376SOL    HW114027   1.248   6.317   0.216
 4376SOL    HW214028   1.355   6.204   0.266
 4377SOL     OW14029   6.213   0.132   6.694
 4377SOL    HW114030   6.148   0.073   6.645
 4377SOL    HW214031   6.163   0.191   6.757
 4378SOL     OW14032   2.198   5.948   2.523
 4378SOL    HW114033   2.105   5.985   2.534
 4378SOL    HW214034   2.265   6.020   2.539
 4379SOL     OW14035   1.508   0.920   1.857
 4379SOL    HW114036   1.483   0.942   1.951
 4379SOL    HW214037   1.508   1.004   1.802
 4380SOL     OW14038   2.392   5.523   5.081
 4380SOL    HW114039   2.399   5.449   5.014
 4380SOL    HW214040   2.479   5.573   5.086
 4381SOL     OW14041   4.094   5.992   5.449
 4381SOL    HW114042   4.102   6.034   5.358
 4381SOL    HW214043   4.106   6.062   5.519
 4382SOL     OW14044   4.910   4.095   3.320
 4382SOL    HW114045   4.850   4.125   3.245
 4382SOL    HW214046   4.918   4.169   3.387
 4383SOL     OW14047   0.796   2.845   6.694
 4383SOL    HW114048   0.736   2.894   6.757
 4383SOL    HW214049   0.882   2.896   6.683
 4384SOL     OW14050   4.185   6.305   1.087
 4384SOL    HW114051   4.208   6.288   0.991
 4384SOL    HW214052   4.269   6.324   1.138
 4385SOL     OW14053   6.888   1.660   2.483
 4385SOL    HW114054   6.818   1.597   2.449
 4385SOL    HW214055   6.848   1.719   2.553
 4386SOL     OW14056   1.043   3.507   0.162
 4386SOL    HW114057   1.019   3.445   0.087
 4386SOL    HW214058   1.109   3.462   0.223
 4387SOL     OW14059   0.052   3.141   1.712
 4387SOL    HW114060   0.071   3.143   1.614
 4387SOL    HW214061   0.069   3.232   1.751
 4388SOL     OW14062   3.392   1.219   5.401
 4388SOL    HW114063   3.439   1.131   5.398
 4388SOL    HW214064   3.363   1.238   5.495
 4389SOL     OW14065   4.793   2.375   3.104
 4389SOL    HW114066   4.827   2.419   3.187
 4389SOL    HW214067   4.693   2.380   3.103
 4390SOL     OW14068   4.724   2.561   2.337
 4390SOL    HW114069   4.750   2.644   2.287
 4390SOL    HW214070   4.806   2.508   2.359
 4391SOL     OW14071   0.676   5.513   0.384
 4391SOL    HW114072   0.622   5.575   0.441
 4391SOL    HW214073   0.748   5.471   0.440
 4392SOL     OW14074   5.273   3.129   4.447
 4392SOL    HW114075   5.260   3.192   4.523
 4392SOL    HW214076   5.371   3.119   4.429
 4393SOL     OW14077   4.448   6.431   3.479
 4393SOL    HW114078   4.515   6.462   3.411
 4393SOL    HW214079   4.380   6.503   3.494
 4394SOL     OW14080   5.001   0.619   2.215
 4394SOL    HW114081   5.003   0.591   2.310
 4394SOL    HW214082   4.962   0.711   2.208
 4395SOL     OW14083   5.244   1.841   2.342
 4395SOL    HW114084   5.341   1.845   2.318
 4395SOL    HW214085   5.189   1.873   2.265
 4396SOL     OW14086   1.365   0.327   3.794
 4396SOL    HW114087   1.329   0.418   3.817
 4396SOL    HW214088   1.373   0.272   3.877
 4397SOL     OW14089   6.564   0.639   5.726
 4397SOL    HW114090   6.618   0.618   5.808
 4397SOL    HW214091   6.478   0.589   5.729
 4398SOL     OW14092   6.927   5.064   4.512
 4398SOL    HW114093   6.888   5.009   4.439
 4398SOL    HW214094   7.015   5.101   4.483
 4399SOL     OW14095   2.368   1.326   1.344
 4399SOL    HW114096   2.371   1.377   1.258
 4399SOL    HW214097   2.390   1.388   1.419
 4400SOL     OW14098   3.358   6.220   4.804
 4400SOL    HW114099   3.336   6.311   4.840
 4400SOL    HW214100   3.442   6.224   4.751
 4401SOL     OW14101   5.298   6.089   4.741
 4401SOL    HW114102   5.232   6.073   4.667
 4401SOL    HW214103   5.261   6.155   4.806
 4402SOL     OW14104   7.016   0.019   2.863
 4402SOL    HW114105   6.967   0.014   2.776
 4402SOL    HW214106   0.053   0.098   2.862
 4403SOL     OW14107   0.930   0.350   2.918
 4403SOL    HW114108   0.961   0.392   3.003
 4403SOL    HW214109   0.838   0.383   2.896
 4404SOL     OW14110   1.565   4.272   3.472
 4404SOL    HW114111   1.571   4.348   3.537
 4404SOL    HW214112   1.642   4.278   3.408
 4405SOL     OW14113   3.249   4.212   5.620
 4405SOL    HW114114   3.244   4.303   5.578
 4405SOL    HW214115   3.283   4.146   5.553
 4406SOL     OW14116   5.129   3.731   1.376
 4406SOL    HW114117   5.142   3.651   1.318
 4406SOL    HW214118   5.091   3.704   1.464
 4407SOL     OW14119   6.276   6.867   0.076
 4407SOL    HW114120   6.264   6.868   7.001
 4407SOL    HW214121   6.238   6.951   0.115
 4408SOL     OW14122   4.845   5.530   0.084
 4408SOL    HW114123   4.825   5.628   0.093
 4408SOL    HW214124   4.762   5.482   0.056
 4409SOL     OW14125   3.250   0.989   1.862
 4409SOL    HW114126   3.229   1.076   1.905
 4409SOL    HW214127   3.266   1.003   1.764
 4410SOL     OW14128   2.752   5.511   1.706
 4410SOL    HW114129   2.661   5.480   1.734
 4410SOL    HW214130   2.743   5.573   1.628
 4411SOL     OW14131   3.655   2.877   2.375
 4411SOL    HW114132   3.619   2.846   2.287
 4411SOL    HW214133   3.752   2.900   2.365
 4412SOL     OW14134   3.831   2.335   6.852
 4412SOL    HW114135   3.929   2.334   6.870
 4412SOL    HW214136   3.785   2.271   6.914
 4413SOL     OW14137   4.088   6.055   4.607
 4413SOL    HW114138   4.117   6.109   4.686
 4413SOL    HW214139   4.063   5.963   4.637
 4414SOL     OW14140   3.621   5.028   1.916
 4414SOL    HW114141   3.533   5.054   1.876
 4414SOL    HW214142   3.621   4.930   1.936
 4415SOL     OW14143   5.241   2.943   7.022
 4415SOL    HW114144   5.265   3.022   6.966
 4415SOL    HW214145   5.162   2.896   6.982
 4416SOL     OW14146   3.806   0.683   3.439
 4416SOL    HW114147   3.822   0.743   3.518
 4416SOL    HW214148   3.812   0.736   3.355
 4417SOL     OW14149   0.090   0.120   1.813
 4417SOL    HW114150   0.054   0.203   1.855
 4417SOL    HW214151   0.145   0.144   1.733
 4418SOL     OW14152   3.992   6.668   3.249
 4418SOL    HW114153   4.041   6.592   3.291
 4418SOL    HW214154   4.043   6.753   3.264
 4419SOL     OW14155   0.269   4.903   6.439
 4419SOL    HW114156   0.186   4.960   6.441
 4419SOL    HW214157   0.303   4.890   6.533
 4420SOL     OW14158   5.193   1.973   6.489
 4420SOL    HW114159   5.175   1.875   6.487
 4420SOL    HW214160   5.108   2.023   6.473
 4421SOL     OW14161   1.503   1.684   3.826
 4421SOL    HW114162   1.463   1.769   3.859
 4421SOL    HW214163   1.554   1.640   3.901
 4422SOL     OW14164   2.374   3.566   5.834
 4422SOL    HW114165   2.473   3.563   5.847
 4422SOL    HW214166   2.352   3.629   5.760
 4423SOL     OW14167   0.865   2.287   6.407
 4423SOL    HW114168   0.805   2.320   6.480
 4423SOL    HW214169   0.888   2.192   6.424
 4424SOL     OW14170   6.982   0.223   3.310
 4424SOL    HW114171   0.024   0.284   3.266
 4424SOL    HW214172   0.006   0.157   3.368
 4425SOL     OW14173   4.758   4.436   6.552
 4425SOL    HW114174   4.688   4.443   6.624
 4425SOL    HW214175   4.825   4.509   6.565
 4426SOL     OW14176   0.828   0.434   5.818
 4426SOL    HW114177   0.807   0.423   5.721
 4426SOL    HW214178   0.841   0.344   5.860
 4427SOL     OW14179   1.040   0.127   3.558
 4427SOL    HW114180   0.972   0.090   3.621
 4427SOL    HW214181   1.131   0.122   3.600
 4428SOL     OW14182   2.424   5.441   3.062
 4428SOL    HW114183   2.513   5.444   3.018
 4428SOL    HW214184   2.392   5.347   3.066
 4429SOL     OW14185   4.200   6.832   3.079
 4429SOL    HW114186   4.293   6.803   3.105
 4429SOL    HW214187   4.149   6.753   3.044
 4430SOL     OW14188   1.991   1.587   1.889
 4430SOL    HW114189   1.927   1.549   1.955
 4430SOL    HW214190   2.078   1.537   1.893
 4431SOL     OW14191   1.834   2.480   2.561
 4431SOL    HW114192   1.841   2.497   2.463
 4431SOL    HW214193   1.741   2.499   2.592
 4432SOL     OW14194   3.195   3.876   2.837
 4432SOL    HW114195   3.216   3.968   2.870
 4432SOL    HW214196   3.261   3.811   2.874
 4433SOL     OW14197   6.522   0.090   3.094
 4433SOL    HW114198   6.493   0.105   3.000
 4433SOL    HW214199   6.613   0.049   3.096
 4434SOL     OW14200   5.629   2.462   4.330
 4434SOL    HW114201   5.535   2.482   4.359
 4434SOL    HW214202   5.641   2.491   4.235
 4435SOL     OW14203   3.540   2.668   1.752
 4435SOL    HW114204   3.564   2.763   1.771
 4435SOL    HW214205   3.622   2.618   1.722
 4436SOL     OW14206   4.916   1.513   6.572
 4436SOL    HW114207   4.958   1.469   6.652
 4436SOL    HW214208   4.899   1.609   6.592
 4437SOL     OW14209   3.261   0.482   4.654
 4437SOL    HW114210   3.336   0.500   4.717
 4437SOL    HW214211   3.205   0.565   4.644
 4438SOL     OW14212   4.388   3.053   6.490
 4438SOL    HW114213   4.396   3.086   6.584
 4438SOL    HW214214   4.348   3.124   6.432
 4439SOL     OW14215   2.387   5.722   2.037
 4439SOL    HW114216   2.445   5.671   2.100
 4439SOL    HW214217   2.444   5.778   1.977
 4440SOL     OW14218   0.410   0.103   6.069
 4440SOL    HW114219   0.353   0.020   6.063
 4440SOL    HW214220   0.430   0.136   5.977
 4441SOL     OW14221   6.394   2.583   2.903
 4441SOL    HW114222   6.361   2.623   2.989
 4441SOL    HW214223   6.319   2.580   2.837
 4442SOL     OW14224   2.970   6.998   2.668
 4442SOL    HW114225   2.892   6.978   2.608
 4442SOL    HW214226   2.948   6.970   2.762
 4443SOL     OW14227   2.872   1.697   5.303
 4443SOL    HW114228   2.816   1.703   5.385
 4443SOL    HW214229   2.895   1.789   5.271
 4444SOL     OW14230   5.479   0.832   1.787
 4444SOL    HW114231   5.414   0.904   1.809
 4444SOL    HW214232   5.543   0.820   1.862
 4445SOL     OW14233   1.735   1.143   6.266
 4445SOL    HW114234   1.774   1.227   6.229
 4445SOL    HW214235   1.682   1.097   6.195
 4446SOL     OW14236   6.803   6.673   3.318
 4446SOL    HW114237   6.712   6.711   3.300
 4446SOL    HW214238   6.817   6.592   3.261
 4447SOL     OW14239   5.635   2.565   5.425
 4447SOL    HW114240   5.663   2.489   5.365
 4447SOL    HW214241   5.715   2.622   5.445
 4448SOL     OW14242   2.363   3.248   6.729
 4448SOL    HW114243   2.265   3.262   6.710
 4448SOL    HW214244   2.383   3.278   6.822
 4449SOL     OW14245   1.016   1.336   5.087
 4449SOL    HW114246   0.987   1.301   4.998
 4449SOL    HW214247   1.015   1.436   5.085
 4450SOL     OW14248   3.772   4.022   3.225
 4450SOL    HW114249   3.740   4.059   3.312
 4450SOL    HW214250   3.726   4.068   3.150
 4451SOL     OW14251   5.820   4.228   2.103
 4451SOL    HW114252   5.915   4.195   2.109
 4451SOL    HW214253   5.769   4.193   2.181
 4452SOL     OW14254   6.393   6.032   6.488
 4452SOL    HW114255   6.420   6.050   6.394
 4452SOL    HW214256   6.349   6.113   6.526
 4453SOL     OW14257   5.644   2.195   1.240
 4453SOL    HW114258   5.623   2.289   1.267
 4453SOL    HW214259   5.700   2.196   1.157
 4454SOL     OW14260   5.217   2.832   1.728
 4454SOL    HW114261   5.143   2.812   1.792
 4454SOL    HW214262   5.207   2.926   1.694
 4455SOL     OW14263   4.392   1.054   2.119
 4455SOL    HW114264   4.475   1.095   2.082
 4455SOL    HW214265   4.314   1.115   2.102
 4456SOL     OW14266   0.862   5.749   3.282
 4456SOL    HW114267   0.952   5.788   3.303
 4456SOL    HW214268   0.840   5.766   3.186
 4457SOL     OW14269   5.299   2.390   6.337
 4457SOL    HW114270   5.390   2.352   6.349
 4457SOL    HW214271   5.302   2.465   6.271
 4458SOL     OW14272   3.996   2.071   5.962
 4458SOL    HW114273   3.925   2.052   5.894
 4458SOL    HW214274   4.077   2.108   5.916
 4459SOL     OW14275   4.687   5.584   4.599
 4459SOL    HW114276   4.715   5.573   4.694
 4459SOL    HW214277   4.642   5.672   4.587
 4460SOL     OW14278   2.213   1.566   6.192
 4460SOL    HW114279   2.229   1.641   6.255
 4460SOL    HW214280   2.232   1.597   6.098
 4461SOL     OW14281   2.292   0.229   1.835
 4461SOL    HW114282   2.297   0.327   1.854
 4461SOL    HW214283   2.363   0.203   1.769
 4462SOL     OW14284   0.123   5.651   1.399
 4462SOL    HW114285   0.025   5.667   1.410
 4462SOL    HW214286   0.165   5.642   1.489
 4463SOL     OW14287   0.858   3.384   6.208
 4463SOL    HW114288   0.850   3.468   6.261
 4463SOL    HW214289   0.772   3.334   6.211
 4464SOL     OW14290   5.499   3.491   6.840
 4464SOL    HW114291   5.436   3.561   6.805
 4464SOL    HW214292   5.453   3.438   6.911
 4465SOL     OW14293   1.489   6.323   2.120
 4465SOL    HW114294   1.534   6.255   2.063
 4465SOL    HW214295   1.475   6.286   2.212
 4466SOL     OW14296   0.908   2.035   3.862
 4466SOL    HW114297   0.935   2.054   3.957
 4466SOL    HW214298   0.909   2.120   3.810
 4467SOL     OW14299   0.822   6.712   3.199
 4467SOL    HW114300   0.882   6.706   3.279
 4467SOL    HW214301   0.729   6.684   3.225
 4468SOL     OW14302   1.539   2.136   0.425
 4468SOL    HW114303   1.560   2.217   0.480
 4468SOL    HW214304   1.468   2.158   0.358
 4469SOL     OW14305   4.344   0.307   6.709
 4469SOL    HW114306   4.251   0.296   6.673
 4469SOL    HW214307   4.382   0.394   6.677
 4470SOL     OW14308   4.452   4.705   1.249
 4470SOL    HW114309   4.442   4.757   1.335
 4470SOL    HW214310   4.413   4.758   1.174
 4471SOL     OW14311   6.364   3.395   0.776
 4471SOL    HW114312   6.389   3.334   0.700
 4471SOL    HW214313   6.290   3.456   0.748
 4472SOL     OW14314   1.742   4.197   2.588
 4472SOL    HW114315   1.839   4.181   2.570
 4472SOL    HW214316   1.705   4.257   2.518
 4473SOL     OW14317   0.319   6.604   4.878
 4473SOL    HW114318   0.246   6.672   4.885
 4473SOL    HW214319   0.326   6.552   4.963
 4474SOL     OW14320   4.674   0.448   3.405
 4474SOL    HW114321   4.712   0.495   3.484
 4474SOL    HW214322   4.576   0.433   3.418
 4475SOL     OW14323   1.894   3.970   0.263
 4475SOL    HW114324   1.821   4.031   0.294
 4475SOL    HW214325   1.885   3.881   0.308
 4476SOL     OW14326   4.769   6.129   1.834
 4476SOL    HW114327   4.716   6.170   1.759
 4476SOL    HW214328   4.855   6.180   1.845
 4477SOL     OW14329   1.353   1.794   0.931
 4477SOL    HW114330   1.317   1.884   0.907
 4477SOL    HW214331   1.316   1.725   0.868
 4478SOL     OW14332   1.952   5.836   1.791
 4478SOL    HW114333   2.023   5.832   1.861
 4478SOL    HW214334   1.922   5.743   1.769
 4479SOL     OW14335   0.634   0.243   5.285
 4479SOL    HW114336   0.728   0.273   5.302
 4479SOL    HW214337   0.622   0.223   5.188
 4480SOL     OW14338   0.677   4.644   3.729
 4480SOL    HW114339   0.686   4.634   3.630
 4480SOL    HW214340   0.750   4.592   3.774
 4481SOL     OW14341   1.129   6.441   4.635
 4481SOL    HW114342   1.181   6.418   4.553
 4481SOL    HW214343   1.047   6.493   4.610
 4482SOL     OW14344   0.203   4.432   4.041
 4482SOL    HW114345   0.261   4.511   4.060
 4482SOL    HW214346   0.114   4.443   4.086
 4483SOL     OW14347   5.614   2.964   2.206
 4483SOL    HW114348   5.647   2.983   2.298
 4483SOL    HW214349   5.680   2.998   2.139
 4484SOL     OW14350   4.350   2.780   5.586
 4484SOL    HW114351   4.282   2.756   5.517
 4484SOL    HW214352   4.322   2.865   5.632
 4485SOL     OW14353   5.486   2.006   6.232
 4485SOL    HW114354   5.562   1.977   6.174
 4485SOL    HW214355   5.450   1.927   6.281
 4486SOL     OW14356   6.159   2.959   4.041
 4486SOL    HW114357   6.117   2.891   3.980
 4486SOL    HW214358   6.088   3.003   4.096
 4487SOL     OW14359   3.354   2.910   6.346
 4487SOL    HW114360   3.339   2.999   6.389
 4487SOL    HW214361   3.395   2.848   6.413
 4488SOL     OW14362   0.262   1.370   4.850
 4488SOL    HW114363   0.185   1.426   4.883
 4488SOL    HW214364   0.306   1.325   4.928
 4489SOL     OW14365   6.263   6.825   4.729
 4489SOL    HW114366   6.355   6.794   4.755
 4489SOL    HW214367   6.226   6.764   4.659
 4490SOL     OW14368   6.903   1.957   3.148
 4490SOL    HW114369   6.942   1.946   3.239
 4490SOL    HW214370   6.970   1.930   3.079
 4491SOL     OW14371   0.875   3.080   3.194
 4491SOL    HW114372   0.919   3.003   3.241
 4491SOL    HW214373   0.936   3.159   3.196
 4492SOL     OW14374   4.653   3.176   6.820
 4492SOL    HW114375   4.663   3.216   6.911
 4492SOL    HW214376   4.743   3.146   6.786
 4493SOL     OW14377   5.974   5.258   4.245
 4493SOL    HW114378   5.957   5.271   4.342
 4493SOL    HW214379   5.958   5.344   4.196
 4494SOL     OW14380   6.529   4.441   4.353
 4494SOL    HW114381   6.443   4.451   4.403
 4494SOL    HW214382   6.604   4.429   4.418
 4495SOL     OW14383   5.017   6.622   1.122
 4495SOL    HW114384   4.919   6.641   1.128
 4495SOL    HW214385   5.034   6.558   1.047
 4496SOL     OW14386   4.860   3.936   5.518
 4496SOL    HW114387   4.857   3.861   5.585
 4496SOL    HW214388   4.797   3.916   5.443
 4497SOL     OW14389   6.137   4.951   0.424
 4497SOL    HW114390   6.106   4.878   0.363
 4497SOL    HW214391   6.133   5.039   0.377
 4498SOL     OW14392   0.231   3.439   6.945
 4498SOL    HW114393   0.259   3.523   6.993
 4498SOL    HW214394   0.248   3.450   6.847
 4499SOL     OW14395   0.043   2.795   6.198
 4499SOL    HW114396   0.070   2.838   6.285
 4499SOL    HW214397   0.123   2.787   6.139
 4500SOL     OW14398   3.098   4.086   4.756
 4500SOL    HW114399   3.067   4.168   4.708
 4500SOL    HW214400   3.110   4.011   4.691
 4501SOL     OW14401   0.284   4.128   5.038
 4501SOL    HW114402   0.291   4.035   5.003
 4501SOL    HW214403   0.256   4.190   4.965
 4502SOL     OW14404   0.489   2.842   0.548
 4502SOL    HW114405   0.523   2.808   0.460
 4502SOL    HW214406   0.390   2.852   0.544
 4503SOL     OW14407   1.076   1.347   3.989
 4503SOL    HW114408   1.046   1.390   3.904
 4503SOL    HW214409   1.129   1.413   4.042
 4504SOL     OW14410   5.173   1.917   4.430
 4504SOL    HW114411   5.227   1.958   4.356
 4504SOL    HW214412   5.222   1.929   4.517
 4505SOL     OW14413   1.820   6.048   6.044
 4505SOL    HW114414   1.802   6.135   6.090
 4505SOL    HW214415   1.918   6.036   6.034
 4506SOL     OW14416   4.351   0.428   5.528
 4506SOL    HW114417   4.303   0.515   5.511
 4506SOL    HW214418   4.443   0.433   5.490
 4507SOL     OW14419   6.200   4.661   0.600
 4507SOL    HW114420   6.181   4.627   0.509
 4507SOL    HW214421   6.186   4.760   0.602
 4508SOL     OW14422   1.307   3.703   0.575
 4508SOL    HW114423   1.247   3.624   0.568
 4508SOL    HW214424   1.401   3.676   0.553
 4509SOL     OW14425   2.400   1.937   4.025
 4509SOL    HW114426   2.352   2.010   4.075
 4509SOL    HW214427   2.446   1.877   4.090
 4510SOL     OW14428   3.966   6.275   5.162
 4510SOL    HW114429   4.064   6.278   5.144
 4510SOL    HW214430   3.933   6.181   5.153
 4511SOL     OW14431   6.073   2.207   0.387
 4511SOL    HW114432   6.141   2.153   0.435
 4511SOL    HW214433   5.996   2.227   0.448
 4512SOL     OW14434   2.719   5.217   6.888
 4512SOL    HW114435   2.672   5.194   6.973
 4512SOL    HW214436   2.652   5.252   6.822
 4513SOL     OW14437   5.028   0.814   1.838
 4513SOL    HW114438   5.019   0.881   1.912
 4513SOL    HW214439   4.949   0.752   1.840
 4514SOL     OW14440   3.309   1.471   5.050
 4514SOL    HW114441   3.341   1.450   5.143
 4514SOL    HW214442   3.344   1.560   5.022
 4515SOL     OW14443   0.415   5.215   1.181
 4515SOL    HW114444   0.392   5.191   1.087
 4515SOL    HW214445   0.338   5.192   1.241
 4516SOL     OW14446   0.988   0.841   5.098
 4516SOL    HW114447   0.894   0.824   5.066
 4516SOL    HW214448   0.988   0.918   5.162
 4517SOL     OW14449   3.265   6.606   5.240
 4517SOL    HW114450   3.185   6.589   5.297
 4517SOL    HW214451   3.258   6.697   5.198
 4518SOL     OW14452   1.524   2.108   4.582
 4518SOL    HW114453   1.475   2.057   4.511
 4518SOL    HW214454   1.500   2.205   4.575
 4519SOL     OW14455   6.980   3.109   4.006
 4519SOL    HW114456   6.946   3.015   4.002
 4519SOL    HW214457   6.907   3.172   3.978
 4520SOL     OW14458   6.935   3.892   3.054
 4520SOL    HW114459   6.861   3.952   3.084
 4520SOL    HW214460   6.979   3.931   2.973
 4521SOL     OW14461   5.701   2.050   6.831
 4521SOL    HW114462   5.602   2.061   6.845
 4521SOL    HW214463   5.732   2.116   6.762
 4522SOL     OW14464   6.070   0.405   3.940
 4522SOL    HW114465   6.051   0.446   3.851
 4522SOL    HW214466   6.146   0.453   3.984
 4523SOL     OW14467   3.786   3.654   0.478
 4523SOL    HW114468   3.878   3.628   0.449
 4523SOL    HW214469   3.736   3.572   0.505
 4524SOL     OW14470   5.754   0.201   4.618
 4524SOL    HW114471   5.818   0.267   4.577
 4524SOL    HW214472   5.804   0.142   4.682
 4525SOL     OW14473   6.454   1.490   5.384
 4525SOL    HW114474   6.368   1.496   5.435
 4525SOL    HW214475   6.437   1.511   5.287
 4526SOL     OW14476   4.985   7.021   0.992
 4526SOL    HW114477   4.988   0.058   1.071
 4526SOL    HW214478   5.075   6.979   0.979
 4527SOL     OW14479   4.955   0.750   2.699
 4527SOL    HW114480   4.997   0.841   2.695
 4527SOL    HW214481   4.865   0.757   2.740
 4528SOL     OW14482   5.889   7.018   0.024
 4528SOL    HW114483   5.854   0.087   0.010
 4528SOL    HW214484   5.855   6.959   6.974
 4529SOL     OW14485   3.768   6.316   3.078
 4529SOL    HW114486   3.756   6.406   3.119
 4529SOL    HW214487   3.681   6.268   3.077
 4530SOL     OW14488   0.455   3.257   5.632
 4530SOL    HW114489   0.392   3.240   5.556
 4530SOL    HW214490   0.538   3.300   5.597
 4531SOL     OW14491   0.103   3.909   4.070
 4531SOL    HW114492   0.151   3.985   4.113
 4531SOL    HW214493   0.057   3.855   4.141
 4532SOL     OW14494   5.833   1.458   0.513
 4532SOL    HW114495   5.824   1.526   0.440
 4532SOL    HW214496   5.887   1.497   0.588
 4533SOL     OW14497   2.559   5.972   2.492
 4533SOL    HW114498   2.476   6.024   2.510
 4533SOL    HW214499   2.639   6.025   2.519
 4534SOL     OW14500   5.932   3.873   5.177
 4534SOL    HW114501   6.027   3.877   5.145
 4534SOL    HW214502   5.880   3.948   5.137
 4535SOL     OW14503   4.970   2.877   1.941
 4535SOL    HW114504   5.031   2.950   1.972
 4535SOL    HW214505   4.875   2.910   1.946
 4536SOL     OW14506   6.459   0.920   4.872
 4536SOL    HW114507   6.477   0.822   4.867
 4536SOL    HW214508   6.382   0.943   4.813
 4537SOL     OW14509   3.570   2.656   6.312
 4537SOL    HW114510   3.540   2.670   6.407
 4537SOL    HW214511   3.507   2.705   6.250
 4538SOL     OW14512   2.936   1.269   3.099
 4538SOL    HW114513   2.862   1.214   3.061
 4538SOL    HW214514   2.909   1.303   3.189
 4539SOL     OW14515   1.996   1.535   2.764
 4539SOL    HW114516   2.072   1.497   2.816
 4539SOL    HW214517   1.959   1.615   2.812
 4540SOL     OW14518   3.468   3.082   4.080
 4540SOL    HW114519   3.388   3.043   4.125
 4540SOL    HW214520   3.529   3.122   4.149
 4541SOL     OW14521   4.821   1.727   1.630
 4541SOL    HW114522   4.866   1.640   1.654
 4541SOL    HW214523   4.733   1.732   1.676
 4542SOL     OW14524   4.966   0.308   2.599
 4542SOL    HW114525   4.967   0.349   2.691
 4542SOL    HW214526   4.872   0.288   2.573
 4543SOL     OW14527   5.595   1.490   1.184
 4543SOL    HW114528   5.675   1.455   1.231
 4543SOL    HW214529   5.566   1.576   1.226
 4544SOL     OW14530   3.671   4.839   6.477
 4544SOL    HW114531   3.650   4.937   6.476
 4544SOL    HW214532   3.655   4.800   6.386
 4545SOL     OW14533   3.873   1.984   5.379
 4545SOL    HW114534   3.834   1.897   5.350
 4545SOL    HW214535   3.955   1.968   5.433
 4546SOL     OW14536   1.361   6.381   6.688
 4546SOL    HW114537   1.452   6.371   6.729
 4546SOL    HW214538   1.371   6.409   6.592
 4547SOL     OW14539   4.948   2.040   2.348
 4547SOL    HW114540   4.982   1.953   2.383
 4547SOL    HW214541   4.853   2.030   2.319
 4548SOL     OW14542   1.229   3.960   3.712
 4548SOL    HW114543   1.311   3.957   3.654
 4548SOL    HW214544   1.154   4.002   3.661
 4549SOL     OW14545   6.692   2.993   2.789
 4549SOL    HW114546   6.786   2.979   2.757
 4549SOL    HW214547   6.634   2.922   2.750
 4550SOL     OW14548   1.372   6.148   4.284
 4550SOL    HW114549   1.347   6.073   4.223
 4550SOL    HW214550   1.449   6.198   4.245
 4551SOL     OW14551   0.668   2.876   5.439
 4551SOL    HW114552   0.641   2.820   5.517
 4551SOL    HW214553   0.707   2.817   5.368
 4552SOL     OW14554   0.210   3.473   4.871
 4552SOL    HW114555   0.245   3.404   4.934
 4552SOL    HW214556   0.239   3.450   4.777
 4553SOL     OW14557   4.928   4.484   0.527
 4553SOL    HW114558   4.994   4.424   0.480
 4553SOL    HW214559   4.956   4.579   0.516
 4554SOL     OW14560   5.385   6.947   2.407
 4554SOL    HW114561   5.363   6.971   2.313
 4554SOL    HW214562   5.403   0.006   2.459
 4555SOL     OW14563   5.018   2.372   6.735
 4555SOL    HW114564   5.104   2.373   6.684
 4555SOL    HW214565   5.020   2.298   6.802
 4556SOL     OW14566   4.629   1.261   3.667
 4556SOL    HW114567   4.545   1.296   3.625
 4556SOL    HW214568   4.707   1.286   3.610
 4557SOL     OW14569   5.307   6.755   6.031
 4557SOL    HW114570   5.249   6.701   5.971
 4557SOL    HW214571   5.304   6.851   6.004
 4558SOL     OW14572   6.377   3.207   6.560
 4558SOL    HW114573   6.293   3.238   6.605
 4558SOL    HW214574   6.370   3.222   6.461
 4559SOL     OW14575   1.067   6.701   1.188
 4559SOL    HW114576   1.096   6.625   1.247
 4559SOL    HW214577   0.986   6.674   1.136
 4560SOL     OW14578   4.917   3.501   3.033
 4560SOL    HW114579   4.930   3.403   3.016
 4560SOL    HW214580   4.957   3.553   2.958
 4561SOL     OW14581   3.332   0.432   6.562
 4561SOL    HW114582   3.235   0.446   6.545
 4561SOL    HW214583   3.348   0.424   6.660
 4562SOL     OW14584   2.632   4.929   6.481
 4562SOL    HW114585   2.672   4.839   6.496
 4562SOL    HW214586   2.684   4.978   6.411
 4563SOL     OW14587   6.049   2.356   7.009
 4563SOL    HW114588   6.042   2.256   7.007
 4563SOL    HW214589   6.091   2.388   6.925
 4564SOL     OW14590   1.599   5.798   0.120
 4564SOL    HW114591   1.565   5.840   0.203
 4564SOL    HW214592   1.695   5.772   0.133
 4565SOL     OW14593   2.096   0.548   5.532
 4565SOL    HW114594   2.020   0.486   5.513
 4565SOL    HW214595   2.146   0.566   5.447
 4566SOL     OW14596   6.868   1.499   6.988
 4566SOL    HW114597   6.869   1.572   0.033
 4566SOL    HW214598   6.949   1.441   6.999
 4567SOL     OW14599   6.803   1.088   1.145
 4567SOL    HW114600   6.710   1.070   1.111
 4567SOL    HW214601   6.845   1.159   1.088
 4568SOL     OW14602   3.722   4.403   5.742
 4568SOL    HW114603   3.653   4.333   5.757
 4568SOL    HW214604   3.681   4.493   5.759
 4569SOL     OW14605   0.419   1.945   4.377
 4569SOL    HW114606   0.496   1.928   4.438
 4569SOL    HW214607   0.423   2.039   4.344
 4570SOL     OW14608   0.351   5.320   4.008
 4570SOL    HW114609   0.407   5.239   3.991
 4570SOL    HW214610   0.405   5.387   4.059
 4571SOL     OW14611   3.782   2.887   4.896
 4571SOL    HW114612   3.839   2.806   4.881
 4571SOL    HW214613   3.747   2.886   4.990
 4572SOL     OW14614   1.777   6.889   1.633
 4572SOL    HW114615   1.707   6.826   1.665
 4572SOL    HW214616   1.764   6.907   1.536
 4573SOL     OW14617   5.181   6.947   0.797
 4573SOL    HW114618   5.156   7.003   0.718
 4573SOL    HW214619   5.265   6.896   0.776
 4574SOL     OW14620   0.244   4.667   1.948
 4574SOL    HW114621   0.240   4.718   1.862
 4574SOL    HW214622   0.339   4.661   1.979
 4575SOL     OW14623   6.244   0.311   2.769
 4575SOL    HW114624   6.227   0.222   2.726
 4575SOL    HW214625   6.253   0.381   2.698
 4576SOL     OW14626   3.246   5.582   6.135
 4576SOL    HW114627   3.302   5.569   6.053
 4576SOL    HW214628   3.174   5.512   6.137
 4577SOL     OW14629   0.900   2.921   3.920
 4577SOL    HW114630   0.960   2.915   3.840
 4577SOL    HW214631   0.805   2.932   3.891
 4578SOL     OW14632   6.779   4.272   4.182
 4578SOL    HW114633   6.712   4.248   4.111
 4578SOL    HW214634   6.784   4.198   4.249
 4579SOL     OW14635   5.870   2.356   3.710
 4579SOL    HW114636   5.829   2.375   3.621
 4579SOL    HW214637   5.965   2.327   3.698
 4580SOL     OW14638   6.934   5.772   0.682
 4580SOL    HW114639   6.960   5.734   0.593
 4580SOL    HW214640   6.877   5.853   0.668
 4581SOL     OW14641   3.089   5.542   2.661
 4581SOL    HW114642   3.059   5.631   2.629
 4581SOL    HW214643   3.052   5.524   2.752
 4582SOL     OW14644   4.938   6.483   2.598
 4582SOL    HW114645   4.950   6.434   2.512
 4582SOL    HW214646   4.843   6.473   2.628
 4583SOL     OW14647   4.109   1.710   5.574
 4583SOL    HW114648   4.110   1.749   5.666
 4583SOL    HW214649   4.062   1.622   5.576
 4584SOL     OW14650   0.547   5.789   5.532
 4584SOL    HW114651   0.621   5.807   5.597
 4584SOL    HW214652   0.561   5.700   5.489
 4585SOL     OW14653   3.536   6.141   2.804
 4585SOL    HW114654   3.459   6.165   2.745
 4585SOL    HW214655   3.621   6.147   2.752
 4586SOL     OW14656   3.352   5.310   2.335
 4586SOL    HW114657   3.270   5.344   2.383
 4586SOL    HW214658   3.326   5.235   2.274
 4587SOL     OW14659   2.346   3.843   1.320
 4587SOL    HW114660   2.362   3.779   1.245
 4587SOL    HW214661   2.401   3.816   1.399
 4588SOL     OW14662   4.257   3.599   5.167
 4588SOL    HW114663   4.308   3.615   5.082
 4588SOL    HW214664   4.184   3.534   5.150
 4589SOL     OW14665   6.651   2.290   4.735
 4589SOL    HW114666   6.664   2.366   4.672
 4589SOL    HW214667   6.553   2.272   4.747
 4590SOL     OW14668   4.562   5.316   2.344
 4590SOL    HW114669   4.629   5.382   2.312
 4590SOL    HW214670   4.541   5.251   2.271
 4591SOL     OW14671   5.537   6.372   5.350
 4591SOL    HW114672   5.608   6.410   5.410
 4591SOL    HW214673   5.514   6.280   5.380
 4592SOL     OW14674   3.968   2.323   6.556
 4592SOL    HW114675   3.920   2.290   6.475
 4592SOL    HW214676   3.962   2.423   6.560
 4593SOL     OW14677   4.103   6.525   2.169
 4593SOL    HW114678   4.095   6.431   2.202
 4593SOL    HW214679   4.060   6.587   2.236
 4594SOL     OW14680   2.709   1.387   1.882
 4594SOL    HW114681   2.739   1.299   1.845
 4594SOL    HW214682   2.737   1.394   1.978
 4595SOL     OW14683   3.894   2.882   6.127
 4595SOL    HW114684   3.826   2.831   6.073
 4595SOL    HW214685   3.937   2.820   6.192
 4596SOL     OW14686   5.583   0.116   1.849
 4596SOL    HW114687   5.498   0.169   1.844
 4596SOL    HW214688   5.628   0.132   1.937
 4597SOL     OW14689   5.940   4.525   6.822
 4597SOL    HW114690   5.844   4.498   6.822
 4597SOL    HW214691   5.955   4.594   6.893
 4598SOL     OW14692   2.732   4.514   6.869
 4598SOL    HW114693   2.804   4.573   6.834
 4598SOL    HW214694   2.643   4.553   6.846
 4599SOL     OW14695   1.870   4.806   0.559
 4599SOL    HW114696   1.835   4.792   0.466
 4599SOL    HW214697   1.884   4.904   0.574
 4600SOL     OW14698   3.223   5.637   1.122
 4600SOL    HW114699   3.287   5.640   1.199
 4600SOL    HW214700   3.211   5.729   1.085
 4601SOL     OW14701   1.975   6.563   5.240
 4601SOL    HW114702   1.915   6.635   5.274
 4601SOL    HW214703   2.021   6.595   5.157
 4602SOL     OW14704   2.176   0.862   1.821
 4602SOL    HW114705   2.266   0.818   1.807
 4602SOL    HW214706   2.115   0.834   1.747
 4603SOL     OW14707   3.449   0.002   1.296
 4603SOL    HW114708   3.406   6.961   1.359
 4603SOL    HW214709   3.399   0.088   1.296
 4604SOL     OW14710   3.704   6.895   1.951
 4604SOL    HW114711   3.676   6.905   2.047
 4604SOL    HW214712   3.803   6.901   1.945
 4605SOL     OW14713   5.152   6.726   4.701
 4605SOL    HW114714   5.143   6.653   4.632
 4605SOL    HW214715   5.073   6.786   4.696
 4606SOL     OW14716   7.002   6.218   5.865
 4606SOL    HW114717   0.006   6.122   5.875
 4606SOL    HW214718   7.017   6.266   5.952
 4607SOL     OW14719   3.192   2.151   1.558
 4607SOL    HW114720   3.198   2.249   1.577
 4607SOL    HW214721   3.150   2.104   1.636
 4608SOL     OW14722   1.609   3.983   5.297
 4608SOL    HW114723   1.687   3.992   5.359
 4608SOL    HW214724   1.531   4.034   5.334
 4609SOL     OW14725   4.345   6.544   6.821
 4609SOL    HW114726   4.395   6.509   6.900
 4609SOL    HW214727   4.389   6.629   6.789
 4610SOL     OW14728   0.444   3.186   6.730
 4610SOL    HW114729   0.356   3.140   6.726
 4610SOL    HW214730   0.467   3.223   6.640
 4611SOL     OW14731   0.698   4.296   0.507
 4611SOL    HW114732   0.708   4.198   0.523
 4611SOL    HW214733   0.694   4.345   0.594
 4612SOL     OW14734   2.199   6.669   6.800
 4612SOL    HW114735   2.256   6.675   6.718
 4612SOL    HW214736   2.257   6.651   6.879
 4613SOL     OW14737   3.101   5.376   2.455
 4613SOL    HW114738   3.036   5.411   2.387
 4613SOL    HW214739   3.106   5.440   2.532
 4614SOL     OW14740   1.502   5.525   0.156
 4614SOL    HW114741   1.545   5.450   0.106
 4614SOL    HW214742   1.540   5.612   0.125
 4615SOL     OW14743   0.462   2.588   0.692
 4615SOL    HW114744   0.544   2.531   0.682
 4615SOL    HW214745   0.480   2.679   0.655
 4616SOL     OW14746   5.081   0.796   6.759
 4616SOL    HW114747   5.090   0.766   6.664
 4616SOL    HW214748   5.110   0.722   6.819
 4617SOL     OW14749   0.116   2.563   2.090
 4617SOL    HW114750   0.093   2.618   2.010
 4617SOL    HW214751   0.204   2.518   2.076
 4618SOL     OW14752   0.868   2.414   6.147
 4618SOL    HW114753   0.813   2.479   6.200
 4618SOL    HW214754   0.899   2.340   6.206
 4619SOL     OW14755   3.439   0.903   3.646
 4619SOL    HW114756   3.406   0.991   3.613
 4619SOL    HW214757   3.370   0.862   3.706
 4620SOL     OW14758   2.472   4.344   6.535
 4620SOL    HW114759   2.392   4.395   6.567
 4620SOL    HW214760   2.521   4.398   6.467
 4621SOL     OW14761   0.330   6.217   6.053
 4621SOL    HW114762   0.419   6.251   6.082
 4621SOL    HW214763   0.260   6.244   6.118
 4622SOL     OW14764   1.906   3.899   1.152
 4622SOL    HW114765   1.926   3.938   1.063
 4622SOL    HW214766   1.972   3.934   1.219
 4623SOL     OW14767   6.161   5.001   1.911
 4623SOL    HW114768   6.255   4.970   1.920
 4623SOL    HW214769   6.160   5.100   1.895
 4624SOL     OW14770   4.929   6.886   4.749
 4624SOL    HW114771   4.892   6.914   4.838
 4624SOL    HW214772   4.873   6.926   4.677
 4625SOL     OW14773   0.693   3.763   6.780
 4625SOL    HW114774   0.785   3.794   6.801
 4625SOL    HW214775   0.673   3.781   6.683
 4626SOL     OW14776   6.760   5.461   1.272
 4626SOL    HW114777   6.758   5.407   1.356
 4626SOL    HW214778   6.722   5.552   1.290
 4627SOL     OW14779   3.112   6.245   5.967
 4627SOL    HW114780   3.204   6.283   5.959
 4627SOL    HW214781   3.052   6.290   5.901
 4628SOL     OW14782   0.158   4.158   2.079
 4628SOL    HW114783   0.149   4.227   2.007
 4628SOL    HW214784   0.230   4.185   2.143
 4629SOL     OW14785   2.281   4.635   5.635
 4629SOL    HW114786   2.270   4.558   5.573
 4629SOL    HW214787   2.371   4.631   5.678
 4630SOL     OW14788   1.812   6.457   2.646
 4630SOL    HW114789   1.774   6.370   2.678
 4630SOL    HW214790   1.847   6.509   2.724
 4631SOL     OW14791   3.110   6.761   2.425
 4631SOL    HW114792   3.164   6.832   2.470
 4631SOL    HW214793   3.107   6.779   2.327
 4632SOL     OW14794   5.401   5.753   3.958
 4632SOL    HW114795   5.388   5.699   3.874
 4632SOL    HW214796   5.338   5.831   3.957
 4633SOL     OW14797   6.421   2.203   4.858
 4633SOL    HW114798   6.461   2.149   4.932
 4633SOL    HW214799   6.344   2.256   4.894
 4634SOL     OW14800   3.258   4.329   0.583
 4634SOL    HW114801   3.187   4.286   0.638
 4634SOL    HW214802   3.325   4.372   0.643
 4635SOL     OW14803   5.517   3.915   1.668
 4635SOL    HW114804   5.546   3.821   1.686
 4635SOL    HW214805   5.455   3.915   1.589
 4636SOL     OW14806   2.439   5.492   0.470
 4636SOL    HW114807   2.474   5.545   0.548
 4636SOL    HW214808   2.506   5.422   0.446
 4637SOL     OW14809   1.481   1.441   5.077
 4637SOL    HW114810   1.485   1.373   5.004
 4637SOL    HW214811   1.568   1.442   5.127
 4638SOL     OW14812   5.334   3.140   5.378
 4638SOL    HW114813   5.313   3.104   5.288
 4638SOL    HW214814   5.309   3.237   5.382
 4639SOL     OW14815   6.966   3.637   5.404
 4639SOL    HW114816   0.001   3.716   5.383
 4639SOL    HW214817   7.022   3.559   5.429
 4640SOL     OW14818   5.528   3.993   2.718
 4640SOL    HW114819   5.572   3.975   2.630
 4640SOL    HW214820   5.558   4.081   2.754
 4641SOL     OW14821   2.146   5.388   5.082
 4641SOL    HW114822   2.159   5.292   5.105
 4641SOL    HW214823   2.230   5.439   5.101
 4642SOL     OW14824   5.737   6.288   4.459
 4642SOL    HW114825   5.722   6.386   4.444
 4642SOL    HW214826   5.684   6.258   4.538
 4643SOL     OW14827   4.113   2.162   1.837
 4643SOL    HW114828   4.138   2.241   1.893
 4643SOL    HW214829   4.134   2.180   1.742
 4644SOL     OW14830   2.408   5.819   5.303
 4644SOL    HW114831   2.492   5.833   5.251
 4644SOL    HW214832   2.429   5.772   5.389
 4645SOL     OW14833   2.025   5.878   4.616
 4645SOL    HW114834   2.123   5.871   4.633
 4645SOL    HW214835   1.976   5.812   4.674
 4646SOL     OW14836   4.139   0.529   1.736
 4646SOL    HW114837   4.217   0.513   1.797
 4646SOL    HW214838   4.056   0.490   1.776
 4647SOL     OW14839   6.459   0.316   4.351
 4647SOL    HW114840   6.515   0.242   4.315
 4647SOL    HW214841   6.388   0.278   4.410
 4648SOL     OW14842   2.347   6.085   3.072
 4648SOL    HW114843   2.408   6.075   3.151
 4648SOL    HW214844   2.272   6.146   3.095
 4649SOL     OW14845   5.157   0.456   5.921
 4649SOL    HW114846   5.058   0.471   5.915
 4649SOL    HW214847   5.198   0.531   5.973
 4650SOL     OW14848   6.613   4.562   2.128
 4650SOL    HW114849   6.551   4.604   2.195
 4650SOL    HW214850   6.566   4.486   2.082
 4651SOL     OW14851   0.245   2.275   1.959
 4651SOL    HW114852   0.213   2.223   2.039
 4651SOL    HW214853   0.301   2.351   1.989
 4652SOL     OW14854   6.854   6.216   6.135
 4652SOL    HW114855   6.898   6.130   6.108
 4652SOL    HW214856   6.786   6.241   6.065
 4653SOL     OW14857   0.593   6.060   6.936
 4653SOL    HW114858   0.503   6.028   6.964
 4653SOL    HW214859   0.599   6.159   6.948
 4654SOL     OW14860   1.226   1.089   0.058
 4654SOL    HW114861   1.323   1.075   0.080
 4654SOL    HW214862   1.212   1.182   0.026
 4655SOL     OW14863   6.845   4.737   3.390
 4655SOL    HW114864   6.795   4.780   3.315
 4655SOL    HW214865   6.931   4.701   3.356
 4656SOL     OW14866   2.224   6.691   3.413
 4656SOL    HW114867   2.261   6.599   3.396
 4656SOL    HW214868   2.265   6.756   3.349
 4657SOL     OW14869   5.367   0.237   0.380
 4657SOL    HW114870   5.364   0.243   0.281
 4657SOL    HW214871   5.437   0.171   0.408
 4658SOL     OW14872   5.473   0.624   3.336
 4658SOL    HW114873   5.440   0.566   3.411
 4658SOL    HW214874   5.573   0.623   3.334
 4659SOL     OW14875   1.518   2.623   5.036
 4659SOL    HW114876   1.476   2.610   4.946
 4659SOL    HW214877   1.601   2.678   5.027
 4660SOL     OW14878   0.199   0.343   5.906
 4660SOL    HW114879   0.202   0.415   5.976
 4660SOL    HW214880   0.293   0.316   5.882
 4661SOL     OW14881   3.903   4.000   4.364
 4661SOL    HW114882   3.871   4.075   4.305
 4661SOL    HW214883   3.840   3.990   4.441
 4662SOL     OW14884   4.974   0.353   5.011
 4662SOL    HW114885   4.887   0.307   4.993
 4662SOL    HW214886   5.030   0.295   5.071
 4663SOL     OW14887   0.180   2.066   2.885
 4663SOL    HW114888   0.179   2.153   2.934
 4663SOL    HW214889   0.266   2.058   2.834
 4664SOL     OW14890   2.953   2.219   6.740
 4664SOL    HW114891   2.872   2.242   6.794
 4664SOL    HW214892   2.991   2.302   6.700
 4665SOL     OW14893   5.287   0.580   0.193
 4665SOL    HW114894   5.344   0.585   0.275
 4665SOL    HW214895   5.342   0.605   0.113
 4666SOL     OW14896   2.140   1.371   0.688
 4666SOL    HW114897   2.086   1.414   0.616
 4666SOL    HW214898   2.084   1.304   0.737
 4667SOL     OW14899   0.297   5.310   6.016
 4667SOL    HW114900   0.326   5.393   5.969
 4667SOL    HW214901   0.363   5.289   6.089
 4668SOL     OW14902   6.809   1.742   4.179
 4668SOL    HW114903   6.798   1.696   4.091
 4668SOL    HW214904   6.906   1.754   4.199
 4669SOL     OW14905   1.652   0.221   0.419
 4669SOL    HW114906   1.722   0.286   0.450
 4669SOL    HW214907   1.667   0.132   0.461
 4670SOL     OW14908   2.306   1.709   3.935
 4670SOL    HW114909   2.243   1.656   3.990
 4670SOL    HW214910   2.330   1.793   3.983
 4671SOL     OW14911   6.057   3.486   1.041
 4671SOL    HW114912   6.022   3.531   1.123
 4671SOL    HW214913   5.982   3.438   0.994
 4672SOL     OW14914   1.833   3.696   5.998
 4672SOL    HW114915   1.735   3.711   5.991
 4672SOL    HW214916   1.857   3.669   6.091
 4673SOL     OW14917   4.062   0.893   2.779
 4673SOL    HW114918   4.114   0.847   2.708
 4673SOL    HW214919   3.964   0.890   2.758
 4674SOL     OW14920   4.394   5.815   6.298
 4674SOL    HW114921   4.429   5.879   6.230
 4674SOL    HW214922   4.466   5.749   6.321
 4675SOL     OW14923   0.692   4.246   0.062
 4675SOL    HW114924   0.601   4.286   0.054
 4675SOL    HW214925   0.690   4.151   0.032
 4676SOL     OW14926   0.933   5.943   4.031
 4676SOL    HW114927   0.851   5.886   4.026
 4676SOL    HW214928   1.012   5.885   4.053
 4677SOL     OW14929   1.626   2.901   0.162
 4677SOL    HW114930   1.709   2.956   0.154
 4677SOL    HW214931   1.607   2.883   0.258
 4678SOL     OW14932   2.512   5.019   2.529
 4678SOL    HW114933   2.534   4.927   2.498
 4678SOL    HW214934   2.596   5.067   2.555
 4679SOL     OW14935   5.200   0.108   1.962
 4679SOL    HW114936   5.125   0.056   1.923
 4679SOL    HW214937   5.213   0.192   1.911
 4680SOL     OW14938   2.253   1.251   1.617
 4680SOL    HW114939   2.280   1.261   1.521
 4680SOL    HW214940   2.331   1.218   1.670
 4681SOL     OW14941   5.385   4.569   1.184
 4681SOL    HW114942   5.356   4.535   1.274
 4681SOL    HW214943   5.474   4.529   1.161
 4682SOL     OW14944   4.007   3.431   6.958
 4682SOL    HW114945   4.043   3.386   0.016
 4682SOL    HW214946   4.075   3.495   6.922
 4683SOL     OW14947   6.294   4.381   3.236
 4683SOL    HW114948   6.353   4.382   3.316
 4683SOL    HW214949   6.209   4.430   3.256
 4684SOL     OW14950   4.914   6.436   6.961
 4684SOL    HW114951   4.876   6.484   6.882
 4684SOL    HW214952   4.952   6.503   0.001
 4685SOL     OW14953   2.589   3.221   5.929
 4685SOL    HW114954   2.604   3.319   5.934
 4685SOL    HW214955   2.602   3.190   5.834
 4686SOL     OW14956   2.803   5.671   0.180
 4686SOL    HW114957   2.751   5.586   0.182
 4686SOL    HW214958   2.773   5.726   0.102
 4687SOL     OW14959   3.310   0.603   2.806
 4687SOL    HW114960   3.303   0.703   2.804
 4687SOL    HW214961   3.300   0.567   2.714
 4688SOL     OW14962   6.052   3.218   5.538
 4688SOL    HW114963   6.136   3.167   5.554
 4688SOL    HW214964   6.041   3.235   5.440
 4689SOL     OW14965   5.997   1.278   1.434
 4689SOL    HW114966   6.060   1.335   1.381
 4689SOL    HW214967   6.037   1.260   1.524
 4690SOL     OW14968   2.930   1.734   0.190
 4690SOL    HW114969   2.911   1.647   0.235
 4690SOL    HW214970   2.862   1.802   0.218
 4691SOL     OW14971   6.996   4.278   1.795
 4691SOL    HW114972   6.989   4.212   1.870
 4691SOL    HW214973   7.018   4.368   1.833
 4692SOL     OW14974   5.778   3.869   2.825
 4692SOL    HW114975   5.877   3.860   2.813
 4692SOL    HW214976   5.732   3.851   2.738
 4693SOL     OW14977   2.098   0.513   3.692
 4693SOL    HW114978   2.019   0.482   3.639
 4693SOL    HW214979   2.068   0.575   3.764
 4694SOL     OW14980   2.102   1.717   6.958
 4694SOL    HW114981   2.094   1.683   6.864
 4694SOL    HW214982   2.087   1.815   6.959
 4695SOL     OW14983   0.858   6.298   1.767
 4695SOL    HW114984   0.936   6.343   1.810
 4695SOL    HW214985   0.796   6.367   1.728
 4696SOL     OW14986   1.296   5.061   5.925
 4696SOL    HW114987   1.199   5.047   5.946
 4696SOL    HW214988   1.313   5.158   5.908
 4697SOL     OW14989   3.333   5.025   0.652
 4697SOL    HW114990   3.355   4.934   0.618
 4697SOL    HW214991   3.271   5.071   0.588
 4698SOL     OW14992   5.687   1.209   3.132
 4698SOL    HW114993   5.753   1.197   3.057
 4698SOL    HW214994   5.664   1.120   3.171
 4699SOL     OW14995   1.141   7.000   2.755
 4699SOL    HW114996   1.056   0.014   2.718
 4699SOL    HW214997   1.166   6.917   2.705
 4700SOL     OW14998   5.790   2.199   3.077
 4700SOL    HW114999   5.712   2.251   3.110
 4700SOL    HW215000   5.761   2.136   3.005
 4701SOL     OW15001   3.517   1.707   1.901
 4701SOL    HW115002   3.552   1.794   1.936
 4701SOL    HW215003   3.443   1.675   1.960
 4702SOL     OW15004   5.379   4.734   6.707
 4702SOL    HW115005   5.357   4.759   6.802
 4702SOL    HW215006   5.304   4.760   6.647
 4703SOL     OW15007   1.103   5.201   3.390
 4703SOL    HW115008   1.032   5.144   3.431
 4703SOL    HW215009   1.095   5.294   3.425
 4704SOL     OW15010   0.887   4.981   5.379
 4704SOL    HW115011   0.844   4.959   5.291
 4704SOL    HW215012   0.914   4.897   5.425
 4705SOL     OW15013   3.235   2.394   1.697
 4705SOL    HW115014   3.228   2.483   1.740
 4705SOL    HW215015   3.331   2.367   1.691
 4706SOL     OW15016   1.755   0.666   0.234
 4706SOL    HW115017   1.797   0.757   0.231
 4706SOL    HW215018   1.717   0.645   0.144
 4707SOL     OW15019   1.796   6.583   1.134
 4707SOL    HW115020   1.753   6.495   1.155
 4707SOL    HW215021   1.759   6.653   1.194
 4708SOL     OW15022   0.406   3.145   4.235
 4708SOL    HW115023   0.314   3.125   4.267
 4708SOL    HW215024   0.427   3.241   4.251
 4709SOL     OW15025   4.667   3.887   5.282
 4709SOL    HW115026   4.712   3.943   5.212
 4709SOL    HW215027   4.674   3.791   5.257
 4710SOL     OW15028   5.992   6.545   4.339
 4710SOL    HW115029   6.017   6.450   4.358
 4710SOL    HW215030   5.918   6.573   4.399
 4711SOL     OW15031   5.873   3.089   3.154
 4711SOL    HW115032   5.940   3.164   3.157
 4711SOL    HW215033   5.786   3.121   3.191
 4712SOL     OW15034   4.657   4.198   5.207
 4712SOL    HW115035   4.599   4.159   5.279
 4712SOL    HW215036   4.716   4.127   5.169
 4713SOL     OW15037   5.776   4.272   1.407
 4713SOL    HW115038   5.721   4.195   1.375
 4713SOL    HW215039   5.867   4.268   1.365
 4714SOL     OW15040   5.746   1.078   5.999
 4714SOL    HW115041   5.843   1.103   6.001
 4714SOL    HW215042   5.703   1.119   5.919
 4715SOL     OW15043   6.308   1.317   1.695
 4715SOL    HW115044   6.215   1.281   1.692
 4715SOL    HW215045   6.374   1.242   1.685
 4716SOL     OW15046   3.808   4.015   5.881
 4716SOL    HW115047   3.727   4.039   5.827
 4716SOL    HW215048   3.877   4.087   5.872
 4717SOL     OW15049   2.788   5.275   5.132
 4717SOL    HW115050   2.862   5.334   5.100
 4717SOL    HW215051   2.778   5.198   5.069
 4718SOL     OW15052   4.807   4.339   0.746
 4718SOL    HW115053   4.819   4.400   0.668
 4718SOL    HW215054   4.886   4.278   0.753
 4719SOL     OW15055   6.937   3.825   3.714
 4719SOL    HW115056   0.010   3.848   3.707
 4719SOL    HW215057   6.882   3.908   3.714
 4720SOL     OW15058   2.926   4.062   6.714
 4720SOL    HW115059   2.859   4.129   6.681
 4720SOL    HW215060   2.886   4.007   6.787
 4721SOL     OW15061   6.550   3.522   2.893
 4721SOL    HW115062   6.487   3.554   2.822
 4721SOL    HW215063   6.513   3.441   2.937
 4722SOL     OW15064   1.634   4.875   6.868
 4722SOL    HW115065   1.686   4.834   6.793
 4722SOL    HW215066   1.645   4.820   6.951
 4723SOL     OW15067   3.795   3.825   6.826
 4723SOL    HW115068   3.768   3.914   6.864
 4723SOL    HW215069   3.775   3.824   6.728
 4724SOL     OW15070   1.263   6.803   4.695
 4724SOL    HW115071   1.203   6.865   4.645
 4724SOL    HW215072   1.342   6.780   4.638
 4725SOL     OW15073   5.525   6.041   0.236
 4725SOL    HW115074   5.510   5.977   0.161
 4725SOL    HW215075   5.617   6.026   0.274
 4726SOL     OW15076   1.114   3.462   5.494
 4726SOL    HW115077   1.037   3.470   5.431
 4726SOL    HW215078   1.136   3.365   5.508
 4727SOL     OW15079   0.685   5.333   0.167
 4727SOL    HW115080   0.785   5.328   0.168
 4727SOL    HW215081   0.654   5.407   0.226
 4728SOL     OW15082   6.622   1.512   4.634
 4728SOL    HW115083   6.714   1.476   4.620
 4728SOL    HW215084   6.625   1.589   4.698
 4729SOL     OW15085   6.270   1.010   1.078
 4729SOL    HW115086   6.297   0.923   1.037
 4729SOL    HW215087   6.214   0.992   1.159
 4730SOL     OW15088   3.517   6.747   5.012
 4730SOL    HW115089   3.576   6.786   4.941
 4730SOL    HW215090   3.571   6.685   5.070
 4731SOL     OW15091   3.501   0.864   0.756
 4731SOL    HW115092   3.572   0.813   0.708
 4731SOL    HW215093   3.436   0.801   0.798
 4732SOL     OW15094   0.273   4.690   4.053
 4732SOL    HW115095   0.206   4.764   4.043
 4732SOL    HW215096   0.333   4.709   4.131
 4733SOL     OW15097   2.100   3.794   3.115
 4733SOL    HW115098   2.139   3.714   3.161
 4733SOL    HW215099   2.093   3.776   3.017
 4734SOL     OW15100   4.987   3.768   6.431
 4734SOL    HW115101   4.899   3.723   6.419
 4734SOL    HW215102   5.032   3.733   6.513
 4735SOL     OW15103   0.064   0.269   4.678
 4735SOL    HW115104   7.015   0.249   4.743
 4735SOL    HW215105   0.110   0.184   4.652
 4736SOL     OW15106   6.482   1.888   3.238
 4736SOL    HW115107   6.559   1.943   3.205
 4736SOL    HW215108   6.513   1.828   3.312
 4737SOL     OW15109   1.936   4.704   0.960
 4737SOL    HW115110   2.035   4.710   0.972
 4737SOL    HW215111   1.893   4.675   1.046
 4738SOL     OW15112   1.827   6.643   3.709
 4738SOL    HW115113   1.865   6.719   3.656
 4738SOL    HW215114   1.776   6.680   3.787
 4739SOL     OW15115   5.855   3.307   3.688
 4739SOL    HW115116   5.829   3.297   3.784
 4739SOL    HW215117   5.940   3.360   3.682
 4740SOL     OW15118   0.730   1.127   1.321
 4740SOL    HW115119   0.792   1.201   1.349
 4740SOL    HW215120   0.694   1.146   1.230
 4741SOL     OW15121   4.414   4.959   1.707
 4741SOL    HW115122   4.326   4.969   1.753
 4741SOL    HW215123   4.400   4.967   1.608
 4742SOL     OW15124   2.658   6.328   1.714
 4742SOL    HW115125   2.754   6.304   1.729
 4742SOL    HW215126   2.653   6.405   1.650
 4743SOL     OW15127   2.401   2.071   0.524
 4743SOL    HW115128   2.377   2.123   0.442
 4743SOL    HW215129   2.484   2.018   0.506
 4744SOL     OW15130   1.773   3.009   5.418
 4744SOL    HW115131   1.764   2.959   5.504
 4744SOL    HW215132   1.699   3.077   5.411
 4745SOL     OW15133   2.863   5.912   4.976
 4745SOL    HW115134   2.844   5.844   4.906
 4745SOL    HW215135   2.916   5.987   4.936
 4746SOL     OW15136   6.728   0.212   0.383
 4746SOL    HW115137   6.659   0.141   0.373
 4746SOL    HW215138   6.685   0.299   0.408
 4747SOL     OW15139   6.231   2.673   0.880
 4747SOL    HW115140   6.322   2.665   0.921
 4747SOL    HW215141   6.182   2.586   0.889
 4748SOL     OW15142   2.004   1.070   1.598
 4748SOL    HW115143   1.964   1.151   1.641
 4748SOL    HW215144   2.079   1.098   1.538
 4749SOL     OW15145   1.466   6.701   6.895
 4749SOL    HW115146   1.454   6.799   6.877
 4749SOL    HW215147   1.556   6.672   6.862
 4750SOL     OW15148   0.077   0.678   4.641
 4750SOL    HW115149   0.127   0.727   4.570
 4750SOL    HW215150   0.070   0.736   4.723
 4751SOL     OW15151   1.064   4.034   6.631
 4751SOL    HW115152   1.139   3.982   6.671
 4751SOL    HW215153   0.989   4.041   6.697
 4752SOL     OW15154   3.005   5.899   1.438
 4752SOL    HW115155   3.035   5.991   1.414
 4752SOL    HW215156   3.066   5.831   1.398
 4753SOL     OW15157   5.819   6.996   5.424
 4753SOL    HW115158   5.821   6.927   5.496
 4753SOL    HW215159   5.903   6.992   5.371
 4754SOL     OW15160   0.748   0.384   5.561
 4754SOL    HW115161   0.802   0.345   5.486
 4754SOL    HW215162   0.679   0.318   5.591
 4755SOL     OW15163   2.326   1.393   6.470
 4755SOL    HW115164   2.231   1.373   6.446
 4755SOL    HW215165   2.347   1.487   6.446
 4756SOL     OW15166   4.869   2.747   1.281
 4756SOL    HW115167   4.802   2.726   1.210
 4756SOL    HW215168   4.857   2.685   1.358
 4757SOL     OW15169   1.965   2.015   1.109
 4757SOL    HW115170   1.921   1.997   1.021
 4757SOL    HW215171   2.006   2.106   1.108
 4758SOL     OW15172   5.320   5.447   5.274
 4758SOL    HW115173   5.271   5.483   5.194
 4758SOL    HW215174   5.257   5.438   5.350
 4759SOL     OW15175   5.323   5.606   5.611
 4759SOL    HW115176   5.353   5.549   5.687
 4759SOL    HW215177   5.402   5.653   5.571
 4760SOL     OW15178   1.696   1.701   1.658
 4760SOL    HW115179   1.653   1.639   1.724
 4760SOL    HW215180   1.747   1.772   1.707
 4761SOL     OW15181   0.407   6.890   6.482
 4761SOL    HW115182   0.410   6.976   6.533
 4761SOL    HW215183   0.478   6.828   6.517
 4762SOL     OW15184   2.178   5.635   1.818
 4762SOL    HW115185   2.178   5.666   1.723
 4762SOL    HW215186   2.221   5.705   1.875
 4763SOL     OW15187   6.088   6.063   3.609
 4763SOL    HW115188   6.126   6.021   3.526
 4763SOL    HW215189   6.153   6.052   3.684
 4764SOL     OW15190   3.699   3.564   4.386
 4764SOL    HW115191   3.792   3.528   4.388
 4764SOL    HW215192   3.646   3.518   4.315
 4765SOL     OW15193   5.456   5.843   4.798
 4765SOL    HW115194   5.406   5.930   4.797
 4765SOL    HW215195   5.427   5.788   4.876
 4766SOL     OW15196   2.612   0.375   3.023
 4766SOL    HW115197   2.543   0.351   3.092
 4766SOL    HW215198   2.698   0.399   3.069
 4767SOL     OW15199   4.098   6.164   6.612
 4767SOL    HW115200   4.120   6.141   6.707
 4767SOL    HW215201   4.147   6.247   6.585
 4768SOL     OW15202   6.897   0.503   5.332
 4768SOL    HW115203   6.799   0.507   5.349
 4768SOL    HW215204   6.927   0.590   5.292
 4769SOL     OW15205   4.144   6.693   1.230
 4769SOL    HW115206   4.054   6.735   1.223
 4769SOL    HW215207   4.181   6.678   1.138
 4770SOL     OW15208   2.909   0.784   3.170
 4770SOL    HW115209   3.000   0.749   3.195
 4770SOL    HW215210   2.847   0.774   3.248
 4771SOL     OW15211   3.981   4.158   5.200
 4771SOL    HW115212   3.915   4.233   5.213
 4771SOL    HW215213   3.955   4.105   5.119
 4772SOL     OW15214   2.595   2.049   1.879
 4772SOL    HW115215   2.575   2.089   1.969
 4772SOL    HW215216   2.684   2.082   1.847
 4773SOL     OW15217   0.193   5.951   3.619
 4773SOL    HW115218   0.246   5.866   3.610
 4773SOL    HW215219   0.222   6.016   3.549
 4774SOL     OW15220   0.424   4.077   1.511
 4774SOL    HW115221   0.453   4.046   1.421
 4774SOL    HW215222   0.366   4.159   1.502
 4775SOL     OW15223   4.115   0.348   2.459
 4775SOL    HW115224   4.131   0.435   2.505
 4775SOL    HW215225   4.199   0.318   2.415
 4776SOL     OW15226   3.031   5.591   2.117
 4776SOL    HW115227   2.955   5.567   2.177
 4776SOL    HW215228   3.095   5.652   2.166
 4777SOL     OW15229   2.786   4.026   1.096
 4777SOL    HW115230   2.867   4.082   1.113
 4777SOL    HW215231   2.788   3.945   1.155
 4778SOL     OW15232   4.793   4.363   1.925
 4778SOL    HW115233   4.761   4.455   1.902
 4778SOL    HW215234   4.716   4.309   1.960
 4779SOL     OW15235   5.562   0.593   2.856
 4779SOL    HW115236   5.638   0.657   2.866
 4779SOL    HW215237   5.545   0.576   2.759
 4780SOL     OW15238   0.687   6.775   6.386
 4780SOL    HW115239   0.775   6.821   6.378
 4780SOL    HW215240   0.701   6.685   6.427
 4781SOL     OW15241   2.642   5.369   1.280
 4781SOL    HW115242   2.654   5.332   1.372
 4781SOL    HW215243   2.554   5.417   1.275
 4782SOL     OW15244   5.693   6.300   6.362
 4782SOL    HW115245   5.731   6.239   6.293
 4782SOL    HW215246   5.750   6.298   6.444
 4783SOL     OW15247   5.620   4.451   1.125
 4783SOL    HW115248   5.681   4.376   1.150
 4783SOL    HW215249   5.625   4.466   1.027
 4784SOL     OW15250   5.728   4.987   4.578
 4784SOL    HW115251   5.677   5.053   4.523
 4784SOL    HW215252   5.822   5.018   4.589
 4785SOL     OW15253   6.773   0.110   1.803
 4785SOL    HW115254   6.857   0.145   1.764
 4785SOL    HW215255   6.719   0.065   1.731
 4786SOL     OW15256   1.743   3.126   2.009
 4786SOL    HW115257   1.788   3.215   2.003
 4786SOL    HW215258   1.648   3.135   1.981
 4787SOL     OW15259   3.231   2.066   3.063
 4787SOL    HW115260   3.224   2.116   2.976
 4787SOL    HW215261   3.318   2.015   3.065
 4788SOL     OW15262   1.515   5.337   4.347
 4788SOL    HW115263   1.424   5.313   4.380
 4788SOL    HW215264   1.538   5.281   4.268
 4789SOL     OW15265   5.735   0.428   0.285
 4789SOL    HW115266   5.749   0.390   0.376
 4789SOL    HW215267   5.745   0.356   0.217
 4790SOL     OW15268   5.855   2.068   6.169
 4790SOL    HW115269   5.839   2.077   6.267
 4790SOL    HW215270   5.934   2.009   6.153
 4791SOL     OW15271   5.612   0.068   2.159
 4791SOL    HW115272   5.667   7.012   2.186
 4791SOL    HW215273   5.516   0.043   2.156
 4792SOL     OW15274   2.097   2.552   2.202
 4792SOL    HW115275   2.187   2.557   2.248
 4792SOL    HW215276   2.071   2.643   2.170
 4793SOL     OW15277   1.342   6.538   5.964
 4793SOL    HW115278   1.274   6.467   5.984
 4793SOL    HW215279   1.322   6.578   5.875
 4794SOL     OW15280   2.781   0.402   2.299
 4794SOL    HW115281   2.741   0.380   2.388
 4794SOL    HW215282   2.719   0.373   2.227
 4795SOL     OW15283   6.347   3.327   3.750
 4795SOL    HW115284   6.401   3.330   3.666
 4795SOL    HW215285   6.266   3.385   3.740
 4796SOL     OW15286   5.893   4.664   0.802
 4796SOL    HW115287   5.903   4.759   0.771
 4796SOL    HW215288   5.849   4.663   0.892
 4797SOL     OW15289   0.404   4.522   5.294
 4797SOL    HW115290   0.454   4.595   5.340
 4797SOL    HW215291   0.337   4.563   5.231
 4798SOL     OW15292   6.852   4.662   4.328
 4798SOL    HW115293   6.788   4.634   4.399
 4798SOL    HW215294   6.819   4.746   4.284
 4799SOL     OW15295   4.506   1.493   4.850
 4799SOL    HW115296   4.524   1.488   4.948
 4799SOL    HW215297   4.587   1.463   4.799
 4800SOL     OW15298   1.708   2.340   4.869
 4800SOL    HW115299   1.707   2.300   4.960
 4800SOL    HW215300   1.722   2.268   4.801
 4801SOL     OW15301   0.570   2.386   0.892
 4801SOL    HW115302   0.610   2.342   0.812
 4801SOL    HW215303   0.638   2.391   0.965
 4802SOL     OW15304   2.758   0.438   1.699
 4802SOL    HW115305   2.718   0.376   1.766
 4802SOL    HW215306   2.794   0.518   1.746
 4803SOL     OW15307   1.078   6.971   0.719
 4803SOL    HW115308   0.999   6.997   0.665
 4803SOL    HW215309   1.140   0.025   0.729
 4804SOL     OW15310   4.185   4.850   6.918
 4804SOL    HW115311   4.211   4.813   7.006
 4804SOL    HW215312   4.234   4.802   6.845
 4805SOL     OW15313   6.661   1.833   1.030
 4805SOL    HW115314   6.649   1.798   1.123
 4805SOL    HW215315   6.590   1.796   0.970
 4806SOL     OW15316   0.680   2.816   3.182
 4806SOL    HW115317   0.680   2.912   3.154
 4806SOL    HW215318   0.587   2.788   3.208
 4807SOL     OW15319   0.041   6.971   1.323
 4807SOL    HW115320   0.011   6.966   1.418
 4807SOL    HW215321   0.138   6.995   1.320
 4808SOL     OW15322   5.092   2.861   1.146
 4808SOL    HW115323   5.031   2.831   1.220
 4808SOL    HW215324   5.039   2.868   1.061
 4809SOL     OW15325   3.920   5.427   7.018
 4809SOL    HW115326   3.949   5.522   0.005
 4809SOL    HW215327   3.992   5.366   0.027
 4810SOL     OW15328   0.989   0.080   1.429
 4810SOL    HW115329   0.948   0.081   1.338
 4810SOL    HW215330   1.088   0.093   1.421
 4811SOL     OW15331   3.778   5.212   2.054
 4811SOL    HW115332   3.735   5.249   2.137
 4811SOL    HW215333   3.718   5.144   2.013
 4812SOL     OW15334   0.042   6.017   4.041
 4812SOL    HW115335   0.062   5.977   4.131
 4812SOL    HW215336   0.127   6.032   3.991
 4813SOL     OW15337   5.347   2.114   2.927
 4813SOL    HW115338   5.264   2.077   2.886
 4813SOL    HW215339   5.419   2.121   2.859
 4814SOL     OW15340   6.964   3.630   1.518
 4814SOL    HW115341   6.889   3.595   1.575
 4814SOL    HW215342   6.935   3.716   1.475
 4815SOL     OW15343   4.772   6.381   1.336
 4815SOL    HW115344   4.853   6.324   1.323
 4815SOL    HW215345   4.795   6.459   1.394
 4816SOL     OW15346   5.263   5.098   3.223
 4816SOL    HW115347   5.337   5.058   3.169
 4816SOL    HW215348   5.175   5.074   3.182
 4817SOL     OW15349   0.753   2.057   6.667
 4817SOL    HW115350   0.692   2.040   6.590
 4817SOL    HW215351   0.741   2.150   6.700
 4818SOL     OW15352   0.312   0.117   4.205
 4818SOL    HW115353   0.376   0.193   4.217
 4818SOL    HW215354   0.225   0.152   4.171
 4819SOL     OW15355   1.562   3.146   0.895
 4819SOL    HW115356   1.575   3.053   0.931
 4819SOL    HW215357   1.618   3.158   0.813
 4820SOL     OW15358   6.935   3.051   2.113
 4820SOL    HW115359   6.884   2.998   2.046
 4820SOL    HW215360   6.976   3.131   2.069
 4821SOL     OW15361   6.827   5.783   2.279
 4821SOL    HW115362   6.856   5.713   2.343
 4821SOL    HW215363   6.907   5.827   2.238
 4822SOL     OW15364   1.361   3.644   4.271
 4822SOL    HW115365   1.447   3.642   4.220
 4822SOL    HW215366   1.289   3.604   4.215
 4823SOL     OW15367   1.865   3.071   1.585
 4823SOL    HW115368   1.942   3.070   1.521
 4823SOL    HW215369   1.889   3.128   1.664
 4824SOL     OW15370   6.009   1.353   5.605
 4824SOL    HW115371   6.072   1.426   5.581
 4824SOL    HW215372   6.058   1.279   5.651
 4825SOL     OW15373   1.501   6.803   3.775
 4825SOL    HW115374   1.411   6.800   3.817
 4825SOL    HW215375   1.571   6.783   3.844
 4826SOL     OW15376   4.367   0.673   1.576
 4826SOL    HW115377   4.294   0.716   1.629
 4826SOL    HW215378   4.451   0.725   1.588
 4827SOL     OW15379   6.934   1.663   1.314
 4827SOL    HW115380   6.869   1.603   1.361
 4827SOL    HW215381   7.013   1.680   1.372
 4828SOL     OW15382   4.773   0.536   3.654
 4828SOL    HW115383   4.727   0.597   3.718
 4828SOL    HW215384   4.847   0.586   3.608
 4829SOL     OW15385   3.826   6.722   5.063
 4829SOL    HW115386   3.866   6.686   5.148
 4829SOL    HW215387   3.855   6.817   5.050
 4830SOL     OW15388   2.941   5.681   3.314
 4830SOL    HW115389   2.940   5.625   3.397
 4830SOL    HW215390   2.851   5.722   3.300
 4831SOL     OW15391   3.302   4.992   5.635
 4831SOL    HW115392   3.225   5.057   5.638
 4831SOL    HW215393   3.373   5.028   5.574
 4832SOL     OW15394   3.429   3.155   4.446
 4832SOL    HW115395   3.449   3.230   4.383
 4832SOL    HW215396   3.438   3.188   4.540
 4833SOL     OW15397   6.996   3.235   4.245
 4833SOL    HW115398   6.930   3.181   4.298
 4833SOL    HW215399   7.010   3.192   4.156
 4834SOL     OW15400   1.123   5.100   1.727
 4834SOL    HW115401   1.184   5.163   1.678
 4834SOL    HW215402   1.030   5.110   1.692
 4835SOL     OW15403   6.578   2.303   5.308
 4835SOL    HW115404   6.540   2.246   5.380
 4835SOL    HW215405   6.677   2.294   5.307
 4836SOL     OW15406   5.289   1.397   5.472
 4836SOL    HW115407   5.239   1.374   5.389
 4836SOL    HW215408   5.379   1.433   5.448
 4837SOL     OW15409   0.419   4.687   4.292
 4837SOL    HW115410   0.337   4.710   4.346
 4837SOL    HW215411   0.431   4.588   4.291
 4838SOL     OW15412   2.155   4.220   6.605
 4838SOL    HW115413   2.246   4.197   6.571
 4838SOL    HW215414   2.115   4.140   6.649
 4839SOL     OW15415   2.551   1.482   0.173
 4839SOL    HW115416   2.527   1.475   0.076
 4839SOL    HW215417   2.531   1.395   0.218
 4840SOL     OW15418   5.895   3.910   4.599
 4840SOL    HW115419   5.801   3.935   4.620
 4840SOL    HW215420   5.950   3.912   4.683
 4841SOL     OW15421   3.407   5.699   2.760
 4841SOL    HW115422   3.344   5.668   2.831
 4841SOL    HW215423   3.497   5.659   2.776
 4842SOL     OW15424   2.998   5.636   3.042
 4842SOL    HW115425   2.971   5.653   3.137
 4842SOL    HW215426   3.008   5.538   3.028
 4843SOL     OW15427   0.411   1.651   1.698
 4843SOL    HW115428   0.362   1.564   1.696
 4843SOL    HW215429   0.428   1.677   1.793
 4844SOL     OW15430   1.364   5.596   4.988
 4844SOL    HW115431   1.299   5.669   4.969
 4844SOL    HW215432   1.322   5.508   4.966
 4845SOL     OW15433   4.908   3.807   4.909
 4845SOL    HW115434   4.956   3.801   4.822
 4845SOL    HW215435   4.866   3.719   4.930
 4846SOL     OW15436   6.879   3.597   4.569
 4846SOL    HW115437   6.955   3.534   4.578
 4846SOL    HW215438   6.829   3.578   4.484
 4847SOL     OW15439   2.448   6.182   6.507
 4847SOL    HW115440   2.395   6.248   6.455
 4847SOL    HW215441   2.444   6.205   6.604
 4848SOL     OW15442   3.363   1.092   4.414
 4848SOL    HW115443   3.454   1.083   4.455
 4848SOL    HW215444   3.313   1.166   4.461
 4849SOL     OW15445   1.932   6.924   1.065
 4849SOL    HW115446   1.872   6.866   1.010
 4849SOL    HW215447   2.026   6.891   1.057
 4850SOL     OW15448   4.565   0.089   0.276
 4850SOL    HW115449   4.526   0.046   0.195
 4850SOL    HW215450   4.517   0.057   0.357
 4851SOL     OW15451   3.766   4.529   6.810
 4851SOL    HW115452   3.785   4.549   6.906
 4851SOL    HW215453   3.811   4.597   6.752
 4852SOL     OW15454   4.949   5.696   4.713
 4852SOL    HW115455   4.973   5.614   4.765
 4852SOL    HW215456   4.928   5.670   4.618
 4853SOL     OW15457   4.453   6.844   1.973
 4853SOL    HW115458   4.419   6.749   1.968
 4853SOL    HW215459   4.414   6.888   2.054
 4854SOL     OW15460   5.608   6.183   1.649
 4854SOL    HW115461   5.566   6.273   1.642
 4854SOL    HW215462   5.544   6.113   1.616
 4855SOL     OW15463   5.421   5.003   5.498
 4855SOL    HW115464   5.337   4.951   5.483
 4855SOL    HW215465   5.431   5.072   5.427
 4856SOL     OW15466   0.016   4.020   2.837
 4856SOL    HW115467   7.010   4.026   2.742
 4856SOL    HW215468   0.094   4.081   2.851
 4857SOL     OW15469   2.571   2.323   5.333
 4857SOL    HW115470   2.544   2.301   5.239
 4857SOL    HW215471   2.651   2.268   5.358
 4858SOL     OW15472   0.596   6.076   3.978
 4858SOL    HW115473   0.559   6.112   3.892
 4858SOL    HW215474   0.615   6.152   4.040
 4859SOL     OW15475   0.807   6.454   2.279
 4859SOL    HW115476   0.861   6.377   2.245
 4859SOL    HW215477   0.832   6.537   2.229
 4860SOL     OW15478   4.050   5.384   1.184
 4860SOL    HW115479   3.957   5.418   1.167
 4860SOL    HW215480   4.081   5.417   1.274
 4861SOL     OW15481   0.234   4.291   6.848
 4861SOL    HW115482   0.275   4.200   6.847
 4861SOL    HW215483   0.251   4.336   6.760
 4862SOL     OW15484   2.593   5.569   5.754
 4862SOL    HW115485   2.664   5.499   5.745
 4862SOL    HW215486   2.559   5.593   5.663
 4863SOL     OW15487   4.593   1.969   3.268
 4863SOL    HW115488   4.682   2.011   3.285
 4863SOL    HW215489   4.557   2.001   3.180
 4864SOL     OW15490   2.237   1.106   1.140
 4864SOL    HW115491   2.218   1.178   1.073
 4864SOL    HW215492   2.279   1.147   1.221
 4865SOL     OW15493   3.663   5.953   5.574
 4865SOL    HW115494   3.666   6.035   5.517
 4865SOL    HW215495   3.750   5.903   5.565
 4866SOL     OW15496   0.036   4.493   1.923
 4866SOL    HW115497   0.095   4.574   1.925
 4866SOL    HW215498   7.000   4.493   2.004
 4867SOL     OW15499   4.902   6.014   3.279
 4867SOL    HW115500   4.884   6.097   3.332
 4867SOL    HW215501   4.885   5.933   3.335
 4868SOL     OW15502   0.720   6.236   0.940
 4868SOL    HW115503   0.788   6.305   0.917
 4868SOL    HW215504   0.766   6.153   0.971
 4869SOL     OW15505   6.315   0.457   1.099
 4869SOL    HW115506   6.405   0.432   1.134
 4869SOL    HW215507   6.248   0.387   1.126
 4870SOL     OW15508   6.637   6.836   1.688
 4870SOL    HW115509   6.641   6.863   1.592
 4870SOL    HW215510   6.714   6.876   1.737
 4871SOL     OW15511   0.615   3.896   3.952
 4871SOL    HW115512   0.631   3.922   4.047
 4871SOL    HW215513   0.573   3.973   3.903
 4872SOL     OW15514   0.703   0.638   3.325
 4872SOL    HW115515   0.749   0.581   3.392
 4872SOL    HW215516   0.622   0.679   3.366
 4873SOL     OW15517   0.575   5.519   5.454
 4873SOL    HW115518   0.510   5.483   5.386
 4873SOL    HW215519   0.645   5.450   5.471
 4874SOL     OW15520   4.874   3.812   3.228
 4874SOL    HW115521   4.819   3.786   3.149
 4874SOL    HW215522   4.877   3.911   3.236
 4875SOL     OW15523   6.351   2.834   6.757
 4875SOL    HW115524   6.320   2.746   6.719
 4875SOL    HW215525   6.401   2.885   6.687
 4876SOL     OW15526   0.768   1.346   6.570
 4876SOL    HW115527   0.765   1.414   6.497
 4876SOL    HW215528   0.743   1.388   6.657
 4877SOL     OW15529   6.494   1.678   0.831
 4877SOL    HW115530   6.432   1.601   0.846
 4877SOL    HW215531   6.456   1.738   0.760
 4878SOL     OW15532   6.740   1.863   1.621
 4878SOL    HW115533   6.801   1.930   1.663
 4878SOL    HW215534   6.646   1.879   1.653
 4879SOL     OW15535   4.312   5.398   3.471
 4879SOL    HW115536   4.240   5.461   3.443
 4879SOL    HW215537   4.322   5.327   3.401
 4880SOL     OW15538   5.659   2.098   5.944
 4880SOL    HW115539   5.692   2.092   6.038
 4880SOL    HW215540   5.728   2.062   5.881
 4881SOL     OW15541   3.408   6.027   6.727
 4881SOL    HW115542   3.499   6.056   6.700
 4881SOL    HW215543   3.398   6.037   6.826
 4882SOL     OW15544   5.505   0.941   5.354
 4882SOL    HW115545   5.533   1.012   5.290
 4882SOL    HW215546   5.460   0.982   5.433
 4883SOL     OW15547   0.334   5.872   1.082
 4883SOL    HW115548   0.392   5.791   1.073
 4883SOL    HW215549   0.381   5.951   1.043
 4884SOL     OW15550   3.361   6.661   1.671
 4884SOL    HW115551   3.451   6.678   1.711
 4884SOL    HW215552   3.329   6.569   1.697
 4885SOL     OW15553   2.023   0.130   1.864
 4885SOL    HW115554   2.101   0.184   1.831
 4885SOL    HW215555   2.007   0.054   1.802
 4886SOL     OW15556   6.111   0.737   6.371
 4886SOL    HW115557   6.187   0.802   6.370
 4886SOL    HW215558   6.088   0.714   6.466
 4887SOL     OW15559   0.480   1.822   4.904
 4887SOL    HW115560   0.499   1.809   5.001
 4887SOL    HW215561   0.501   1.738   4.854
 4888SOL     OW15562   2.869   5.470   2.331
 4888SOL    HW115563   2.821   5.392   2.290
 4888SOL    HW215564   2.817   5.503   2.410
 4889SOL     OW15565   1.614   2.523   0.190
 4889SOL    HW115566   1.659   2.612   0.185
 4889SOL    HW215567   1.526   2.529   0.142
 4890SOL     OW15568   1.261   0.273   4.578
 4890SOL    HW115569   1.256   0.373   4.572
 4890SOL    HW215570   1.286   0.236   4.489
 4891SOL     OW15571   1.203   3.955   0.446
 4891SOL    HW115572   1.264   3.886   0.485
 4891SOL    HW215573   1.146   3.994   0.519
 4892SOL     OW15574   1.436   5.619   1.471
 4892SOL    HW115575   1.531   5.644   1.486
 4892SOL    HW215576   1.431   5.544   1.404
 4893SOL     OW15577   0.586   3.497   6.570
 4893SOL    HW115578   0.529   3.427   6.528
 4893SOL    HW215579   0.529   3.576   6.594
 4894SOL     OW15580   2.171   0.751   3.325
 4894SOL    HW115581   2.174   0.843   3.286
 4894SOL    HW215582   2.153   0.757   3.423
 4895SOL     OW15583   0.393   3.690   0.876
 4895SOL    HW115584   0.353   3.698   0.967
 4895SOL    HW215585   0.438   3.776   0.851
 4896SOL     OW15586   3.955   5.339   3.916
 4896SOL    HW115587   3.867   5.293   3.923
 4896SOL    HW215588   4.029   5.272   3.927
 4897SOL     OW15589   3.429   5.194   6.290
 4897SOL    HW115590   3.492   5.179   6.214
 4897SOL    HW215591   3.412   5.292   6.301
 4898SOL     OW15592   5.879   2.199   5.502
 4898SOL    HW115593   5.940   2.238   5.570
 4898SOL    HW215594   5.887   2.250   5.416
 4899SOL     OW15595   5.563   3.899   4.377
 4899SOL    HW115596   5.546   3.871   4.282
 4899SOL    HW215597   5.658   3.928   4.386
 4900SOL     OW15598   0.898   6.507   4.959
 4900SOL    HW115599   0.852   6.548   4.880
 4900SOL    HW215600   0.975   6.565   4.987
 4901SOL     OW15601   1.297   6.811   3.271
 4901SOL    HW115602   1.250   6.864   3.200
 4901SOL    HW215603   1.345   6.873   3.333
 4902SOL     OW15604   3.054   4.791   1.910
 4902SOL    HW115605   3.104   4.759   1.830
 4902SOL    HW215606   2.982   4.726   1.932
 4903SOL     OW15607   4.861   6.585   6.383
 4903SOL    HW115608   4.839   6.636   6.300
 4903SOL    HW215609   4.961   6.582   6.395
 4904SOL     OW15610   3.290   6.118   3.597
 4904SOL    HW115611   3.319   6.128   3.692
 4904SOL    HW215612   3.190   6.106   3.594
 4905SOL     OW15613   6.184   3.206   2.613
 4905SOL    HW115614   6.277   3.186   2.642
 4905SOL    HW215615   6.173   3.304   2.600
 4906SOL     OW15616   6.103   0.932   1.332
 4906SOL    HW115617   6.024   0.994   1.334
 4906SOL    HW215618   6.081   0.850   1.385
 4907SOL     OW15619   3.155   0.676   2.165
 4907SOL    HW115620   3.216   0.625   2.225
 4907SOL    HW215621   3.207   0.749   2.119
 4908SOL     OW15622   3.663   5.508   6.688
 4908SOL    HW115623   3.574   5.475   6.720
 4908SOL    HW215624   3.649   5.586   6.627
 4909SOL     OW15625   6.705   0.310   5.060
 4909SOL    HW115626   6.614   0.314   5.101
 4909SOL    HW215627   6.728   0.214   5.041
 4910SOL     OW15628   6.378   0.036   5.120
 4910SOL    HW115629   6.419   0.001   5.035
 4910SOL    HW215630   6.441   0.101   5.162
 4911SOL     OW15631   0.178   3.033   6.048
 4911SOL    HW115632   0.208   2.938   6.044
 4911SOL    HW215633   0.155   3.058   6.142
 4912SOL     OW15634   2.482   2.536   2.064
 4912SOL    HW115635   2.448   2.444   2.044
 4912SOL    HW215636   2.575   2.545   2.029
 4913SOL     OW15637   2.890   3.571   2.625
 4913SOL    HW115638   2.955   3.646   2.622
 4913SOL    HW215639   2.813   3.590   2.564
 4914SOL     OW15640   1.941   6.309   3.567
 4914SOL    HW115641   2.007   6.251   3.519
 4914SOL    HW215642   1.989   6.366   3.634
 4915SOL     OW15643   3.079   6.443   3.447
 4915SOL    HW115644   3.143   6.401   3.383
 4915SOL    HW215645   2.998   6.386   3.455
 4916SOL     OW15646   2.507   1.207   2.411
 4916SOL    HW115647   2.496   1.298   2.450
 4916SOL    HW215648   2.546   1.214   2.319
 4917SOL     OW15649   1.492   5.091   0.438
 4917SOL    HW115650   1.536   5.155   0.501
 4917SOL    HW215651   1.424   5.139   0.383
 4918SOL     OW15652   2.290   0.333   2.202
 4918SOL    HW115653   2.254   0.331   2.295
 4918SOL    HW215654   2.224   0.378   2.141
 4919SOL     OW15655   2.649   2.469   1.861
 4919SOL    HW115656   2.636   2.418   1.775
 4919SOL    HW215657   2.744   2.462   1.889
 4920SOL     OW15658   4.465   0.586   6.706
 4920SOL    HW115659   4.544   0.580   6.767
 4920SOL    HW215660   4.397   0.649   6.744
 4921SOL     OW15661   1.413   4.867   2.046
 4921SOL    HW115662   1.469   4.924   1.985
 4921SOL    HW215663   1.389   4.782   2.001
 4922SOL     OW15664   1.266   2.820   5.905
 4922SOL    HW115665   1.362   2.806   5.880
 4922SOL    HW215666   1.245   2.769   5.989
 4923SOL     OW15667   4.101   1.643   1.026
 4923SOL    HW115668   4.027   1.615   0.966
 4923SOL    HW215669   4.074   1.725   1.077
 4924SOL     OW15670   0.404   3.849   4.479
 4924SOL    HW115671   0.501   3.836   4.460
 4924SOL    HW215672   0.350   3.799   4.411
 4925SOL     OW15673   3.966   6.106   6.884
 4925SOL    HW115674   3.941   6.200   6.906
 4925SOL    HW215675   3.909   6.043   6.937
 4926SOL     OW15676   4.819   2.238   1.958
 4926SOL    HW115677   4.747   2.182   2.001
 4926SOL    HW215678   4.787   2.333   1.952
 4927SOL     OW15679   3.788   3.281   3.081
 4927SOL    HW115680   3.879   3.319   3.063
 4927SOL    HW215681   3.736   3.276   2.995
 4928SOL     OW15682   0.624   5.962   0.545
 4928SOL    HW115683   0.540   6.001   0.582
 4928SOL    HW215684   0.664   6.026   0.479
 4929SOL     OW15685   0.960   4.978   4.208
 4929SOL    HW115686   0.963   4.975   4.308
 4929SOL    HW215687   0.882   5.032   4.179
 4930SOL     OW15688   6.829   1.921   0.840
 4930SOL    HW115689   6.758   1.989   0.819
 4930SOL    HW215690   6.804   1.871   0.923
 4931SOL     OW15691   0.112   0.746   1.055
 4931SOL    HW115692   0.060   0.806   1.116
 4931SOL    HW215693   0.210   0.762   1.069
 4932SOL     OW15694   3.039   2.344   1.235
 4932SOL    HW115695   2.949   2.388   1.231
 4932SOL    HW215696   3.028   2.248   1.262
 4933SOL     OW15697   2.802   1.287   4.604
 4933SOL    HW115698   2.882   1.238   4.636
 4933SOL    HW215699   2.719   1.236   4.628
 4934SOL     OW15700   1.193   6.118   4.790
 4934SOL    HW115701   1.105   6.073   4.771
 4934SOL    HW215702   1.176   6.213   4.815
 4935SOL     OW15703   1.596   1.240   0.625
 4935SOL    HW115704   1.617   1.318   0.566
 4935SOL    HW215705   1.638   1.253   0.715
 4936SOL     OW15706   3.910   5.461   0.589
 4936SOL    HW115707   3.827   5.415   0.620
 4936SOL    HW215708   3.886   5.533   0.524
 4937SOL     OW15709   0.476   3.253   6.460
 4937SOL    HW115710   0.440   3.159   6.462
 4937SOL    HW215711   0.525   3.268   6.374
 4938SOL     OW15712   3.451   4.388   1.323
 4938SOL    HW115713   3.495   4.326   1.388
 4938SOL    HW215714   3.490   4.480   1.332
 4939SOL     OW15715   1.566   2.040   2.298
 4939SOL    HW115716   1.628   1.974   2.255
 4939SOL    HW215717   1.612   2.082   2.377
 4940SOL     OW15718   6.782   2.024   5.056
 4940SOL    HW115719   6.690   2.064   5.059
 4940SOL    HW215720   6.775   1.924   5.059
 4941SOL     OW15721   3.811   1.675   5.317
 4941SOL    HW115722   3.745   1.615   5.271
 4941SOL    HW215723   3.858   1.624   5.389
 4942SOL     OW15724   6.807   1.646   3.920
 4942SOL    HW115725   6.899   1.653   3.880
 4942SOL    HW215726   6.739   1.639   3.846
 4943SOL     OW15727   5.242   3.201   6.279
 4943SOL    HW115728   5.323   3.174   6.227
 4943SOL    HW215729   5.241   3.300   6.291
 4944SOL     OW15730   1.345   5.329   0.792
 4944SOL    HW115731   1.408   5.252   0.803
 4944SOL    HW215732   1.319   5.364   0.882
 4945SOL     OW15733   2.062   0.764   4.673
 4945SOL    HW115734   2.073   0.863   4.661
 4945SOL    HW215735   1.995   0.729   4.607
 4946SOL     OW15736   2.551   4.780   6.883
 4946SOL    HW115737   2.604   4.758   6.964
 4946SOL    HW215738   2.574   4.873   6.852
 4947SOL     OW15739   1.581   1.197   1.869
 4947SOL    HW115740   1.646   1.215   1.942
 4947SOL    HW215741   1.488   1.220   1.900
 4948SOL     OW15742   1.221   2.556   1.925
 4948SOL    HW115743   1.265   2.475   1.965
 4948SOL    HW215744   1.277   2.589   1.848
 4949SOL     OW15745   0.177   4.084   0.120
 4949SOL    HW115746   0.091   4.036   0.132
 4949SOL    HW215747   0.250   4.018   0.103
 4950SOL     OW15748   2.615   3.851   5.468
 4950SOL    HW115749   2.583   3.914   5.398
 4950SOL    HW215750   2.540   3.829   5.530
 4951SOL     OW15751   4.996   5.462   3.284
 4951SOL    HW115752   4.993   5.403   3.204
 4951SOL    HW215753   4.903   5.484   3.313
 4952SOL     OW15754   0.179   6.779   6.079
 4952SOL    HW115755   0.081   6.766   6.064
 4952SOL    HW215756   0.228   6.696   6.051
 4953SOL     OW15757   0.715   2.199   5.121
 4953SOL    HW115758   0.625   2.228   5.087
 4953SOL    HW215759   0.719   2.099   5.122
 4954SOL     OW15760   3.412   4.064   5.439
 4954SOL    HW115761   3.442   4.103   5.352
 4954SOL    HW215762   3.431   3.966   5.440
 4955SOL     OW15763   3.771   5.122   6.753
 4955SOL    HW115764   3.831   5.045   6.770
 4955SOL    HW215765   3.825   5.203   6.732
 4956SOL     OW15766   2.932   0.382   4.509
 4956SOL    HW115767   2.989   0.446   4.457
 4956SOL    HW215768   2.990   0.329   4.571
 4957SOL     OW15769   5.990   4.061   6.749
 4957SOL    HW115770   5.941   4.133   6.797
 4957SOL    HW215771   6.081   4.094   6.723
 4958SOL     OW15772   3.325   5.727   0.219
 4958SOL    HW115773   3.248   5.779   0.181
 4958SOL    HW215774   3.393   5.713   0.147
 4959SOL     OW15775   0.669   3.074   3.033
 4959SOL    HW115776   0.619   3.161   3.042
 4959SOL    HW215777   0.755   3.080   3.084
 4960SOL     OW15778   4.571   5.155   4.004
 4960SOL    HW115779   4.662   5.172   4.043
 4960SOL    HW215780   4.581   5.125   3.909
 4961SOL     OW15781   4.192   1.148   0.129
 4961SOL    HW115782   4.219   1.167   0.224
 4961SOL    HW215783   4.113   1.205   0.106
 4962SOL     OW15784   1.256   4.257   1.250
 4962SOL    HW115785   1.244   4.271   1.152
 4962SOL    HW215786   1.198   4.182   1.281
 4963SOL     OW15787   1.011   3.977   6.367
 4963SOL    HW115788   1.096   3.971   6.315
 4963SOL    HW215789   1.031   3.976   6.465
 4964SOL     OW15790   2.843   6.558   4.589
 4964SOL    HW115791   2.751   6.568   4.627
 4964SOL    HW215792   2.837   6.531   4.493
 4965SOL     OW15793   1.626   5.930   3.317
 4965SOL    HW115794   1.704   5.882   3.358
 4965SOL    HW215795   1.659   6.015   3.274
 4966SOL     OW15796   3.134   6.723   4.129
 4966SOL    HW115797   3.191   6.774   4.193
 4966SOL    HW215798   3.039   6.749   4.140
 4967SOL     OW15799   4.476   4.523   4.699
 4967SOL    HW115800   4.560   4.574   4.712
 4967SOL    HW215801   4.432   4.508   4.787
 4968SOL     OW15802   6.161   2.488   3.089
 4968SOL    HW115803   6.077   2.514   3.041
 4968SOL    HW215804   6.181   2.392   3.073
 4969SOL     OW15805   0.757   6.126   3.013
 4969SOL    HW115806   0.777   6.161   3.105
 4969SOL    HW215807   0.785   6.194   2.945
 4970SOL     OW15808   0.513   1.788   1.495
 4970SOL    HW115809   0.563   1.864   1.537
 4970SOL    HW215810   0.485   1.723   1.566
 4971SOL     OW15811   6.670   6.003   2.979
 4971SOL    HW115812   6.763   5.969   2.980
 4971SOL    HW215813   6.615   5.949   2.916
 4972SOL     OW15814   1.346   4.506   1.249
 4972SOL    HW115815   1.302   4.417   1.262
 4972SOL    HW215816   1.294   4.577   1.296
 4973SOL     OW15817   6.848   0.565   1.136
 4973SOL    HW115818   6.864   0.469   1.113
 4973SOL    HW215819   6.781   0.604   1.072
 4974SOL     OW15820   3.387   5.602   5.095
 4974SOL    HW115821   3.357   5.509   5.070
 4974SOL    HW215822   3.313   5.648   5.144
 4975SOL     OW15823   6.139   4.293   0.981
 4975SOL    HW115824   6.134   4.344   0.896
 4975SOL    HW215825   6.096   4.346   1.054
 4976SOL     OW15826   1.985   6.799   3.503
 4976SOL    HW115827   1.924   6.838   3.433
 4976SOL    HW215828   2.056   6.744   3.458
 4977SOL     OW15829   1.941   4.508   6.201
 4977SOL    HW115830   1.956   4.561   6.118
 4977SOL    HW215831   1.849   4.526   6.236
 4978SOL     OW15832   4.888   4.889   4.587
 4978SOL    HW115833   4.946   4.949   4.532
 4978SOL    HW215834   4.879   4.800   4.541
 4979SOL     OW15835   2.409   0.056   6.004
 4979SOL    HW115836   2.504   0.064   5.973
 4979SOL    HW215837   2.385   6.984   6.015
 4980SOL     OW15838   5.342   3.889   3.195
 4980SOL    HW115839   5.437   3.861   3.176
 4980SOL    HW215840   5.291   3.811   3.230
 4981SOL     OW15841   3.285   4.876   2.035
 4981SOL    HW115842   3.199   4.848   1.993
 4981SOL    HW215843   3.350   4.800   2.032
 4982SOL     OW15844   4.001   1.643   5.969
 4982SOL    HW115845   3.931   1.572   5.972
 4982SOL    HW215846   4.078   1.612   5.913
 4983SOL     OW15847   5.780   5.527   2.679
 4983SOL    HW115848   5.863   5.582   2.676
 4983SOL    HW215849   5.701   5.586   2.698
 4984SOL     OW15850   5.382   4.505   2.917
 4984SOL    HW115851   5.356   4.594   2.956
 4984SOL    HW215852   5.430   4.520   2.831
 4985SOL     OW15853   5.531   6.708   2.502
 4985SOL    HW115854   5.501   6.773   2.433
 4985SOL    HW215855   5.455   6.648   2.528
 4986SOL     OW15856   0.428   4.952   3.045
 4986SOL    HW115857   0.493   4.891   3.000
 4986SOL    HW215858   0.478   5.030   3.083
 4987SOL     OW15859   0.664   0.942   2.341
 4987SOL    HW115860   0.667   0.903   2.433
 4987SOL    HW215861   0.609   1.025   2.341
 4988SOL     OW15862   5.619   6.498   3.654
 4988SOL    HW115863   5.596   6.592   3.678
 4988SOL    HW215864   5.693   6.497   3.587
 4989SOL     OW15865   4.476   0.435   2.708
 4989SOL    HW115866   4.414   0.384   2.767
 4989SOL    HW215867   4.550   0.475   2.763
 4990SOL     OW15868   4.695   2.233   5.096
 4990SOL    HW115869   4.668   2.149   5.143
 4990SOL    HW215870   4.624   2.302   5.109
 4991SOL     OW15871   1.527   5.036   4.922
 4991SOL    HW115872   1.515   5.079   4.832
 4991SOL    HW215873   1.624   5.036   4.945
 4992SOL     OW15874   0.608   2.227   3.813
 4992SOL    HW115875   0.543   2.155   3.840
 4992SOL    HW215876   0.563   2.293   3.754
 4993SOL     OW15877   3.712   6.390   4.099
 4993SOL    HW115878   3.626   6.348   4.129
 4993SOL    HW215879   3.715   6.393   4.000
 4994SOL     OW15880   3.192   4.471   5.525
 4994SOL    HW115881   3.108   4.523   5.514
 4994SOL    HW215882   3.269   4.534   5.539
 4995SOL     OW15883   0.294   0.165   5.631
 4995SOL    HW115884   0.322   0.136   5.540
 4995SOL    HW215885   0.196   0.184   5.632
 4996SOL     OW15886   6.827   1.162   4.669
 4996SOL    HW115887   6.863   1.079   4.626
 4996SOL    HW215888   6.816   1.233   4.599
 4997SOL     OW15889   3.872   2.270   1.490
 4997SOL    HW115890   3.777   2.255   1.464
 4997SOL    HW215891   3.877   2.290   1.588
 4998SOL     OW15892   0.583   3.705   3.656
 4998SOL    HW115893   0.638   3.674   3.733
 4998SOL    HW215894   0.534   3.628   3.616
 4999SOL     OW15895   0.698   4.324   4.239
 4999SOL    HW115896   0.727   4.263   4.165
 4999SOL    HW215897   0.653   4.270   4.311
 5000SOL     OW15898   2.680   5.518   2.982
 5000SOL    HW115899   2.779   5.505   2.977
 5000SOL    HW215900   2.648   5.565   2.900
 5001SOL     OW15901   0.748   5.189   2.960
 5001SOL    HW115902   0.692   5.147   2.888
 5001SOL    HW215903   0.712   5.280   2.981
 5002SOL     OW15904   0.547   3.252   3.741
 5002SOL    HW115905   0.520   3.287   3.651
 5002SOL    HW215906   0.474   3.270   3.807
 5003SOL     OW15907   3.887   6.708   4.009
 5003SOL    HW115908   3.949   6.630   4.013
 5003SOL    HW215909   3.849   6.725   4.100
 5004SOL     OW15910   2.280   6.245   6.748
 5004SOL    HW115911   2.275   6.186   6.829
 5004SOL    HW215912   2.208   6.314   6.753
 5005SOL     OW15913   3.530   2.415   6.968
 5005SOL    HW115914   3.564   2.321   6.979
 5005SOL    HW215915   3.594   2.466   6.911
 5006SOL     OW15916   5.576   1.860   1.989
 5006SOL    HW115917   5.567   1.763   1.968
 5006SOL    HW215918   5.490   1.907   1.968
 5007SOL     OW15919   6.075   6.815   2.065
 5007SOL    HW115920   6.117   6.785   2.150
 5007SOL    HW215921   6.090   6.914   2.053
 5008SOL     OW15922   5.413   6.389   2.268
 5008SOL    HW115923   5.380   6.306   2.222
 5008SOL    HW215924   5.493   6.367   2.324
 5009SOL     OW15925   6.919   2.373   0.659
 5009SOL    HW115926   6.904   2.429   0.578
 5009SOL    HW215927   6.958   2.430   0.732
 5010SOL     OW15928   4.008   3.177   0.367
 5010SOL    HW115929   3.922   3.156   0.321
 5010SOL    HW215930   4.077   3.204   0.300
 5011SOL     OW15931   2.293   3.771   6.896
 5011SOL    HW115932   2.291   3.782   6.796
 5011SOL    HW215933   2.205   3.738   6.927
 5012SOL     OW15934   6.202   2.042   5.160
 5012SOL    HW115935   6.109   2.005   5.161
 5012SOL    HW215936   6.263   1.979   5.207
 5013SOL     OW15937   5.800   0.511   5.717
 5013SOL    HW115938   5.752   0.436   5.670
 5013SOL    HW215939   5.879   0.539   5.663
 5014SOL     OW15940   6.494   3.504   1.342
 5014SOL    HW115941   6.422   3.568   1.369
 5014SOL    HW215942   6.541   3.471   1.424
 5015SOL     OW15943   5.475   6.704   4.391
 5015SOL    HW115944   5.479   6.775   4.321
 5015SOL    HW215945   5.475   6.746   4.482
 5016SOL     OW15946   1.270   3.709   5.147
 5016SOL    HW115947   1.304   3.672   5.060
 5016SOL    HW215948   1.348   3.727   5.208
 5017SOL     OW15949   0.690   2.777   2.065
 5017SOL    HW115950   0.780   2.759   2.104
 5017SOL    HW215951   0.697   2.777   1.965
 5018SOL     OW15952   0.529   6.616   1.100
 5018SOL    HW115953   0.523   6.601   1.199
 5018SOL    HW215954   0.623   6.636   1.075
 5019SOL     OW15955   1.224   5.160   5.369
 5019SOL    HW115956   1.278   5.203   5.442
 5019SOL    HW215957   1.148   5.220   5.344
 5020SOL     OW15958   1.732   6.989   4.266
 5020SOL    HW115959   1.680   6.995   4.352
 5020SOL    HW215960   1.814   6.934   4.282
 5021SOL     OW15961   1.424   1.509   1.305
 5021SOL    HW115962   1.339   1.548   1.269
 5021SOL    HW215963   1.502   1.542   1.251
 5022SOL     OW15964   0.517   3.241   1.769
 5022SOL    HW115965   0.474   3.162   1.725
 5022SOL    HW215966   0.466   3.324   1.746
 5023SOL     OW15967   6.970   4.768   2.954
 5023SOL    HW115968   6.975   4.755   2.855
 5023SOL    HW215969   0.006   4.844   2.980
 5024SOL     OW15970   4.490   3.663   1.633
 5024SOL    HW115971   4.416   3.703   1.686
 5024SOL    HW215972   4.484   3.694   1.538
 5025SOL     OW15973   4.033   1.062   3.368
 5025SOL    HW115974   4.111   1.123   3.351
 5025SOL    HW215975   3.984   1.092   3.450
 5026SOL     OW15976   4.770   6.619   5.045
 5026SOL    HW115977   4.865   6.595   5.025
 5026SOL    HW215978   4.733   6.555   5.113
 5027SOL     OW15979   5.383   0.481   6.725
 5027SOL    HW115980   5.365   0.417   6.651
 5027SOL    HW215981   5.300   0.494   6.780
 5028SOL     OW15982   0.421   2.252   2.998
 5028SOL    HW115983   0.502   2.272   3.053
 5028SOL    HW215984   0.390   2.336   2.954
 5029SOL     OW15985   6.257   1.663   2.473
 5029SOL    HW115986   6.218   1.635   2.560
 5029SOL    HW215987   6.277   1.761   2.475
 5030SOL     OW15988   0.017   4.603   6.715
 5030SOL    HW115989   6.967   4.620   6.779
 5030SOL    HW215990   7.004   4.587   6.624
 5031SOL     OW15991   6.862   0.375   5.752
 5031SOL    HW115992   6.912   0.342   5.832
 5031SOL    HW215993   6.785   0.314   5.733
 5032SOL     OW15994   3.129   3.488   5.523
 5032SOL    HW115995   3.136   3.566   5.461
 5032SOL    HW215996   3.105   3.406   5.471
 5033SOL     OW15997   1.857   1.385   6.943
 5033SOL    HW115998   1.831   1.471   6.898
 5033SOL    HW215999   1.832   1.308   6.884
 5034SOL     OW16000   4.239   6.324   4.155
 5034SOL    HW116001   4.187   6.317   4.240
 5034SOL    HW216002   4.259   6.233   4.120
 5035SOL     OW16003   1.305   4.878   3.886
 5035SOL    HW116004   1.266   4.880   3.978
 5035SOL    HW216005   1.252   4.936   3.825
 5036SOL     OW16006   6.387   2.942   5.105
 5036SOL    HW116007   6.470   2.992   5.079
 5036SOL    HW216008   6.313   2.967   5.042
 5037SOL     OW16009   4.715   4.365   1.008
 5037SOL    HW116010   4.778   4.364   0.930
 5037SOL    HW216011   4.648   4.292   0.998
 5038SOL     OW16012   3.421   3.549   3.643
 5038SOL    HW116013   3.361   3.472   3.620
 5038SOL    HW216014   3.386   3.632   3.601
 5039SOL     OW16015   0.621   3.349   6.883
 5039SOL    HW116016   0.531   3.314   6.856
 5039SOL    HW216017   0.668   3.383   6.802
 5040SOL     OW16018   0.971   5.655   6.444
 5040SOL    HW116019   1.001   5.564   6.473
 5040SOL    HW216020   0.897   5.686   6.503
 5041SOL     OW16021   6.926   3.085   2.400
 5041SOL    HW116022   6.877   3.171   2.416
 5041SOL    HW216023   6.921   3.061   2.303
 5042SOL     OW16024   0.519   3.349   6.209
 5042SOL    HW116025   0.427   3.359   6.247
 5042SOL    HW216026   0.521   3.389   6.117
 5043SOL     OW16027   3.876   0.437   0.792
 5043SOL    HW116028   3.779   0.422   0.775
 5043SOL    HW216029   3.911   0.363   0.851
 5044SOL     OW16030   6.187   5.610   0.672
 5044SOL    HW116031   6.257   5.539   0.678
 5044SOL    HW216032   6.223   5.687   0.618
 5045SOL     OW16033   6.160   3.584   6.193
 5045SOL    HW116034   6.066   3.570   6.159
 5045SOL    HW216035   6.219   3.512   6.157
 5046SOL     OW16036   2.919   3.584   3.454
 5046SOL    HW116037   2.897   3.534   3.371
 5046SOL    HW216038   2.938   3.679   3.432
 5047SOL     OW16039   2.220   4.043   3.068
 5047SOL    HW116040   2.288   4.043   3.141
 5047SOL    HW216041   2.152   3.971   3.087
 5048SOL     OW16042   1.422   1.106   5.685
 5048SOL    HW116043   1.356   1.141   5.618
 5048SOL    HW216044   1.439   1.175   5.755
 5049SOL     OW16045   5.584   0.608   6.279
 5049SOL    HW116046   5.667   0.662   6.268
 5049SOL    HW216047   5.608   0.515   6.308
 5050SOL     OW16048   1.972   1.206   0.936
 5050SOL    HW116049   1.885   1.250   0.954
 5050SOL    HW216050   2.047   1.264   0.969
 5051SOL     OW16051   3.538   4.653   1.394
 5051SOL    HW116052   3.592   4.710   1.456
 5051SOL    HW216053   3.443   4.683   1.396
 5052SOL     OW16054   3.466   0.956   5.356
 5052SOL    HW116055   3.528   0.951   5.434
 5052SOL    HW216056   3.518   0.939   5.272
 5053SOL     OW16057   0.553   6.349   2.281
 5053SOL    HW116058   0.546   6.320   2.377
 5053SOL    HW216059   0.644   6.388   2.265
 5054SOL     OW16060   3.939   4.897   4.375
 5054SOL    HW116061   3.969   4.888   4.280
 5054SOL    HW216062   4.013   4.866   4.435
 5055SOL     OW16063   6.640   2.759   6.588
 5055SOL    HW116064   6.642   2.767   6.688
 5055SOL    HW216065   6.563   2.811   6.552
 5056SOL     OW16066   5.316   4.085   5.083
 5056SOL    HW116067   5.269   4.004   5.049
 5056SOL    HW216068   5.322   4.153   5.010
 5057SOL     OW16069   0.870   6.623   2.903
 5057SOL    HW116070   0.842   6.666   2.988
 5057SOL    HW216071   0.799   6.637   2.833
 5058SOL     OW16072   3.181   4.361   6.193
 5058SOL    HW116073   3.090   4.318   6.192
 5058SOL    HW216074   3.204   4.392   6.101
 5059SOL     OW16075   0.436   0.723   2.649
 5059SOL    HW116076   0.529   0.751   2.624
 5059SOL    HW216077   0.373   0.800   2.634
 5060SOL     OW16078   6.356   1.972   5.825
 5060SOL    HW116079   6.404   1.902   5.773
 5060SOL    HW216080   6.380   2.063   5.789
 5061SOL     OW16081   5.149   3.313   0.246
 5061SOL    HW116082   5.161   3.350   0.154
 5061SOL    HW216083   5.237   3.309   0.293
 5062SOL     OW16084   0.608   0.401   1.645
 5062SOL    HW116085   0.674   0.373   1.715
 5062SOL    HW216086   0.589   0.323   1.584
 5063SOL     OW16087   1.303   6.825   2.050
 5063SOL    HW116088   1.254   6.839   2.137
 5063SOL    HW216089   1.401   6.816   2.068
 5064SOL     OW16090   4.447   3.116   0.662
 5064SOL    HW116091   4.488   3.067   0.585
 5064SOL    HW216092   4.518   3.136   0.730
 5065SOL     OW16093   2.703   6.831   5.854
 5065SOL    HW116094   2.693   6.929   5.867
 5065SOL    HW216095   2.624   6.784   5.893
 5066SOL     OW16096   6.054   5.128   1.093
 5066SOL    HW116097   6.092   5.196   1.157
 5066SOL    HW216098   6.128   5.071   1.058
 5067SOL     OW16099   4.741   1.132   0.383
 5067SOL    HW116100   4.835   1.143   0.352
 5067SOL    HW216101   4.681   1.193   0.332
 5068SOL     OW16102   2.465   4.895   0.106
 5068SOL    HW116103   2.376   4.854   0.092
 5068SOL    HW216104   2.528   4.827   0.143
 5069SOL     OW16105   0.325   4.354   2.511
 5069SOL    HW116106   0.340   4.256   2.520
 5069SOL    HW216107   0.228   4.375   2.527
 5070SOL     OW16108   4.913   3.113   3.929
 5070SOL    HW116109   4.854   3.037   3.902
 5070SOL    HW216110   5.005   3.078   3.950
 5071SOL     OW16111   4.859   1.772   6.618
 5071SOL    HW116112   4.790   1.761   6.689
 5071SOL    HW216113   4.927   1.840   6.647
 5072SOL     OW16114   0.772   4.620   1.481
 5072SOL    HW116115   0.681   4.613   1.441
 5072SOL    HW216116   0.839   4.577   1.420
 5073SOL     OW16117   5.017   0.465   2.838
 5073SOL    HW116118   5.031   0.466   2.937
 5073SOL    HW216119   5.018   0.558   2.803
 5074SOL     OW16120   2.541   3.708   6.436
 5074SOL    HW116121   2.546   3.758   6.350
 5074SOL    HW216122   2.568   3.768   6.512
 5075SOL     OW16123   0.241   5.793   5.126
 5075SOL    HW116124   0.215   5.870   5.185
 5075SOL    HW216125   0.202   5.807   5.035
 5076SOL     OW16126   3.328   0.735   1.186
 5076SOL    HW116127   3.373   0.722   1.274
 5076SOL    HW216128   3.277   0.652   1.162
 5077SOL     OW16129   0.383   2.736   3.628
 5077SOL    HW116130   0.354   2.825   3.666
 5077SOL    HW216131   0.359   2.664   3.693
 5078SOL     OW16132   1.413   1.927   4.361
 5078SOL    HW116133   1.419   2.009   4.304
 5078SOL    HW216134   1.473   1.856   4.323
 5079SOL     OW16135   3.929   4.992   5.940
 5079SOL    HW116136   4.012   5.001   5.995
 5079SOL    HW216137   3.865   4.930   5.985
 5080SOL     OW16138   5.294   6.996   5.911
 5080SOL    HW116139   5.303   6.964   5.816
 5080SOL    HW216140   5.351   0.054   5.923
 5081SOL     OW16141   3.738   3.568   3.926
 5081SOL    HW116142   3.804   3.493   3.937
 5081SOL    HW216143   3.786   3.649   3.892
 5082SOL     OW16144   5.121   5.870   4.851
 5082SOL    HW116145   5.204   5.903   4.805
 5082SOL    HW216146   5.072   5.807   4.791
 5083SOL     OW16147   1.897   6.649   1.484
 5083SOL    HW116148   1.817   6.661   1.426
 5083SOL    HW216149   1.869   6.610   1.572
 5084SOL     OW16150   1.371   6.040   3.722
 5084SOL    HW116151   1.353   6.060   3.626
 5084SOL    HW216152   1.401   6.124   3.768
 5085SOL     OW16153   6.169   2.572   6.424
 5085SOL    HW116154   6.182   2.568   6.523
 5085SOL    HW216155   6.249   2.535   6.378
 5086SOL     OW16156   6.319   5.205   3.756
 5086SOL    HW116157   6.323   5.285   3.695
 5086SOL    HW216158   6.409   5.190   3.796
 5087SOL     OW16159   6.584   5.465   5.487
 5087SOL    HW116160   6.660   5.420   5.534
 5087SOL    HW216161   6.513   5.489   5.553
 5088SOL     OW16162   5.680   0.318   6.344
 5088SOL    HW116163   5.686   0.323   6.444
 5088SOL    HW216164   5.616   0.245   6.318
 5089SOL     OW16165   5.576   3.772   3.106
 5089SOL    HW116166   5.614   3.857   3.069
 5089SOL    HW216167   5.650   3.710   3.130
 5090SOL     OW16168   1.907   5.547   1.182
 5090SOL    HW116169   1.927   5.450   1.167
 5090SOL    HW216170   1.841   5.578   1.113
 5091SOL     OW16171   1.323   6.314   2.642
 5091SOL    HW116172   1.415   6.346   2.665
 5091SOL    HW216173   1.286   6.262   2.718
 5092SOL     OW16174   4.277   2.059   1.456
 5092SOL    HW116175   4.284   1.961   1.474
 5092SOL    HW216176   4.343   2.086   1.386
 5093SOL     OW16177   0.634   2.378   1.849
 5093SOL    HW116178   0.643   2.400   1.946
 5093SOL    HW216179   0.576   2.298   1.837
 5094SOL     OW16180   0.646   6.760   5.169
 5094SOL    HW116181   0.737   6.725   5.190
 5094SOL    HW216182   0.588   6.685   5.137
 5095SOL     OW16183   2.980   6.831   4.592
 5095SOL    HW116184   2.907   6.879   4.543
 5095SOL    HW216185   2.953   6.736   4.607
 5096SOL     OW16186   4.248   4.051   1.048
 5096SOL    HW116187   4.214   4.140   1.078
 5096SOL    HW216188   4.215   3.980   1.110
 5097SOL     OW16189   1.571   6.626   6.083
 5097SOL    HW116190   1.482   6.585   6.063
 5097SOL    HW216191   1.600   6.683   6.006
 5098SOL     OW16192   0.209   1.446   3.054
 5098SOL    HW116193   0.284   1.467   2.990
 5098SOL    HW216194   0.128   1.498   3.028
 5099SOL     OW16195   1.385   0.419   5.262
 5099SOL    HW116196   1.442   0.357   5.315
 5099SOL    HW216197   1.326   0.366   5.200
 5100SOL     OW16198   5.645   6.549   6.860
 5100SOL    HW116199   5.588   6.579   6.784
 5100SOL    HW216200   5.605   6.581   6.946
 5101SOL     OW16201   3.955   6.440   0.431
 5101SOL    HW116202   3.891   6.376   0.388
 5101SOL    HW216203   3.938   6.532   0.396
 5102SOL     OW16204   3.872   5.781   5.480
 5102SOL    HW116205   3.897   5.684   5.484
 5102SOL    HW216206   3.947   5.833   5.439
 5103SOL     OW16207   0.027   0.163   4.354
 5103SOL    HW116208   0.036   0.191   4.258
 5103SOL    HW216209   0.114   0.175   4.401
 5104SOL     OW16210   1.477   0.737   1.651
 5104SOL    HW116211   1.478   0.788   1.737
 5104SOL    HW216212   1.488   0.801   1.575
 5105SOL     OW16213   3.325   3.905   6.454
 5105SOL    HW116214   3.261   3.832   6.477
 5105SOL    HW216215   3.339   3.907   6.355
 5106SOL     OW16216   3.385   0.649   2.328
 5106SOL    HW116217   3.334   0.635   2.413
 5106SOL    HW216218   3.426   0.562   2.299
 5107SOL     OW16219   2.118   6.986   5.642
 5107SOL    HW116220   2.179   0.021   5.589
 5107SOL    HW216221   2.167   6.951   5.722
 5108SOL     OW16222   3.326   3.704   4.488
 5108SOL    HW116223   3.309   3.709   4.390
 5108SOL    HW216224   3.424   3.711   4.505
 5109SOL     OW16225   0.106   1.210   1.269
 5109SOL    HW116226   0.087   1.126   1.319
 5109SOL    HW216227   0.094   1.289   1.330
 5110SOL     OW16228   2.169   5.699   5.847
 5110SOL    HW116229   2.159   5.671   5.751
 5110SOL    HW216230   2.096   5.762   5.872
 5111SOL     OW16231   1.308   1.290   0.690
 5111SOL    HW116232   1.396   1.279   0.643
 5111SOL    HW216233   1.273   1.200   0.715
 5112SOL     OW16234   0.410   5.824   3.894
 5112SOL    HW116235   0.487   5.760   3.888
 5112SOL    HW216236   0.431   5.906   3.842
 5113SOL     OW16237   0.939   0.275   6.763
 5113SOL    HW116238   0.933   0.293   6.861
 5113SOL    HW216239   1.033   0.288   6.732
 5114SOL     OW16240   3.926   4.877   0.249
 5114SOL    HW116241   3.910   4.948   0.317
 5114SOL    HW216242   3.898   4.910   0.159
 5115SOL     OW16243   1.533   3.647   5.558
 5115SOL    HW116244   1.518   3.618   5.653
 5115SOL    HW216245   1.630   3.636   5.535
 5116SOL     OW16246   6.818   4.546   0.272
 5116SOL    HW116247   6.900   4.503   0.309
 5116SOL    HW216248   6.843   4.617   0.207
 5117SOL     OW16249   2.360   4.522   4.537
 5117SOL    HW116250   2.457   4.535   4.561
 5117SOL    HW216251   2.305   4.584   4.593
 5118SOL     OW16252   4.501   6.487   0.926
 5118SOL    HW116253   4.562   6.507   1.003
 5118SOL    HW216254   4.555   6.481   0.842
 5119SOL     OW16255   5.925   0.058   2.339
 5119SOL    HW116256   5.866   7.016   2.291
 5119SOL    HW216257   6.009   0.012   2.367
 5120SOL     OW16258   5.067   1.844   2.539
 5120SOL    HW116259   5.119   1.849   2.624
 5120SOL    HW216260   5.129   1.824   2.463
 5121SOL     OW16261   0.230   3.676   5.517
 5121SOL    HW116262   0.231   3.618   5.599
 5121SOL    HW216263   0.246   3.620   5.436
 5122SOL     OW16264   2.085   6.498   3.771
 5122SOL    HW116265   2.024   6.575   3.753
 5122SOL    HW216266   2.153   6.491   3.698
 5123SOL     OW16267   5.406   4.801   2.149
 5123SOL    HW116268   5.314   4.771   2.125
 5123SOL    HW216269   5.463   4.805   2.067
 5124SOL     OW16270   2.418   6.979   6.682
 5124SOL    HW116271   2.402   6.881   6.672
 5124SOL    HW216272   2.460   6.997   6.771
 5125SOL     OW16273   0.058   3.157   4.653
 5125SOL    HW116274   0.040   3.161   4.752
 5125SOL    HW216275   0.005   3.084   4.612
 5126SOL     OW16276   5.526   3.730   6.490
 5126SOL    HW116277   5.592   3.776   6.550
 5126SOL    HW216278   5.565   3.643   6.459
 5127SOL     OW16279   5.990   2.853   6.601
 5127SOL    HW116280   5.986   2.920   6.675
 5127SOL    HW216281   5.903   2.852   6.551
 5128SOL     OW16282   0.194   0.646   6.800
 5128SOL    HW116283   0.211   0.718   6.867
 5128SOL    HW216284   0.253   0.661   6.720
 5129SOL     OW16285   4.305   1.929   2.520
 5129SOL    HW116286   4.335   2.015   2.562
 5129SOL    HW216287   4.258   1.873   2.588
 5130SOL     OW16288   1.244   6.020   4.489
 5130SOL    HW116289   1.250   6.081   4.568
 5130SOL    HW216290   1.272   6.069   4.406
 5131SOL     OW16291   3.120   4.842   3.792
 5131SOL    HW116292   3.150   4.762   3.740
 5131SOL    HW216293   3.196   4.878   3.846
 5132SOL     OW16294   3.314   1.441   6.868
 5132SOL    HW116295   3.218   1.454   6.893
 5132SOL    HW216296   3.355   1.529   6.844
 5133SOL     OW16297   4.567   4.426   6.370
 5133SOL    HW116298   4.492   4.454   6.429
 5133SOL    HW216299   4.653   4.428   6.422
 5134SOL     OW16300   6.860   6.005   1.052
 5134SOL    HW116301   6.957   6.012   1.029
 5134SOL    HW216302   6.830   6.089   1.098
 5135SOL     OW16303   6.648   2.900   2.104
 5135SOL    HW116304   6.620   2.996   2.100
 5135SOL    HW216305   6.722   2.885   2.037
 5136SOL     OW16306   1.057   0.848   6.071
 5136SOL    HW116307   1.073   0.796   6.154
 5136SOL    HW216308   1.006   0.793   6.005
 5137SOL     OW16309   5.734   1.234   4.504
 5137SOL    HW116310   5.784   1.240   4.417
 5137SOL    HW216311   5.675   1.154   4.503
 5138SOL     OW16312   3.177   2.989   3.927
 5138SOL    HW116313   3.235   2.993   3.846
 5138SOL    HW216314   3.100   3.053   3.916
 5139SOL     OW16315   2.589   0.413   4.820
 5139SOL    HW116316   2.651   0.365   4.881
 5139SOL    HW216317   2.588   0.369   4.731
 5140SOL     OW16318   4.097   2.238   6.936
 5140SOL    HW116319   4.139   2.200   6.854
 5140SOL    HW216320   4.168   2.269   6.999
 5141SOL     OW16321   6.363   3.023   1.827
 5141SOL    HW116322   6.277   3.003   1.874
 5141SOL    HW216323   6.383   2.948   1.764
 5142SOL     OW16324   0.205   0.160   2.756
 5142SOL    HW116325   0.220   0.089   2.688
 5142SOL    HW216326   0.156   0.236   2.714
 5143SOL     OW16327   0.053   6.264   3.016
 5143SOL    HW116328   0.088   6.171   3.017
 5143SOL    HW216329   6.993   6.267   2.962
 5144SOL     OW16330   2.403   2.748   5.277
 5144SOL    HW116331   2.435   2.837   5.245
 5144SOL    HW216332   2.480   2.685   5.285
 5145SOL     OW16333   2.367   5.727   6.993
 5145SOL    HW116334   2.350   5.644   6.940
 5145SOL    HW216335   2.330   5.717   0.061
 5146SOL     OW16336   5.127   4.866   6.255
 5146SOL    HW116337   5.192   4.818   6.312
 5146SOL    HW216338   5.078   4.801   6.197
 5147SOL     OW16339   4.739   2.594   3.721
 5147SOL    HW116340   4.732   2.517   3.784
 5147SOL    HW216341   4.660   2.593   3.659
 5148SOL     OW16342   0.764   0.513   6.571
 5148SOL    HW116343   0.863   0.501   6.580
 5148SOL    HW216344   0.733   0.583   6.636
 5149SOL     OW16345   4.637   4.795   3.654
 5149SOL    HW116346   4.644   4.772   3.751
 5149SOL    HW216347   4.726   4.784   3.610
 5150SOL     OW16348   0.250   6.082   3.849
 5150SOL    HW116349   0.211   6.045   3.765
 5150SOL    HW216350   0.287   6.173   3.832
 5151SOL     OW16351   5.948   5.290   2.106
 5151SOL    HW116352   5.921   5.212   2.050
 5151SOL    HW216353   6.034   5.270   2.153
 5152SOL     OW16354   0.777   1.657   0.236
 5152SOL    HW116355   0.807   1.592   0.305
 5152SOL    HW216356   0.733   1.735   0.280
 5153SOL     OW16357   1.182   1.613   1.234
 5153SOL    HW116358   1.131   1.616   1.148
 5153SOL    HW216359   1.189   1.705   1.273
 5154SOL     OW16360   7.015   2.847   0.165
 5154SOL    HW116361   0.088   2.870   0.168
 5154SOL    HW216362   6.967   2.894   0.239
 5155SOL     OW16363   1.646   1.431   0.424
 5155SOL    HW116364   1.692   1.398   0.341
 5155SOL    HW216365   1.713   1.473   0.484
 5156SOL     OW16366   5.227   6.125   5.594
 5156SOL    HW116367   5.297   6.109   5.664
 5156SOL    HW216368   5.170   6.203   5.621
 5157SOL     OW16369   3.461   0.349   1.035
 5157SOL    HW116370   3.407   0.266   1.020
 5157SOL    HW216371   3.466   0.368   1.133
 5158SOL     OW16372   2.101   2.233   1.794
 5158SOL    HW116373   2.077   2.323   1.829
 5158SOL    HW216374   2.057   2.217   1.706
 5159SOL     OW16375   6.506   3.195   5.602
 5159SOL    HW116376   6.589   3.213   5.654
 5159SOL    HW216377   6.446   3.275   5.605
 5160SOL     OW16378   6.484   6.568   3.370
 5160SOL    HW116379   6.530   6.554   3.458
 5160SOL    HW216380   6.401   6.622   3.384
 5161SOL     OW16381   1.155   3.458   0.602
 5161SOL    HW116382   1.177   3.483   0.696
 5161SOL    HW216383   1.063   3.417   0.599
 5162SOL     OW16384   0.190   0.134   3.648
 5162SOL    HW116385   0.156   0.222   3.613
 5162SOL    HW216386   0.255   0.151   3.722
 5163SOL     OW16387   2.928   0.223   1.900
 5163SOL    HW116388   2.960   0.146   1.844
 5163SOL    HW216389   2.828   0.219   1.907
 5164SOL     OW16390   3.167   3.562   0.563
 5164SOL    HW116391   3.069   3.570   0.576
 5164SOL    HW216392   3.188   3.481   0.509
 5165SOL     OW16393   1.489   4.201   6.307
 5165SOL    HW116394   1.567   4.208   6.370
 5165SOL    HW216395   1.515   4.241   6.218
 5166SOL     OW16396   1.488   5.662   0.847
 5166SOL    HW116397   1.440   5.649   0.760
 5166SOL    HW216398   1.454   5.745   0.892
 5167SOL     OW16399   5.611   3.187   5.372
 5167SOL    HW116400   5.643   3.103   5.417
 5167SOL    HW216401   5.511   3.185   5.366
 5168SOL     OW16402   4.307   2.357   2.964
 5168SOL    HW116403   4.239   2.379   2.894
 5168SOL    HW216404   4.260   2.334   3.050
 5169SOL     OW16405   4.250   6.050   4.080
 5169SOL    HW116406   4.225   6.025   3.987
 5169SOL    HW216407   4.195   5.997   4.144
 5170SOL     OW16408   1.433   3.625   6.629
 5170SOL    HW116409   1.409   3.637   6.533
 5170SOL    HW216410   1.528   3.594   6.636
 5171SOL     OW16411   2.146   5.844   5.360
 5171SOL    HW116412   2.240   5.840   5.328
 5171SOL    HW216413   2.087   5.877   5.287
 5172SOL     OW16414   6.721   5.747   4.696
 5172SOL    HW116415   6.786   5.823   4.699
 5172SOL    HW216416   6.664   5.754   4.614
 5173SOL     OW16417   4.539   4.172   5.637
 5173SOL    HW116418   4.543   4.133   5.729
 5173SOL    HW216419   4.503   4.103   5.574
 5174SOL     OW16420   2.267   6.527   3.156
 5174SOL    HW116421   2.175   6.565   3.160
 5174SOL    HW216422   2.296   6.520   3.060
 5175SOL     OW16423   3.299   3.622   6.825
 5175SOL    HW116424   3.396   3.613   6.845
 5175SOL    HW216425   3.254   3.672   6.899
 5176SOL     OW16426   6.033   5.994   0.134
 5176SOL    HW116427   6.032   5.947   0.045
 5176SOL    HW216428   6.113   6.054   0.139
 5177SOL     OW16429   6.090   6.967   0.481
 5177SOL    HW116430   6.115   6.876   0.448
 5177SOL    HW216431   6.060   7.022   0.403
 5178SOL     OW16432   0.613   4.620   2.228
 5178SOL    HW116433   0.662   4.573   2.302
 5178SOL    HW216434   0.516   4.595   2.231
 5179SOL     OW16435   5.287   5.903   2.669
 5179SOL    HW116436   5.299   5.958   2.752
 5179SOL    HW216437   5.237   5.819   2.691
 5180SOL     OW16438   2.620   6.751   2.137
 5180SOL    HW116439   2.689   6.707   2.195
 5180SOL    HW216440   2.547   6.789   2.194
 5181SOL     OW16441   0.430   0.240   5.830
 5181SOL    HW116442   0.383   0.215   5.745
 5181SOL    HW216443   0.528   0.248   5.813
 5182SOL     OW16444   2.799   6.458   3.520
 5182SOL    HW116445   2.727   6.494   3.461
 5182SOL    HW216446   2.871   6.526   3.531
 5183SOL     OW16447   4.156   1.734   3.703
 5183SOL    HW116448   4.126   1.719   3.797
 5183SOL    HW216449   4.203   1.653   3.669
 5184SOL     OW16450   2.811   1.438   3.842
 5184SOL    HW116451   2.844   1.494   3.919
 5184SOL    HW216452   2.711   1.435   3.844
 5185SOL     OW16453   6.294   0.223   1.754
 5185SOL    HW116454   6.211   0.232   1.810
 5185SOL    HW216455   6.279   0.156   1.682
 5186SOL     OW16456   0.220   3.014   6.748
 5186SOL    HW116457   0.133   3.035   6.702
 5186SOL    HW216458   0.215   3.043   6.843
 5187SOL     OW16459   1.902   5.017   5.230
 5187SOL    HW116460   1.899   4.922   5.261
 5187SOL    HW216461   1.865   5.076   5.302
 5188SOL     OW16462   6.415   6.851   2.547
 5188SOL    HW116463   6.478   6.782   2.511
 5188SOL    HW216464   6.467   6.933   2.571
 5189SOL     OW16465   5.110   6.529   6.423
 5189SOL    HW116466   5.155   6.506   6.509
 5189SOL    HW216467   5.179   6.544   6.352
 5190SOL     OW16468   1.787   3.722   0.733
 5190SOL    HW116469   1.772   3.645   0.795
 5190SOL    HW216470   1.831   3.797   0.783
 5191SOL     OW16471   3.078   4.927   2.268
 5191SOL    HW116472   3.132   4.863   2.213
 5191SOL    HW216473   3.099   5.021   2.240
 5192SOL     OW16474   1.872   4.972   2.286
 5192SOL    HW116475   1.854   5.070   2.285
 5192SOL    HW216476   1.970   4.956   2.276
 5193SOL     OW16477   5.299   0.158   5.615
 5193SOL    HW116478   5.329   0.240   5.567
 5193SOL    HW216479   5.199   0.155   5.620
 5194SOL     OW16480   5.544   2.249   6.356
 5194SOL    HW116481   5.530   2.161   6.311
 5194SOL    HW216482   5.633   2.251   6.401
 5195SOL     OW16483   0.166   0.461   4.426
 5195SOL    HW116484   0.113   0.503   4.500
 5195SOL    HW216485   0.134   0.497   4.338
 5196SOL     OW16486   5.615   6.842   2.751
 5196SOL    HW116487   5.687   6.774   2.739
 5196SOL    HW216488   5.593   6.884   2.663
 5197SOL     OW16489   1.098   3.795   5.368
 5197SOL    HW116490   1.171   3.751   5.315
 5197SOL    HW216491   1.049   3.726   5.420
 5198SOL     OW16492   5.791   5.441   3.312
 5198SOL    HW116493   5.758   5.433   3.218
 5198SOL    HW216494   5.880   5.396   3.320
 5199SOL     OW16495   0.253   4.914   1.768
 5199SOL    HW116496   0.192   4.901   1.690
 5199SOL    HW216497   0.348   4.898   1.739
 5200SOL     OW16498   7.018   3.995   4.486
 5200SOL    HW116499   0.052   4.064   4.442
 5200SOL    HW216500   0.008   3.998   4.585
 5201SOL     OW16501   1.582   5.202   4.134
 5201SOL    HW116502   1.678   5.227   4.123
 5201SOL    HW216503   1.546   5.169   4.047
 5202SOL     OW16504   0.547   4.967   1.545
 5202SOL    HW116505   0.476   5.035   1.565
 5202SOL    HW216506   0.618   5.009   1.489
 5203SOL     OW16507   1.045   2.369   0.434
 5203SOL    HW116508   1.105   2.442   0.403
 5203SOL    HW216509   0.951   2.390   0.407
 5204SOL     OW16510   4.906   4.493   6.935
 5204SOL    HW116511   4.885   4.400   6.904
 5204SOL    HW216512   4.991   4.524   6.894
 5205SOL     OW16513   1.762   0.479   1.766
 5205SOL    HW116514   1.669   0.514   1.757
 5205SOL    HW216515   1.760   0.393   1.817
 5206SOL     OW16516   0.193   4.310   5.736
 5206SOL    HW116517   0.123   4.382   5.740
 5206SOL    HW216518   0.203   4.268   5.826
 5207SOL     OW16519   1.945   4.510   4.148
 5207SOL    HW116520   1.973   4.504   4.244
 5207SOL    HW216521   1.862   4.457   4.134
 5208SOL     OW16522   4.123   1.353   6.663
 5208SOL    HW116523   4.110   1.395   6.752
 5208SOL    HW216524   4.159   1.420   6.599
 5209SOL     OW16525   5.032   6.299   2.814
 5209SOL    HW116526   4.985   6.347   2.889
 5209SOL    HW216527   5.016   6.348   2.728
 5210SOL     OW16528   4.769   5.279   3.643
 5210SOL    HW116529   4.698   5.341   3.610
 5210SOL    HW216530   4.848   5.332   3.674
 5211SOL     OW16531   4.141   3.261   2.831
 5211SOL    HW116532   4.148   3.226   2.737
 5211SOL    HW216533   4.087   3.197   2.885
 5212SOL     OW16534   1.058   1.851   0.601
 5212SOL    HW116535   1.120   1.914   0.647
 5212SOL    HW216536   0.974   1.841   0.656
 5213SOL     OW16537   4.374   2.071   6.458
 5213SOL    HW116538   4.340   2.034   6.371
 5213SOL    HW216539   4.430   2.002   6.503
 5214SOL     OW16540   5.779   1.528   5.499
 5214SOL    HW116541   5.684   1.530   5.468
 5214SOL    HW216542   5.815   1.435   5.491
 5215SOL     OW16543   4.897   5.080   2.459
 5215SOL    HW116544   4.803   5.113   2.467
 5215SOL    HW216545   4.948   5.103   2.542
 5216SOL     OW16546   4.992   5.083   1.002
 5216SOL    HW116547   5.069   5.053   0.946
 5216SOL    HW216548   4.962   5.008   1.061
 5217SOL     OW16549   2.392   4.808   3.936
 5217SOL    HW116550   2.475   4.862   3.939
 5217SOL    HW216551   2.413   4.713   3.957
 5218SOL     OW16552   1.528   6.593   3.598
 5218SOL    HW116553   1.613   6.545   3.622
 5218SOL    HW216554   1.529   6.684   3.638
 5219SOL     OW16555   2.982   6.127   0.229
 5219SOL    HW116556   2.896   6.098   0.270
 5219SOL    HW216557   3.018   6.207   0.277
 5220SOL     OW16558   0.542   6.385   2.766
 5220SOL    HW116559   0.461   6.371   2.824
 5220SOL    HW216560   0.536   6.324   2.687
 5221SOL     OW16561   5.150   1.725   4.871
 5221SOL    HW116562   5.106   1.731   4.781
 5221SOL    HW216563   5.116   1.798   4.930
 5222SOL     OW16564   1.176   0.641   2.879
 5222SOL    HW116565   1.271   0.667   2.862
 5222SOL    HW216566   1.131   0.621   2.792
 5223SOL     OW16567   5.004   0.011   1.810
 5223SOL    HW116568   4.984   6.953   1.756
 5223SOL    HW216569   5.040   0.082   1.751
 5224SOL     OW16570   5.832   2.038   2.342
 5224SOL    HW116571   5.932   2.040   2.354
 5224SOL    HW216572   5.788   2.069   2.427
 5225SOL     OW16573   5.397   6.066   5.202
 5225SOL    HW116574   5.470   6.046   5.136
 5225SOL    HW216575   5.350   5.981   5.227
 5226SOL     OW16576   1.293   6.479   4.055
 5226SOL    HW116577   1.272   6.382   4.057
 5226SOL    HW216578   1.392   6.491   4.042
 5227SOL     OW16579   5.942   4.750   3.162
 5227SOL    HW116580   5.887   4.763   3.244
 5227SOL    HW216581   5.935   4.832   3.104
 5228SOL     OW16582   5.317   1.355   0.710
 5228SOL    HW116583   5.350   1.362   0.805
 5228SOL    HW216584   5.393   1.331   0.650
 5229SOL     OW16585   1.374   4.369   5.460
 5229SOL    HW116586   1.465   4.411   5.452
 5229SOL    HW216587   1.313   4.410   5.392
 5230SOL     OW16588   0.594   0.138   6.886
 5230SOL    HW116589   0.599   0.156   6.788
 5230SOL    HW216590   0.609   0.040   6.903
 5231SOL     OW16591   4.058   3.107   3.063
 5231SOL    HW116592   4.141   3.061   3.094
 5231SOL    HW216593   3.989   3.105   3.135
 5232SOL     OW16594   4.871   2.552   6.609
 5232SOL    HW116595   4.923   2.630   6.646
 5232SOL    HW216596   4.911   2.467   6.644
 5233SOL     OW16597   0.950   0.334   2.560
 5233SOL    HW116598   0.915   0.299   2.473
 5233SOL    HW216599   1.028   0.277   2.589
 5234SOL     OW16600   3.896   7.007   0.829
 5234SOL    HW116601   3.903   0.060   0.893
 5234SOL    HW216602   3.929   0.012   0.739
 5235SOL     OW16603   0.776   3.140   1.149
 5235SOL    HW116604   0.808   3.211   1.087
 5235SOL    HW216605   0.692   3.170   1.195
 5236SOL     OW16606   5.391   2.983   1.043
 5236SOL    HW116607   5.311   2.996   1.102
 5236SOL    HW216608   5.437   2.898   1.067
 5237SOL     OW16609   2.499   1.826   5.231
 5237SOL    HW116610   2.570   1.755   5.233
 5237SOL    HW216611   2.498   1.874   5.318
 5238SOL     OW16612   1.865   4.950   0.871
 5238SOL    HW116613   1.880   4.851   0.860
 5238SOL    HW216614   1.802   4.965   0.947
 5239SOL     OW16615   3.069   3.218   4.210
 5239SOL    HW116616   3.092   3.121   4.200
 5239SOL    HW216617   3.026   3.233   4.299
 5240SOL     OW16618   3.385   2.109   4.987
 5240SOL    HW116619   3.421   2.136   5.076
 5240SOL    HW216620   3.303   2.162   4.966
 5241SOL     OW16621   1.778   6.094   7.018
 5241SOL    HW116622   1.835   6.152   6.960
 5241SOL    HW216623   1.744   6.017   6.965
 5242SOL     OW16624   5.829   1.146   5.323
 5242SOL    HW116625   5.763   1.112   5.391
 5242SOL    HW216626   5.920   1.149   5.363
 5243SOL     OW16627   1.748   4.852   1.191
 5243SOL    HW116628   1.681   4.925   1.206
 5243SOL    HW216629   1.714   4.767   1.232
 5244SOL     OW16630   5.138   4.371   5.657
 5244SOL    HW116631   5.063   4.436   5.668
 5244SOL    HW216632   5.217   4.417   5.619
 5245SOL     OW16633   4.751   3.805   6.787
 5245SOL    HW116634   4.821   3.736   6.767
 5245SOL    HW216635   4.661   3.768   6.767
 5246SOL     OW16636   1.123   2.982   2.797
 5246SOL    HW116637   1.047   3.048   2.794
 5246SOL    HW216638   1.195   3.017   2.857
 5247SOL     OW16639   0.922   5.137   1.194
 5247SOL    HW116640   1.019   5.136   1.170
 5247SOL    HW216641   0.901   5.219   1.246
 5248SOL     OW16642   4.934   1.146   5.967
 5248SOL    HW116643   4.999   1.080   5.928
 5248SOL    HW216644   4.845   1.135   5.924
 5249SOL     OW16645   1.246   4.930   4.760
 5249SOL    HW116646   1.188   4.985   4.820
 5249SOL    HW216647   1.316   4.885   4.814
 5250SOL     OW16648   0.652   1.511   6.124
 5250SOL    HW116649   0.698   1.518   6.212
 5250SOL    HW216650   0.682   1.427   6.078
 5251SOL     OW16651   6.593   3.362   1.544
 5251SOL    HW116652   6.510   3.311   1.565
 5251SOL    HW216653   6.664   3.300   1.512
 5252SOL     OW16654   4.065   6.106   0.708
 5252SOL    HW116655   4.056   6.034   0.776
 5252SOL    HW216656   4.136   6.171   0.736
 5253SOL     OW16657   5.820   3.581   3.982
 5253SOL    HW116658   5.796   3.488   3.955
 5253SOL    HW216659   5.870   3.625   3.908
 5254SOL     OW16660   4.499   1.211   3.899
 5254SOL    HW116661   4.544   1.235   3.813
 5254SOL    HW216662   4.492   1.111   3.906
 5255SOL     OW16663   3.277   6.418   5.042
 5255SOL    HW116664   3.183   6.395   5.018
 5255SOL    HW216665   3.278   6.501   5.098
 5256SOL     OW16666   5.639   6.453   4.120
 5256SOL    HW116667   5.591   6.535   4.088
 5256SOL    HW216668   5.688   6.412   4.043
 5257SOL     OW16669   3.590   0.659   1.382
 5257SOL    HW116670   3.650   0.588   1.420
 5257SOL    HW216671   3.562   0.720   1.456
 5258SOL     OW16672   5.613   3.640   2.404
 5258SOL    HW116673   5.655   3.557   2.439
 5258SOL    HW216674   5.666   3.720   2.435
 5259SOL     OW16675   4.632   5.117   2.524
 5259SOL    HW116676   4.592   5.046   2.466
 5259SOL    HW216677   4.613   5.207   2.485
 5260SOL     OW16678   5.603   3.247   1.448
 5260SOL    HW116679   5.657   3.212   1.371
 5260SOL    HW216680   5.590   3.174   1.516
 5261SOL     OW16681   1.228   2.416   4.787
 5261SOL    HW116682   1.321   2.453   4.784
 5261SOL    HW216683   1.162   2.490   4.796
 5262SOL     OW16684   2.766   6.752   1.764
 5262SOL    HW116685   2.762   6.834   1.820
 5262SOL    HW216686   2.803   6.775   1.673
 5263SOL     OW16687   1.035   6.821   6.737
 5263SOL    HW116688   1.070   6.728   6.748
 5263SOL    HW216689   0.978   6.825   6.655
 5264SOL     OW16690   0.322   2.372   1.000
 5264SOL    HW116691   0.412   2.383   0.959
 5264SOL    HW216692   0.314   2.432   1.080
 5265SOL     OW16693   5.035   4.676   1.406
 5265SOL    HW116694   5.010   4.629   1.322
 5265SOL    HW216695   5.092   4.615   1.462
 5266SOL     OW16696   1.670   6.712   1.360
 5266SOL    HW116697   1.591   6.651   1.372
 5266SOL    HW216698   1.639   6.799   1.322
 5267SOL     OW16699   4.633   4.707   4.916
 5267SOL    HW116700   4.624   4.804   4.896
 5267SOL    HW216701   4.707   4.667   4.862
 5268SOL     OW16702   5.698   5.200   5.005
 5268SOL    HW116703   5.669   5.289   4.970
 5268SOL    HW216704   5.776   5.167   4.953
 5269SOL     OW16705   2.302   5.772   3.608
 5269SOL    HW116706   2.253   5.777   3.695
 5269SOL    HW216707   2.240   5.740   3.536
 5270SOL     OW16708   6.229   2.763   2.043
 5270SOL    HW116709   6.237   2.825   2.121
 5270SOL    HW216710   6.318   2.723   2.023
 5271SOL     OW16711   4.914   4.443   4.812
 5271SOL    HW116712   4.899   4.457   4.910
 5271SOL    HW216713   5.013   4.445   4.793
 5272SOL     OW16714   1.413   0.657   4.643
 5272SOL    HW116715   1.375   0.724   4.706
 5272SOL    HW216716   1.477   0.702   4.581
 5273SOL     OW16717   0.563   1.363   3.701
 5273SOL    HW116718   0.533   1.458   3.695
 5273SOL    HW216719   0.653   1.360   3.745
 5274SOL     OW16720   6.247   5.309   4.261
 5274SOL    HW116721   6.292   5.393   4.232
 5274SOL    HW216722   6.149   5.317   4.242
 5275SOL     OW16723   1.804   6.796   0.111
 5275SOL    HW116724   1.781   6.854   0.190
 5275SOL    HW216725   1.762   6.832   0.029
 5276SOL     OW16726   0.198   0.190   1.579
 5276SOL    HW116727   0.159   0.253   1.512
 5276SOL    HW216728   0.216   0.102   1.536
 5277SOL     OW16729   0.986   1.866   3.337
 5277SOL    HW116730   1.003   1.914   3.423
 5277SOL    HW216731   0.891   1.837   3.333
 5278SOL     OW16732   0.691   5.096   5.536
 5278SOL    HW116733   0.724   5.165   5.600
 5278SOL    HW216734   0.768   5.059   5.485
 5279SOL     OW16735   1.477   5.914   6.613
 5279SOL    HW116736   1.494   5.880   6.705
 5279SOL    HW216737   1.500   5.844   6.546
 5280SOL     OW16738   4.127   5.679   4.492
 5280SOL    HW116739   4.146   5.584   4.468
 5280SOL    HW216740   4.035   5.685   4.531
 5281SOL     OW16741   2.059   0.867   4.981
 5281SOL    HW116742   2.052   0.949   5.037
 5281SOL    HW216743   1.994   0.798   5.014
 5282SOL     OW16744   1.378   0.984   2.110
 5282SOL    HW116745   1.332   1.062   2.068
 5282SOL    HW216746   1.310   0.916   2.138
 5283SOL     OW16747   0.352   1.014   4.271
 5283SOL    HW116748   0.367   0.933   4.327
 5283SOL    HW216749   0.439   1.045   4.233
 5284SOL     OW16750   5.032   2.216   2.146
 5284SOL    HW116751   4.959   2.225   2.077
 5284SOL    HW216752   5.002   2.154   2.219
 5285SOL     OW16753   0.862   3.109   4.378
 5285SOL    HW116754   0.810   3.099   4.293
 5285SOL    HW216755   0.943   3.165   4.360
 5286SOL     OW16756   6.071   2.934   1.343
 5286SOL    HW116757   5.986   2.909   1.391
 5286SOL    HW216758   6.098   3.026   1.370
 5287SOL     OW16759   2.757   5.245   1.085
 5287SOL    HW116760   2.834   5.206   1.135
 5287SOL    HW216761   2.696   5.292   1.148
 5288SOL     OW16762   5.022   0.576   2.490
 5288SOL    HW116763   4.997   0.481   2.509
 5288SOL    HW216764   5.002   0.633   2.570
 5289SOL     OW16765   1.503   4.742   6.543
 5289SOL    HW116766   1.465   4.791   6.621
 5289SOL    HW216767   1.559   4.666   6.576
 5290SOL     OW16768   1.509   3.105   5.595
 5290SOL    HW116769   1.507   3.010   5.565
 5290SOL    HW216770   1.534   3.164   5.519
 5291SOL     OW16771   2.663   4.793   4.958
 5291SOL    HW116772   2.737   4.735   4.994
 5291SOL    HW216773   2.647   4.869   5.021
 5292SOL     OW16774   6.727   3.924   5.973
 5292SOL    HW116775   6.709   3.985   5.896
 5292SOL    HW216776   6.683   3.959   6.056
 5293SOL     OW16777   2.286   5.590   4.557
 5293SOL    HW116778   2.294   5.533   4.475
 5293SOL    HW216779   2.267   5.532   4.636
 5294SOL     OW16780   3.913   0.762   5.038
 5294SOL    HW116781   3.909   0.854   5.078
 5294SOL    HW216782   3.989   0.757   4.974
 5295SOL     OW16783   3.316   0.521   1.925
 5295SOL    HW116784   3.374   0.556   1.998
 5295SOL    HW216785   3.234   0.480   1.964
 5296SOL     OW16786   3.924   4.372   0.904
 5296SOL    HW116787   3.963   4.280   0.900
 5296SOL    HW216788   3.946   4.422   0.821
 5297SOL     OW16789   2.419   4.249   0.667
 5297SOL    HW116790   2.406   4.238   0.569
 5297SOL    HW216791   2.466   4.169   0.704
 5298SOL     OW16792   2.092   0.149   0.574
 5298SOL    HW116793   2.180   0.194   0.567
 5298SOL    HW216794   2.065   0.113   0.484
 5299SOL     OW16795   3.130   1.903   0.295
 5299SOL    HW116796   3.052   1.845   0.273
 5299SOL    HW216797   3.100   1.998   0.303
 5300SOL     OW16798   2.165   4.246   0.084
 5300SOL    HW116799   2.258   4.283   0.088
 5300SOL    HW216800   2.144   4.216   7.015
 5301SOL     OW16801   4.656   0.345   6.076
 5301SOL    HW116802   4.581   0.297   6.122
 5301SOL    HW216803   4.625   0.437   6.050
 5302SOL     OW16804   5.434   5.606   3.034
 5302SOL    HW116805   5.392   5.569   2.951
 5302SOL    HW216806   5.364   5.619   3.104
 5303SOL     OW16807   6.705   4.824   6.328
 5303SOL    HW116808   6.804   4.826   6.310
 5303SOL    HW216809   6.675   4.729   6.333
 5304SOL     OW16810   6.500   1.408   1.398
 5304SOL    HW116811   6.465   1.319   1.427
 5304SOL    HW216812   6.593   1.398   1.362
 5305SOL     OW16813   1.288   5.584   2.862
 5305SOL    HW116814   1.272   5.595   2.764
 5305SOL    HW216815   1.314   5.489   2.881
 5306SOL     OW16816   6.659   3.548   5.767
 5306SOL    HW116817   6.660   3.452   5.742
 5306SOL    HW216818   6.639   3.557   5.865
 5307SOL     OW16819   5.193   2.185   0.731
 5307SOL    HW116820   5.130   2.230   0.795
 5307SOL    HW216821   5.256   2.127   0.782
 5308SOL     OW16822   1.319   4.393   3.249
 5308SOL    HW116823   1.263   4.403   3.166
 5308SOL    HW216824   1.273   4.332   3.313
 5309SOL     OW16825   4.592   5.906   3.098
 5309SOL    HW116826   4.680   5.926   3.056
 5309SOL    HW216827   4.568   5.980   3.162
 5310SOL     OW16828   6.128   2.908   2.963
 5310SOL    HW116829   6.067   2.861   3.027
 5310SOL    HW216830   6.203   2.952   3.014
 5311SOL     OW16831   6.077   0.303   0.587
 5311SOL    HW116832   6.176   0.293   0.601
 5311SOL    HW216833   6.038   0.358   0.661
 5312SOL     OW16834   0.315   6.965   1.535
 5312SOL    HW116835   0.354   6.929   1.450
 5312SOL    HW216836   0.362   6.924   1.613
 5313SOL     OW16837   6.439   5.213   5.174
 5313SOL    HW116838   6.353   5.163   5.186
 5313SOL    HW216839   6.436   5.298   5.227
 5314SOL     OW16840   6.085   6.708   1.245
 5314SOL    HW116841   6.159   6.716   1.312
 5314SOL    HW216842   6.103   6.630   1.185
 5315SOL     OW16843   4.281   1.496   3.641
 5315SOL    HW116844   4.202   1.436   3.633
 5315SOL    HW216845   4.345   1.476   3.567
 5316SOL     OW16846   0.886   2.778   4.762
 5316SOL    HW116847   0.904   2.850   4.694
 5316SOL    HW216848   0.827   2.815   4.834
 5317SOL     OW16849   6.497   1.455   5.999
 5317SOL    HW116850   6.502   1.373   6.056
 5317SOL    HW216851   6.423   1.445   5.932
 5318SOL     OW16852   6.353   3.251   0.011
 5318SOL    HW116853   6.381   3.326   6.975
 5318SOL    HW216854   6.300   3.184   6.983
 5319SOL     OW16855   4.217   6.959   0.890
 5319SOL    HW116856   4.169   0.003   0.945
 5319SOL    HW216857   4.313   6.986   0.880
 5320SOL     OW16858   3.127   6.116   1.360
 5320SOL    HW116859   3.124   6.114   1.260
 5320SOL    HW216860   3.202   6.174   1.390
 5321SOL     OW16861   2.207   4.668   4.675
 5321SOL    HW116862   2.270   4.717   4.736
 5321SOL    HW216863   2.168   4.733   4.609
 5322SOL     OW16864   5.667   6.840   1.863
 5322SOL    HW116865   5.644   6.745   1.878
 5322SOL    HW216866   5.630   6.896   1.936
 5323SOL     OW16867   4.517   1.865   5.381
 5323SOL    HW116868   4.491   1.773   5.409
 5323SOL    HW216869   4.554   1.915   5.459
 5324SOL     OW16870   2.499   2.417   0.111
 5324SOL    HW116871   2.493   2.513   0.140
 5324SOL    HW216872   2.568   2.370   0.166
 5325SOL     OW16873   2.818   2.204   5.147
 5325SOL    HW116874   2.879   2.280   5.172
 5325SOL    HW216875   2.857   2.119   5.182
 5326SOL     OW16876   6.367   6.287   2.642
 5326SOL    HW116877   6.341   6.353   2.713
 5326SOL    HW216878   6.305   6.209   2.645
 5327SOL     OW16879   5.507   2.601   4.645
 5327SOL    HW116880   5.445   2.527   4.619
 5327SOL    HW216881   5.602   2.569   4.640
 5328SOL     OW16882   4.000   4.131   6.543
 5328SOL    HW116883   3.956   4.176   6.466
 5328SOL    HW216884   3.962   4.166   6.628
 5329SOL     OW16885   1.577   6.182   6.380
 5329SOL    HW116886   1.584   6.108   6.314
 5329SOL    HW216887   1.614   6.152   6.468
 5330SOL     OW16888   3.178   2.924   0.409
 5330SOL    HW116889   3.175   2.938   0.508
 5330SOL    HW216890   3.156   2.829   0.388
 5331SOL     OW16891   6.350   1.092   6.627
 5331SOL    HW116892   6.397   1.172   6.591
 5331SOL    HW216893   6.369   1.083   6.725
 5332SOL     OW16894   1.439   4.601   1.948
 5332SOL    HW116895   1.405   4.528   2.008
 5332SOL    HW216896   1.403   4.587   1.856
 5333SOL     OW16897   1.027   6.382   4.284
 5333SOL    HW116898   1.008   6.480   4.275
 5333SOL    HW216899   1.005   6.335   4.199
 5334SOL     OW16900   2.796   6.963   4.424
 5334SOL    HW116901   2.700   6.935   4.425
 5334SOL    HW216902   2.803   0.036   4.399
 5335SOL     OW16903   6.911   5.339   0.517
 5335SOL    HW116904   6.816   5.363   0.499
 5335SOL    HW216905   6.970   5.386   0.450
 5336SOL     OW16906   1.859   3.528   2.314
 5336SOL    HW116907   1.801   3.595   2.267
 5336SOL    HW216908   1.891   3.567   2.401
 5337SOL     OW16909   5.103   3.896   1.143
 5337SOL    HW116910   5.110   3.990   1.176
 5337SOL    HW216911   5.110   3.833   1.220
 5338SOL     OW16912   6.573   2.010   0.110
 5338SOL    HW116913   6.634   1.949   0.059
 5338SOL    HW216914   6.480   1.974   0.110
 5339SOL     OW16915   6.801   1.578   3.560
 5339SOL    HW116916   6.876   1.596   3.497
 5339SOL    HW216917   6.804   1.482   3.589
 5340SOL     OW16918   5.649   2.889   0.040
 5340SOL    HW116919   5.747   2.903   0.027
 5340SOL    HW216920   5.599   2.949   7.002
 5341SOL     OW16921   4.205   1.340   5.942
 5341SOL    HW116922   4.305   1.337   5.952
 5341SOL    HW216923   4.164   1.361   6.031
 5342SOL     OW16924   4.005   0.456   5.158
 5342SOL    HW116925   4.088   0.402   5.146
 5342SOL    HW216926   4.001   0.527   5.088
 5343SOL     OW16927   3.923   3.341   2.359
 5343SOL    HW116928   3.908   3.440   2.361
 5343SOL    HW216929   3.843   3.294   2.396
 5344SOL     OW16930   1.902   2.927   3.553
 5344SOL    HW116931   1.961   2.996   3.513
 5344SOL    HW216932   1.853   2.966   3.631
 5345SOL     OW16933   4.747   6.699   1.113
 5345SOL    HW116934   4.657   6.723   1.149
 5345SOL    HW216935   4.759   6.742   1.023
 5346SOL     OW16936   2.738   6.504   3.232
 5346SOL    HW116937   2.737   6.495   3.132
 5346SOL    HW216938   2.765   6.598   3.256
 5347SOL     OW16939   0.315   2.042   1.501
 5347SOL    HW116940   0.344   2.014   1.592
 5347SOL    HW216941   0.371   2.119   1.469
 5348SOL     OW16942   1.227   1.653   0.713
 5348SOL    HW116943   1.189   1.742   0.688
 5348SOL    HW216944   1.252   1.603   0.630
 5349SOL     OW16945   7.014   1.540   0.728
 5349SOL    HW116946   6.926   1.544   0.777
 5349SOL    HW216947   0.002   1.624   0.675
 5350SOL     OW16948   2.767   0.986   6.417
 5350SOL    HW116949   2.859   0.978   6.455
 5350SOL    HW216950   2.772   1.028   6.327
 5351SOL     OW16951   5.081   6.250   1.063
 5351SOL    HW116952   5.046   6.336   1.026
 5351SOL    HW216953   5.179   6.258   1.078
 5352SOL     OW16954   2.363   5.471   3.369
 5352SOL    HW116955   2.459   5.491   3.350
 5352SOL    HW216956   2.356   5.379   3.409
 5353SOL     OW16957   4.610   5.738   4.882
 5353SOL    HW116958   4.614   5.690   4.970
 5353SOL    HW216959   4.699   5.782   4.864
 5354SOL     OW16960   1.792   4.833   2.036
 5354SOL    HW116961   1.797   4.898   1.960
 5354SOL    HW216962   1.812   4.880   2.122
 5355SOL     OW16963   4.587   1.556   3.551
 5355SOL    HW116964   4.681   1.585   3.535
 5355SOL    HW216965   4.555   1.593   3.638
 5356SOL     OW16966   6.291   3.893   1.143
 5356SOL    HW116967   6.266   3.805   1.103
 5356SOL    HW216968   6.385   3.916   1.118
 5357SOL     OW16969   3.988   0.278   0.267
 5357SOL    HW116970   4.066   0.224   0.300
 5357SOL    HW216971   3.999   0.373   0.294
 5358SOL     OW16972   4.425   2.085   0.998
 5358SOL    HW116973   4.510   2.038   0.973
 5358SOL    HW216974   4.443   2.183   1.010
 5359SOL     OW16975   2.448   1.742   0.823
 5359SOL    HW116976   2.355   1.749   0.787
 5359SOL    HW216977   2.445   1.731   0.922
 5360SOL     OW16978   3.720   6.546   6.005
 5360SOL    HW116979   3.776   6.498   5.939
 5360SOL    HW216980   3.632   6.570   5.964
 5361SOL     OW16981   2.075   1.232   4.840
 5361SOL    HW116982   2.169   1.261   4.858
 5361SOL    HW216983   2.045   1.172   4.914
 5362SOL     OW16984   4.734   5.106   2.793
 5362SOL    HW116985   4.715   5.121   2.696
 5362SOL    HW216986   4.654   5.067   2.837
 5363SOL     OW16987   0.848   5.325   6.420
 5363SOL    HW116988   0.781   5.255   6.399
 5363SOL    HW216989   0.915   5.331   6.346
 5364SOL     OW16990   6.809   6.203   0.767
 5364SOL    HW116991   6.767   6.192   0.857
 5364SOL    HW216992   6.905   6.177   0.772
 5365SOL     OW16993   4.564   2.582   6.013
 5365SOL    HW116994   4.655   2.545   5.996
 5365SOL    HW216995   4.499   2.506   6.021
 5366SOL     OW16996   4.336   4.362   0.459
 5366SOL    HW116997   4.265   4.306   0.416
 5366SOL    HW216998   4.299   4.407   0.540
 5367SOL     OW16999   0.671   4.852   1.042
 5367SOL    HW117000   0.573   4.838   1.050
 5367SOL    HW217001   0.713   4.850   1.133
 5368SOL     OW17002   5.551   1.966   3.177
 5368SOL    HW117003   5.553   2.042   3.243
 5368SOL    HW217004   5.623   1.900   3.201
 5369SOL     OW17005   2.559   4.611   3.122
 5369SOL    HW117006   2.505   4.550   3.065
 5369SOL    HW217007   2.619   4.667   3.064
 5370SOL     OW17008   3.777   2.839   1.558
 5370SOL    HW117009   3.768   2.760   1.618
 5370SOL    HW217010   3.687   2.868   1.526
 5371SOL     OW17011   1.733   4.448   4.325
 5371SOL    HW117012   1.777   4.382   4.385
 5371SOL    HW217013   1.692   4.521   4.380
 5372SOL     OW17014   2.790   4.762   2.787
 5372SOL    HW117015   2.747   4.692   2.729
 5372SOL    HW217016   2.846   4.823   2.730
 5373SOL     OW17017   3.060   4.972   4.376
 5373SOL    HW117018   3.129   4.987   4.446
 5373SOL    HW217019   2.996   4.901   4.406
 5374SOL     OW17020   1.833   2.820   6.628
 5374SOL    HW117021   1.838   2.725   6.597
 5374SOL    HW217022   1.887   2.878   6.567
 5375SOL     OW17023   1.542   4.691   4.722
 5375SOL    HW117024   1.572   4.775   4.678
 5375SOL    HW217025   1.605   4.617   4.699
 5376SOL     OW17026   1.456   3.585   1.878
 5376SOL    HW117027   1.478   3.506   1.820
 5376SOL    HW217028   1.365   3.620   1.854
 5377SOL     OW17029   0.339   0.455   1.610
 5377SOL    HW117030   0.432   0.423   1.627
 5377SOL    HW217031   0.274   0.382   1.633
 5378SOL     OW17032   6.043   0.722   7.012
 5378SOL    HW117033   6.111   0.679   0.047
 5378SOL    HW217034   6.069   0.816   6.993
 5379SOL     OW17035   0.280   5.359   3.365
 5379SOL    HW117036   0.362   5.306   3.345
 5379SOL    HW217037   0.236   5.323   3.448
 5380SOL     OW17038   2.309   6.756   3.665
 5380SOL    HW117039   2.274   6.746   3.571
 5380SOL    HW217040   2.344   6.849   3.678
 5381SOL     OW17041   5.800   4.071   0.851
 5381SOL    HW117042   5.752   4.154   0.824
 5381SOL    HW217043   5.899   4.084   0.838
 5382SOL     OW17044   3.202   1.172   1.313
 5382SOL    HW117045   3.258   1.167   1.231
 5382SOL    HW217046   3.105   1.166   1.289
 5383SOL     OW17047   2.820   2.238   5.449
 5383SOL    HW117048   2.828   2.236   5.549
 5383SOL    HW217049   2.880   2.308   5.412
 5384SOL     OW17050   6.208   6.656   4.500
 5384SOL    HW117051   6.240   6.704   4.418
 5384SOL    HW217052   6.109   6.664   4.507
 5385SOL     OW17053   3.009   3.958   2.429
 5385SOL    HW117054   3.035   3.970   2.333
 5385SOL    HW217055   2.940   4.026   2.454
 5386SOL     OW17056   4.725   6.301   4.150
 5386SOL    HW117057   4.797   6.328   4.085
 5386SOL    HW217058   4.638   6.341   4.122
 5387SOL     OW17059   3.194   5.340   2.034
 5387SOL    HW117060   3.162   5.324   1.941
 5387SOL    HW217061   3.157   5.427   2.068
 5388SOL     OW17062   5.773   6.678   2.592
 5388SOL    HW117063   5.687   6.693   2.544
 5388SOL    HW217064   5.849   6.681   2.526
 5389SOL     OW17065   4.587   0.808   1.601
 5389SOL    HW117066   4.564   0.830   1.695
 5389SOL    HW217067   4.574   0.888   1.543
 5390SOL     OW17068   5.966   5.111   4.895
 5390SOL    HW117069   6.009   5.186   4.945
 5390SOL    HW217070   5.970   5.130   4.797
 5391SOL     OW17071   2.801   3.363   0.414
 5391SOL    HW117072   2.832   3.416   0.493
 5391SOL    HW217073   2.862   3.285   0.401
 5392SOL     OW17074   5.783   3.034   1.618
 5392SOL    HW117075   5.819   2.972   1.549
 5392SOL    HW217076   5.683   3.023   1.624
 5393SOL     OW17077   6.877   6.975   0.044
 5393SOL    HW117078   6.930   0.032   0.069
 5393SOL    HW217079   6.804   6.960   0.111
 5394SOL     OW17080   0.572   3.941   6.112
 5394SOL    HW117081   0.579   3.998   6.030
 5394SOL    HW217082   0.548   3.847   6.086
 5395SOL     OW17083   4.242   0.697   0.649
 5395SOL    HW117084   4.274   0.773   0.592
 5395SOL    HW217085   4.208   0.624   0.590
 5396SOL     OW17086   5.291   3.934   2.033
 5396SOL    HW117087   5.208   3.946   1.978
 5396SOL    HW217088   5.268   3.891   2.120
 5397SOL     OW17089   6.800   3.146   1.707
 5397SOL    HW117090   6.897   3.137   1.728
 5397SOL    HW217091   6.789   3.178   1.613
 5398SOL     OW17092   2.925   2.361   1.656
 5398SOL    HW117093   3.024   2.375   1.650
 5398SOL    HW217094   2.893   2.393   1.745
 5399SOL     OW17095   2.238   6.078   0.868
 5399SOL    HW117096   2.259   6.115   0.778
 5399SOL    HW217097   2.228   6.152   0.934
 5400SOL     OW17098   2.608   4.650   0.415
 5400SOL    HW117099   2.646   4.688   0.331
 5400SOL    HW217100   2.519   4.609   0.396
 5401SOL     OW17101   6.070   3.254   1.915
 5401SOL    HW117102   6.037   3.160   1.905
 5401SOL    HW217103   5.993   3.313   1.941
 5402SOL     OW17104   2.301   6.228   2.055
 5402SOL    HW117105   2.331   6.242   2.149
 5402SOL    HW217106   2.376   6.253   1.993
 5403SOL     OW17107   0.222   3.483   6.651
 5403SOL    HW117108   0.301   3.543   6.665
 5403SOL    HW217109   0.203   3.476   6.553
 5404SOL     OW17110   1.229   3.246   3.885
 5404SOL    HW117111   1.170   3.176   3.843
 5404SOL    HW217112   1.179   3.332   3.893
 5405SOL     OW17113   0.066   5.363   6.126
 5405SOL    HW117114   0.156   5.359   6.082
 5405SOL    HW217115   0.044   5.273   6.165
 5406SOL     OW17116   1.568   1.549   0.009
 5406SOL    HW117117   1.486   1.510   6.991
 5406SOL    HW217118   1.562   1.649   0.008
 5407SOL     OW17119   4.085   3.278   0.816
 5407SOL    HW117120   4.129   3.228   0.890
 5407SOL    HW217121   4.126   3.369   0.809
 5408SOL     OW17122   2.266   0.804   5.748
 5408SOL    HW117123   2.317   0.745   5.685
 5408SOL    HW217124   2.172   0.771   5.757
 5409SOL     OW17125   5.078   0.442   3.121
 5409SOL    HW117126   5.011   0.373   3.147
 5409SOL    HW217127   5.167   0.418   3.160
 5410SOL     OW17128   3.137   1.935   1.756
 5410SOL    HW117129   3.088   1.986   1.826
 5410SOL    HW217130   3.235   1.932   1.779
 5411SOL     OW17131   6.815   4.786   5.612
 5411SOL    HW117132   6.899   4.818   5.569
 5411SOL    HW217133   6.736   4.816   5.559
 5412SOL     OW17134   5.400   3.081   0.779
 5412SOL    HW117135   5.435   3.000   0.731
 5412SOL    HW217136   5.349   3.052   0.860
 5413SOL     OW17137   3.157   1.743   1.557
 5413SOL    HW117138   3.145   1.812   1.629
 5413SOL    HW217139   3.143   1.786   1.468
 5414SOL     OW17140   4.439   1.286   4.678
 5414SOL    HW117141   4.405   1.357   4.616
 5414SOL    HW217142   4.457   1.326   4.768
 5415SOL     OW17143   0.401   6.123   0.961
 5415SOL    HW117144   0.351   6.190   1.016
 5415SOL    HW217145   0.499   6.145   0.962
 5416SOL     OW17146   4.107   4.948   4.864
 5416SOL    HW117147   4.182   4.893   4.826
 5416SOL    HW217148   4.111   5.040   4.827
 5417SOL     OW17149   3.535   6.559   5.245
 5417SOL    HW117150   3.539   6.497   5.166
 5417SOL    HW217151   3.441   6.593   5.256
 5418SOL     OW17152   3.671   0.160   2.157
 5418SOL    HW117153   3.714   0.180   2.246
 5418SOL    HW217154   3.578   0.127   2.172
 5419SOL     OW17155   3.326   5.029   6.763
 5419SOL    HW117156   3.273   4.944   6.751
 5419SOL    HW217157   3.348   5.068   6.674
 5420SOL     OW17158   2.043   2.340   3.488
 5420SOL    HW117159   2.079   2.249   3.467
 5420SOL    HW217160   2.117   2.407   3.485
 5421SOL     OW17161   1.588   3.936   1.554
 5421SOL    HW117162   1.600   3.837   1.552
 5421SOL    HW217163   1.624   3.977   1.470
 5422SOL     OW17164   1.634   4.479   1.389
 5422SOL    HW117165   1.722   4.441   1.415
 5422SOL    HW217166   1.563   4.409   1.400
 5423SOL     OW17167   6.267   3.228   6.270
 5423SOL    HW117168   6.221   3.148   6.231
 5423SOL    HW217169   6.305   3.284   6.196
 5424SOL     OW17170   5.062   3.517   4.445
 5424SOL    HW117171   5.152   3.507   4.487
 5424SOL    HW217172   5.001   3.445   4.479
 5425SOL     OW17173   4.245   1.256   5.048
 5425SOL    HW117174   4.235   1.344   5.095
 5425SOL    HW217175   4.190   1.187   5.094
 5426SOL     OW17176   5.665   6.737   5.252
 5426SOL    HW117177   5.730   6.813   5.256
 5426SOL    HW217178   5.715   6.651   5.255
 5427SOL     OW17179   4.397   5.853   6.813
 5427SOL    HW117180   4.495   5.871   6.815
 5427SOL    HW217181   4.358   5.889   6.728
 5428SOL     OW17182   0.696   0.451   0.707
 5428SOL    HW117183   0.746   0.364   0.707
 5428SOL    HW217184   0.629   0.450   0.781
 5429SOL     OW17185   1.565   1.934   6.683
 5429SOL    HW117186   1.662   1.936   6.661
 5429SOL    HW217187   1.525   1.848   6.651
 5430SOL     OW17188   0.466   2.609   6.150
 5430SOL    HW117189   0.515   2.586   6.234
 5430SOL    HW217190   0.394   2.541   6.134
 5431SOL     OW17191   3.070   6.713   6.721
 5431SOL    HW117192   3.055   6.782   6.793
 5431SOL    HW217193   3.118   6.635   6.760
 5432SOL     OW17194   5.320   6.820   6.911
 5432SOL    HW117195   5.316   6.728   6.949
 5432SOL    HW217196   5.379   6.877   6.967
 5433SOL     OW17197   6.983   1.778   5.010
 5433SOL    HW117198   6.992   1.838   4.931
 5433SOL    HW217199   6.895   1.793   5.054
 5434SOL     OW17200   2.868   6.975   6.441
 5434SOL    HW117201   2.769   6.987   6.435
 5434SOL    HW217202   2.903   6.943   6.354
 5435SOL     OW17203   4.288   6.913   1.776
 5435SOL    HW117204   4.301   6.856   1.857
 5435SOL    HW217205   4.249   6.857   1.703
 5436SOL     OW17206   4.762   4.772   3.341
 5436SOL    HW117207   4.834   4.809   3.398
 5436SOL    HW217208   4.705   4.847   3.307
 5437SOL     OW17209   2.957   4.193   0.133
 5437SOL    HW117210   3.011   4.275   0.112
 5437SOL    HW217211   2.996   4.115   0.084
 5438SOL     OW17212   6.037   1.919   1.515
 5438SOL    HW117213   6.085   1.839   1.480
 5438SOL    HW217214   5.950   1.929   1.468
 5439SOL     OW17215   1.405   2.205   1.241
 5439SOL    HW117216   1.401   2.184   1.338
 5439SOL    HW217217   1.373   2.126   1.188
 5440SOL     OW17218   0.978   2.168   1.438
 5440SOL    HW117219   0.908   2.223   1.485
 5440SOL    HW217220   0.934   2.114   1.367
 5441SOL     OW17221   3.571   2.049   3.854
 5441SOL    HW117222   3.499   2.087   3.912
 5441SOL    HW217223   3.659   2.057   3.902
 5442SOL     OW17224   4.076   0.076   2.137
 5442SOL    HW117225   4.046   0.014   2.064
 5442SOL    HW217226   4.023   0.059   2.220
 5443SOL     OW17227   2.749   6.980   4.734
 5443SOL    HW117228   2.711   6.892   4.763
 5443SOL    HW217229   2.846   6.969   4.712
 5444SOL     OW17230   0.617   6.442   3.786
 5444SOL    HW117231   0.713   6.419   3.801
 5444SOL    HW217232   0.605   6.541   3.793
 5445SOL     OW17233   6.283   3.734   2.841
 5445SOL    HW117234   6.299   3.669   2.767
 5445SOL    HW217235   6.359   3.799   2.846
 5446SOL     OW17236   6.030   5.881   4.656
 5446SOL    HW117237   5.938   5.915   4.672
 5446SOL    HW217238   6.075   5.936   4.586
 5447SOL     OW17239   3.882   2.435   0.182
 5447SOL    HW117240   3.807   2.423   0.246
 5447SOL    HW217241   3.857   2.502   0.113
 5448SOL     OW17242   5.042   2.233   5.604
 5448SOL    HW117243   5.105   2.196   5.536
 5448SOL    HW217244   5.045   2.333   5.601
 5449SOL     OW17245   1.057   3.127   0.250
 5449SOL    HW117246   1.122   3.192   0.287
 5449SOL    HW217247   1.038   3.149   0.154
 5450SOL     OW17248   2.024   0.587   1.433
 5450SOL    HW117249   2.105   0.627   1.391
 5450SOL    HW217250   2.051   0.511   1.492
 5451SOL     OW17251   0.498   6.104   3.086
 5451SOL    HW117252   0.596   6.121   3.079
 5451SOL    HW217253   0.475   6.080   3.180
 5452SOL     OW17254   1.825   4.202   0.030
 5452SOL    HW117255   1.873   4.153   0.103
 5452SOL    HW217256   1.885   4.210   6.974
 5453SOL     OW17257   6.341   3.782   0.443
 5453SOL    HW117258   6.404   3.853   0.473
 5453SOL    HW217259   6.392   3.709   0.397
 5454SOL     OW17260   6.978   4.813   6.310
 5454SOL    HW117261   6.980   4.715   6.328
 5454SOL    HW217262   0.041   4.854   6.339
 5455SOL     OW17263   6.604   3.248   1.242
 5455SOL    HW117264   6.553   3.173   1.284
 5455SOL    HW217265   6.546   3.329   1.235
 5456SOL     OW17266   3.053   0.484   6.561
 5456SOL    HW117267   2.963   0.448   6.539
 5456SOL    HW217268   3.075   0.559   6.499
 5457SOL     OW17269   5.904   2.497   0.966
 5457SOL    HW117270   6.001   2.471   0.975
 5457SOL    HW217271   5.897   2.589   0.928
 5458SOL     OW17272   1.490   4.409   6.899
 5458SOL    HW117273   1.514   4.478   6.831
 5458SOL    HW217274   1.450   4.330   6.853
 5459SOL     OW17275   1.921   5.083   0.143
 5459SOL    HW117276   1.830   5.049   0.166
 5459SOL    HW217277   1.943   5.161   0.201
 5460SOL     OW17278   3.004   0.624   1.336
 5460SOL    HW117279   2.946   0.544   1.351
 5460SOL    HW217280   2.964   0.703   1.382
 5461SOL     OW17281   4.818   6.914   5.024
 5461SOL    HW117282   4.887   6.937   5.093
 5461SOL    HW217283   4.798   6.816   5.029
 5462SOL     OW17284   1.505   0.197   0.664
 5462SOL    HW117285   1.555   0.276   0.628
 5462SOL    HW217286   1.429   0.175   0.603
 5463SOL     OW17287   5.832   2.561   0.542
 5463SOL    HW117288   5.749   2.604   0.504
 5463SOL    HW217289   5.858   2.607   0.626
 5464SOL     OW17290   2.014   0.668   3.927
 5464SOL    HW117291   2.109   0.675   3.955
 5464SOL    HW217292   1.955   0.663   4.008
 5465SOL     OW17293   3.669   6.853   4.810
 5465SOL    HW117294   3.600   6.861   4.738
 5465SOL    HW217295   3.691   6.944   4.846
 5466SOL     OW17296   4.750   4.156   4.417
 5466SOL    HW117297   4.734   4.248   4.453
 5466SOL    HW217298   4.759   4.091   4.492
 5467SOL     OW17299   5.661   1.218   2.570
 5467SOL    HW117300   5.615   1.172   2.494
 5467SOL    HW217301   5.593   1.257   2.632
 5468SOL     OW17302   4.851   1.868   4.756
 5468SOL    HW117303   4.854   1.889   4.853
 5468SOL    HW217304   4.810   1.944   4.706
 5469SOL     OW17305   4.282   4.531   6.019
 5469SOL    HW117306   4.306   4.574   5.932
 5469SOL    HW217307   4.356   4.545   6.085
 5470SOL     OW17308   2.008   5.203   3.899
 5470SOL    HW117309   2.088   5.175   3.952
 5470SOL    HW217310   1.964   5.122   3.861
 5471SOL     OW17311   6.380   5.611   1.524
 5471SOL    HW117312   6.407   5.515   1.534
 5471SOL    HW217313   6.411   5.645   1.435
 5472SOL     OW17314   4.045   3.849   6.037
 5472SOL    HW117315   3.964   3.802   6.001
 5472SOL    HW217316   4.036   3.859   6.136
 5473SOL     OW17317   1.543   3.293   3.758
 5473SOL    HW117318   1.636   3.277   3.792
 5473SOL    HW217319   1.482   3.310   3.835
 5474SOL     OW17320   1.951   5.401   4.203
 5474SOL    HW117321   1.907   5.313   4.220
 5474SOL    HW217322   2.042   5.401   4.244
 5475SOL     OW17323   3.377   2.067   0.830
 5475SOL    HW117324   3.447   1.998   0.846
 5475SOL    HW217325   3.386   2.140   0.898
 5476SOL     OW17326   1.122   2.922   6.363
 5476SOL    HW117327   1.208   2.880   6.390
 5476SOL    HW217328   1.139   3.014   6.328
 5477SOL     OW17329   2.192   3.031   3.363
 5477SOL    HW117330   2.238   2.998   3.445
 5477SOL    HW217331   2.211   2.969   3.287
 5478SOL     OW17332   5.380   6.116   5.865
 5478SOL    HW117333   5.419   6.046   5.805
 5478SOL    HW217334   5.288   6.089   5.894
 5479SOL     OW17335   4.783   0.031   4.555
 5479SOL    HW117336   4.810   0.125   4.536
 5479SOL    HW217337   4.685   0.019   4.538
 5480SOL     OW17338   0.878   3.998   4.514
 5480SOL    HW117339   0.975   4.014   4.497
 5480SOL    HW217340   0.867   3.933   4.589
 5481SOL     OW17341   3.463   6.809   4.635
 5481SOL    HW117342   3.469   6.709   4.637
 5481SOL    HW217343   3.385   6.837   4.579
 5482SOL     OW17344   3.038   4.530   1.305
 5482SOL    HW117345   3.093   4.547   1.387
 5482SOL    HW217346   2.966   4.465   1.327
 5483SOL     OW17347   0.395   2.912   6.212
 5483SOL    HW117348   0.435   2.978   6.149
 5483SOL    HW217349   0.363   2.959   6.294
 5484SOL     OW17350   4.308   0.709   4.345
 5484SOL    HW117351   4.380   0.680   4.282
 5484SOL    HW217352   4.269   0.796   4.314
 5485SOL     OW17353   3.014   6.765   5.547
 5485SOL    HW117354   2.917   6.784   5.535
 5485SOL    HW217355   3.044   6.698   5.478
 5486SOL     OW17356   2.682   5.765   4.561
 5486SOL    HW117357   2.582   5.772   4.554
 5486SOL    HW217358   2.724   5.839   4.508
 5487SOL     OW17359   2.898   4.993   5.845
 5487SOL    HW117360   2.803   4.976   5.820
 5487SOL    HW217361   2.951   4.910   5.834
 5488SOL     OW17362   6.302   0.845   0.830
 5488SOL    HW117363   6.215   0.865   0.784
 5488SOL    HW217364   6.285   0.786   0.908
 5489SOL     OW17365   6.511   3.328   2.336
 5489SOL    HW117366   6.511   3.295   2.431
 5489SOL    HW217367   6.449   3.406   2.328
 5490SOL     OW17368   1.276   6.794   2.643
 5490SOL    HW117369   1.358   6.800   2.585
 5490SOL    HW217370   1.218   6.720   2.610
 5491SOL     OW17371   6.739   3.772   0.638
 5491SOL    HW117372   6.769   3.834   0.710
 5491SOL    HW217373   6.679   3.702   0.676
 5492SOL     OW17374   0.697   1.265   5.446
 5492SOL    HW117375   0.734   1.174   5.427
 5492SOL    HW217376   0.620   1.256   5.510
 5493SOL     OW17377   4.043   3.580   1.602
 5493SOL    HW117378   4.073   3.485   1.612
 5493SOL    HW217379   4.107   3.641   1.649
 5494SOL     OW17380   6.176   4.147   5.297
 5494SOL    HW117381   6.121   4.228   5.274
 5494SOL    HW217382   6.125   4.090   5.361
 5495SOL     OW17383   6.257   0.722   1.057
 5495SOL    HW117384   6.161   0.713   1.082
 5495SOL    HW217385   6.304   0.635   1.074
 5496SOL     OW17386   3.871   0.441   4.506
 5496SOL    HW117387   3.833   0.523   4.464
 5496SOL    HW217388   3.960   0.421   4.465
 5497SOL     OW17389   1.074   0.672   6.310
 5497SOL    HW117390   1.150   0.607   6.306
 5497SOL    HW217391   0.990   0.626   6.281
 5498SOL     OW17392   0.458   5.141   2.201
 5498SOL    HW117393   0.428   5.230   2.165
 5498SOL    HW217394   0.435   5.070   2.135
 5499SOL     OW17395   1.409   0.230   4.884
 5499SOL    HW117396   1.426   0.138   4.916
 5499SOL    HW217397   1.461   0.247   4.800
 5500SOL     OW17398   2.283   0.856   0.205
 5500SOL    HW117399   2.362   0.916   0.191
 5500SOL    HW217400   2.256   0.859   0.301
 5501SOL     OW17401   3.687   2.834   6.672
 5501SOL    HW117402   3.750   2.884   6.612
 5501SOL    HW217403   3.684   2.879   6.761
 5502SOL     OW17404   4.453   1.859   0.381
 5502SOL    HW117405   4.480   1.767   0.351
 5502SOL    HW217406   4.397   1.902   0.310
 5503SOL     OW17407   0.336   3.599   0.556
 5503SOL    HW117408   0.328   3.696   0.532
 5503SOL    HW217409   0.357   3.546   0.474
 5504SOL     OW17410   3.690   0.832   6.487
 5504SOL    HW117411   3.765   0.841   6.553
 5504SOL    HW217412   3.692   0.908   6.423
 5505SOL     OW17413   2.386   4.695   4.288
 5505SOL    HW117414   2.338   4.657   4.209
 5505SOL    HW217415   2.368   4.639   4.369
 5506SOL     OW17416   0.212   3.465   6.367
 5506SOL    HW117417   0.135   3.409   6.334
 5506SOL    HW217418   0.240   3.528   6.295
 5507SOL     OW17419   2.726   0.204   6.647
 5507SOL    HW117420   2.742   0.138   6.721
 5507SOL    HW217421   2.662   0.273   6.678
 5508SOL     OW17422   0.382   0.697   6.510
 5508SOL    HW117423   0.370   0.795   6.529
 5508SOL    HW217424   0.292   0.653   6.506
 5509SOL     OW17425   0.270   5.316   0.222
 5509SOL    HW117426   0.316   5.237   0.263
 5509SOL    HW217427   0.174   5.315   0.247
 5510SOL     OW17428   4.164   5.267   0.169
 5510SOL    HW117429   4.202   5.177   0.151
 5510SOL    HW217430   4.087   5.259   0.233
 5511SOL     OW17431   0.941   1.348   5.589
 5511SOL    HW117432   0.874   1.313   5.524
 5511SOL    HW217433   0.931   1.447   5.599
 5512SOL     OW17434   3.552   0.722   2.664
 5512SOL    HW117435   3.467   0.774   2.662
 5512SOL    HW217436   3.586   0.717   2.758
 5513SOL     OW17437   3.860   4.309   7.014
 5513SOL    HW117438   3.854   4.401   0.029
 5513SOL    HW217439   3.846   4.241   0.062
 5514SOL     OW17440   2.822   0.487   6.208
 5514SOL    HW117441   2.823   0.456   6.303
 5514SOL    HW217442   2.766   0.426   6.154
 5515SOL     OW17443   2.708   5.858   2.094
 5515SOL    HW117444   2.666   5.776   2.132
 5515SOL    HW217445   2.655   5.938   2.121
 5516SOL     OW17446   2.547   2.505   4.934
 5516SOL    HW117447   2.628   2.485   4.879
 5516SOL    HW217448   2.518   2.599   4.917
 5517SOL     OW17449   1.628   3.481   3.307
 5517SOL    HW117450   1.701   3.544   3.279
 5517SOL    HW217451   1.547   3.497   3.252
 5518SOL     OW17452   4.831   4.200   5.606
 5518SOL    HW117453   4.732   4.205   5.616
 5518SOL    HW217454   4.858   4.105   5.593
 5519SOL     OW17455   4.843   2.344   3.544
 5519SOL    HW117456   4.839   2.248   3.515
 5519SOL    HW217457   4.801   2.353   3.634
 5520SOL     OW17458   4.787   6.949   2.184
 5520SOL    HW117459   4.805   6.886   2.108
 5520SOL    HW217460   4.800   0.019   2.153
 5521SOL     OW17461   5.895   5.814   1.674
 5521SOL    HW117462   5.887   5.739   1.610
 5521SOL    HW217463   5.892   5.779   1.768
 5522SOL     OW17464   6.225   5.877   0.628
 5522SOL    HW117465   6.253   5.904   0.536
 5522SOL    HW217466   6.274   5.932   0.695
 5523SOL     OW17467   5.527   1.068   2.382
 5523SOL    HW117468   5.444   1.101   2.336
 5523SOL    HW217469   5.506   0.984   2.433
 5524SOL     OW17470   2.887   1.049   4.304
 5524SOL    HW117471   2.922   0.985   4.235
 5524SOL    HW217472   2.789   1.036   4.315
 5525SOL     OW17473   6.222   1.798   1.071
 5525SOL    HW117474   6.123   1.786   1.058
 5525SOL    HW217475   6.258   1.722   1.124
 5526SOL     OW17476   4.675   4.999   3.228
 5526SOL    HW117477   4.699   5.088   3.267
 5526SOL    HW217478   4.598   5.010   3.165
 5527SOL     OW17479   6.139   1.849   3.990
 5527SOL    HW117480   6.068   1.854   3.919
 5527SOL    HW217481   6.229   1.858   3.948
 5528SOL     OW17482   0.854   2.004   1.263
 5528SOL    HW117483   0.863   1.904   1.262
 5528SOL    HW217484   0.757   2.029   1.253
 5529SOL     OW17485   3.579   0.671   1.941
 5529SOL    HW117486   3.654   0.727   1.978
 5529SOL    HW217487   3.615   0.581   1.915
 5530SOL     OW17488   6.394   2.234   1.353
 5530SOL    HW117489   6.393   2.244   1.452
 5530SOL    HW217490   6.423   2.142   1.328
 5531SOL     OW17491   2.415   4.177   1.451
 5531SOL    HW117492   2.321   4.180   1.419
 5531SOL    HW217493   2.477   4.182   1.372
 5532SOL     OW17494   1.602   3.195   1.198
 5532SOL    HW117495   1.507   3.219   1.175
 5532SOL    HW217496   1.629   3.114   1.146
 5533SOL     OW17497   4.206   2.206   4.062
 5533SOL    HW117498   4.117   2.192   4.104
 5533SOL    HW217499   4.270   2.239   4.132
 5534SOL     OW17500   0.977   0.903   4.253
 5534SOL    HW117501   0.922   0.919   4.171
 5534SOL    HW217502   1.033   0.984   4.271
 5535SOL     OW17503   0.618   2.189   3.281
 5535SOL    HW117504   0.671   2.171   3.364
 5535SOL    HW217505   0.548   2.258   3.301
 5536SOL     OW17506   3.601   6.835   4.333
 5536SOL    HW117507   3.590   6.849   4.431
 5536SOL    HW217508   3.651   6.912   4.294
 5537SOL     OW17509   3.360   0.874   3.310
 5537SOL    HW117510   3.359   0.790   3.256
 5537SOL    HW217511   3.266   0.906   3.323
 5538SOL     OW17512   4.374   5.734   4.414
 5538SOL    HW117513   4.385   5.636   4.400
 5538SOL    HW217514   4.288   5.751   4.462
 5539SOL     OW17515   2.120   3.894   0.106
 5539SOL    HW117516   2.038   3.930   0.150
 5539SOL    HW217517   2.094   3.823   0.040
 5540SOL     OW17518   5.756   4.912   2.078
 5540SOL    HW117519   5.742   4.934   2.175
 5540SOL    HW217520   5.768   4.997   2.026
 5541SOL     OW17521   4.515   1.290   5.524
 5541SOL    HW117522   4.554   1.276   5.615
 5541SOL    HW217523   4.541   1.215   5.464
 5542SOL     OW17524   5.169   4.874   5.756
 5542SOL    HW117525   5.252   4.840   5.800
 5542SOL    HW217526   5.105   4.906   5.825
 5543SOL     OW17527   6.694   2.384   6.022
 5543SOL    HW117528   6.761   2.346   6.086
 5543SOL    HW217529   6.736   2.391   5.931
 5544SOL     OW17530   6.061   1.278   5.957
 5544SOL    HW117531   6.106   1.297   6.044
 5544SOL    HW217532   5.990   1.347   5.940
 5545SOL     OW17533   3.096   2.065   2.012
 5545SOL    HW117534   3.048   2.152   2.005
 5545SOL    HW217535   3.029   1.990   2.015
 5546SOL     OW17536   1.995   5.001   5.760
 5546SOL    HW117537   2.087   4.981   5.793
 5546SOL    HW217538   1.930   4.940   5.806
 5547SOL     OW17539   3.954   5.770   5.125
 5547SOL    HW117540   3.923   5.721   5.043
 5547SOL    HW217541   4.050   5.797   5.113
 5548SOL     OW17542   6.696   3.877   5.163
 5548SOL    HW117543   6.673   3.883   5.260
 5548SOL    HW217544   6.757   3.799   5.148
 5549SOL     OW17545   3.381   4.306   6.986
 5549SOL    HW117546   3.297   4.252   6.976
 5549SOL    HW217547   3.431   4.306   6.900
 5550SOL     OW17548   3.591   6.353   1.616
 5550SOL    HW117549   3.560   6.420   1.549
 5550SOL    HW217550   3.577   6.390   1.708
 5551SOL     OW17551   0.535   0.954   3.044
 5551SOL    HW117552   0.610   0.942   3.109
 5551SOL    HW217553   0.468   0.880   3.056
 5552SOL     OW17554   0.071   2.708   1.867
 5552SOL    HW117555   0.138   2.650   1.820
 5552SOL    HW217556   0.106   2.801   1.874
 5553SOL     OW17557   5.132   6.443   0.307
 5553SOL    HW117558   5.209   6.395   0.266
 5553SOL    HW217559   5.067   6.471   0.236
 5554SOL     OW17560   2.886   1.940   4.925
 5554SOL    HW117561   2.909   2.034   4.897
 5554SOL    HW217562   2.952   1.909   4.994
 5555SOL     OW17563   6.920   5.897   2.940
 5555SOL    HW117564   6.945   5.910   2.844
 5555SOL    HW217565   6.915   5.800   2.961
 5556SOL     OW17566   0.762   1.101   4.442
 5556SOL    HW117567   0.816   1.184   4.436
 5556SOL    HW217568   0.692   1.112   4.513
 5557SOL     OW17569   2.593   0.418   3.520
 5557SOL    HW117570   2.643   0.497   3.554
 5557SOL    HW217571   2.495   0.436   3.525
 5558SOL     OW17572   5.039   2.501   4.667
 5558SOL    HW117573   5.022   2.537   4.759
 5558SOL    HW217574   4.953   2.500   4.616
 5559SOL     OW17575   1.720   0.444   1.494
 5559SOL    HW117576   1.776   0.436   1.576
 5559SOL    HW217577   1.777   0.433   1.413
 5560SOL     OW17578   0.493   0.514   4.140
 5560SOL    HW117579   0.431   0.495   4.063
 5560SOL    HW217580   0.560   0.583   4.111
 5561SOL     OW17581   1.414   3.580   3.735
 5561SOL    HW117582   1.408   3.630   3.648
 5561SOL    HW217583   1.479   3.504   3.726
 5562SOL     OW17584   2.146   2.520   5.872
 5562SOL    HW117585   2.051   2.517   5.840
 5562SOL    HW217586   2.178   2.615   5.871
 5563SOL     OW17587   4.132   4.937   1.072
 5563SOL    HW117588   4.079   4.852   1.074
 5563SOL    HW217589   4.106   4.991   0.992
 5564SOL     OW17590   6.000   4.344   1.237
 5564SOL    HW117591   6.059   4.264   1.248
 5564SOL    HW217592   6.029   4.415   1.302
 5565SOL     OW17593   2.726   3.431   5.685
 5565SOL    HW117594   2.720   3.473   5.594
 5565SOL    HW217595   2.822   3.413   5.706
 5566SOL     OW17596   2.043   4.313   0.854
 5566SOL    HW117597   2.081   4.257   0.781
 5566SOL    HW217598   2.060   4.410   0.833
 5567SOL     OW17599   1.702   5.792   2.132
 5567SOL    HW117600   1.674   5.696   2.142
 5567SOL    HW217601   1.740   5.806   2.040
 5568SOL     OW17602   3.613   2.040   1.431
 5568SOL    HW117603   3.626   2.026   1.529
 5568SOL    HW217604   3.673   1.978   1.380
 5569SOL     OW17605   5.654   2.155   0.109
 5569SOL    HW117606   5.698   2.105   0.035
 5569SOL    HW217607   5.612   2.238   0.073
 5570SOL     OW17608   6.419   3.958   5.841
 5570SOL    HW117609   6.338   3.991   5.793
 5570SOL    HW217610   6.490   4.028   5.837
 5571SOL     OW17611   6.555   4.563   6.393
 5571SOL    HW117612   6.542   4.465   6.403
 5571SOL    HW217613   6.577   4.585   6.298
 5572SOL     OW17614   5.516   2.502   5.643
 5572SOL    HW117615   5.571   2.536   5.719
 5572SOL    HW217616   5.556   2.532   5.556
 5573SOL     OW17617   0.909   3.823   0.606
 5573SOL    HW117618   0.922   3.762   0.684
 5573SOL    HW217619   0.912   3.771   0.521
 5574SOL     OW17620   0.248   6.118   4.498
 5574SOL    HW117621   0.307   6.119   4.579
 5574SOL    HW217622   0.285   6.180   4.429
 5575SOL     OW17623   1.731   1.170   1.284
 5575SOL    HW117624   1.762   1.187   1.191
 5575SOL    HW217625   1.788   1.222   1.348
 5576SOL     OW17626   6.297   5.951   6.981
 5576SOL    HW117627   6.212   5.923   6.937
 5576SOL    HW217628   6.321   5.887   0.029
 5577SOL     OW17629   2.366   3.658   5.309
 5577SOL    HW117630   2.374   3.743   5.256
 5577SOL    HW217631   2.365   3.580   5.247
 5578SOL     OW17632   4.058   1.870   6.130
 5578SOL    HW117633   4.062   1.792   6.067
 5578SOL    HW217634   4.023   1.950   6.081
 5579SOL     OW17635   5.203   4.860   0.877
 5579SOL    HW117636   5.139   4.795   0.836
 5579SOL    HW217637   5.243   4.917   0.805
 5580SOL     OW17638   5.593   1.056   1.209
 5580SOL    HW117639   5.541   1.004   1.141
 5580SOL    HW217640   5.566   1.028   1.301
 5581SOL     OW17641   2.723   2.596   0.232
 5581SOL    HW117642   2.715   2.501   0.262
 5581SOL    HW217643   2.637   2.643   0.248
 5582SOL     OW17644   3.756   3.319   3.392
 5582SOL    HW117645   3.791   3.264   3.317
 5582SOL    HW217646   3.663   3.289   3.416
 5583SOL     OW17647   3.490   0.712   0.411
 5583SOL    HW117648   3.554   0.740   0.339
 5583SOL    HW217649   3.540   0.665   0.484
 5584SOL     OW17650   5.636   2.874   2.800
 5584SOL    HW117651   5.599   2.837   2.715
 5584SOL    HW217652   5.734   2.853   2.805
 5585SOL     OW17653   6.756   6.802   4.105
 5585SOL    HW117654   6.707   6.772   4.024
 5585SOL    HW217655   6.709   6.769   4.187
 5586SOL     OW17656   2.452   1.142   6.324
 5586SOL    HW117657   2.450   1.232   6.369
 5586SOL    HW217658   2.478   1.072   6.390
 5587SOL     OW17659   3.596   0.226   3.818
 5587SOL    HW117660   3.580   0.300   3.883
 5587SOL    HW217661   3.623   0.264   3.730
 5588SOL     OW17662   4.229   7.019   5.915
 5588SOL    HW117663   4.140   0.019   5.875
 5588SOL    HW217664   4.244   6.920   5.908
 5589SOL     OW17665   3.873   2.936   6.507
 5589SOL    HW117666   3.949   2.924   6.571
 5589SOL    HW217667   3.889   2.880   6.426
 5590SOL     OW17668   0.035   6.572   3.354
 5590SOL    HW117669   6.968   6.613   3.346
 5590SOL    HW217670   0.071   6.587   3.446
 5591SOL     OW17671   4.624   0.486   6.903
 5591SOL    HW117672   4.572   0.444   6.978
 5591SOL    HW217673   4.705   0.532   6.940
 5592SOL     OW17674   2.598   2.454   2.755
 5592SOL    HW117675   2.664   2.414   2.692
 5592SOL    HW217676   2.634   2.451   2.848
 5593SOL     OW17677   1.493   3.145   5.002
 5593SOL    HW117678   1.568   3.100   5.049
 5593SOL    HW217679   1.420   3.079   4.983
 5594SOL     OW17680   2.401   0.637   6.441
 5594SOL    HW117681   2.365   0.556   6.396
 5594SOL    HW217682   2.393   0.627   6.540
 5595SOL     OW17683   0.144   1.771   5.854
 5595SOL    HW117684   0.222   1.821   5.891
 5595SOL    HW217685   0.097   1.722   5.928
 5596SOL     OW17686   4.652   1.179   2.682
 5596SOL    HW117687   4.631   1.256   2.741
 5596SOL    HW217688   4.569   1.128   2.661
 5597SOL     OW17689   0.348   0.870   6.158
 5597SOL    HW117690   0.427   0.810   6.147
 5597SOL    HW217691   0.374   0.950   6.211
 5598SOL     OW17692   0.052   2.379   4.301
 5598SOL    HW117693   0.055   2.298   4.243
 5598SOL    HW217694   0.016   2.353   4.391
 5599SOL     OW17695   4.782   2.926   3.505
 5599SOL    HW117696   4.753   3.019   3.528
 5599SOL    HW217697   4.881   2.921   3.507
 5600SOL     OW17698   2.377   1.553   2.163
 5600SOL    HW117699   2.356   1.596   2.251
 5600SOL    HW217700   2.420   1.621   2.103
 5601SOL     OW17701   6.040   3.267   5.269
 5601SOL    HW117702   6.056   3.358   5.231
 5601SOL    HW217703   6.128   3.219   5.277
 5602SOL     OW17704   6.544   2.299   2.652
 5602SOL    HW117705   6.533   2.215   2.705
 5602SOL    HW217706   6.490   2.292   2.568
 5603SOL     OW17707   4.513   0.825   5.537
 5603SOL    HW117708   4.450   0.816   5.614
 5603SOL    HW217709   4.490   0.907   5.485
 5604SOL     OW17710   1.222   0.035   3.165
 5604SOL    HW117711   1.307   0.074   3.201
 5604SOL    HW217712   1.201   0.079   3.077
 5605SOL     OW17713   4.215   6.703   4.056
 5605SOL    HW117714   4.314   6.685   4.054
 5605SOL    HW217715   4.171   6.638   4.118
 5606SOL     OW17716   4.826   2.786   0.547
 5606SOL    HW117717   4.822   2.867   0.489
 5606SOL    HW217718   4.734   2.749   0.560
 5607SOL     OW17719   6.680   2.267   3.313
 5607SOL    HW117720   6.750   2.238   3.378
 5607SOL    HW217721   6.682   2.208   3.232
 5608SOL     OW17722   5.177   0.662   3.307
 5608SOL    HW117723   5.159   0.571   3.269
 5608SOL    HW217724   5.276   0.674   3.318
 5609SOL     OW17725   7.016   0.257   0.973
 5609SOL    HW117726   6.938   0.273   0.913
 5609SOL    HW217727   0.056   0.334   0.966
 5610SOL     OW17728   5.106   5.338   1.020
 5610SOL    HW117729   5.029   5.274   1.024
 5610SOL    HW217730   5.073   5.431   1.036
 5611SOL     OW17731   6.149   5.275   1.820
 5611SOL    HW117732   6.049   5.282   1.823
 5611SOL    HW217733   6.188   5.332   1.891
 5612SOL     OW17734   3.973   2.172   0.144
 5612SOL    HW117735   3.943   2.264   0.169
 5612SOL    HW217736   4.015   2.174   0.054
 5613SOL     OW17737   6.058   4.872   6.214
 5613SOL    HW117738   6.095   4.952   6.262
 5613SOL    HW217739   6.036   4.801   6.281
 5614SOL     OW17740   4.901   3.343   3.747
 5614SOL    HW117741   4.898   3.281   3.825
 5614SOL    HW217742   4.881   3.291   3.663
 5615SOL     OW17743   0.187   2.750   3.257
 5615SOL    HW117744   0.162   2.684   3.186
 5615SOL    HW217745   0.113   2.816   3.269
 5616SOL     OW17746   1.650   3.071   2.670
 5616SOL    HW117747   1.612   3.161   2.688
 5616SOL    HW217748   1.748   3.080   2.649
 5617SOL     OW17749   1.309   5.464   6.163
 5617SOL    HW117750   1.386   5.453   6.225
 5617SOL    HW217751   1.307   5.558   6.128
 5618SOL     OW17752   5.369   6.984   2.138
 5618SOL    HW117753   5.310   7.020   2.067
 5618SOL    HW217754   5.365   6.884   2.137
 5619SOL     OW17755   3.652   3.197   3.733
 5619SOL    HW117756   3.644   3.106   3.693
 5619SOL    HW217757   3.567   3.220   3.781
 5620SOL     OW17758   4.699   4.677   4.123
 5620SOL    HW117759   4.735   4.749   4.183
 5620SOL    HW217760   4.636   4.718   4.057
 5621SOL     OW17761   0.100   2.541   6.463
 5621SOL    HW117762   0.001   2.531   6.469
 5621SOL    HW217763   0.133   2.490   6.383
 5622SOL     OW17764   4.733   5.773   3.858
 5622SOL    HW117765   4.669   5.696   3.853
 5622SOL    HW217766   4.681   5.858   3.865
 5623SOL     OW17767   4.985   5.067   4.417
 5623SOL    HW117768   4.892   5.103   4.409
 5623SOL    HW217769   5.037   5.093   4.336
 5624SOL     OW17770   5.342   4.759   3.028
 5624SOL    HW117771   5.284   4.761   3.109
 5624SOL    HW217772   5.425   4.812   3.044
 5625SOL     OW17773   2.021   5.959   5.835
 5625SOL    HW117774   2.071   5.998   5.912
 5625SOL    HW217775   2.081   5.955   5.755
 5626SOL     OW17776   0.998   4.304   6.657
 5626SOL    HW117777   1.040   4.217   6.630
 5626SOL    HW217778   0.912   4.316   6.608
 5627SOL     OW17779   0.963   5.279   6.949
 5627SOL    HW117780   0.912   5.194   6.962
 5627SOL    HW217781   0.939   5.319   6.861
 5628SOL     OW17782   2.568   3.161   0.767
 5628SOL    HW117783   2.523   3.202   0.688
 5628SOL    HW217784   2.665   3.184   0.766
 5629SOL     OW17785   5.908   3.586   2.743
 5629SOL    HW117786   5.830   3.570   2.683
 5629SOL    HW217787   5.898   3.531   2.826
 5630SOL     OW17788   0.929   3.986   6.862
 5630SOL    HW117789   0.850   3.991   6.922
 5630SOL    HW217790   1.009   4.022   6.909
 5631SOL     OW17791   3.739   1.533   1.863
 5631SOL    HW117792   3.722   1.443   1.902
 5631SOL    HW217793   3.657   1.590   1.873
 5632SOL     OW17794   4.927   6.570   6.043
 5632SOL    HW117795   4.844   6.624   6.058
 5632SOL    HW217796   4.920   6.483   6.093
 5633SOL     OW17797   1.056   5.377   5.402
 5633SOL    HW117798   1.113   5.459   5.395
 5633SOL    HW217799   0.971   5.400   5.450
 5634SOL     OW17800   2.547   0.557   1.167
 5634SOL    HW117801   2.467   0.585   1.114
 5634SOL    HW217802   2.527   0.563   1.265
 5635SOL     OW17803   3.108   0.884   1.085
 5635SOL    HW117804   3.135   0.932   1.002
 5635SOL    HW217805   3.185   0.830   1.119
 5636SOL     OW17806   5.479   1.476   6.034
 5636SOL    HW117807   5.494   1.558   6.090
 5636SOL    HW217808   5.392   1.485   5.985
 5637SOL     OW17809   5.057   6.458   4.778
 5637SOL    HW117810   5.070   6.516   4.858
 5637SOL    HW217811   4.962   6.463   4.748
 5638SOL     OW17812   6.456   5.141   1.069
 5638SOL    HW117813   6.552   5.130   1.041
 5638SOL    HW217814   6.418   5.223   1.027
 5639SOL     OW17815   2.310   0.521   1.747
 5639SOL    HW117816   2.248   0.519   1.825
 5639SOL    HW217817   2.360   0.608   1.746
 5640SOL     OW17818   3.503   0.150   2.728
 5640SOL    HW117819   3.558   0.102   2.797
 5640SOL    HW217820   3.511   0.249   2.741
 5641SOL     OW17821   6.726   4.201   3.547
 5641SOL    HW117822   6.794   4.263   3.586
 5641SOL    HW217823   6.704   4.130   3.614
 5642SOL     OW17824   1.986   3.473   6.801
 5642SOL    HW117825   1.888   3.492   6.792
 5642SOL    HW217826   2.037   3.532   6.739
 5643SOL     OW17827   4.905   2.289   4.821
 5643SOL    HW117828   4.882   2.372   4.871
 5643SOL    HW217829   4.904   2.308   4.722
 5644SOL     OW17830   4.377   0.999   4.788
 5644SOL    HW117831   4.390   0.980   4.886
 5644SOL    HW217832   4.383   1.098   4.773
 5645SOL     OW17833   6.512   5.835   3.918
 5645SOL    HW117834   6.549   5.928   3.910
 5645SOL    HW217835   6.462   5.827   4.004
 5646SOL     OW17836   0.341   6.322   3.799
 5646SOL    HW117837   0.427   6.373   3.797
 5646SOL    HW217838   0.271   6.377   3.846
 5647SOL     OW17839   6.116   5.145   5.932
 5647SOL    HW117840   6.159   5.168   6.019
 5647SOL    HW217841   6.065   5.060   5.942
 5648SOL     OW17842   1.885   1.052   4.744
 5648SOL    HW117843   1.901   0.979   4.812
 5648SOL    HW217844   1.956   1.121   4.752
 5649SOL     OW17845   1.235   0.324   5.064
 5649SOL    HW117846   1.172   0.386   5.016
 5649SOL    HW217847   1.288   0.272   4.997
 5650SOL     OW17848   6.663   4.700   0.049
 5650SOL    HW117849   6.613   4.687   0.134
 5650SOL    HW217850   6.598   4.706   6.997
 5651SOL     OW17851   6.723   1.246   3.125
 5651SOL    HW117852   6.661   1.243   3.047
 5651SOL    HW217853   6.710   1.332   3.175
 5652SOL     OW17854   5.470   4.689   0.355
 5652SOL    HW117855   5.378   4.723   0.334
 5652SOL    HW217856   5.519   4.672   0.270
 5653SOL     OW17857   2.140   6.170   6.327
 5653SOL    HW117858   2.054   6.213   6.298
 5653SOL    HW217859   2.125   6.117   6.410
 5654SOL     OW17860   0.937   5.514   6.101
 5654SOL    HW117861   0.966   5.425   6.137
 5654SOL    HW217862   1.015   5.559   6.056
 5655SOL     OW17863   0.144   3.977   3.808
 5655SOL    HW117864   0.148   4.077   3.812
 5655SOL    HW217865   0.114   3.941   3.896
 5656SOL     OW17866   3.319   4.794   6.337
 5656SOL    HW117867   3.329   4.762   6.431
 5656SOL    HW217868   3.410   4.809   6.297
 5657SOL     OW17869   4.356   6.106   1.723
 5657SOL    HW117870   4.398   6.197   1.720
 5657SOL    HW217871   4.275   6.106   1.665
 5658SOL     OW17872   4.709   6.432   5.250
 5658SOL    HW117873   4.805   6.429   5.277
 5658SOL    HW217874   4.661   6.501   5.305
 5659SOL     OW17875   3.720   3.334   2.785
 5659SOL    HW117876   3.764   3.245   2.774
 5659SOL    HW217877   3.639   3.339   2.726
 5660SOL     OW17878   5.938   0.115   1.041
 5660SOL    HW117879   5.924   0.050   1.115
 5660SOL    HW217880   5.957   0.066   0.955
 5661SOL     OW17881   6.950   6.127   4.890
 5661SOL    HW117882   6.940   6.074   4.974
 5661SOL    HW217883   6.972   6.222   4.913
 5662SOL     OW17884   2.151   3.813   4.144
 5662SOL    HW117885   2.138   3.730   4.197
 5662SOL    HW217886   2.246   3.819   4.112
 5663SOL     OW17887   1.618   3.814   0.229
 5663SOL    HW117888   1.533   3.761   0.230
 5663SOL    HW217889   1.623   3.871   0.311
 5664SOL     OW17890   0.105   5.002   2.999
 5664SOL    HW117891   0.203   5.018   3.002
 5664SOL    HW217892   0.063   5.042   3.081
 5665SOL     OW17893   2.299   1.823   6.213
 5665SOL    HW117894   2.378   1.844   6.270
 5665SOL    HW217895   2.303   1.877   6.129
 5666SOL     OW17896   6.109   5.220   0.640
 5666SOL    HW117897   6.014   5.233   0.668
 5666SOL    HW217898   6.112   5.201   0.542
 5667SOL     OW17899   0.301   5.472   3.745
 5667SOL    HW117900   0.335   5.521   3.825
 5667SOL    HW217901   0.278   5.378   3.770
 5668SOL     OW17902   6.131   2.334   5.301
 5668SOL    HW117903   6.077   2.418   5.297
 5668SOL    HW217904   6.209   2.341   5.240
 5669SOL     OW17905   6.907   3.094   5.437
 5669SOL    HW117906   6.835   3.036   5.475
 5669SOL    HW217907   6.995   3.048   5.445
 5670SOL     OW17908   1.860   4.093   3.724
 5670SOL    HW117909   1.762   4.085   3.745
 5670SOL    HW217910   1.885   4.190   3.718
 5671SOL     OW17911   1.772   1.351   4.977
 5671SOL    HW117912   1.744   1.270   5.029
 5671SOL    HW217913   1.773   1.329   4.879
 5672SOL     OW17914   5.389   4.494   5.599
 5672SOL    HW117915   5.447   4.497   5.517
 5672SOL    HW217916   5.445   4.505   5.681
 5673SOL     OW17917   1.481   0.401   2.041
 5673SOL    HW117918   1.543   0.339   1.994
 5673SOL    HW217919   1.527   0.440   2.121
 5674SOL     OW17920   6.488   3.555   1.081
 5674SOL    HW117921   6.392   3.580   1.071
 5674SOL    HW217922   6.509   3.543   1.178
 5675SOL     OW17923   4.167   2.167   5.734
 5675SOL    HW117924   4.186   2.256   5.693
 5675SOL    HW217925   4.131   2.104   5.664
 5676SOL     OW17926   3.164   0.053   1.525
 5676SOL    HW117927   3.117   0.037   1.438
 5676SOL    HW217928   3.251   0.004   1.526
 5677SOL     OW17929   6.828   0.050   4.075
 5677SOL    HW117930   6.744   0.097   4.104
 5677SOL    HW217931   6.819   6.976   4.093
 5678SOL     OW17932   1.653   5.496   3.195
 5678SOL    HW117933   1.676   5.399   3.201
 5678SOL    HW217934   1.661   5.526   3.099
 5679SOL     OW17935   2.017   6.258   4.978
 5679SOL    HW117936   1.932   6.311   4.975
 5679SOL    HW217937   2.031   6.225   5.072
 5680SOL     OW17938   2.251   6.819   6.104
 5680SOL    HW117939   2.170   6.763   6.085
 5680SOL    HW217940   2.227   6.890   6.171
 5681SOL     OW17941   0.845   3.673   1.081
 5681SOL    HW117942   0.876   3.668   0.986
 5681SOL    HW217943   0.895   3.607   1.136
 5682SOL     OW17944   0.783   3.705   3.874
 5682SOL    HW117945   0.831   3.675   3.956
 5682SOL    HW217946   0.716   3.775   3.898
 5683SOL     OW17947   3.768   2.454   5.335
 5683SOL    HW117948   3.678   2.446   5.378
 5683SOL    HW217949   3.790   2.551   5.321
 5684SOL     OW17950   3.289   4.036   3.369
 5684SOL    HW117951   3.327   4.023   3.278
 5684SOL    HW217952   3.220   4.108   3.367
 5685SOL     OW17953   6.935   5.403   2.069
 5685SOL    HW117954   6.892   5.315   2.090
 5685SOL    HW217955   6.886   5.447   1.994
 5686SOL     OW17956   3.285   5.656   6.954
 5686SOL    HW117957   3.355   5.728   6.957
 5686SOL    HW217958   3.323   5.575   6.912
 5687SOL     OW17959   4.901   5.333   5.820
 5687SOL    HW117960   4.826   5.295   5.874
 5687SOL    HW217961   4.889   5.308   5.724
 5688SOL     OW17962   6.148   1.894   2.124
 5688SOL    HW117963   6.114   1.914   2.032
 5688SOL    HW217964   6.239   1.853   2.118
 5689SOL     OW17965   3.699   2.498   0.434
 5689SOL    HW117966   3.667   2.591   0.417
 5689SOL    HW217967   3.621   2.435   0.433
 5690SOL     OW17968   4.971   6.799   1.646
 5690SOL    HW117969   5.043   6.730   1.654
 5690SOL    HW217970   4.958   6.823   1.550
 5691SOL     OW17971   1.758   0.266   1.969
 5691SOL    HW117972   1.840   0.275   2.025
 5691SOL    HW217973   1.696   0.199   2.011
 5692SOL     OW17974   5.529   3.026   6.867
 5692SOL    HW117975   5.538   3.059   6.773
 5692SOL    HW217976   5.545   3.102   6.930
 5693SOL     OW17977   4.678   2.684   3.377
 5693SOL    HW117978   4.619   2.633   3.440
 5693SOL    HW217979   4.727   2.755   3.427
 5694SOL     OW17980   0.339   1.541   4.358
 5694SOL    HW117981   0.404   1.607   4.318
 5694SOL    HW217982   0.338   1.458   4.302
 5695SOL     OW17983   2.081   3.541   3.292
 5695SOL    HW117984   2.110   3.445   3.292
 5695SOL    HW217985   1.990   3.547   3.334
 5696SOL     OW17986   2.980   0.144   5.355
 5696SOL    HW117987   2.945   0.235   5.379
 5696SOL    HW217988   3.036   0.151   5.272
 5697SOL     OW17989   6.838   3.277   0.196
 5697SOL    HW117990   6.915   3.331   0.163
 5697SOL    HW217991   6.784   3.245   0.119
 5698SOL     OW17992   0.384   4.232   2.179
 5698SOL    HW117993   0.461   4.193   2.230
 5698SOL    HW217994   0.381   4.331   2.193
 5699SOL     OW17995   5.818   0.994   5.086
 5699SOL    HW117996   5.803   1.060   5.160
 5699SOL    HW217997   5.758   1.017   5.009
 5700SOL     OW17998   0.866   5.633   3.631
 5700SOL    HW117999   0.801   5.708   3.647
 5700SOL    HW218000   0.932   5.629   3.706
 5701SOL     OW18001   5.632   5.463   1.636
 5701SOL    HW118002   5.616   5.372   1.599
 5701SOL    HW218003   5.608   5.465   1.733
 5702SOL     OW18004   1.777   0.269   6.318
 5702SOL    HW118005   1.835   0.194   6.289
 5702SOL    HW218006   1.682   0.239   6.319
 5703SOL     OW18007   4.041   4.111   0.859
 5703SOL    HW118008   3.966   4.060   0.902
 5703SOL    HW218009   4.126   4.061   0.870
 5704SOL     OW18010   3.780   5.704   3.399
 5704SOL    HW118011   3.804   5.632   3.464
 5704SOL    HW218012   3.734   5.779   3.449
 5705SOL     OW18013   6.380   1.604   2.018
 5705SOL    HW118014   6.421   1.674   1.960
 5705SOL    HW218015   6.391   1.514   1.974
 5706SOL     OW18016   2.044   1.082   6.565
 5706SOL    HW118017   2.078   1.004   6.618
 5706SOL    HW218018   1.989   1.141   6.624
 5707SOL     OW18019   3.278   2.397   6.790
 5707SOL    HW118020   3.325   2.384   6.877
 5707SOL    HW218021   3.255   2.308   6.751
 5708SOL     OW18022   5.318   6.682   2.180
 5708SOL    HW118023   5.257   6.707   2.105
 5708SOL    HW218024   5.357   6.591   2.163
 5709SOL     OW18025   1.434   1.273   2.819
 5709SOL    HW118026   1.422   1.205   2.891
 5709SOL    HW218027   1.511   1.333   2.842
 5710SOL     OW18028   3.449   3.603   6.154
 5710SOL    HW118029   3.377   3.547   6.114
 5710SOL    HW218030   3.473   3.567   6.244
 5711SOL     OW18031   4.005   0.821   4.025
 5711SOL    HW118032   3.913   0.810   4.061
 5711SOL    HW218033   4.016   0.913   3.988
 5712SOL     OW18034   6.642   5.789   6.699
 5712SOL    HW118035   6.697   5.831   6.627
 5712SOL    HW218036   6.546   5.816   6.689
 5713SOL     OW18037   6.672   2.079   3.129
 5713SOL    HW118038   6.754   2.025   3.145
 5713SOL    HW218039   6.676   2.121   3.039
 5714SOL     OW18040   1.739   0.957   6.768
 5714SOL    HW118041   1.769   0.910   6.850
 5714SOL    HW218042   1.641   0.979   6.776
 5715SOL     OW18043   1.762   6.975   3.170
 5715SOL    HW118044   1.716   7.014   3.249
 5715SOL    HW218045   1.723   7.013   3.086
 5716SOL     OW18046   2.209   3.005   6.059
 5716SOL    HW118047   2.287   3.060   6.090
 5716SOL    HW218048   2.207   3.003   5.959
 5717SOL     OW18049   0.841   4.030   0.771
 5717SOL    HW118050   0.861   3.962   0.701
 5717SOL    HW218051   0.742   4.029   0.790
 5718SOL     OW18052   2.300   4.393   5.505
 5718SOL    HW118053   2.352   4.373   5.423
 5718SOL    HW218054   2.208   4.355   5.496
 5719SOL     OW18055   3.054   1.013   6.419
 5719SOL    HW118056   3.062   0.916   6.440
 5719SOL    HW218057   3.094   1.031   6.329
 5720SOL     OW18058   1.546   4.703   4.284
 5720SOL    HW118059   1.447   4.689   4.293
 5720SOL    HW218060   1.571   4.788   4.331
 5721SOL     OW18061   0.811   4.853   1.597
 5721SOL    HW118062   0.717   4.883   1.613
 5721SOL    HW218063   0.811   4.766   1.548
 5722SOL     OW18064   5.232   0.115   4.285
 5722SOL    HW118065   5.273   0.182   4.347
 5722SOL    HW218066   5.163   0.160   4.228
 5723SOL     OW18067   1.965   5.176   0.793
 5723SOL    HW118068   2.061   5.188   0.815
 5723SOL    HW218069   1.932   5.090   0.833
 5724SOL     OW18070   5.404   1.906   6.660
 5724SOL    HW118071   5.421   1.980   6.725
 5724SOL    HW218072   5.333   1.933   6.596
 5725SOL     OW18073   4.987   5.373   6.316
 5725SOL    HW118074   4.938   5.410   6.395
 5725SOL    HW218075   4.930   5.383   6.234
 5726SOL     OW18076   5.516   3.323   6.130
 5726SOL    HW118077   5.442   3.267   6.095
 5726SOL    HW218078   5.599   3.267   6.140
 5727SOL     OW18079   6.690   1.957   3.974
 5727SOL    HW118080   6.722   1.917   4.060
 5727SOL    HW218081   6.617   1.901   3.936
 5728SOL     OW18082   6.146   0.586   6.008
 5728SOL    HW118083   6.119   0.494   5.979
 5728SOL    HW218084   6.239   0.583   6.043
 5729SOL     OW18085   0.658   2.729   5.719
 5729SOL    HW118086   0.571   2.776   5.710
 5729SOL    HW218087   0.678   2.715   5.816
 5730SOL     OW18088   5.226   4.662   6.449
 5730SOL    HW118089   5.222   4.562   6.451
 5730SOL    HW218090   5.321   4.692   6.444
 5731SOL     OW18091   3.405   1.275   4.081
 5731SOL    HW118092   3.365   1.260   4.171
 5731SOL    HW218093   3.499   1.240   4.081
 5732SOL     OW18094   5.371   4.281   4.861
 5732SOL    HW118095   5.425   4.267   4.778
 5732SOL    HW218096   5.315   4.363   4.851
 5733SOL     OW18097   3.009   0.944   0.527
 5733SOL    HW118098   3.033   0.850   0.506
 5733SOL    HW218099   2.928   0.971   0.475
 5734SOL     OW18100   2.330   6.195   6.146
 5734SOL    HW118101   2.261   6.207   6.218
 5734SOL    HW218102   2.421   6.206   6.186
 5735SOL     OW18103   4.344   0.480   1.920
 5735SOL    HW118104   4.429   0.523   1.950
 5735SOL    HW218105   4.330   0.395   1.970
 5736SOL     OW18106   4.826   4.219   6.848
 5736SOL    HW118107   4.763   4.244   6.775
 5736SOL    HW218108   4.786   4.146   6.903
 5737SOL     OW18109   3.818   5.241   0.878
 5737SOL    HW118110   3.790   5.267   0.785
 5737SOL    HW218111   3.915   5.262   0.891
 5738SOL     OW18112   2.887   1.069   6.983
 5738SOL    HW118113   2.837   0.991   6.945
 5738SOL    HW218114   2.823   1.141   7.008
 5739SOL     OW18115   1.991   0.791   5.569
 5739SOL    HW118116   2.045   0.707   5.565
 5739SOL    HW218117   1.893   0.768   5.564
 5740SOL     OW18118   5.427   3.189   2.352
 5740SOL    HW118119   5.434   3.234   2.263
 5740SOL    HW218120   5.386   3.253   2.418
 5741SOL     OW18121   0.270   3.571   4.559
 5741SOL    HW118122   0.363   3.556   4.526
 5741SOL    HW218123   0.223   3.636   4.499
 5742SOL     OW18124   5.117   0.487   3.960
 5742SOL    HW118125   5.142   0.582   3.975
 5742SOL    HW218126   5.087   0.474   3.865
 5743SOL     OW18127   4.198   3.743   6.479
 5743SOL    HW118128   4.165   3.669   6.420
 5743SOL    HW218129   4.133   3.758   6.552
 5744SOL     OW18130   5.953   6.794   2.838
 5744SOL    HW118131   5.965   6.893   2.847
 5744SOL    HW218132   5.938   6.770   2.742
 5745SOL     OW18133   1.739   2.217   2.064
 5745SOL    HW118134   1.770   2.310   2.047
 5745SOL    HW218135   1.694   2.212   2.154
 5746SOL     OW18136   4.328   0.049   3.532
 5746SOL    HW118137   4.284   0.091   3.453
 5746SOL    HW218138   4.272   0.064   3.614
 5747SOL     OW18139   0.588   6.445   0.830
 5747SOL    HW118140   0.575   6.499   0.913
 5747SOL    HW218141   0.617   6.352   0.854
 5748SOL     OW18142   0.551   5.696   0.546
 5748SOL    HW118143   0.621   5.766   0.530
 5748SOL    HW218144   0.474   5.737   0.595
 5749SOL     OW18145   1.806   5.754   5.939
 5749SOL    HW118146   1.832   5.815   5.864
 5749SOL    HW218147   1.717   5.714   5.921
 5750SOL     OW18148   6.294   4.493   3.987
 5750SOL    HW118149   6.282   4.518   3.891
 5750SOL    HW218150   6.267   4.569   4.046
 5751SOL     OW18151   1.864   3.412   4.294
 5751SOL    HW118152   1.901   3.380   4.207
 5751SOL    HW218153   1.906   3.361   4.370
 5752SOL     OW18154   4.792   0.399   0.632
 5752SOL    HW118155   4.769   0.327   0.566
 5752SOL    HW218156   4.797   0.359   0.724
 5753SOL     OW18157   3.633   4.240   4.964
 5753SOL    HW118158   3.608   4.214   4.870
 5753SOL    HW218159   3.642   4.339   4.970
 5754SOL     OW18160   1.142   5.671   1.073
 5754SOL    HW118161   1.088   5.636   1.150
 5754SOL    HW218162   1.187   5.756   1.100
 5755SOL     OW18163   1.154   2.266   6.818
 5755SOL    HW118164   1.233   2.276   6.878
 5755SOL    HW218165   1.077   2.318   6.855
 5756SOL     OW18166   6.094   5.992   1.275
 5756SOL    HW118167   6.143   6.049   1.341
 5756SOL    HW218168   6.000   6.023   1.267
 5757SOL     OW18169   6.062   0.028   4.358
 5757SOL    HW118170   6.023   0.080   4.281
 5757SOL    HW218171   5.992   6.994   4.398
 5758SOL     OW18172   6.819   0.406   2.687
 5758SOL    HW118173   6.782   0.482   2.635
 5758SOL    HW218174   6.850   0.335   2.623
 5759SOL     OW18175   4.333   0.385   1.001
 5759SOL    HW118176   4.272   0.455   1.036
 5759SOL    HW218177   4.379   0.417   0.918
 5760SOL     OW18178   0.698   3.001   1.562
 5760SOL    HW118179   0.787   2.974   1.524
 5760SOL    HW218180   0.678   3.095   1.535
 5761SOL     OW18181   5.416   6.471   4.864
 5761SOL    HW118182   5.340   6.414   4.894
 5761SOL    HW218183   5.406   6.492   4.766
 5762SOL     OW18184   6.058   5.153   6.883
 5762SOL    HW118185   6.060   5.053   6.883
 5762SOL    HW218186   6.103   5.187   6.966
 5763SOL     OW18187   5.533   6.904   0.271
 5763SOL    HW118188   5.570   6.923   0.180
 5763SOL    HW218189   5.586   6.831   0.314
 5764SOL     OW18190   4.499   5.951   4.056
 5764SOL    HW118191   4.411   5.997   4.065
 5764SOL    HW218192   4.552   5.994   3.982
 5765SOL     OW18193   6.813   5.061   1.613
 5765SOL    HW118194   6.758   5.144   1.606
 5765SOL    HW218195   6.791   4.999   1.537
 5766SOL     OW18196   0.201   1.796   4.403
 5766SOL    HW118197   0.244   1.709   4.428
 5766SOL    HW218198   0.271   1.865   4.387
 5767SOL     OW18199   2.604   0.242   0.264
 5767SOL    HW118200   2.674   0.273   0.199
 5767SOL    HW218201   2.536   0.313   0.277
 5768SOL     OW18202   0.890   6.868   4.761
 5768SOL    HW118203   0.855   6.776   4.747
 5768SOL    HW218204   0.873   6.897   4.855
 5769SOL     OW18205   1.245   4.258   6.427
 5769SOL    HW118206   1.286   4.227   6.512
 5769SOL    HW218207   1.317   4.280   6.361
 5770SOL     OW18208   2.399   4.921   1.470
 5770SOL    HW118209   2.359   4.966   1.550
 5770SOL    HW218210   2.478   4.973   1.438
 5771SOL     OW18211   2.075   5.409   3.609
 5771SOL    HW118212   2.081   5.422   3.708
 5771SOL    HW218213   2.078   5.499   3.564
 5772SOL     OW18214   3.769   0.540   2.209
 5772SOL    HW118215   3.679   0.499   2.192
 5772SOL    HW218216   3.839   0.468   2.210
 5773SOL     OW18217   4.248   1.900   3.033
 5773SOL    HW118218   4.267   1.855   2.945
 5773SOL    HW218219   4.331   1.947   3.064
 5774SOL     OW18220   0.248   6.315   2.702
 5774SOL    HW118221   0.244   6.410   2.668
 5774SOL    HW218222   0.267   6.316   2.800
 5775SOL     OW18223   0.123   5.967   1.947
 5775SOL    HW118224   0.186   5.927   1.882
 5775SOL    HW218225   0.040   5.996   1.900
 5776SOL     OW18226   2.498   0.443   3.994
 5776SOL    HW118227   2.481   0.346   4.012
 5776SOL    HW218228   2.573   0.452   3.928
 5777SOL     OW18229   1.777   6.150   3.233
 5777SOL    HW118230   1.748   6.242   3.255
 5777SOL    HW218231   1.847   6.120   3.298
 5778SOL     OW18232   0.620   1.253   0.388
 5778SOL    HW118233   0.582   1.323   0.328
 5778SOL    HW218234   0.717   1.240   0.366
 5779SOL     OW18235   5.798   2.168   6.437
 5779SOL    HW118236   5.801   2.227   6.518
 5779SOL    HW218237   5.837   2.079   6.460
 5780SOL     OW18238   5.339   5.663   3.697
 5780SOL    HW118239   5.293   5.617   3.620
 5780SOL    HW218240   5.332   5.762   3.686
 5781SOL     OW18241   0.608   4.075   5.891
 5781SOL    HW118242   0.650   4.030   5.812
 5781SOL    HW218243   0.605   4.174   5.875
 5782SOL     OW18244   0.183   1.213   0.479
 5782SOL    HW118245   0.171   1.308   0.449
 5782SOL    HW218246   0.280   1.197   0.498
 5783SOL     OW18247   1.786   1.627   1.401
 5783SOL    HW118248   1.822   1.717   1.377
 5783SOL    HW218249   1.752   1.629   1.495
 5784SOL     OW18250   0.270   6.663   6.366
 5784SOL    HW118251   0.296   6.745   6.418
 5784SOL    HW218252   0.259   6.687   6.270
 5785SOL     OW18253   1.813   1.430   1.091
 5785SOL    HW118254   1.902   1.475   1.101
 5785SOL    HW218255   1.744   1.483   1.140
 5786SOL     OW18256   6.371   4.212   1.087
 5786SOL    HW118257   6.334   4.200   1.179
 5786SOL    HW218258   6.297   4.237   1.024
 5787SOL     OW18259   2.940   1.866   5.812
 5787SOL    HW118260   2.969   1.864   5.907
 5787SOL    HW218261   2.956   1.957   5.773
 5788SOL     OW18262   3.377   0.878   2.946
 5788SOL    HW118263   3.463   0.833   2.923
 5788SOL    HW218264   3.386   0.977   2.932
 5789SOL     OW18265   4.367   5.088   6.064
 5789SOL    HW118266   4.399   4.995   6.047
 5789SOL    HW218267   4.271   5.086   6.091
 5790SOL     OW18268   0.668   3.069   4.154
 5790SOL    HW118269   0.576   3.085   4.190
 5790SOL    HW218270   0.665   2.997   4.085
 5791SOL     OW18271   2.677   0.698   2.847
 5791SOL    HW118272   2.674   0.599   2.857
 5791SOL    HW218273   2.659   0.722   2.751
 5792SOL     OW18274   0.124   2.355   3.386
 5792SOL    HW118275   0.085   2.395   3.302
 5792SOL    HW218276   0.086   2.401   3.466
 5793SOL     OW18277   6.396   1.253   4.210
 5793SOL    HW118278   6.436   1.332   4.163
 5793SOL    HW218279   6.389   1.177   4.146
 5794SOL     OW18280   3.973   3.692   0.078
 5794SOL    HW118281   3.981   3.610   0.135
 5794SOL    HW218282   3.905   3.677   0.007
 5795SOL     OW18283   6.181   4.255   6.034
 5795SOL    HW118284   6.179   4.343   6.083
 5795SOL    HW218285   6.123   4.260   5.953
 5796SOL     OW18286   3.650   1.618   6.904
 5796SOL    HW118287   3.734   1.662   6.872
 5796SOL    HW218288   3.572   1.677   6.887
 5797SOL     OW18289   3.467   1.868   4.877
 5797SOL    HW118290   3.454   1.958   4.918
 5797SOL    HW218291   3.378   1.833   4.846
 5798SOL     OW18292   0.144   4.376   5.099
 5798SOL    HW118293   0.045   4.376   5.087
 5798SOL    HW218294   0.179   4.283   5.089
 5799SOL     OW18295   5.360   0.058   3.605
 5799SOL    HW118296   5.356   0.155   3.584
 5799SOL    HW218297   5.451   0.022   3.580
 5800SOL     OW18298   5.843   4.872   0.469
 5800SOL    HW118299   5.780   4.935   0.425
 5800SOL    HW218300   5.793   4.795   0.507
 5801SOL     OW18301   1.382   0.784   3.573
 5801SOL    HW118302   1.473   0.820   3.553
 5801SOL    HW218303   1.313   0.852   3.549
 5802SOL     OW18304   0.120   3.957   5.957
 5802SOL    HW118305   0.047   3.917   5.901
 5802SOL    HW218306   0.196   3.983   5.897
 5803SOL     OW18307   1.258   4.572   0.977
 5803SOL    HW118308   1.347   4.609   0.949
 5803SOL    HW218309   1.269   4.517   1.059
 5804SOL     OW18310   6.280   4.465   4.481
 5804SOL    HW118311   6.267   4.383   4.537
 5804SOL    HW218312   6.294   4.544   4.541
 5805SOL     OW18313   5.236   3.468   6.349
 5805SOL    HW118314   5.231   3.561   6.314
 5805SOL    HW218315   5.327   3.452   6.388
 5806SOL     OW18316   0.235   6.383   6.862
 5806SOL    HW118317   0.283   6.463   6.826
 5806SOL    HW218318   0.160   6.412   6.920
 5807SOL     OW18319   1.486   3.689   1.266
 5807SOL    HW118320   1.391   3.693   1.235
 5807SOL    HW218321   1.542   3.749   1.209
 5808SOL     OW18322   6.150   4.558   2.457
 5808SOL    HW118323   6.151   4.634   2.392
 5808SOL    HW218324   6.056   4.526   2.468
 5809SOL     OW18325   0.048   3.420   4.574
 5809SOL    HW118326   0.061   3.322   4.585
 5809SOL    HW218327   0.137   3.465   4.568
 5810SOL     OW18328   2.843   1.789   2.769
 5810SOL    HW118329   2.797   1.751   2.849
 5810SOL    HW218330   2.782   1.787   2.690
 5811SOL     OW18331   2.768   0.249   4.342
 5811SOL    HW118332   2.822   0.299   4.410
 5811SOL    HW218333   2.817   0.250   4.254
 5812SOL     OW18334   4.629   0.299   3.726
 5812SOL    HW118335   4.689   0.374   3.698
 5812SOL    HW218336   4.684   0.222   3.759
 5813SOL     OW18337   1.508   0.963   5.006
 5813SOL    HW118338   1.556   0.905   4.941
 5813SOL    HW218339   1.438   0.909   5.054
 5814SOL     OW18340   6.718   4.915   1.175
 5814SOL    HW118341   6.638   4.932   1.232
 5814SOL    HW218342   6.792   4.880   1.231
 5815SOL     OW18343   3.724   1.792   3.163
 5815SOL    HW118344   3.703   1.863   3.231
 5815SOL    HW218345   3.810   1.814   3.117
 5816SOL     OW18346   4.442   0.756   0.150
 5816SOL    HW118347   4.491   0.770   0.236
 5816SOL    HW218348   4.505   0.767   0.073
 5817SOL     OW18349   5.166   2.836   5.385
 5817SOL    HW118350   5.167   2.802   5.478
 5817SOL    HW218351   5.105   2.915   5.379
 5818SOL     OW18352   5.588   0.088   6.065
 5818SOL    HW118353   5.550   0.143   5.991
 5818SOL    HW218354   5.601   7.018   6.033
 5819SOL     OW18355   5.770   0.524   1.285
 5819SOL    HW118356   5.680   0.524   1.327
 5819SOL    HW218357   5.769   0.468   1.202
 5820SOL     OW18358   5.378   6.670   3.451
 5820SOL    HW118359   5.470   6.704   3.434
 5820SOL    HW218360   5.318   6.746   3.475
 5821SOL     OW18361   3.065   0.433   1.997
 5821SOL    HW118362   2.997   0.501   2.026
 5821SOL    HW218363   3.018   0.359   1.950
 5822SOL     OW18364   0.269   1.880   2.550
 5822SOL    HW118365   0.290   1.895   2.647
 5822SOL    HW218366   0.338   1.925   2.494
 5823SOL     OW18367   1.790   1.802   4.387
 5823SOL    HW118368   1.872   1.744   4.385
 5823SOL    HW218369   1.745   1.794   4.476
 5824SOL     OW18370   5.674   6.820   3.469
 5824SOL    HW118371   5.683   6.756   3.394
 5824SOL    HW218372   5.756   6.876   3.476
 5825SOL     OW18373   2.153   0.288   6.800
 5825SOL    HW118374   2.073   0.338   6.833
 5825SOL    HW218375   2.187   0.228   6.872
 5826SOL     OW18376   6.608   6.304   4.699
 5826SOL    HW118377   6.526   6.356   4.679
 5826SOL    HW218378   6.590   6.240   4.774
 5827SOL     OW18379   0.628   5.691   4.952
 5827SOL    HW118380   0.668   5.684   5.044
 5827SOL    HW218381   0.542   5.639   4.950
 5828SOL     OW18382   0.569   3.350   2.169
 5828SOL    HW118383   0.604   3.413   2.099
 5828SOL    HW218384   0.530   3.269   2.124
 5829SOL     OW18385   2.636   1.182   1.673
 5829SOL    HW118386   2.556   1.130   1.707
 5829SOL    HW218387   2.719   1.143   1.712
 5830SOL     OW18388   3.206   1.105   6.188
 5830SOL    HW118389   3.160   1.044   6.123
 5830SOL    HW218390   3.299   1.122   6.157
 5831SOL     OW18391   5.512   6.917   2.979
 5831SOL    HW118392   5.470   7.005   2.956
 5831SOL    HW218393   5.570   6.887   2.903
 5832SOL     OW18394   4.076   3.861   5.200
 5832SOL    HW118395   4.052   3.901   5.111
 5832SOL    HW218396   4.076   3.762   5.193
 5833SOL     OW18397   3.520   3.486   4.180
 5833SOL    HW118398   3.487   3.511   4.089
 5833SOL    HW218399   3.443   3.469   4.241
 5834SOL     OW18400   5.855   1.824   0.731
 5834SOL    HW118401   5.894   1.907   0.690
 5834SOL    HW218402   5.762   1.843   0.763
 5835SOL     OW18403   5.072   2.046   3.782
 5835SOL    HW118404   5.091   2.135   3.822
 5835SOL    HW218405   5.158   2.002   3.755
 5836SOL     OW18406   3.627   5.990   1.963
 5836SOL    HW118407   3.718   5.961   1.991
 5836SOL    HW218408   3.578   6.027   2.042
 5837SOL     OW18409   4.675   3.967   0.743
 5837SOL    HW118410   4.756   3.987   0.798
 5837SOL    HW218411   4.704   3.931   0.654
 5838SOL     OW18412   1.563   1.521   5.614
 5838SOL    HW118413   1.521   1.586   5.550
 5838SOL    HW218414   1.587   1.437   5.566
 5839SOL     OW18415   6.632   3.299   3.191
 5839SOL    HW118416   6.641   3.399   3.193
 5839SOL    HW218417   6.610   3.266   3.282
 5840SOL     OW18418   1.790   5.482   6.862
 5840SOL    HW118419   1.882   5.503   6.894
 5840SOL    HW218420   1.739   5.436   6.935
 5841SOL     OW18421   6.329   2.448   3.616
 5841SOL    HW118422   6.237   2.440   3.653
 5841SOL    HW218423   6.333   2.404   3.526
 5842SOL     OW18424   3.840   2.719   1.294
 5842SOL    HW118425   3.939   2.726   1.293
 5842SOL    HW218426   3.804   2.755   1.380
 5843SOL     OW18427   1.942   3.135   2.630
 5843SOL    HW118428   2.009   3.200   2.594
 5843SOL    HW218429   1.990   3.053   2.663
 5844SOL     OW18430   0.531   6.213   6.382
 5844SOL    HW118431   0.502   6.284   6.447
 5844SOL    HW218432   0.476   6.131   6.395
 5845SOL     OW18433   1.187   2.451   4.134
 5845SOL    HW118434   1.184   2.471   4.036
 5845SOL    HW218435   1.261   2.387   4.153
 5846SOL     OW18436   0.215   2.421   5.388
 5846SOL    HW118437   0.169   2.455   5.306
 5846SOL    HW218438   0.301   2.471   5.401
 5847SOL     OW18439   2.260   2.916   2.463
 5847SOL    HW118440   2.244   2.952   2.555
 5847SOL    HW218441   2.230   2.984   2.395
 5848SOL     OW18442   1.501   4.992   3.147
 5848SOL    HW118443   1.452   4.998   3.233
 5848SOL    HW218444   1.595   4.960   3.164
 5849SOL     OW18445   1.706   0.727   5.634
 5849SOL    HW118446   1.678   0.821   5.617
 5849SOL    HW218447   1.654   0.665   5.575
 5850SOL     OW18448   0.884   4.672   2.218
 5850SOL    HW118449   0.897   4.771   2.220
 5850SOL    HW218450   0.787   4.652   2.216
 5851SOL     OW18451   6.051   4.086   2.161
 5851SOL    HW118452   6.010   4.022   2.226
 5851SOL    HW218453   6.088   4.035   2.083
 5852SOL     OW18454   3.965   6.170   2.060
 5852SOL    HW118455   3.961   6.192   2.157
 5852SOL    HW218456   3.917   6.083   2.043
 5853SOL     OW18457   2.850   4.509   5.922
 5853SOL    HW118458   2.825   4.471   5.832
 5853SOL    HW218459   2.944   4.543   5.918
 5854SOL     OW18460   6.778   1.370   6.063
 5854SOL    HW118461   6.684   1.352   6.092
 5854SOL    HW218462   6.782   1.371   5.963
 5855SOL     OW18463   1.362   1.001   4.592
 5855SOL    HW118464   1.316   0.940   4.656
 5855SOL    HW218465   1.324   1.093   4.601
 5856SOL     OW18466   1.856   5.070   3.429
 5856SOL    HW118467   1.825   5.148   3.482
 5856SOL    HW218468   1.955   5.071   3.421
 5857SOL     OW18469   6.550   2.921   4.675
 5857SOL    HW118470   6.601   2.840   4.647
 5857SOL    HW218471   6.610   2.983   4.726
 5858SOL     OW18472   3.550   1.183   2.383
 5858SOL    HW118473   3.630   1.181   2.443
 5858SOL    HW218474   3.517   1.090   2.369
 5859SOL     OW18475   6.719   6.892   1.222
 5859SOL    HW118476   6.666   6.847   1.150
 5859SOL    HW218477   6.813   6.906   1.191
 5860SOL     OW18478   1.709   4.417   1.783
 5860SOL    HW118479   1.678   4.322   1.779
 5860SOL    HW218480   1.688   4.454   1.874
 5861SOL     OW18481   5.739   2.205   4.357
 5861SOL    HW118482   5.688   2.290   4.342
 5861SOL    HW218483   5.720   2.141   4.283
 5862SOL     OW18484   4.105   4.740   2.752
 5862SOL    HW118485   4.049   4.823   2.756
 5862SOL    HW218486   4.138   4.727   2.658
 5863SOL     OW18487   1.741   0.793   5.904
 5863SOL    HW118488   1.837   0.817   5.918
 5863SOL    HW218489   1.723   0.783   5.806
 5864SOL     OW18490   4.207   4.291   1.645
 5864SOL    HW118491   4.191   4.206   1.595
 5864SOL    HW218492   4.262   4.272   1.726
 5865SOL     OW18493   4.894   0.651   3.117
 5865SOL    HW118494   4.945   0.567   3.133
 5865SOL    HW218495   4.799   0.629   3.094
 5866SOL     OW18496   3.918   6.469   5.816
 5866SOL    HW118497   3.985   6.398   5.836
 5866SOL    HW218498   3.920   6.491   5.718
 5867SOL     OW18499   0.613   2.997   2.227
 5867SOL    HW118500   0.641   2.914   2.178
 5867SOL    HW218501   0.568   3.060   2.164
 5868SOL     OW18502   1.520   0.357   5.532
 5868SOL    HW118503   1.492   0.450   5.556
 5868SOL    HW218504   1.443   0.295   5.547
 5869SOL     OW18505   2.703   4.825   4.670
 5869SOL    HW118506   2.632   4.894   4.655
 5869SOL    HW218507   2.723   4.818   4.768
 5870SOL     OW18508   5.196   5.157   4.203
 5870SOL    HW118509   5.240   5.173   4.292
 5870SOL    HW218510   5.257   5.188   4.130
 5871SOL     OW18511   3.739   2.940   0.474
 5871SOL    HW118512   3.810   2.907   0.537
 5871SOL    HW218513   3.678   2.865   0.451
 5872SOL     OW18514   3.435   5.806   6.100
 5872SOL    HW118515   3.400   5.814   6.007
 5872SOL    HW218516   3.361   5.825   6.165
 5873SOL     OW18517   2.965   3.300   0.074
 5873SOL    HW118518   2.975   3.206   0.109
 5873SOL    HW218519   3.037   3.318   0.007
 5874SOL     OW18520   2.125   3.421   1.692
 5874SOL    HW118521   2.197   3.460   1.751
 5874SOL    HW218522   2.162   3.406   1.600
 5875SOL     OW18523   3.504   1.861   0.058
 5875SOL    HW118524   3.442   1.812   0.119
 5875SOL    HW218525   3.556   1.928   0.110
 5876SOL     OW18526   2.920   3.722   6.963
 5876SOL    HW118527   2.867   3.638   6.951
 5876SOL    HW218528   2.877   3.796   6.912
 5877SOL     OW18529   6.199   0.707   2.086
 5877SOL    HW118530   6.118   0.674   2.038
 5877SOL    HW218531   6.241   0.632   2.137
 5878SOL     OW18532   4.517   4.742   1.879
 5878SOL    HW118533   4.451   4.669   1.868
 5878SOL    HW218534   4.500   4.814   1.811
 5879SOL     OW18535   3.695   3.231   6.357
 5879SOL    HW118536   3.596   3.239   6.362
 5879SOL    HW218537   3.728   3.273   6.272
 5880SOL     OW18538   5.000   3.197   5.586
 5880SOL    HW118539   4.958   3.155   5.666
 5880SOL    HW218540   4.933   3.204   5.512
 5881SOL     OW18541   1.365   6.354   1.808
 5881SOL    HW118542   1.417   6.436   1.833
 5881SOL    HW218543   1.293   6.339   1.876
 5882SOL     OW18544   1.627   5.936   6.211
 5882SOL    HW118545   1.688   5.992   6.155
 5882SOL    HW218546   1.669   5.847   6.228
 5883SOL     OW18547   6.981   4.476   1.204
 5883SOL    HW118548   6.938   4.469   1.115
 5883SOL    HW218549   7.018   4.387   1.231
 5884SOL     OW18550   6.422   1.921   3.629
 5884SOL    HW118551   6.498   1.892   3.571
 5884SOL    HW218552   6.348   1.853   3.623
 5885SOL     OW18553   0.306   5.355   6.704
 5885SOL    HW118554   0.278   5.450   6.717
 5885SOL    HW218555   0.295   5.306   6.791
 5886SOL     OW18556   1.579   4.079   3.751
 5886SOL    HW118557   1.536   4.104   3.664
 5886SOL    HW218558   1.546   3.989   3.780
 5887SOL     OW18559   1.926   2.647   0.852
 5887SOL    HW118560   1.942   2.746   0.856
 5887SOL    HW218561   2.004   2.602   0.809
 5888SOL     OW18562   3.048   0.161   1.112
 5888SOL    HW118563   3.016   0.254   1.097
 5888SOL    HW218564   3.025   0.132   1.205
 5889SOL     OW18565   6.792   0.813   1.816
 5889SOL    HW118566   6.817   0.795   1.721
 5889SOL    HW218567   6.819   0.735   1.873
 5890SOL     OW18568   2.955   6.235   2.396
 5890SOL    HW118569   2.890   6.161   2.380
 5890SOL    HW218570   2.935   6.311   2.333
 5891SOL     OW18571   2.581   3.449   0.601
 5891SOL    HW118572   2.510   3.390   0.561
 5891SOL    HW218573   2.670   3.422   0.565
 5892SOL     OW18574   0.921   3.617   0.828
 5892SOL    HW118575   1.013   3.595   0.861
 5892SOL    HW218576   0.891   3.546   0.764
 5893SOL     OW18577   0.342   5.376   2.139
 5893SOL    HW118578   0.309   5.443   2.206
 5893SOL    HW218579   0.381   5.424   2.060
 5894SOL     OW18580   2.080   5.486   6.063
 5894SOL    HW118581   2.112   5.557   6.000
 5894SOL    HW218582   2.081   5.522   6.156
 5895SOL     OW18583   5.463   2.863   4.666
 5895SOL    HW118584   5.535   2.904   4.721
 5895SOL    HW218585   5.485   2.767   4.649
 5896SOL     OW18586   5.797   2.442   1.938
 5896SOL    HW118587   5.850   2.508   1.885
 5896SOL    HW218588   5.850   2.413   2.018
 5897SOL     OW18589   4.607   1.842   1.052
 5897SOL    HW118590   4.645   1.753   1.079
 5897SOL    HW218591   4.625   1.908   1.124
 5898SOL     OW18592   2.034   1.417   5.061
 5898SOL    HW118593   1.948   1.399   5.014
 5898SOL    HW218594   2.085   1.332   5.072
 5899SOL     OW18595   6.753   5.395   5.694
 5899SOL    HW118596   6.842   5.349   5.690
 5899SOL    HW218597   6.767   5.491   5.720
 5900SOL     OW18598   5.928   6.466   3.267
 5900SOL    HW118599   6.002   6.399   3.276
 5900SOL    HW218600   5.953   6.535   3.199
 5901SOL     OW18601   1.930   0.168   5.623
 5901SOL    HW118602   1.999   0.099   5.644
 5901SOL    HW218603   1.892   0.203   5.709
 5902SOL     OW18604   5.011   4.640   5.013
 5902SOL    HW118605   5.096   4.650   5.067
 5902SOL    HW218606   4.954   4.569   5.055
 5903SOL     OW18607   6.326   1.684   6.045
 5903SOL    HW118608   6.404   1.635   6.084
 5903SOL    HW218609   6.360   1.758   5.986
 5904SOL     OW18610   2.404   4.508   2.371
 5904SOL    HW118611   2.472   4.495   2.442
 5904SOL    HW218612   2.339   4.432   2.372
 5905SOL     OW18613   6.453   1.600   4.436
 5905SOL    HW118614   6.520   1.549   4.490
 5905SOL    HW218615   6.501   1.655   4.367
 5906SOL     OW18616   4.666   0.388   5.149
 5906SOL    HW118617   4.745   0.449   5.142
 5906SOL    HW218618   4.691   0.296   5.120
 5907SOL     OW18619   1.724   2.989   6.839
 5907SOL    HW118620   1.742   2.930   6.918
 5907SOL    HW218621   1.712   2.932   6.757
 5908SOL     OW18622   4.601   2.996   6.069
 5908SOL    HW118623   4.616   3.093   6.054
 5908SOL    HW218624   4.645   2.944   5.996
 5909SOL     OW18625   6.767   5.434   4.427
 5909SOL    HW118626   6.768   5.364   4.355
 5909SOL    HW218627   6.800   5.521   4.390
 5910SOL     OW18628   2.109   3.965   1.359
 5910SOL    HW118629   2.040   3.915   1.410
 5910SOL    HW218630   2.197   3.917   1.367
 5911SOL     OW18631   6.486   6.343   6.389
 5911SOL    HW118632   6.582   6.313   6.387
 5911SOL    HW218633   6.481   6.432   6.436
 5912SOL     OW18634   6.808   3.527   6.887
 5912SOL    HW118635   6.894   3.485   6.857
 5912SOL    HW218636   6.800   3.618   6.847
 5913SOL     OW18637   1.838   1.352   6.096
 5913SOL    HW118638   1.818   1.425   6.030
 5913SOL    HW218639   1.932   1.320   6.083
 5914SOL     OW18640   1.768   6.229   0.230
 5914SOL    HW118641   1.718   6.311   0.201
 5914SOL    HW218642   1.757   6.157   0.161
 5915SOL     OW18643   4.892   2.836   2.696
 5915SOL    HW118644   4.902   2.904   2.623
 5915SOL    HW218645   4.934   2.750   2.668
 5916SOL     OW18646   3.879   0.449   6.004
 5916SOL    HW118647   3.833   0.530   5.966
 5916SOL    HW218648   3.824   0.412   6.078
 5917SOL     OW18649   3.019   3.843   3.401
 5917SOL    HW118650   3.108   3.815   3.437
 5917SOL    HW218651   3.029   3.875   3.307
 5918SOL     OW18652   2.139   3.187   4.272
 5918SOL    HW118653   2.151   3.181   4.371
 5918SOL    HW218654   2.184   3.109   4.228
 5919SOL     OW18655   1.556   3.208   6.722
 5919SOL    HW118656   1.497   3.256   6.788
 5919SOL    HW218657   1.628   3.159   6.771
 5920SOL     OW18658   3.485   6.854   0.038
 5920SOL    HW118659   3.503   6.885   6.969
 5920SOL    HW218660   3.514   6.926   0.103
 5921SOL     OW18661   4.073   4.868   5.119
 5921SOL    HW118662   4.151   4.814   5.151
 5921SOL    HW218663   4.077   4.876   5.019
 5922SOL     OW18664   5.797   4.236   2.472
 5922SOL    HW118665   5.839   4.327   2.475
 5922SOL    HW218666   5.773   4.207   2.564
 5923SOL     OW18667   0.180   6.903   3.822
 5923SOL    HW118668   0.258   6.843   3.799
 5923SOL    HW218669   0.190   6.990   3.774
 5924SOL     OW18670   5.357   2.296   4.344
 5924SOL    HW118671   5.438   2.237   4.343
 5924SOL    HW218672   5.276   2.240   4.361
 5925SOL     OW18673   5.828   6.193   1.003
 5925SOL    HW118674   5.837   6.119   0.937
 5925SOL    HW218675   5.858   6.161   1.094
 5926SOL     OW18676   3.474   5.140   1.582
 5926SOL    HW118677   3.455   5.111   1.676
 5926SOL    HW218678   3.416   5.219   1.559
 5927SOL     OW18679   3.243   5.831   2.488
 5927SOL    HW118680   3.203   5.919   2.515
 5927SOL    HW218681   3.277   5.784   2.569
 5928SOL     OW18682   1.301   0.147   2.211
 5928SOL    HW118683   1.348   0.218   2.264
 5928SOL    HW218684   1.237   0.099   2.271
 5929SOL     OW18685   1.130   6.860   6.283
 5929SOL    HW118686   1.084   6.836   6.197
 5929SOL    HW218687   1.179   6.946   6.271
 5930SOL     OW18688   6.649   1.861   4.575
 5930SOL    HW118689   6.628   1.857   4.477
 5930SOL    HW218690   6.726   1.801   4.595
 5931SOL     OW18691   6.726   5.723   1.260
 5931SOL    HW118692   6.771   5.719   1.171
 5931SOL    HW218693   6.794   5.727   1.333
 5932SOL     OW18694   3.044   6.956   0.754
 5932SOL    HW118695   3.103   6.942   0.834
 5932SOL    HW218696   2.952   6.980   0.784
 5933SOL     OW18697   6.543   3.766   3.007
 5933SOL    HW118698   6.554   3.672   2.975
 5933SOL    HW218699   6.521   3.765   3.105
 5934SOL     OW18700   3.770   3.589   2.842
 5934SOL    HW118701   3.782   3.492   2.820
 5934SOL    HW218702   3.755   3.599   2.940
 5935SOL     OW18703   4.003   3.465   3.983
 5935SOL    HW118704   4.078   3.401   3.963
 5935SOL    HW218705   3.939   3.422   4.047
 5936SOL     OW18706   5.099   5.565   6.578
 5936SOL    HW118707   5.186   5.517   6.575
 5936SOL    HW218708   5.099   5.629   6.655
 5937SOL     OW18709   1.866   3.223   1.249
 5937SOL    HW118710   1.768   3.218   1.267
 5937SOL    HW218711   1.883   3.218   1.150
 5938SOL     OW18712   1.643   4.320   2.387
 5938SOL    HW118713   1.674   4.357   2.300
 5938SOL    HW218714   1.543   4.324   2.391
 5939SOL     OW18715   3.682   0.003   3.135
 5939SOL    HW118716   3.710   6.968   3.210
 5939SOL    HW218717   3.653   0.092   3.171
 5940SOL     OW18718   3.912   5.910   2.792
 5940SOL    HW118719   3.841   5.950   2.735
 5940SOL    HW218720   3.959   5.982   2.842
 5941SOL     OW18721   6.225   4.869   2.385
 5941SOL    HW118722   6.259   4.959   2.415
 5941SOL    HW218723   6.174   4.879   2.300
 5942SOL     OW18724   4.371   2.779   5.950
 5942SOL    HW118725   4.417   2.856   5.994
 5942SOL    HW218726   4.430   2.698   5.956
 5943SOL     OW18727   1.536   5.880   0.369
 5943SOL    HW118728   1.447   5.847   0.398
 5943SOL    HW218729   1.555   5.969   0.410
 5944SOL     OW18730   5.487   1.848   2.679
 5944SOL    HW118731   5.521   1.927   2.628
 5944SOL    HW218732   5.494   1.867   2.777
 5945SOL     OW18733   6.779   5.232   5.944
 5945SOL    HW118734   6.864   5.205   5.899
 5945SOL    HW218735   6.720   5.280   5.878
 5946SOL     OW18736   4.382   3.054   5.341
 5946SOL    HW118737   4.294   3.006   5.335
 5946SOL    HW218738   4.457   2.988   5.333
 5947SOL     OW18739   4.353   3.442   1.717
 5947SOL    HW118740   4.408   3.499   1.657
 5947SOL    HW218741   4.298   3.500   1.777
 5948SOL     OW18742   3.560   4.888   2.555
 5948SOL    HW118743   3.537   4.948   2.478
 5948SOL    HW218744   3.660   4.882   2.564
 5949SOL     OW18745   4.386   4.741   1.518
 5949SOL    HW118746   4.392   4.765   1.615
 5949SOL    HW218747   4.396   4.643   1.507
 5950SOL     OW18748   6.786   2.527   4.193
 5950SOL    HW118749   6.703   2.525   4.137
 5950SOL    HW218750   6.764   2.554   4.286
 5951SOL     OW18751   2.148   5.616   3.431
 5951SOL    HW118752   2.090   5.620   3.350
 5951SOL    HW218753   2.230   5.561   3.410
 5952SOL     OW18754   0.300   6.637   4.210
 5952SOL    HW118755   0.314   6.579   4.291
 5952SOL    HW218756   0.211   6.681   4.215
 5953SOL     OW18757   0.055   2.981   6.484
 5953SOL    HW118758   6.983   2.979   6.512
 5953SOL    HW218759   0.068   3.057   6.419
 5954SOL     OW18760   0.384   4.827   6.706
 5954SOL    HW118761   0.326   4.764   6.757
 5954SOL    HW218762   0.466   4.779   6.675
 5955SOL     OW18763   4.875   5.253   1.629
 5955SOL    HW118764   4.829   5.192   1.694
 5955SOL    HW218765   4.973   5.236   1.631
 5956SOL     OW18766   5.533   2.392   7.020
 5956SOL    HW118767   5.455   2.372   6.961
 5956SOL    HW218768   5.582   2.471   6.984
 5957SOL     OW18769   5.853   6.142   6.202
 5957SOL    HW118770   5.934   6.183   6.160
 5957SOL    HW218771   5.815   6.074   6.140
 5958SOL     OW18772   6.723   5.491   1.941
 5958SOL    HW118773   6.656   5.419   1.962
 5958SOL    HW218774   6.711   5.567   2.005
 5959SOL     OW18775   2.164   1.646   5.907
 5959SOL    HW118776   2.122   1.574   5.852
 5959SOL    HW218777   2.260   1.625   5.922
 5960SOL     OW18778   3.301   0.444   3.623
 5960SOL    HW118779   3.281   0.355   3.665
 5960SOL    HW218780   3.217   0.481   3.582
 5961SOL     OW18781   3.144   0.839   5.282
 5961SOL    HW118782   3.141   0.939   5.279
 5961SOL    HW218783   3.124   0.802   5.191
 5962SOL     OW18784   5.119   5.464   2.398
 5962SOL    HW118785   5.104   5.409   2.316
 5962SOL    HW218786   5.173   5.412   2.464
 5963SOL     OW18787   4.087   3.806   2.318
 5963SOL    HW118788   4.133   3.750   2.386
 5963SOL    HW218789   4.094   3.903   2.343
 5964SOL     OW18790   0.445   5.191   5.506
 5964SOL    HW118791   0.532   5.142   5.493
 5964SOL    HW218792   0.418   5.186   5.602
 5965SOL     OW18793   2.760   2.659   5.546
 5965SOL    HW118794   2.787   2.602   5.624
 5965SOL    HW218795   2.665   2.689   5.558
 5966SOL     OW18796   2.900   5.721   4.163
 5966SOL    HW118797   2.941   5.785   4.098
 5966SOL    HW218798   2.932   5.629   4.145
 5967SOL     OW18799   4.582   6.653   2.531
 5967SOL    HW118800   4.665   6.709   2.538
 5967SOL    HW218801   4.606   6.557   2.539
 5968SOL     OW18802   6.867   2.635   3.947
 5968SOL    HW118803   6.818   2.577   3.882
 5968SOL    HW218804   6.864   2.593   4.038
 5969SOL     OW18805   5.848   3.651   3.492
 5969SOL    HW118806   5.754   3.685   3.489
 5969SOL    HW218807   5.861   3.580   3.423
 5970SOL     OW18808   1.252   3.188   3.016
 5970SOL    HW118809   1.270   3.097   3.052
 5970SOL    HW218810   1.205   3.243   3.084
 5971SOL     OW18811   2.382   6.901   2.544
 5971SOL    HW118812   2.394   6.892   2.643
 5971SOL    HW218813   2.287   6.885   2.520
 5972SOL     OW18814   4.744   6.440   0.323
 5972SOL    HW118815   4.729   6.485   0.411
 5972SOL    HW218816   4.719   6.503   0.249
 5973SOL     OW18817   1.198   4.653   3.326
 5973SOL    HW118818   1.277   4.593   3.337
 5973SOL    HW218819   1.156   4.639   3.237
 5974SOL     OW18820   0.381   3.883   0.119
 5974SOL    HW118821   0.400   3.793   0.158
 5974SOL    HW218822   0.402   3.953   0.187
 5975SOL     OW18823   2.605   2.896   0.712
 5975SOL    HW118824   2.534   2.828   0.729
 5975SOL    HW218825   2.576   2.985   0.748
 5976SOL     OW18826   3.114   3.077   5.092
 5976SOL    HW118827   3.194   3.028   5.058
 5976SOL    HW218828   3.123   3.174   5.070
 5977SOL     OW18829   1.141   3.956   2.521
 5977SOL    HW118830   1.224   3.955   2.576
 5977SOL    HW218831   1.098   3.865   2.524
 5978SOL     OW18832   5.565   5.048   1.826
 5978SOL    HW118833   5.473   5.052   1.865
 5978SOL    HW218834   5.595   4.953   1.821
 5979SOL     OW18835   6.727   0.689   3.484
 5979SOL    HW118836   6.736   0.596   3.451
 5979SOL    HW218837   6.812   0.739   3.468
 5980SOL     OW18838   6.079   3.852   0.376
 5980SOL    HW118839   6.055   3.911   0.453
 5980SOL    HW218840   6.176   3.830   0.380
 5981SOL     OW18841   5.287   1.202   2.328
 5981SOL    HW118842   5.217   1.249   2.382
 5981SOL    HW218843   5.344   1.270   2.282
 5982SOL     OW18844   6.561   1.746   6.415
 5982SOL    HW118845   6.628   1.784   6.350
 5982SOL    HW218846   6.476   1.798   6.408
 5983SOL     OW18847   1.675   0.957   4.215
 5983SOL    HW118848   1.639   1.043   4.252
 5983SOL    HW218849   1.774   0.954   4.229
 5984SOL     OW18850   0.069   6.385   4.986
 5984SOL    HW118851   0.102   6.477   5.008
 5984SOL    HW218852   0.083   6.326   5.066
 5985SOL     OW18853   4.413   1.749   4.098
 5985SOL    HW118854   4.348   1.821   4.074
 5985SOL    HW218855   4.503   1.789   4.112
 5986SOL     OW18856   3.284   3.127   2.616
 5986SOL    HW118857   3.291   3.122   2.716
 5986SOL    HW218858   3.350   3.064   2.575
 5987SOL     OW18859   3.878   6.540   4.874
 5987SOL    HW118860   3.975   6.552   4.855
 5987SOL    HW218861   3.850   6.602   4.947
 5988SOL     OW18862   4.093   6.570   4.307
 5988SOL    HW118863   4.114   6.549   4.402
 5988SOL    HW218864   3.995   6.584   4.296
 5989SOL     OW18865   3.144   0.724   5.625
 5989SOL    HW118866   3.182   0.648   5.678
 5989SOL    HW218867   3.045   0.729   5.639
 5990SOL     OW18868   3.287   4.772   1.389
 5990SOL    HW118869   3.306   4.853   1.334
 5990SOL    HW218870   3.192   4.775   1.422
 5991SOL     OW18871   2.796   5.089   4.943
 5991SOL    HW118872   2.777   5.141   4.859
 5991SOL    HW218873   2.847   5.006   4.919
 5992SOL     OW18874   4.354   0.242   3.802
 5992SOL    HW118875   4.424   0.272   3.737
 5992SOL    HW218876   4.276   0.304   3.799
 5993SOL     OW18877   2.510   6.086   5.316
 5993SOL    HW118878   2.437   6.030   5.277
 5993SOL    HW218879   2.583   6.027   5.349
 5994SOL     OW18880   6.489   2.361   3.019
 5994SOL    HW118881   6.432   2.279   3.013
 5994SOL    HW218882   6.453   2.431   2.957
 5995SOL     OW18883   0.025   4.945   1.076
 5995SOL    HW118884   0.022   4.882   0.999
 5995SOL    HW218885   0.063   5.033   1.045
 5996SOL     OW18886   6.990   5.125   5.530
 5996SOL    HW118887   6.892   5.136   5.545
 5996SOL    HW218888   7.007   5.038   5.483
 5997SOL     OW18889   0.780   6.855   2.248
 5997SOL    HW118890   0.683   6.831   2.259
 5997SOL    HW218891   0.836   6.793   2.303
 5998SOL     OW18892   5.547   2.205   2.732
 5998SOL    HW118893   5.569   2.301   2.718
 5998SOL    HW218894   5.460   2.184   2.686
 5999SOL     OW18895   1.090   1.754   2.618
 5999SOL    HW118896   1.091   1.746   2.717
 5999SOL    HW218897   1.172   1.801   2.587
 6000SOL     OW18898   4.514   5.802   2.079
 6000SOL    HW118899   4.588   5.821   2.143
 6000SOL    HW218900   4.529   5.854   1.995
 6001SOL     OW18901   6.930   2.165   6.767
 6001SOL    HW118902   6.885   2.118   6.842
 6001SOL    HW218903   6.879   2.149   6.682
 6002SOL     OW18904   2.013   0.580   1.825
 6002SOL    HW118905   1.925   0.535   1.808
 6002SOL    HW218906   2.017   0.665   1.773
 6003SOL     OW18907   4.759   4.214   4.844
 6003SOL    HW118908   4.691   4.257   4.904
 6003SOL    HW218909   4.793   4.281   4.779
 6004SOL     OW18910   0.178   3.287   2.611
 6004SOL    HW118911   0.085   3.273   2.643
 6004SOL    HW218912   0.176   3.335   2.523
 6005SOL     OW18913   2.963   5.855   2.858
 6005SOL    HW118914   3.004   5.776   2.903
 6005SOL    HW218915   3.005   5.939   2.893
 6006SOL     OW18916   2.433   6.705   6.613
 6006SOL    HW118917   2.433   6.716   6.513
 6006SOL    HW218918   2.461   6.612   6.636
 6007SOL     OW18919   5.924   2.534   4.313
 6007SOL    HW118920   5.841   2.497   4.355
 6007SOL    HW218921   6.004   2.506   4.366
 6008SOL     OW18922   2.985   4.522   6.515
 6008SOL    HW118923   3.005   4.455   6.443
 6008SOL    HW218924   3.051   4.512   6.589
 6009SOL     OW18925   2.860   1.972   4.635
 6009SOL    HW118926   2.862   2.001   4.731
 6009SOL    HW218927   2.768   1.943   4.610
 6010SOL     OW18928   1.856   3.882   3.215
 6010SOL    HW118929   1.939   3.853   3.166
 6010SOL    HW218930   1.784   3.814   3.202
 6011SOL     OW18931   5.043   3.325   2.534
 6011SOL    HW118932   4.996   3.412   2.517
 6011SOL    HW218933   5.053   3.312   2.632
 6012SOL     OW18934   6.942   3.125   0.616
 6012SOL    HW118935   0.017   3.142   0.615
 6012SOL    HW218936   6.894   3.209   0.642
 6013SOL     OW18937   5.518   0.826   2.540
 6013SOL    HW118938   5.528   0.731   2.568
 6013SOL    HW218939   5.436   0.865   2.582
 6014SOL     OW18940   6.235   0.624   0.508
 6014SOL    HW118941   6.286   0.541   0.530
 6014SOL    HW218942   6.155   0.631   0.567
 6015SOL     OW18943   6.038   1.945   4.217
 6015SOL    HW118944   5.993   1.875   4.273
 6015SOL    HW218945   6.088   1.901   4.142
 6016SOL     OW18946   1.905   0.373   5.199
 6016SOL    HW118947   1.973   0.439   5.231
 6016SOL    HW218948   1.952   0.298   5.152
 6017SOL     OW18949   6.559   5.377   2.871
 6017SOL    HW118950   6.569   5.323   2.954
 6017SOL    HW218951   6.564   5.318   2.791
 6018SOL     OW18952   2.483   3.584   0.796
 6018SOL    HW118953   2.553   3.647   0.831
 6018SOL    HW218954   2.521   3.530   0.721
 6019SOL     OW18955   3.603   0.339   4.148
 6019SOL    HW118956   3.552   0.373   4.069
 6019SOL    HW218957   3.559   0.372   4.232
 6020SOL     OW18958   3.801   0.845   2.712
 6020SOL    HW118959   3.762   0.907   2.781
 6020SOL    HW218960   3.728   0.811   2.653
 6021SOL     OW18961   4.355   1.192   2.413
 6021SOL    HW118962   4.420   1.254   2.368
 6021SOL    HW218963   4.286   1.162   2.347
 6022SOL     OW18964   4.310   1.203   3.689
 6022SOL    HW118965   4.334   1.145   3.612
 6022SOL    HW218966   4.369   1.181   3.767
 6023SOL     OW18967   0.200   1.408   2.609
 6023SOL    HW118968   0.165   1.326   2.654
 6023SOL    HW218969   0.148   1.488   2.640
 6024SOL     OW18970   0.653   4.607   1.825
 6024SOL    HW118971   0.730   4.653   1.870
 6024SOL    HW218972   0.684   4.519   1.788
 6025SOL     OW18973   4.767   1.703   1.342
 6025SOL    HW118974   4.844   1.667   1.288
 6025SOL    HW218975   4.802   1.767   1.410
 6026SOL     OW18976   6.624   4.741   5.193
 6026SOL    HW118977   6.699   4.676   5.205
 6026SOL    HW218978   6.651   4.829   5.233
 6027SOL     OW18979   2.980   3.499   0.238
 6027SOL    HW118980   2.914   3.485   0.312
 6027SOL    HW218981   2.986   3.416   0.182
 6028SOL     OW18982   1.210   3.384   0.344
 6028SOL    HW118983   1.304   3.366   0.316
 6028SOL    HW218984   1.207   3.399   0.443
 6029SOL     OW18985   2.118   6.145   1.362
 6029SOL    HW118986   2.093   6.070   1.300
 6029SOL    HW218987   2.134   6.108   1.453
 6030SOL     OW18988   1.757   0.844   1.880
 6030SOL    HW118989   1.658   0.849   1.882
 6030SOL    HW218990   1.789   0.837   1.785
 6031SOL     OW18991   5.064   6.960   5.138
 6031SOL    HW118992   5.113   6.877   5.113
 6031SOL    HW218993   5.129   0.005   5.171
 6032SOL     OW18994   0.760   3.094   2.773
 6032SOL    HW118995   0.739   3.012   2.720
 6032SOL    HW218996   0.725   3.084   2.866
 6033SOL     OW18997   0.879   0.937   4.016
 6033SOL    HW118998   0.837   1.026   4.033
 6033SOL    HW218999   0.891   0.924   3.918
 6034SOL     OW19000   1.630   4.100   5.018
 6034SOL    HW119001   1.689   4.021   4.999
 6034SOL    HW219002   1.622   4.112   5.117
 6035SOL     OW19003   6.043   0.770   4.110
 6035SOL    HW119004   6.092   0.847   4.070
 6035SOL    HW219005   6.003   0.714   4.038
 6036SOL     OW19006   0.630   6.253   5.348
 6036SOL    HW119007   0.652   6.243   5.251
 6036SOL    HW219008   0.613   6.349   5.369
 6037SOL     OW19009   6.227   5.870   4.863
 6037SOL    HW119010   6.135   5.847   4.831
 6037SOL    HW219011   6.276   5.787   4.886
 6038SOL     OW19012   5.649   3.618   6.101
 6038SOL    HW119013   5.601   3.531   6.093
 6038SOL    HW219014   5.587   3.686   6.141
 6039SOL     OW19015   3.507   3.336   2.617
 6039SOL    HW119016   3.489   3.413   2.556
 6039SOL    HW219017   3.427   3.277   2.621
 6040SOL     OW19018   0.160   1.902   0.335
 6040SOL    HW119019   0.196   1.981   0.385
 6040SOL    HW219020   0.078   1.868   0.381
 6041SOL     OW19021   1.251   2.474   0.004
 6041SOL    HW119022   1.314   2.397   7.014
 6041SOL    HW219023   1.275   2.521   0.089
 6042SOL     OW19024   4.681   5.265   3.305
 6042SOL    HW119025   4.695   5.352   3.351
 6042SOL    HW219026   4.676   5.279   3.206
 6043SOL     OW19027   0.910   4.651   4.412
 6043SOL    HW119028   0.919   4.567   4.357
 6043SOL    HW219029   0.925   4.629   4.508
 6044SOL     OW19030   0.804   0.849   1.241
 6044SOL    HW119031   0.784   0.925   1.302
 6044SOL    HW219032   0.903   0.838   1.233
 6045SOL     OW19033   6.815   3.740   1.897
 6045SOL    HW119034   6.755   3.793   1.958
 6045SOL    HW219035   6.809   3.643   1.921
 6046SOL     OW19036   3.048   2.175   0.306
 6046SOL    HW119037   2.982   2.227   0.359
 6046SOL    HW219038   3.132   2.228   0.296
 6047SOL     OW19039   6.293   0.142   4.470
 6047SOL    HW119040   6.294   0.101   4.561
 6047SOL    HW219041   6.203   0.130   4.428
 6048SOL     OW19042   4.365   6.662   4.975
 6048SOL    HW119043   4.414   6.689   5.058
 6048SOL    HW219044   4.375   6.563   4.961
 6049SOL     OW19045   6.187   4.654   0.095
 6049SOL    HW119046   6.131   4.698   0.165
 6049SOL    HW219047   6.215   4.563   0.127
 6050SOL     OW19048   4.367   4.903   5.419
 6050SOL    HW119049   4.465   4.923   5.424
 6050SOL    HW219050   4.316   4.973   5.469
 6051SOL     OW19051   1.545   1.886   2.585
 6051SOL    HW119052   1.560   1.983   2.606
 6051SOL    HW219053   1.590   1.864   2.499
 6052SOL     OW19054   6.974   1.322   1.037
 6052SOL    HW119055   0.018   1.275   1.094
 6052SOL    HW219056   7.022   1.383   0.973
 6053SOL     OW19057   1.721   6.556   6.834
 6053SOL    HW119058   1.775   6.537   6.916
 6053SOL    HW219059   1.773   6.616   6.773
 6054SOL     OW19060   2.170   4.090   0.335
 6054SOL    HW119061   2.160   3.991   0.347
 6054SOL    HW219062   2.169   4.113   0.237
 6055SOL     OW19063   4.774   0.785   4.867
 6055SOL    HW119064   4.775   0.745   4.959
 6055SOL    HW219065   4.835   0.864   4.865
 6056SOL     OW19066   4.675   2.016   6.797
 6056SOL    HW119067   4.655   2.088   6.863
 6056SOL    HW219068   4.688   2.055   6.707
 6057SOL     OW19069   2.991   0.986   4.916
 6057SOL    HW119070   2.959   0.977   4.821
 6057SOL    HW219071   3.074   1.042   4.918
 6058SOL     OW19072   5.787   2.159   3.848
 6058SOL    HW119073   5.807   2.240   3.792
 6058SOL    HW219074   5.695   2.167   3.886
 6059SOL     OW19075   6.025   4.809   6.947
 6059SOL    HW119076   5.938   4.842   6.985
 6059SOL    HW219077   6.082   4.774   7.021
 6060SOL     OW19078   4.259   5.586   5.747
 6060SOL    HW119079   4.160   5.577   5.758
 6060SOL    HW219080   4.280   5.673   5.703
 6061SOL     OW19081   3.058   1.713   6.300
 6061SOL    HW119082   3.134   1.687   6.359
 6061SOL    HW219083   2.973   1.674   6.335
 6062SOL     OW19084   2.012   0.289   4.692
 6062SOL    HW119085   2.016   0.305   4.594
 6062SOL    HW219086   1.978   0.372   4.738
 6063SOL     OW19087   4.127   0.483   6.276
 6063SOL    HW119088   4.198   0.552   6.291
 6063SOL    HW219089   4.156   0.421   6.204
 6064SOL     OW19090   1.418   5.584   3.547
 6064SOL    HW119091   1.413   5.632   3.459
 6064SOL    HW219092   1.390   5.489   3.535
 6065SOL     OW19093   0.069   0.342   0.424
 6065SOL    HW119094   7.017   0.358   0.360
 6065SOL    HW219095   0.131   0.421   0.422
 6066SOL     OW19096   4.198   2.503   0.623
 6066SOL    HW119097   4.109   2.536   0.591
 6066SOL    HW219098   4.254   2.477   0.544
 6067SOL     OW19099   6.288   1.522   6.673
 6067SOL    HW119100   6.276   1.610   6.626
 6067SOL    HW219101   6.236   1.452   6.624
 6068SOL     OW19102   4.439   2.402   4.583
 6068SOL    HW119103   4.375   2.477   4.599
 6068SOL    HW219104   4.493   2.386   4.665
 6069SOL     OW19105   6.873   4.363   5.057
 6069SOL    HW119106   6.795   4.414   5.095
 6069SOL    HW219107   6.874   4.372   4.958
 6070SOL     OW19108   4.061   2.444   5.938
 6070SOL    HW119109   4.131   2.376   5.958
 6070SOL    HW219110   4.100   2.517   5.883
 6071SOL     OW19111   3.894   6.561   5.569
 6071SOL    HW119112   3.873   6.659   5.566
 6071SOL    HW219113   3.869   6.519   5.481
 6072SOL     OW19114   0.082   2.378   1.566
 6072SOL    HW119115   0.117   2.308   1.504
 6072SOL    HW219116   0.006   2.426   1.522
 6073SOL     OW19117   6.365   2.826   0.699
 6073SOL    HW119118   6.326   2.789   0.784
 6073SOL    HW219119   6.295   2.826   0.628
 6074SOL     OW19120   0.671   6.929   4.939
 6074SOL    HW119121   0.662   6.873   4.857
 6074SOL    HW219122   0.623   6.886   5.016
 6075SOL     OW19123   5.720   4.044   0.165
 6075SOL    HW119124   5.671   4.093   0.093
 6075SOL    HW219125   5.819   4.056   0.153
 6076SOL     OW19126   2.025   5.841   4.056
 6076SOL    HW119127   2.092   5.769   4.076
 6076SOL    HW219128   1.954   5.841   4.126
 6077SOL     OW19129   6.005   6.466   2.179
 6077SOL    HW119130   6.057   6.552   2.176
 6077SOL    HW219131   6.064   6.393   2.213
 6078SOL     OW19132   2.711   4.628   4.021
 6078SOL    HW119133   2.679   4.647   3.928
 6078SOL    HW219134   2.652   4.559   4.063
 6079SOL     OW19135   2.394   1.657   6.435
 6079SOL    HW119136   2.447   1.743   6.437
 6079SOL    HW219137   2.297   1.678   6.439
 6080SOL     OW19138   5.823   2.532   1.643
 6080SOL    HW119139   5.816   2.433   1.654
 6080SOL    HW219140   5.731   2.571   1.638
 6081SOL     OW19141   6.712   3.423   3.664
 6081SOL    HW119142   6.750   3.370   3.740
 6081SOL    HW219143   6.641   3.485   3.698
 6082SOL     OW19144   4.213   1.283   3.347
 6082SOL    HW119145   4.305   1.320   3.349
 6082SOL    HW219146   4.157   1.329   3.415
 6083SOL     OW19147   1.586   6.316   6.828
 6083SOL    HW119148   1.603   6.269   6.915
 6083SOL    HW219149   1.623   6.408   6.832
 6084SOL     OW19150   6.952   5.595   5.593
 6084SOL    HW119151   6.864   5.638   5.614
 6084SOL    HW219152   6.936   5.509   5.544
 6085SOL     OW19153   5.370   3.548   0.458
 6085SOL    HW119154   5.415   3.597   0.383
 6085SOL    HW219155   5.383   3.449   0.446
 6086SOL     OW19156   3.182   1.924   4.257
 6086SOL    HW119157   3.206   2.021   4.253
 6086SOL    HW219158   3.118   1.902   4.183
 6087SOL     OW19159   5.751   6.329   6.659
 6087SOL    HW119160   5.671   6.276   6.628
 6087SOL    HW219161   5.721   6.398   6.725
 6088SOL     OW19162   1.100   0.154   5.244
 6088SOL    HW119163   1.045   0.088   5.192
 6088SOL    HW219164   1.129   0.227   5.183
 6089SOL     OW19165   6.730   3.467   0.904
 6089SOL    HW119166   6.642   3.510   0.881
 6089SOL    HW219167   6.753   3.486   0.999
 6090SOL     OW19168   1.083   5.025   4.978
 6090SOL    HW119169   1.032   4.969   5.043
 6090SOL    HW219170   1.021   5.059   4.908
 6091SOL     OW19171   6.678   1.928   1.947
 6091SOL    HW119172   6.733   2.009   1.962
 6091SOL    HW219173   6.610   1.946   1.875
 6092SOL     OW19174   2.123   1.860   2.291
 6092SOL    HW119175   2.068   1.907   2.223
 6092SOL    HW219176   2.101   1.762   2.290
 6093SOL     OW19177   1.218   2.471   0.996
 6093SOL    HW119178   1.312   2.469   1.030
 6093SOL    HW219179   1.161   2.409   1.051
 6094SOL     OW19180   1.036   1.145   1.598
 6094SOL    HW119181   1.120   1.149   1.543
 6094SOL    HW219182   0.989   1.058   1.580
 6095SOL     OW19183   5.990   3.284   6.305
 6095SOL    HW119184   6.088   3.282   6.283
 6095SOL    HW219185   5.951   3.370   6.273
 6096SOL     OW19186   4.051   2.141   3.527
 6096SOL    HW119187   4.134   2.159   3.475
 6096SOL    HW219188   3.978   2.113   3.465
 6097SOL     OW19189   2.840   1.756   2.372
 6097SOL    HW119190   2.770   1.735   2.303
 6097SOL    HW219191   2.883   1.671   2.402
 6098SOL     OW19192   1.885   2.616   5.818
 6098SOL    HW119193   1.883   2.716   5.813
 6098SOL    HW219194   1.883   2.579   5.725
 6099SOL     OW19195   6.122   6.078   5.134
 6099SOL    HW119196   6.124   6.178   5.127
 6099SOL    HW219197   6.047   6.043   5.078
 6100SOL     OW19198   6.557   2.537   0.043
 6100SOL    HW119199   6.493   2.516   6.993
 6100SOL    HW219200   6.510   2.528   0.131
 6101SOL     OW19201   6.839   1.271   5.533
 6101SOL    HW119202   6.801   1.317   5.453
 6101SOL    HW219203   6.792   1.184   5.547
 6102SOL     OW19204   2.987   0.607   4.325
 6102SOL    HW119205   3.002   0.694   4.277
 6102SOL    HW219206   3.001   0.531   4.261
 6103SOL     OW19207   6.522   6.728   5.384
 6103SOL    HW119208   6.543   6.771   5.471
 6103SOL    HW219209   6.424   6.708   5.379
 6104SOL     OW19210   6.530   1.915   6.739
 6104SOL    HW119211   6.453   1.853   6.722
 6104SOL    HW219212   6.577   1.888   6.823
 6105SOL     OW19213   3.273   5.926   5.049
 6105SOL    HW119214   3.214   5.865   4.996
 6105SOL    HW219215   3.362   5.934   5.004
 6106SOL     OW19216   3.597   5.278   5.852
 6106SOL    HW119217   3.603   5.242   5.759
 6106SOL    HW219218   3.552   5.367   5.849
 6107SOL     OW19219   2.113   4.720   5.136
 6107SOL    HW119220   2.040   4.740   5.201
 6107SOL    HW219221   2.150   4.629   5.155
 6108SOL     OW19222   0.566   2.044   4.756
 6108SOL    HW119223   0.573   1.998   4.667
 6108SOL    HW219224   0.509   1.989   4.817
 6109SOL     OW19225   5.851   3.976   1.121
 6109SOL    HW119226   5.821   3.982   1.025
 6109SOL    HW219227   5.771   3.967   1.180
 6110SOL     OW19228   3.391   1.381   4.657
 6110SOL    HW119229   3.410   1.307   4.721
 6110SOL    HW219230   3.458   1.454   4.670
 6111SOL     OW19231   1.688   5.194   3.255
 6111SOL    HW119232   1.731   5.129   3.316
 6111SOL    HW219233   1.717   5.178   3.161
 6112SOL     OW19234   0.507   1.713   2.955
 6112SOL    HW119235   0.479   1.641   2.892
 6112SOL    HW219236   0.506   1.801   2.908
 6113SOL     OW19237   2.113   6.704   5.642
 6113SOL    HW119238   2.148   6.647   5.569
 6113SOL    HW219239   2.122   6.801   5.617
 6114SOL     OW19240   4.752   5.433   0.479
 6114SOL    HW119241   4.767   5.472   0.570
 6114SOL    HW219242   4.835   5.443   0.424
 6115SOL     OW19243   5.325   5.251   2.460
 6115SOL    HW119244   5.331   5.199   2.375
 6115SOL    HW219245   5.415   5.290   2.481
 6116SOL     OW19246   3.932   1.218   1.924
 6116SOL    HW119247   3.833   1.213   1.932
 6116SOL    HW219248   3.956   1.267   1.839
 6117SOL     OW19249   5.431   6.816   4.653
 6117SOL    HW119250   5.461   6.866   4.734
 6117SOL    HW219251   5.337   6.784   4.667
 6118SOL     OW19252   5.990   0.731   3.709
 6118SOL    HW119253   6.038   0.707   3.625
 6118SOL    HW219254   6.054   0.770   3.775
 6119SOL     OW19255   6.554   5.540   4.755
 6119SOL    HW119256   6.628   5.607   4.754
 6119SOL    HW219257   6.591   5.449   4.735
 6120SOL     OW19258   2.888   0.849   2.913
 6120SOL    HW119259   2.809   0.791   2.894
 6120SOL    HW219260   2.921   0.831   3.005
 6121SOL     OW19261   0.322   2.394   4.369
 6121SOL    HW119262   0.368   2.460   4.309
 6121SOL    HW219263   0.223   2.397   4.351
 6122SOL     OW19264   4.109   5.277   3.065
 6122SOL    HW119265   4.018   5.291   3.106
 6122SOL    HW219266   4.126   5.348   2.997
 6123SOL     OW19267   6.143   1.567   2.150
 6123SOL    HW119268   6.148   1.606   2.241
 6123SOL    HW219269   6.219   1.602   2.094
 6124SOL     OW19270   3.461   0.180   5.824
 6124SOL    HW119271   3.361   0.183   5.833
 6124SOL    HW219272   3.487   0.109   5.759
 6125SOL     OW19273   2.105   5.790   2.042
 6125SOL    HW119274   2.147   5.857   2.103
 6125SOL    HW219275   2.045   5.729   2.094
 6126SOL     OW19276   5.130   5.398   2.687
 6126SOL    HW119277   5.137   5.299   2.691
 6126SOL    HW219278   5.037   5.424   2.661
 6127SOL     OW19279   2.165   5.690   1.563
 6127SOL    HW119280   2.114   5.716   1.481
 6127SOL    HW219281   2.232   5.620   1.540
 6128SOL     OW19282   5.316   1.940   0.282
 6128SOL    HW119283   5.249   1.870   0.256
 6128SOL    HW219284   5.287   1.982   0.368
 6129SOL     OW19285   6.133   4.602   3.346
 6129SOL    HW119286   6.116   4.608   3.444
 6129SOL    HW219287   6.049   4.626   3.297
 6130SOL     OW19288   5.194   3.745   2.587
 6130SOL    HW119289   5.128   3.820   2.586
 6130SOL    HW219290   5.287   3.783   2.587
 6131SOL     OW19291   5.995   1.035   5.532
 6131SOL    HW119292   5.917   0.977   5.559
 6131SOL    HW219293   6.047   1.060   5.613
 6132SOL     OW19294   4.599   2.689   0.877
 6132SOL    HW119295   4.521   2.674   0.817
 6132SOL    HW219296   4.653   2.766   0.842
 6133SOL     OW19297   0.968   4.448   1.181
 6133SOL    HW119298   1.031   4.424   1.107
 6133SOL    HW219299   0.887   4.389   1.176
 6134SOL     OW19300   4.504   3.732   6.274
 6134SOL    HW119301   4.439   3.751   6.348
 6134SOL    HW219302   4.459   3.745   6.186
 6135SOL     OW19303   5.818   0.207   1.332
 6135SOL    HW119304   5.901   0.156   1.356
 6135SOL    HW219305   5.834   0.305   1.346
 6136SOL     OW19306   0.756   2.298   1.589
 6136SOL    HW119307   0.798   2.387   1.573
 6136SOL    HW219308   0.705   2.300   1.675
 6137SOL     OW19309   3.051   6.403   6.359
 6137SOL    HW119310   3.138   6.451   6.347
 6137SOL    HW219311   3.051   6.354   6.446
 6138SOL     OW19312   3.944   6.042   2.460
 6138SOL    HW119313   3.953   6.077   2.554
 6138SOL    HW219314   3.907   6.114   2.401
 6139SOL     OW19315   2.063   4.820   4.488
 6139SOL    HW119316   1.996   4.890   4.515
 6139SOL    HW219317   2.091   4.836   4.393
 6140SOL     OW19318   1.985   6.390   0.893
 6140SOL    HW119319   2.027   6.421   0.978
 6140SOL    HW219320   1.911   6.452   0.867
 6141SOL     OW19321   6.319   5.614   6.380
 6141SOL    HW119322   6.375   5.625   6.298
 6141SOL    HW219323   6.223   5.630   6.357
 6142SOL     OW19324   0.226   4.555   1.459
 6142SOL    HW119325   0.299   4.596   1.514
 6142SOL    HW219326   0.150   4.528   1.518
 6143SOL     OW19327   5.569   5.287   6.267
 6143SOL    HW119328   5.643   5.327   6.321
 6143SOL    HW219329   5.483   5.333   6.289
 6144SOL     OW19330   0.590   4.870   4.165
 6144SOL    HW119331   0.550   4.837   4.250
 6144SOL    HW219332   0.652   4.800   4.129
 6145SOL     OW19333   5.189   5.672   2.795
 6145SOL    HW119334   5.129   5.630   2.863
 6145SOL    HW219335   5.271   5.617   2.784
 6146SOL     OW19336   6.144   1.526   3.725
 6146SOL    HW119337   6.070   1.529   3.658
 6146SOL    HW219338   6.191   1.438   3.719
 6147SOL     OW19339   1.729   3.516   2.743
 6147SOL    HW119340   1.769   3.592   2.692
 6147SOL    HW219341   1.678   3.458   2.680
 6148SOL     OW19342   6.238   6.478   4.212
 6148SOL    HW119343   6.254   6.400   4.272
 6148SOL    HW219344   6.146   6.514   4.229
 6149SOL     OW19345   2.675   6.176   3.007
 6149SOL    HW119346   2.624   6.248   2.959
 6149SOL    HW219347   2.639   6.164   3.099
 6150SOL     OW19348   4.689   5.756   6.001
 6150SOL    HW119349   4.699   5.679   5.938
 6150SOL    HW219350   4.592   5.767   6.026
 6151SOL     OW19351   5.248   2.554   5.662
 6151SOL    HW119352   5.340   2.541   5.624
 6151SOL    HW219353   5.180   2.522   5.597
 6152SOL     OW19354   6.648   4.182   6.594
 6152SOL    HW119355   6.712   4.105   6.592
 6152SOL    HW219356   6.686   4.256   6.650
 6153SOL     OW19357   4.137   3.162   1.313
 6153SOL    HW119358   4.082   3.086   1.350
 6153SOL    HW219359   4.161   3.224   1.387
 6154SOL     OW19360   5.621   3.243   2.688
 6154SOL    HW119361   5.531   3.234   2.729
 6154SOL    HW219362   5.691   3.240   2.760
 6155SOL     OW19363   0.134   3.812   5.244
 6155SOL    HW119364   0.170   3.904   5.262
 6155SOL    HW219365   0.161   3.783   5.152
 6156SOL     OW19366   6.664   0.188   3.898
 6156SOL    HW119367   6.747   0.147   3.937
 6156SOL    HW219368   6.629   0.130   3.825
 6157SOL     OW19369   2.766   1.142   3.922
 6157SOL    HW119370   2.854   1.106   3.890
 6157SOL    HW219371   2.779   1.235   3.957
 6158SOL     OW19372   4.923   1.225   5.635
 6158SOL    HW119373   5.008   1.196   5.679
 6158SOL    HW219374   4.929   1.207   5.537
 6159SOL     OW19375   5.268   3.107   6.524
 6159SOL    HW119376   5.357   3.133   6.563
 6159SOL    HW219377   5.271   3.119   6.425
 6160SOL     OW19378   5.823   5.963   2.086
 6160SOL    HW119379   5.790   6.039   2.029
 6160SOL    HW219380   5.849   5.998   2.176
 6161SOL     OW19381   5.391   0.629   6.068
 6161SOL    HW119382   5.294   0.644   6.088
 6161SOL    HW219383   5.445   0.652   6.149
 6162SOL     OW19384   6.548   4.666   4.771
 6162SOL    HW119385   6.566   4.748   4.824
 6162SOL    HW219386   6.541   4.587   4.832
 6163SOL     OW19387   6.678   4.177   2.100
 6163SOL    HW119388   6.666   4.234   2.019
 6163SOL    HW219389   6.761   4.205   2.149
 6164SOL     OW19390   3.977   1.932   0.769
 6164SOL    HW119391   3.920   2.007   0.735
 6164SOL    HW219392   3.925   1.880   0.836
 6165SOL     OW19393   3.587   6.015   0.385
 6165SOL    HW119394   3.645   6.019   0.304
 6165SOL    HW219395   3.576   5.920   0.415
 6166SOL     OW19396   2.836   1.529   5.943
 6166SOL    HW119397   2.799   1.459   5.883
 6166SOL    HW219398   2.767   1.556   6.010
 6167SOL     OW19399   0.535   4.094   3.438
 6167SOL    HW119400   0.490   4.023   3.490
 6167SOL    HW219401   0.479   4.118   3.358
 6168SOL     OW19402   0.255   3.611   3.050
 6168SOL    HW119403   0.167   3.565   3.061
 6168SOL    HW219404   0.302   3.575   2.969
 6169SOL     OW19405   1.847   4.159   2.248
 6169SOL    HW119406   1.913   4.127   2.180
 6169SOL    HW219407   1.864   4.256   2.268
 6170SOL     OW19408   0.549   3.290   5.171
 6170SOL    HW119409   0.647   3.295   5.188
 6170SOL    HW219410   0.507   3.379   5.184
 6171SOL     OW19411   0.016   0.343   6.441
 6171SOL    HW119412   6.981   0.279   6.489
 6171SOL    HW219413   0.079   0.293   6.383
 6172SOL     OW19414   0.425   3.525   3.289
 6172SOL    HW119415   0.352   3.539   3.222
 6172SOL    HW219416   0.463   3.613   3.316
 6173SOL     OW19417   6.798   6.427   3.171
 6173SOL    HW119418   6.886   6.386   3.147
 6173SOL    HW219419   6.768   6.487   3.097
 6174SOL     OW19420   5.463   3.734   2.815
 6174SOL    HW119421   5.461   3.829   2.785
 6174SOL    HW219422   5.547   3.716   2.867
 6175SOL     OW19423   2.824   2.321   5.745
 6175SOL    HW119424   2.731   2.286   5.763
 6175SOL    HW219425   2.821   2.420   5.737
 6176SOL     OW19426   4.559   3.841   5.741
 6176SOL    HW119427   4.558   3.930   5.786
 6176SOL    HW219428   4.488   3.837   5.671
 6177SOL     OW19429   6.232   1.221   2.099
 6177SOL    HW119430   6.151   1.268   2.065
 6177SOL    HW219431   6.212   1.181   2.188
 6178SOL     OW19432   3.865   4.262   1.435
 6178SOL    HW119433   3.910   4.350   1.416
 6178SOL    HW219434   3.786   4.277   1.494
 6179SOL     OW19435   5.634   4.688   3.138
 6179SOL    HW119436   5.688   4.689   3.222
 6179SOL    HW219437   5.694   4.672   3.059
 6180SOL     OW19438   2.738   4.247   0.415
 6180SOL    HW119439   2.791   4.325   0.446
 6180SOL    HW219440   2.712   4.190   0.494
 6181SOL     OW19441   5.306   5.424   6.589
 6181SOL    HW119442   5.351   5.375   6.514
 6181SOL    HW219443   5.374   5.450   6.657
 6182SOL     OW19444   3.465   2.317   0.371
 6182SOL    HW119445   3.412   2.272   0.443
 6182SOL    HW219446   3.481   2.254   0.296
 6183SOL     OW19447   0.818   1.265   1.071
 6183SOL    HW119448   0.790   1.233   0.981
 6183SOL    HW219449   0.820   1.365   1.073
 6184SOL     OW19450   2.349   0.642   5.486
 6184SOL    HW119451   2.392   0.599   5.406
 6184SOL    HW219452   2.406   0.627   5.567
 6185SOL     OW19453   3.330   2.937   5.432
 6185SOL    HW119454   3.400   3.007   5.423
 6185SOL    HW219455   3.309   2.923   5.529
 6186SOL     OW19456   6.637   1.856   2.241
 6186SOL    HW119457   6.578   1.776   2.257
 6186SOL    HW219458   6.680   1.848   2.151
 6187SOL     OW19459   5.480   1.805   5.439
 6187SOL    HW119460   5.444   1.857   5.516
 6187SOL    HW219461   5.501   1.712   5.468
 6188SOL     OW19462   1.253   1.808   5.189
 6188SOL    HW119463   1.348   1.781   5.172
 6188SOL    HW219464   1.248   1.908   5.191
 6189SOL     OW19465   6.390   6.494   1.384
 6189SOL    HW119466   6.359   6.586   1.410
 6189SOL    HW219467   6.441   6.453   1.459
 6190SOL     OW19468   0.476   2.599   5.406
 6190SOL    HW119469   0.530   2.650   5.340
 6190SOL    HW219470   0.537   2.546   5.465
 6191SOL     OW19471   4.203   3.599   6.846
 6191SOL    HW119472   4.230   3.533   6.776
 6191SOL    HW219473   4.142   3.667   6.806
 6192SOL     OW19474   2.813   1.479   0.296
 6192SOL    HW119475   2.784   1.445   0.385
 6192SOL    HW219476   2.732   1.493   0.238
 6193SOL     OW19477   4.735   5.195   6.483
 6193SOL    HW119478   4.819   5.147   6.454
 6193SOL    HW219479   4.759   5.286   6.517
 6194SOL     OW19480   5.796   0.550   5.994
 6194SOL    HW119481   5.806   0.538   5.895
 6194SOL    HW219482   5.811   0.646   6.018
 6195SOL     OW19483   6.617   6.590   5.771
 6195SOL    HW119484   6.526   6.558   5.746
 6195SOL    HW219485   6.684   6.557   5.704
 6196SOL     OW19486   5.670   4.081   3.277
 6196SOL    HW119487   5.655   4.083   3.178
 6196SOL    HW219488   5.581   4.083   3.324
 6197SOL     OW19489   3.427   5.781   1.577
 6197SOL    HW119490   3.462   5.866   1.616
 6197SOL    HW219491   3.484   5.754   1.499
 6198SOL     OW19492   6.502   6.876   6.865
 6198SOL    HW119493   6.561   6.863   6.786
 6198SOL    HW219494   6.539   6.825   6.943
 6199SOL     OW19495   1.069   0.354   0.416
 6199SOL    HW119496   1.083   0.441   0.368
 6199SOL    HW219497   1.014   0.293   0.359
 6200SOL     OW19498   1.954   1.983   2.494
 6200SOL    HW119499   2.031   1.947   2.442
 6200SOL    HW219500   1.965   2.082   2.506
 6201SOL     OW19501   6.935   4.326   3.654
 6201SOL    HW119502   6.958   4.301   3.748
 6201SOL    HW219503   7.002   4.391   3.619
 6202SOL     OW19504   6.565   1.686   2.819
 6202SOL    HW119505   6.554   1.729   2.729
 6202SOL    HW219506   6.504   1.730   2.885
 6203SOL     OW19507   6.867   6.884   1.831
 6203SOL    HW119508   6.845   6.979   1.850
 6203SOL    HW219509   6.863   6.831   1.916
 6204SOL     OW19510   2.308   0.446   5.024
 6204SOL    HW119511   2.352   0.421   4.938
 6204SOL    HW219512   2.225   0.499   5.005
 6205SOL     OW19513   4.889   4.632   2.870
 6205SOL    HW119514   4.808   4.690   2.867
 6205SOL    HW219515   4.970   4.688   2.853
 6206SOL     OW19516   5.746   1.889   3.496
 6206SOL    HW119517   5.691   1.968   3.524
 6206SOL    HW219518   5.714   1.854   3.409
 6207SOL     OW19519   2.421   4.753   4.828
 6207SOL    HW119520   2.462   4.743   4.919
 6207SOL    HW219521   2.462   4.831   4.781
 6208SOL     OW19522   3.657   3.451   5.383
 6208SOL    HW119523   3.745   3.498   5.390
 6208SOL    HW219524   3.585   3.510   5.419
 6209SOL     OW19525   3.610   2.380   1.370
 6209SOL    HW119526   3.653   2.379   1.280
 6209SOL    HW219527   3.517   2.345   1.363
 6210SOL     OW19528   4.713   1.863   4.205
 6210SOL    HW119529   4.713   1.783   4.265
 6210SOL    HW219530   4.807   1.882   4.174
 6211SOL     OW19531   5.307   4.863   5.218
 6211SOL    HW119532   5.371   4.899   5.151
 6211SOL    HW219533   5.286   4.767   5.197
 6212SOL     OW19534   4.429   4.901   5.031
 6212SOL    HW119535   4.494   4.899   5.107
 6212SOL    HW219536   4.411   4.996   5.006
 6213SOL     OW19537   4.024   6.022   0.465
 6213SOL    HW119538   4.042   6.033   0.563
 6213SOL    HW219539   4.110   6.024   0.415
 6214SOL     OW19540   5.995   5.474   6.385
 6214SOL    HW119541   5.913   5.425   6.414
 6214SOL    HW219542   5.981   5.572   6.392
 6215SOL     OW19543   5.676   2.609   5.857
 6215SOL    HW119544   5.766   2.572   5.831
 6215SOL    HW219545   5.631   2.544   5.919
 6216SOL     OW19546   4.535   2.414   3.127
 6216SOL    HW119547   4.440   2.400   3.100
 6216SOL    HW219548   4.538   2.450   3.220
 6217SOL     OW19549   0.358   4.498   2.264
 6217SOL    HW119550   0.286   4.566   2.278
 6217SOL    HW219551   0.372   4.448   2.350
 6218SOL     OW19552   4.658   6.823   6.910
 6218SOL    HW119553   4.646   6.874   6.824
 6218SOL    HW219554   4.569   6.792   6.943
 6219SOL     OW19555   1.236   0.542   6.019
 6219SOL    HW119556   1.321   0.563   5.970
 6219SOL    HW219557   1.257   0.511   6.111
 6220SOL     OW19558   4.093   0.747   0.902
 6220SOL    HW119559   4.136   0.724   0.815
 6220SOL    HW219560   3.994   0.746   0.892
 6221SOL     OW19561   5.713   5.628   6.893
 6221SOL    HW119562   5.775   5.679   6.952
 6221SOL    HW219563   5.755   5.617   6.803
 6222SOL     OW19564   6.455   1.679   2.279
 6222SOL    HW119565   6.381   1.657   2.343
 6222SOL    HW219566   6.432   1.644   2.188
 6223SOL     OW19567   0.207   5.104   3.471
 6223SOL    HW119568   0.218   5.016   3.424
 6223SOL    HW219569   0.217   5.091   3.569
 6224SOL     OW19570   4.013   1.114   6.834
 6224SOL    HW119571   4.101   1.143   6.796
 6224SOL    HW219572   3.997   1.160   6.921
 6225SOL     OW19573   4.657   6.139   6.789
 6225SOL    HW119574   4.689   6.176   6.876
 6225SOL    HW219575   4.628   6.214   6.729
 6226SOL     OW19576   1.554   1.193   4.286
 6226SOL    HW119577   1.538   1.234   4.197
 6226SOL    HW219578   1.606   1.257   4.344
 6227SOL     OW19579   2.923   4.576   5.475
 6227SOL    HW119580   2.901   4.554   5.379
 6227SOL    HW219581   2.850   4.632   5.514
 6228SOL     OW19582   1.190   3.534   3.878
 6228SOL    HW119583   1.278   3.540   3.831
 6228SOL    HW219584   1.124   3.595   3.833
 6229SOL     OW19585   0.729   3.951   4.223
 6229SOL    HW119586   0.739   4.043   4.186
 6229SOL    HW219587   0.817   3.903   4.215
 6230SOL     OW19588   0.048   0.669   2.297
 6230SOL    HW119589   0.068   0.663   2.394
 6230SOL    HW219590   0.076   0.759   2.263
 6231SOL     OW19591   1.279   5.148   6.782
 6231SOL    HW119592   1.368   5.102   6.787
 6231SOL    HW219593   1.206   5.082   6.800
 6232SOL     OW19594   4.248   1.054   6.403
 6232SOL    HW119595   4.309   1.024   6.329
 6232SOL    HW219596   4.182   1.120   6.366
 6233SOL     OW19597   6.914   3.956   1.343
 6233SOL    HW119598   6.824   3.927   1.377
 6233SOL    HW219599   6.979   3.958   1.420
 6234SOL     OW19600   4.336   5.707   4.726
 6234SOL    HW119601   4.347   5.797   4.684
 6234SOL    HW219602   4.351   5.636   4.657
 6235SOL     OW19603   6.385   0.796   2.794
 6235SOL    HW119604   6.295   0.827   2.766
 6235SOL    HW219605   6.430   0.867   2.848
 6236SOL     OW19606   0.791   5.364   1.329
 6236SOL    HW119607   0.819   5.384   1.422
 6236SOL    HW219608   0.737   5.441   1.293
 6237SOL     OW19609   3.458   1.552   0.400
 6237SOL    HW119610   3.549   1.570   0.435
 6237SOL    HW219611   3.456   1.566   0.301
 6238SOL     OW19612   2.551   0.191   4.159
 6238SOL    HW119613   2.614   0.199   4.236
 6238SOL    HW219614   2.466   0.148   4.189
 6239SOL     OW19615   4.321   0.990   3.521
 6239SOL    HW119616   4.232   0.980   3.566
 6239SOL    HW219617   4.310   0.979   3.422
 6240SOL     OW19618   4.057   3.167   3.437
 6240SOL    HW119619   4.152   3.195   3.424
 6240SOL    HW219620   4.017   3.220   3.512
 6241SOL     OW19621   3.722   0.338   2.762
 6241SOL    HW119622   3.643   0.361   2.705
 6241SOL    HW219623   3.806   0.346   2.707
 6242SOL     OW19624   2.899   1.948   3.543
 6242SOL    HW119625   2.946   1.885   3.481
 6242SOL    HW219626   2.833   2.002   3.491
 6243SOL     OW19627   4.924   1.501   6.268
 6243SOL    HW119628   4.968   1.468   6.352
 6243SOL    HW219629   4.969   1.460   6.188
 6244SOL     OW19630   4.977   4.399   2.566
 6244SOL    HW119631   4.979   4.445   2.655
 6244SOL    HW219632   4.890   4.349   2.557
 6245SOL     OW19633   0.052   4.409   2.560
 6245SOL    HW119634   7.008   4.361   2.504
 6245SOL    HW219635   0.026   4.505   2.569
 6246SOL     OW19636   6.592   6.672   4.286
 6246SOL    HW119637   6.530   6.686   4.209
 6246SOL    HW219638   6.588   6.576   4.316
 6247SOL     OW19639   6.442   6.632   2.902
 6247SOL    HW119640   6.425   6.709   2.964
 6247SOL    HW219641   6.361   6.617   2.845
 6248SOL     OW19642   3.566   3.008   5.964
 6248SOL    HW119643   3.608   2.968   5.882
 6248SOL    HW219644   3.519   2.936   6.015
 6249SOL     OW19645   5.836   2.811   1.421
 6249SOL    HW119646   5.845   2.719   1.383
 6249SOL    HW219647   5.748   2.851   1.393
 6250SOL     OW19648   6.369   0.352   0.594
 6250SOL    HW119649   6.434   0.377   0.522
 6250SOL    HW219650   6.362   0.253   0.601
 6251SOL     OW19651   2.427   6.834   4.244
 6251SOL    HW119652   2.496   6.829   4.316
 6251SOL    HW219653   2.472   6.834   4.154
 6252SOL     OW19654   3.047   5.510   6.933
 6252SOL    HW119655   3.131   5.558   6.961
 6252SOL    HW219656   2.977   5.576   6.910
 6253SOL     OW19657   3.373   5.143   4.858
 6253SOL    HW119658   3.422   5.067   4.815
 6253SOL    HW219659   3.304   5.178   4.795
 6254SOL     OW19660   0.669   0.034   1.417
 6254SOL    HW119661   0.699   0.119   1.374
 6254SOL    HW219662   0.576   0.013   1.388
 6255SOL     OW19663   0.456   1.428   2.007
 6255SOL    HW119664   0.380   1.363   2.001
 6255SOL    HW219665   0.421   1.521   2.010
 6256SOL     OW19666   5.120   5.947   2.326
 6256SOL    HW119667   5.183   5.910   2.394
 6256SOL    HW219668   5.037   5.981   2.371
 6257SOL     OW19669   3.290   3.715   1.267
 6257SOL    HW119670   3.324   3.809   1.258
 6257SOL    HW219671   3.297   3.687   1.363
 6258SOL     OW19672   3.662   4.971   4.937
 6258SOL    HW119673   3.710   5.015   4.861
 6258SOL    HW219674   3.575   4.933   4.904
 6259SOL     OW19675   3.301   0.505   4.135
 6259SOL    HW119676   3.304   0.583   4.198
 6259SOL    HW219677   3.249   0.430   4.177
 6260SOL     OW19678   1.379   1.859   0.229
 6260SOL    HW119679   1.412   1.779   0.279
 6260SOL    HW219680   1.413   1.856   0.135
 6261SOL     OW19681   3.307   0.667   0.819
 6261SOL    HW119682   3.298   0.654   0.720
 6261SOL    HW219683   3.246   0.604   0.867
 6262SOL     OW19684   5.695   0.220   2.642
 6262SOL    HW119685   5.613   0.224   2.699
 6262SOL    HW219686   5.669   0.235   2.546
 6263SOL     OW19687   6.173   5.937   5.999
 6263SOL    HW119688   6.117   5.889   6.066
 6263SOL    HW219689   6.205   6.024   6.038
 6264SOL     OW19690   2.090   0.295   0.041
 6264SOL    HW119691   2.010   0.235   0.050
 6264SOL    HW219692   2.145   0.288   0.125
 6265SOL     OW19693   4.932   0.520   6.737
 6265SOL    HW119694   4.906   0.427   6.709
 6265SOL    HW219695   4.930   0.580   6.657
 6266SOL     OW19696   2.566   5.075   3.041
 6266SOL    HW119697   2.474   5.105   3.064
 6266SOL    HW219698   2.564   4.980   3.009
 6267SOL     OW19699   2.292   6.455   4.716
 6267SOL    HW119700   2.352   6.459   4.796
 6267SOL    HW219701   2.223   6.384   4.729
 6268SOL     OW19702   3.130   1.328   0.942
 6268SOL    HW119703   3.222   1.311   0.976
 6268SOL    HW219704   3.067   1.334   1.020
 6269SOL     OW19705   6.149   5.214   0.353
 6269SOL    HW119706   6.075   5.264   0.307
 6269SOL    HW219707   6.235   5.229   0.305
 6270SOL     OW19708   2.215   5.848   0.710
 6270SOL    HW119709   2.213   5.936   0.757
 6270SOL    HW219710   2.249   5.860   0.617
 6271SOL     OW19711   5.959   3.313   5.937
 6271SOL    HW119712   5.886   3.332   5.871
 6271SOL    HW219713   6.017   3.393   5.946
 6272SOL     OW19714   0.385   6.972   0.690
 6272SOL    HW119715   0.328   0.031   0.689
 6272SOL    HW219716   0.452   6.979   0.763
 6273SOL     OW19717   0.672   6.788   1.336
 6273SOL    HW119718   0.744   6.723   1.361
 6273SOL    HW219719   0.701   6.881   1.358
 6274SOL     OW19720   3.203   5.342   3.571
 6274SOL    HW119721   3.301   5.357   3.579
 6274SOL    HW219722   3.186   5.262   3.513
 6275SOL     OW19723   2.062   5.546   6.947
 6275SOL    HW119724   2.075   5.609   7.023
 6275SOL    HW219725   2.067   5.452   6.981
 6276SOL     OW19726   1.681   5.555   2.919
 6276SOL    HW119727   1.654   5.648   2.895
 6276SOL    HW219728   1.775   5.555   2.955
 6277SOL     OW19729   5.190   3.519   1.231
 6277SOL    HW119730   5.152   3.452   1.294
 6277SOL    HW219731   5.120   3.547   1.166
 6278SOL     OW19732   2.638   1.421   6.544
 6278SOL    HW119733   2.541   1.441   6.530
 6278SOL    HW219734   2.671   1.359   6.472
 6279SOL     OW19735   2.488   0.097   1.680
 6279SOL    HW119736   2.433   0.033   1.626
 6279SOL    HW219737   2.585   0.083   1.659
 6280SOL     OW19738   6.180   2.406   0.237
 6280SOL    HW119739   6.140   2.345   0.306
 6280SOL    HW219740   6.160   2.370   0.146
 6281SOL     OW19741   5.530   3.839   6.192
 6281SOL    HW119742   5.502   3.839   6.288
 6281SOL    HW219743   5.450   3.852   6.134
 6282SOL     OW19744   0.093   3.154   6.262
 6282SOL    HW119745   0.011   3.208   6.282
 6282SOL    HW219746   0.158   3.211   6.210
 6283SOL     OW19747   1.359   6.239   5.054
 6283SOL    HW119748   1.399   6.164   5.001
 6283SOL    HW219749   1.306   6.298   4.994
 6284SOL     OW19750   1.538   4.343   6.057
 6284SOL    HW119751   1.589   4.426   6.079
 6284SOL    HW219752   1.441   4.363   6.053
 6285SOL     OW19753   1.131   3.658   2.905
 6285SOL    HW119754   1.174   3.689   2.989
 6285SOL    HW219755   1.198   3.658   2.831
 6286SOL     OW19756   0.822   2.521   0.369
 6286SOL    HW119757   0.805   2.550   0.463
 6286SOL    HW219758   0.738   2.484   0.329
 6287SOL     OW19759   5.069   4.907   4.787
 6287SOL    HW119760   4.980   4.885   4.746
 6287SOL    HW219761   5.125   4.825   4.790
 6288SOL     OW19762   3.413   3.259   6.354
 6288SOL    HW119763   3.337   3.214   6.399
 6288SOL    HW219764   3.423   3.352   6.391
 6289SOL     OW19765   2.525   4.610   5.713
 6289SOL    HW119766   2.593   4.669   5.669
 6289SOL    HW219767   2.564   4.519   5.729
 6290SOL     OW19768   5.651   5.904   4.352
 6290SOL    HW119769   5.623   5.993   4.316
 6290SOL    HW219770   5.570   5.856   4.387
 6291SOL     OW19771   4.049   3.732   2.799
 6291SOL    HW119772   4.073   3.735   2.896
 6291SOL    HW219773   3.956   3.698   2.789
 6292SOL     OW19774   1.592   3.601   4.494
 6292SOL    HW119775   1.597   3.577   4.397
 6292SOL    HW219776   1.535   3.681   4.507
 6293SOL     OW19777   3.528   1.051   6.590
 6293SOL    HW119778   3.536   0.962   6.546
 6293SOL    HW219779   3.530   1.123   6.521
 6294SOL     OW19780   1.643   1.788   2.826
 6294SOL    HW119781   1.610   1.814   2.916
 6294SOL    HW219782   1.599   1.845   2.756
 6295SOL     OW19783   5.487   3.486   5.860
 6295SOL    HW119784   5.482   3.395   5.901
 6295SOL    HW219785   5.394   3.517   5.838
 6296SOL     OW19786   1.060   2.973   0.482
 6296SOL    HW119787   1.085   3.017   0.396
 6296SOL    HW219788   1.031   3.042   0.547
 6297SOL     OW19789   5.903   1.201   4.277
 6297SOL    HW119790   5.896   1.118   4.222
 6297SOL    HW219791   5.966   1.265   4.233
 6298SOL     OW19792   6.570   5.826   0.620
 6298SOL    HW119793   6.643   5.884   0.585
 6298SOL    HW219794   6.603   5.776   0.700
 6299SOL     OW19795   4.017   1.178   2.904
 6299SOL    HW119796   3.956   1.238   2.853
 6299SOL    HW219797   4.036   1.096   2.851
 6300SOL     OW19798   2.271   0.920   6.091
 6300SOL    HW119799   2.221   0.983   6.150
 6300SOL    HW219800   2.358   0.961   6.063
 6301SOL     OW19801   3.707   6.442   0.043
 6301SOL    HW119802   3.645   6.387   7.012
 6301SOL    HW219803   3.796   6.449   7.020
 6302SOL     OW19804   3.025   2.457   6.611
 6302SOL    HW119805   2.938   2.432   6.568
 6302SOL    HW219806   3.083   2.502   6.544
 6303SOL     OW19807   0.607   6.043   4.933
 6303SOL    HW119808   0.701   6.073   4.950
 6303SOL    HW219809   0.607   5.973   4.861
 6304SOL     OW19810   4.021   1.068   3.913
 6304SOL    HW119811   3.956   1.111   3.851
 6304SOL    HW219812   4.076   1.138   3.958
 6305SOL     OW19813   0.563   5.808   6.360
 6305SOL    HW119814   0.517   5.734   6.409
 6305SOL    HW219815   0.651   5.776   6.326
 6306SOL     OW19816   6.906   5.147   4.064
 6306SOL    HW119817   6.962   5.066   4.081
 6306SOL    HW219818   6.822   5.141   4.117
 6307SOL     OW19819   3.888   3.014   2.313
 6307SOL    HW119820   3.969   3.014   2.372
 6307SOL    HW219821   3.915   3.034   2.219
 6308SOL     OW19822   0.214   2.546   0.798
 6308SOL    HW119823   0.234   2.462   0.848
 6308SOL    HW219824   0.288   2.565   0.733
 6309SOL     OW19825   2.363   6.070   4.647
 6309SOL    HW119826   2.371   6.065   4.548
 6309SOL    HW219827   2.432   6.133   4.683
 6310SOL     OW19828   1.794   6.925   2.758
 6310SOL    HW119829   1.715   6.979   2.787
 6310SOL    HW219830   1.878   6.970   2.788
 6311SOL     OW19831   5.708   1.208   6.249
 6311SOL    HW119832   5.721   1.169   6.157
 6311SOL    HW219833   5.751   1.148   6.316
 6312SOL     OW19834   3.663   5.782   6.541
 6312SOL    HW119835   3.662   5.873   6.583
 6312SOL    HW219836   3.672   5.791   6.441
 6313SOL     OW19837   5.305   5.290   4.713
 6313SOL    HW119838   5.284   5.220   4.781
 6313SOL    HW219839   5.248   5.371   4.730
 6314SOL     OW19840   1.871   6.928   2.293
 6314SOL    HW119841   1.788   6.939   2.348
 6314SOL    HW219842   1.845   6.918   2.196
 6315SOL     OW19843   2.352   2.469   4.637
 6315SOL    HW119844   2.333   2.425   4.725
 6315SOL    HW219845   2.380   2.564   4.652
 6316SOL     OW19846   4.615   1.201   4.469
 6316SOL    HW119847   4.552   1.206   4.547
 6316SOL    HW219848   4.643   1.107   4.455
 6317SOL     OW19849   5.311   4.703   1.590
 6317SOL    HW119850   5.406   4.683   1.565
 6317SOL    HW219851   5.286   4.793   1.554
 6318SOL     OW19852   6.565   6.702   0.415
 6318SOL    HW119853   6.468   6.681   0.416
 6318SOL    HW219854   6.618   6.621   0.442
 6319SOL     OW19855   5.044   1.029   4.020
 6319SOL    HW119856   4.957   1.077   4.027
 6319SOL    HW219857   5.081   1.040   3.928
 6320SOL     OW19858   6.394   1.065   5.795
 6320SOL    HW119859   6.372   1.050   5.891
 6320SOL    HW219860   6.483   1.026   5.774
 6321SOL     OW19861   6.194   2.558   6.701
 6321SOL    HW119862   6.271   2.528   6.757
 6321SOL    HW219863   6.123   2.597   6.760
 6322SOL     OW19864   1.184   1.348   2.136
 6322SOL    HW119865   1.171   1.316   2.229
 6322SOL    HW219866   1.115   1.417   2.114
 6323SOL     OW19867   2.367   4.591   1.203
 6323SOL    HW119868   2.346   4.615   1.298
 6323SOL    HW219869   2.439   4.521   1.201
 6324SOL     OW19870   4.542   1.865   1.377
 6324SOL    HW119871   4.625   1.814   1.357
 6324SOL    HW219872   4.564   1.941   1.438
 6325SOL     OW19873   1.647   3.209   4.037
 6325SOL    HW119874   1.627   3.307   4.045
 6325SOL    HW219875   1.713   3.183   4.106
 6326SOL     OW19876   5.475   4.731   6.343
 6326SOL    HW119877   5.552   4.672   6.369
 6326SOL    HW219878   5.494   4.774   6.255
 6327SOL     OW19879   0.305   0.429   3.927
 6327SOL    HW119880   0.205   0.425   3.923
 6327SOL    HW219881   0.342   0.345   3.888
 6328SOL     OW19882   4.472   3.616   5.367
 6328SOL    HW119883   4.553   3.630   5.311
 6328SOL    HW219884   4.390   3.620   5.310
 6329SOL     OW19885   0.753   2.698   6.020
 6329SOL    HW119886   0.819   2.674   6.091
 6329SOL    HW219887   0.664   2.715   6.062
 6330SOL     OW19888   5.448   1.413   3.288
 6330SOL    HW119889   5.419   1.422   3.193
 6330SOL    HW219890   5.546   1.432   3.294
 6331SOL     OW19891   0.867   3.226   4.004
 6331SOL    HW119892   0.838   3.230   3.908
 6331SOL    HW219893   0.873   3.130   4.032
 6332SOL     OW19894   3.040   1.442   0.150
 6332SOL    HW119895   2.954   1.461   0.197
 6332SOL    HW219896   3.032   1.467   0.053
 6333SOL     OW19897   5.443   1.716   0.551
 6333SOL    HW119898   5.355   1.706   0.505
 6333SOL    HW219899   5.445   1.658   0.633
 6334SOL     OW19900   1.455   1.467   2.064
 6334SOL    HW119901   1.482   1.535   2.132
 6334SOL    HW219902   1.372   1.420   2.095
 6335SOL     OW19903   6.370   1.809   0.073
 6335SOL    HW119904   6.391   1.771   0.163
 6335SOL    HW219905   6.289   1.764   0.035
 6336SOL     OW19906   0.702   3.875   5.730
 6336SOL    HW119907   0.797   3.907   5.731
 6336SOL    HW219908   0.697   3.784   5.771
 6337SOL     OW19909   4.822   5.702   5.481
 6337SOL    HW119910   4.896   5.661   5.534
 6337SOL    HW219911   4.758   5.748   5.542
 6338SOL     OW19912   2.147   1.413   3.183
 6338SOL    HW119913   2.183   1.504   3.204
 6338SOL    HW219914   2.047   1.416   3.187
 6339SOL     OW19915   0.489   4.960   3.446
 6339SOL    HW119916   0.465   5.043   3.496
 6339SOL    HW219917   0.546   4.983   3.367
 6340SOL     OW19918   2.700   4.073   0.637
 6340SOL    HW119919   2.724   4.112   0.726
 6340SOL    HW219920   2.714   3.974   0.640
 6341SOL     OW19921   0.170   5.405   3.105
 6341SOL    HW119922   0.082   5.442   3.076
 6341SOL    HW219923   0.170   5.395   3.205
 6342SOL     OW19924   2.201   0.835   1.176
 6342SOL    HW119925   2.219   0.931   1.155
 6342SOL    HW219926   2.233   0.814   1.268
 6343SOL     OW19927   0.991   5.238   0.848
 6343SOL    HW119928   0.915   5.183   0.882
 6343SOL    HW219929   0.978   5.333   0.877
 6344SOL     OW19930   6.795   0.987   4.149
 6344SOL    HW119931   6.731   0.985   4.226
 6344SOL    HW219932   6.807   1.082   4.119
 6345SOL     OW19933   5.803   3.061   2.003
 6345SOL    HW119934   5.780   2.967   1.979
 6345SOL    HW219935   5.737   3.124   1.960
 6346SOL     OW19936   0.023   4.522   5.741
 6346SOL    HW119937   0.032   4.595   5.673
 6346SOL    HW219938   6.951   4.497   5.751
 6347SOL     OW19939   1.964   1.956   2.961
 6347SOL    HW119940   1.919   2.045   2.948
 6347SOL    HW219941   1.952   1.902   2.878
 6348SOL     OW19942   0.600   2.094   6.103
 6348SOL    HW119943   0.646   2.020   6.153
 6348SOL    HW219944   0.668   2.144   6.050
 6349SOL     OW19945   6.841   0.845   0.189
 6349SOL    HW119946   6.791   0.896   0.118
 6349SOL    HW219947   6.853   0.903   0.269
 6350SOL     OW19948   0.821   5.609   2.150
 6350SOL    HW119949   0.859   5.623   2.242
 6350SOL    HW219950   0.801   5.698   2.109
 6351SOL     OW19951   5.545   3.142   1.981
 6351SOL    HW119952   5.465   3.089   2.011
 6351SOL    HW219953   5.564   3.213   2.049
 6352SOL     OW19954   3.025   0.831   4.172
 6352SOL    HW119955   3.093   0.884   4.122
 6352SOL    HW219956   2.965   0.784   4.107
 6353SOL     OW19957   3.433   6.657   5.589
 6353SOL    HW119958   3.490   6.712   5.528
 6353SOL    HW219959   3.455   6.560   5.575
 6354SOL     OW19960   5.062   5.633   1.056
 6354SOL    HW119961   5.011   5.718   1.043
 6354SOL    HW219962   5.159   5.654   1.069
 6355SOL     OW19963   2.607   4.493   0.800
 6355SOL    HW119964   2.625   4.590   0.785
 6355SOL    HW219965   2.568   4.454   0.716
 6356SOL     OW19966   6.476   5.088   6.296
 6356SOL    HW119967   6.557   5.141   6.320
 6356SOL    HW219968   6.475   5.002   6.347
 6357SOL     OW19969   5.744   1.527   1.840
 6357SOL    HW119970   5.815   1.555   1.774
 6357SOL    HW219971   5.773   1.550   1.932
 6358SOL     OW19972   1.383   2.059   5.801
 6358SOL    HW119973   1.444   2.127   5.841
 6358SOL    HW219974   1.374   1.982   5.863
 6359SOL     OW19975   5.405   6.799   0.753
 6359SOL    HW119976   5.382   6.708   0.788
 6359SOL    HW219977   5.504   6.806   0.741
 6360SOL     OW19978   0.447   2.005   2.387
 6360SOL    HW119979   0.445   1.986   2.289
 6360SOL    HW219980   0.452   2.104   2.403
 6361SOL     OW19981   0.143   0.582   6.513
 6361SOL    HW119982   0.126   0.647   6.439
 6361SOL    HW219983   0.102   0.494   6.489
 6362SOL     OW19984   1.195   5.438   0.394
 6362SOL    HW119985   1.147   5.478   0.316
 6362SOL    HW219986   1.198   5.504   0.469
 6363SOL     OW19987   2.437   4.411   2.987
 6363SOL    HW119988   2.455   4.355   2.907
 6363SOL    HW219989   2.346   4.390   3.023
 6364SOL     OW19990   2.437   2.750   4.248
 6364SOL    HW119991   2.473   2.792   4.332
 6364SOL    HW219992   2.337   2.757   4.247
 6365SOL     OW19993   5.129   6.691   2.976
 6365SOL    HW119994   5.127   6.667   2.879
 6365SOL    HW219995   5.179   6.621   3.027
 6366SOL     OW19996   6.291   0.390   5.002
 6366SOL    HW119997   6.298   0.400   5.101
 6366SOL    HW219998   6.288   0.480   4.959
 6367SOL     OW19999   1.711   1.870   2.099
 6367SOL    HW120000   1.801   1.907   2.120
 6367SOL    HW220001   1.693   1.877   2.001
 6368SOL     OW20002   4.940   3.295   4.653
 6368SOL    HW120003   4.946   3.255   4.562
 6368SOL    HW220004   4.937   3.222   4.722
 6369SOL     OW20005   4.375   5.057   0.182
 6369SOL    HW120006   4.362   5.007   0.267
 6369SOL    HW220007   4.424   5.000   0.116
 6370SOL     OW20008   5.320   3.576   4.540
 6370SOL    HW120009   5.352   3.579   4.446
 6370SOL    HW220010   5.378   3.635   4.597
 6371SOL     OW20011   5.431   4.155   0.831
 6371SOL    HW120012   5.382   4.197   0.907
 6371SOL    HW220013   5.368   4.097   0.780
 6372SOL     OW20014   6.899   1.536   2.125
 6372SOL    HW120015   6.815   1.515   2.076
 6372SOL    HW220016   6.890   1.624   2.171
 6373SOL     OW20017   4.865   4.398   1.566
 6373SOL    HW120018   4.783   4.344   1.583
 6373SOL    HW220019   4.840   4.495   1.561
 6374SOL     OW20020   4.515   3.676   6.749
 6374SOL    HW120021   4.552   3.584   6.741
 6374SOL    HW220022   4.482   3.707   6.660
 6375SOL     OW20023   5.304   2.240   2.031
 6375SOL    HW120024   5.209   2.239   2.062
 6375SOL    HW220025   5.341   2.147   2.034
 6376SOL     OW20026   3.391   0.879   7.007
 6376SOL    HW120027   3.296   0.889   6.979
 6376SOL    HW220028   3.405   0.925   0.070
 6377SOL     OW20029   0.260   0.549   0.410
 6377SOL    HW120030   0.270   0.496   0.325
 6377SOL    HW220031   0.303   0.638   0.399
 6378SOL     OW20032   5.416   4.809   1.859
 6378SOL    HW120033   5.330   4.860   1.867
 6378SOL    HW220034   5.398   4.721   1.815
 6379SOL     OW20035   2.054   5.432   6.555
 6379SOL    HW120036   2.128   5.406   6.494
 6379SOL    HW220037   1.971   5.383   6.530
 6380SOL     OW20038   1.390   3.555   4.873
 6380SOL    HW120039   1.427   3.587   4.786
 6380SOL    HW220040   1.295   3.528   4.861
 6381SOL     OW20041   4.362   2.375   0.416
 6381SOL    HW120042   4.415   2.290   0.419
 6381SOL    HW220043   4.423   2.453   0.425
 6382SOL     OW20044   1.476   1.930   0.600
 6382SOL    HW120045   1.500   2.012   0.549
 6382SOL    HW220046   1.519   1.850   0.558
 6383SOL     OW20047   2.329   2.275   2.084
 6383SOL    HW120048   2.250   2.250   2.140
 6383SOL    HW220049   2.409   2.223   2.115
 6384SOL     OW20050   6.606   2.620   2.433
 6384SOL    HW120051   6.627   2.569   2.350
 6384SOL    HW220052   6.625   2.717   2.418
 6385SOL     OW20053   0.079   2.926   0.954
 6385SOL    HW120054   0.131   2.987   0.894
 6385SOL    HW220055   7.020   2.895   0.908
 6386SOL     OW20056   2.528   3.668   0.436
 6386SOL    HW120057   2.522   3.599   0.508
 6386SOL    HW220058   2.620   3.705   0.432
 6387SOL     OW20059   6.708   6.845   6.701
 6387SOL    HW120060   6.802   6.821   6.679
 6387SOL    HW220061   6.669   6.899   6.626
 6388SOL     OW20062   6.439   5.528   2.269
 6388SOL    HW120063   6.401   5.479   2.191
 6388SOL    HW220064   6.472   5.463   2.337
 6389SOL     OW20065   0.491   0.722   0.337
 6389SOL    HW120066   0.564   0.789   0.330
 6389SOL    HW220067   0.524   0.642   0.388
 6390SOL     OW20068   5.356   0.245   6.525
 6390SOL    HW120069   5.365   0.166   6.464
 6390SOL    HW220070   5.445   0.268   6.564
 6391SOL     OW20071   1.070   1.616   5.024
 6391SOL    HW120072   0.993   1.676   4.998
 6391SOL    HW220073   1.156   1.664   5.009
 6392SOL     OW20074   3.757   6.839   3.293
 6392SOL    HW120075   3.751   6.803   3.386
 6392SOL    HW220076   3.846   6.814   3.253
 6393SOL     OW20077   0.805   5.050   6.939
 6393SOL    HW120078   0.712   5.018   6.953
 6393SOL    HW220079   0.869   4.979   6.969
 6394SOL     OW20080   1.718   6.020   1.470
 6394SOL    HW120081   1.750   6.115   1.466
 6394SOL    HW220082   1.791   5.961   1.504
 6395SOL     OW20083   2.144   4.288   3.004
 6395SOL    HW120084   2.097   4.266   2.918
 6395SOL    HW220085   2.173   4.203   3.048
 6396SOL     OW20086   0.798   3.640   6.320
 6396SOL    HW120087   0.745   3.633   6.405
 6396SOL    HW220088   0.863   3.716   6.328
 6397SOL     OW20089   5.467   3.569   4.250
 6397SOL    HW120090   5.434   3.498   4.188
 6397SOL    HW220091   5.536   3.625   4.204
 6398SOL     OW20092   2.085   0.442   1.173
 6398SOL    HW120093   2.001   0.422   1.122
 6398SOL    HW220094   2.063   0.456   1.269
 6399SOL     OW20095   2.944   0.729   5.985
 6399SOL    HW120096   3.029   0.780   5.999
 6399SOL    HW220097   2.898   0.717   6.073
 6400SOL     OW20098   1.197   6.304   3.330
 6400SOL    HW120099   1.157   6.290   3.240
 6400SOL    HW220100   1.210   6.401   3.346
 6401SOL     OW20101   3.983   5.509   3.232
 6401SOL    HW120102   3.897   5.558   3.217
 6401SOL    HW220103   3.975   5.451   3.313
 6402SOL     OW20104   2.210   4.468   5.189
 6402SOL    HW120105   2.140   4.445   5.256
 6402SOL    HW220106   2.295   4.420   5.211
 6403SOL     OW20107   4.703   5.516   5.333
 6403SOL    HW120108   4.702   5.545   5.237
 6403SOL    HW220109   4.749   5.585   5.389
 6404SOL     OW20110   4.627   6.811   1.765
 6404SOL    HW120111   4.580   6.836   1.850
 6404SOL    HW220112   4.725   6.830   1.775
 6405SOL     OW20113   5.466   1.830   2.968
 6405SOL    HW120114   5.492   1.896   3.039
 6405SOL    HW220115   5.404   1.762   3.007
 6406SOL     OW20116   6.796   2.990   3.454
 6406SOL    HW120117   6.760   3.026   3.540
 6406SOL    HW220118   6.896   2.988   3.457
 6407SOL     OW20119   0.750   5.996   2.301
 6407SOL    HW120120   0.748   6.094   2.278
 6407SOL    HW220121   0.835   5.956   2.267
 6408SOL     OW20122   6.410   0.545   2.215
 6408SOL    HW120123   6.400   0.578   2.309
 6408SOL    HW220124   6.501   0.569   2.180
 6409SOL     OW20125   5.233   5.524   3.479
 6409SOL    HW120126   5.267   5.435   3.447
 6409SOL    HW220127   5.237   5.589   3.403
 6410SOL     OW20128   1.931   1.481   6.564
 6410SOL    HW120129   1.846   1.429   6.561
 6410SOL    HW220130   1.995   1.447   6.495
 6411SOL     OW20131   0.595   2.674   2.375
 6411SOL    HW120132   0.602   2.739   2.451
 6411SOL    HW220133   0.686   2.645   2.348
 6412SOL     OW20134   3.492   0.981   0.226
 6412SOL    HW120135   3.578   0.931   0.228
 6412SOL    HW220136   3.504   1.070   0.271
 6413SOL     OW20137   4.597   6.367   3.041
 6413SOL    HW120138   4.577   6.425   2.962
 6413SOL    HW220139   4.513   6.323   3.071
 6414SOL     OW20140   1.248   0.467   0.125
 6414SOL    HW120141   1.210   0.552   0.161
 6414SOL    HW220142   1.324   0.438   0.183
 6415SOL     OW20143   0.457   2.362   3.628
 6415SOL    HW120144   0.378   2.418   3.649
 6415SOL    HW220145   0.476   2.366   3.530
 6416SOL     OW20146   2.162   6.819   0.168
 6416SOL    HW120147   2.108   6.754   0.222
 6416SOL    HW220148   2.250   6.835   0.214
 6417SOL     OW20149   4.325   2.283   0.101
 6417SOL    HW120150   4.359   2.243   0.186
 6417SOL    HW220151   4.377   2.246   0.024
 6418SOL     OW20152   4.848   4.126   0.450
 6418SOL    HW120153   4.823   4.030   0.458
 6418SOL    HW220154   4.924   4.136   0.386
 6419SOL     OW20155   1.146   6.365   5.984
 6419SOL    HW120156   1.048   6.382   6.000
 6419SOL    HW220157   1.169   6.272   6.011
 6420SOL     OW20158   2.156   4.190   4.502
 6420SOL    HW120159   2.240   4.234   4.472
 6420SOL    HW220160   2.150   4.194   4.602
 6421SOL     OW20161   3.919   0.014   2.350
 6421SOL    HW120162   3.941   0.062   2.435
 6421SOL    HW220163   3.822   0.028   2.328
 6422SOL     OW20164   5.944   2.195   4.512
 6422SOL    HW120165   6.016   2.136   4.476
 6422SOL    HW220166   5.871   2.204   4.444
 6423SOL     OW20167   1.885   4.233   4.450
 6423SOL    HW120168   1.980   4.237   4.479
 6423SOL    HW220169   1.840   4.154   4.493
 6424SOL     OW20170   6.366   4.776   5.229
 6424SOL    HW120171   6.464   4.756   5.230
 6424SOL    HW220172   6.350   4.858   5.176
 6425SOL     OW20173   6.617   5.455   4.081
 6425SOL    HW120174   6.707   5.445   4.038
 6425SOL    HW220175   6.546   5.453   4.010
 6426SOL     OW20176   4.791   4.008   5.073
 6426SOL    HW120177   4.750   4.070   5.005
 6426SOL    HW220178   4.861   3.952   5.029
 6427SOL     OW20179   3.836   3.070   2.798
 6427SOL    HW120180   3.866   3.015   2.876
 6427SOL    HW220181   3.746   3.038   2.768
 6428SOL     OW20182   5.496   2.971   0.397
 6428SOL    HW120183   5.474   2.937   0.488
 6428SOL    HW220184   5.425   2.942   0.333
 6429SOL     OW20185   1.979   1.102   5.101
 6429SOL    HW120186   1.881   1.125   5.094
 6429SOL    HW220187   2.016   1.139   5.186
 6430SOL     OW20188   6.311   0.464   5.265
 6430SOL    HW120189   6.211   0.474   5.256
 6430SOL    HW220190   6.351   0.552   5.287
 6431SOL     OW20191   3.611   4.824   1.620
 6431SOL    HW120192   3.618   4.776   1.707
 6431SOL    HW220193   3.536   4.890   1.624
 6432SOL     OW20194   5.228   4.486   5.934
 6432SOL    HW120195   5.225   4.411   5.868
 6432SOL    HW220196   5.141   4.491   5.983
 6433SOL     OW20197   3.213   4.760   6.757
 6433SOL    HW120198   3.246   4.704   6.833
 6433SOL    HW220199   3.239   4.718   6.671
 6434SOL     OW20200   4.490   5.353   6.462
 6434SOL    HW120201   4.484   5.436   6.406
 6434SOL    HW220202   4.565   5.296   6.428
 6435SOL     OW20203   5.350   1.843   1.309
 6435SOL    HW120204   5.327   1.934   1.342
 6435SOL    HW220205   5.369   1.848   1.211
 6436SOL     OW20206   6.451   4.287   4.077
 6436SOL    HW120207   6.414   4.361   4.021
 6436SOL    HW220208   6.452   4.315   4.173
 6437SOL     OW20209   1.402   2.313   5.592
 6437SOL    HW120210   1.388   2.396   5.646
 6437SOL    HW220211   1.441   2.242   5.650
 6438SOL     OW20212   0.813   4.771   0.651
 6438SOL    HW120213   0.736   4.707   0.645
 6438SOL    HW220214   0.783   4.854   0.698
 6439SOL     OW20215   4.967   0.027   3.317
 6439SOL    HW120216   4.885   0.051   3.266
 6439SOL    HW220217   5.014   6.974   3.272
 6440SOL     OW20218   3.273   2.018   6.470
 6440SOL    HW120219   3.222   2.045   6.551
 6440SOL    HW220220   3.254   2.083   6.396
 6441SOL     OW20221   0.507   1.620   2.412
 6441SOL    HW120222   0.412   1.630   2.380
 6441SOL    HW220223   0.567   1.676   2.354
 6442SOL     OW20224   2.662   2.194   4.883
 6442SOL    HW120225   2.740   2.197   4.945
 6442SOL    HW220226   2.587   2.143   4.926
 6443SOL     OW20227   4.621   2.970   0.332
 6443SOL    HW120228   4.551   2.943   0.398
 6443SOL    HW220229   4.578   3.017   0.256
 6444SOL     OW20230   6.582   3.480   4.771
 6444SOL    HW120231   6.593   3.577   4.752
 6444SOL    HW220232   6.504   3.444   4.720
 6445SOL     OW20233   3.013   3.182   3.390
 6445SOL    HW120234   3.027   3.084   3.373
 6445SOL    HW220235   2.985   3.227   3.306
 6446SOL     OW20236   1.923   0.961   6.358
 6446SOL    HW120237   1.854   1.021   6.316
 6446SOL    HW220238   1.965   1.008   6.435
 6447SOL     OW20239   5.737   3.503   1.471
 6447SOL    HW120240   5.638   3.505   1.456
 6447SOL    HW220241   5.763   3.415   1.511
 6448SOL     OW20242   3.270   5.311   1.423
 6448SOL    HW120243   3.265   5.369   1.505
 6448SOL    HW220244   3.308   5.364   1.347
 6449SOL     OW20245   2.616   5.639   1.099
 6449SOL    HW120246   2.533   5.673   1.054
 6449SOL    HW220247   2.597   5.551   1.142
 6450SOL     OW20248   0.843   4.479   0.937
 6450SOL    HW120249   0.781   4.537   0.990
 6450SOL    HW220250   0.919   4.535   0.903
 6451SOL     OW20251   4.811   2.460   1.182
 6451SOL    HW120252   4.881   2.405   1.228
 6451SOL    HW220253   4.738   2.483   1.247
 6452SOL     OW20254   4.752   1.854   3.573
 6452SOL    HW120255   4.779   1.788   3.504
 6452SOL    HW220256   4.657   1.881   3.558
 6453SOL     OW20257   2.681   0.784   1.581
 6453SOL    HW120258   2.773   0.800   1.617
 6453SOL    HW220259   2.659   0.854   1.513
 6454SOL     OW20260   5.095   2.407   3.196
 6454SOL    HW120261   5.003   2.436   3.225
 6454SOL    HW220262   5.162   2.475   3.227
 6455SOL     OW20263   6.388   3.699   3.574
 6455SOL    HW120264   6.359   3.791   3.548
 6455SOL    HW220265   6.447   3.704   3.655
 6456SOL     OW20266   5.843   1.197   2.887
 6456SOL    HW120267   5.777   1.130   2.854
 6456SOL    HW220268   5.935   1.171   2.857
 6457SOL     OW20269   3.602   0.061   1.750
 6457SOL    HW120270   3.605   7.011   1.818
 6457SOL    HW220271   3.514   0.109   1.758
 6458SOL     OW20272   6.817   5.451   3.733
 6458SOL    HW120273   6.801   5.466   3.831
 6458SOL    HW220274   6.889   5.513   3.702
 6459SOL     OW20275   6.943   3.255   2.989
 6459SOL    HW120276   6.848   3.285   2.982
 6459SOL    HW220277   6.968   3.243   3.085
 6460SOL     OW20278   0.459   5.544   6.457
 6460SOL    HW120279   0.458   5.468   6.392
 6460SOL    HW220280   0.483   5.510   6.548
 6461SOL     OW20281   1.293   5.433   1.027
 6461SOL    HW120282   1.392   5.444   1.040
 6461SOL    HW220283   1.248   5.522   1.036
 6462SOL     OW20284   1.967   3.838   5.521
 6462SOL    HW120285   1.962   3.759   5.459
 6462SOL    HW220286   1.982   3.806   5.614
 6463SOL     OW20287   4.962   1.946   1.283
 6463SOL    HW120288   4.988   1.920   1.376
 6463SOL    HW220289   5.018   1.896   1.217
 6464SOL     OW20290   0.894   4.530   3.799
 6464SOL    HW120291   0.922   4.464   3.729
 6464SOL    HW220292   0.947   4.514   3.883
 6465SOL     OW20293   3.565   1.548   3.666
 6465SOL    HW120294   3.513   1.480   3.717
 6465SOL    HW220295   3.505   1.624   3.641
 6466SOL     OW20296   0.010   3.911   0.522
 6466SOL    HW120297   0.005   4.011   0.517
 6466SOL    HW220298   6.941   3.874   0.524
 6467SOL     OW20299   2.750   2.921   0.488
 6467SOL    HW120300   2.695   2.924   0.405
 6467SOL    HW220301   2.690   2.907   0.567
 6468SOL     OW20302   2.296   0.959   0.821
 6468SOL    HW120303   2.198   0.979   0.820
 6468SOL    HW220304   2.336   0.982   0.732
 6469SOL     OW20305   3.301   1.588   2.529
 6469SOL    HW120306   3.256   1.562   2.614
 6469SOL    HW220307   3.360   1.514   2.498
 6470SOL     OW20308   6.918   1.826   6.978
 6470SOL    HW120309   6.930   1.776   0.040
 6470SOL    HW220310   6.902   1.761   6.904
 6471SOL     OW20311   1.087   6.522   5.736
 6471SOL    HW120312   1.110   6.494   5.829
 6471SOL    HW220313   1.026   6.454   5.695
 6472SOL     OW20314   6.588   6.365   2.527
 6472SOL    HW120315   6.631   6.280   2.496
 6472SOL    HW220316   6.508   6.344   2.583
 6473SOL     OW20317   2.473   1.434   3.540
 6473SOL    HW120318   2.511   1.475   3.623
 6473SOL    HW220319   2.532   1.361   3.508
 6474SOL     OW20320   3.726   5.425   4.640
 6474SOL    HW120321   3.739   5.478   4.557
 6474SOL    HW220322   3.628   5.423   4.663
 6475SOL     OW20323   5.944   5.316   2.783
 6475SOL    HW120324   6.019   5.298   2.720
 6475SOL    HW220325   5.875   5.373   2.738
 6476SOL     OW20326   3.919   1.746   6.844
 6476SOL    HW120327   3.977   1.812   6.797
 6476SOL    HW220328   3.967   1.658   6.851
 6477SOL     OW20329   6.438   6.033   1.201
 6477SOL    HW120330   6.437   5.942   1.243
 6477SOL    HW220331   6.363   6.087   1.240
 6478SOL     OW20332   3.161   5.906   0.886
 6478SOL    HW120333   3.157   5.975   0.814
 6478SOL    HW220334   3.243   5.920   0.942
 6479SOL     OW20335   3.486   6.143   3.405
 6479SOL    HW120336   3.456   6.211   3.338
 6479SOL    HW220337   3.422   6.141   3.482
 6480SOL     OW20338   4.155   2.169   6.672
 6480SOL    HW120339   4.081   2.226   6.637
 6480SOL    HW220340   4.232   2.171   6.608
 6481SOL     OW20341   3.235   2.640   1.796
 6481SOL    HW120342   3.193   2.706   1.859
 6481SOL    HW220343   3.326   2.672   1.771
 6482SOL     OW20344   5.753   4.113   5.837
 6482SOL    HW120345   5.762   4.026   5.885
 6482SOL    HW220346   5.752   4.096   5.738
 6483SOL     OW20347   1.707   6.382   4.815
 6483SOL    HW120348   1.716   6.283   4.823
 6483SOL    HW220349   1.617   6.404   4.775
 6484SOL     OW20350   2.777   0.892   3.400
 6484SOL    HW120351   2.786   0.947   3.317
 6484SOL    HW220352   2.831   0.933   3.474
 6485SOL     OW20353   2.376   6.547   5.066
 6485SOL    HW120354   2.380   6.524   5.164
 6485SOL    HW220355   2.466   6.531   5.025
 6486SOL     OW20356   1.504   5.353   2.980
 6486SOL    HW120357   1.488   5.378   3.075
 6486SOL    HW220358   1.538   5.432   2.930
 6487SOL     OW20359   5.416   4.616   4.227
 6487SOL    HW120360   5.322   4.609   4.259
 6487SOL    HW220361   5.476   4.638   4.304
 6488SOL     OW20362   4.082   5.220   4.758
 6488SOL    HW120363   4.067   5.315   4.786
 6488SOL    HW220364   4.169   5.214   4.708
 6489SOL     OW20365   5.020   2.518   5.500
 6489SOL    HW120366   4.958   2.594   5.480
 6489SOL    HW220367   5.038   2.466   5.416
 6490SOL     OW20368   2.046   2.255   6.982
 6490SOL    HW120369   2.135   2.300   6.987
 6490SOL    HW220370   1.975   2.316   7.018
 6491SOL     OW20371   2.561   6.768   1.472
 6491SOL    HW120372   2.556   6.757   1.373
 6491SOL    HW220373   2.641   6.721   1.508
 6492SOL     OW20374   3.666   3.297   4.499
 6492SOL    HW120375   3.660   3.396   4.486
 6492SOL    HW220376   3.718   3.277   4.582
 6493SOL     OW20377   0.880   4.202   5.285
 6493SOL    HW120378   0.811   4.181   5.355
 6493SOL    HW220379   0.962   4.146   5.301
 6494SOL     OW20380   6.443   0.439   1.680
 6494SOL    HW120381   6.458   0.483   1.769
 6494SOL    HW220382   6.392   0.355   1.692
 6495SOL     OW20383   6.128   0.411   3.617
 6495SOL    HW120384   6.035   0.401   3.581
 6495SOL    HW220385   6.176   0.324   3.608
 6496SOL     OW20386   3.685   1.555   1.341
 6496SOL    HW120387   3.751   1.579   1.413
 6496SOL    HW220388   3.617   1.627   1.333
 6497SOL     OW20389   0.153   1.276   0.804
 6497SOL    HW120390   0.242   1.322   0.802
 6497SOL    HW220391   0.119   1.264   0.710
 6498SOL     OW20392   0.863   4.774   4.069
 6498SOL    HW120393   0.901   4.853   4.117
 6498SOL    HW220394   0.888   4.778   3.972
 6499SOL     OW20395   4.922   3.488   3.342
 6499SOL    HW120396   4.914   3.501   3.243
 6499SOL    HW220397   4.855   3.545   3.388
 6500SOL     OW20398   1.245   4.375   2.789
 6500SOL    HW120399   1.337   4.339   2.806
 6500SOL    HW220400   1.180   4.326   2.847
 6501SOL     OW20401   6.086   1.932   1.859
 6501SOL    HW120402   6.006   1.885   1.821
 6501SOL    HW220403   6.121   1.997   1.791
 6502SOL     OW20404   6.741   3.477   2.232
 6502SOL    HW120405   6.723   3.576   2.230
 6502SOL    HW220406   6.658   3.429   2.258
 6503SOL     OW20407   6.836   3.358   5.513
 6503SOL    HW120408   6.778   3.422   5.463
 6503SOL    HW220409   6.824   3.266   5.475
 6504SOL     OW20410   4.868   5.975   6.471
 6504SOL    HW120411   4.907   6.061   6.503
 6504SOL    HW220412   4.768   5.984   6.465
 6505SOL     OW20413   0.132   5.779   6.946
 6505SOL    HW120414   0.041   5.773   6.905
 6505SOL    HW220415   0.131   5.845   7.020
 6506SOL     OW20416   0.066   3.663   2.239
 6506SOL    HW120417   0.154   3.706   2.261
 6506SOL    HW220418   7.019   3.732   2.232
 6507SOL     OW20419   3.553   5.095   6.916
 6507SOL    HW120420   3.635   5.108   6.862
 6507SOL    HW220421   3.473   5.091   6.856
 6508SOL     OW20422   0.925   0.026   2.633
 6508SOL    HW120423   0.918   0.025   2.533
 6508SOL    HW220424   0.851   6.994   2.672
 6509SOL     OW20425   2.635   1.618   6.169
 6509SOL    HW120426   2.700   1.581   6.236
 6509SOL    HW220427   2.561   1.665   6.217
 6510SOL     OW20428   3.331   5.766   5.799
 6510SOL    HW120429   3.353   5.732   5.708
 6510SOL    HW220430   3.292   5.858   5.791
 6511SOL     OW20431   2.932   1.548   0.635
 6511SOL    HW120432   3.018   1.513   0.597
 6511SOL    HW220433   2.866   1.474   0.643
 6512SOL     OW20434   3.750   1.527   0.197
 6512SOL    HW120435   3.799   1.611   0.174
 6512SOL    HW220436   3.666   1.521   0.142
 6513SOL     OW20437   2.564   4.830   2.917
 6513SOL    HW120438   2.657   4.825   2.882
 6513SOL    HW220439   2.500   4.838   2.840
 6514SOL     OW20440   4.961   6.422   5.408
 6514SOL    HW120441   5.058   6.433   5.385
 6514SOL    HW220442   4.948   6.439   5.506
 6515SOL     OW20443   1.495   4.722   2.479
 6515SOL    HW120444   1.553   4.793   2.518
 6515SOL    HW220445   1.538   4.685   2.396
 6516SOL     OW20446   6.684   3.875   1.449
 6516SOL    HW120447   6.598   3.825   1.462
 6516SOL    HW220448   6.713   3.916   1.536
 6517SOL     OW20449   0.147   3.660   1.050
 6517SOL    HW120450   0.056   3.701   1.049
 6517SOL    HW220451   0.168   3.622   0.960
 6518SOL     OW20452   0.705   1.758   2.620
 6518SOL    HW120453   0.616   1.730   2.585
 6518SOL    HW220454   0.693   1.833   2.685
 6519SOL     OW20455   1.530   1.233   3.265
 6519SOL    HW120456   1.608   1.201   3.319
 6519SOL    HW220457   1.483   1.306   3.315
 6520SOL     OW20458   0.212   5.021   6.812
 6520SOL    HW120459   0.260   4.935   6.793
 6520SOL    HW220460   0.270   5.080   6.868
 6521SOL     OW20461   1.424   4.039   3.490
 6521SOL    HW120462   1.434   3.993   3.402
 6521SOL    HW220463   1.465   4.130   3.485
 6522SOL     OW20464   2.665   3.059   5.367
 6522SOL    HW120465   2.576   3.066   5.322
 6522SOL    HW220466   2.708   2.972   5.342
 6523SOL     OW20467   6.253   0.367   0.283
 6523SOL    HW120468   6.313   0.287   0.278
 6523SOL    HW220469   6.167   0.341   0.328
 6524SOL     OW20470   2.451   2.671   0.773
 6524SOL    HW120471   2.493   2.637   0.857
 6524SOL    HW220472   2.440   2.595   0.709
 6525SOL     OW20473   1.039   5.509   3.453
 6525SOL    HW120474   1.069   5.588   3.398
 6525SOL    HW220475   0.989   5.541   3.533
 6526SOL     OW20476   0.849   5.954   6.953
 6526SOL    HW120477   0.754   5.983   6.938
 6526SOL    HW220478   0.892   5.934   6.865
 6527SOL     OW20479   6.948   1.689   0.188
 6527SOL    HW120480   6.932   1.710   0.284
 6527SOL    HW220481   0.017   1.655   0.176
 6528SOL     OW20482   4.412   0.094   6.849
 6528SOL    HW120483   4.316   0.084   6.877
 6528SOL    HW220484   4.420   0.175   6.790
 6529SOL     OW20485   5.779   0.762   2.849
 6529SOL    HW120486   5.736   0.847   2.817
 6529SOL    HW220487   5.849   0.733   2.783
 6530SOL     OW20488   0.698   3.380   2.753
 6530SOL    HW120489   0.636   3.399   2.677
 6530SOL    HW220490   0.702   3.282   2.769
 6531SOL     OW20491   3.577   4.213   5.241
 6531SOL    HW120492   3.668   4.249   5.261
 6531SOL    HW220493   3.554   4.232   5.145
 6532SOL     OW20494   1.292   0.584   0.616
 6532SOL    HW120495   1.363   0.598   0.548
 6532SOL    HW220496   1.334   0.568   0.706
 6533SOL     OW20497   4.997   3.559   1.061
 6533SOL    HW120498   4.944   3.641   1.039
 6533SOL    HW220499   4.936   3.489   1.099
 6534SOL     OW20500   6.774   4.880   3.127
 6534SOL    HW120501   6.857   4.837   3.090
 6534SOL    HW220502   6.694   4.826   3.100
 6535SOL     OW20503   5.479   2.790   5.276
 6535SOL    HW120504   5.384   2.807   5.302
 6535SOL    HW220505   5.526   2.741   5.349
 6536SOL     OW20506   0.538   4.273   5.215
 6536SOL    HW120507   0.528   4.192   5.273
 6536SOL    HW220508   0.494   4.351   5.259
 6537SOL     OW20509   6.404   5.530   4.239
 6537SOL    HW120510   6.376   5.607   4.182
 6537SOL    HW220511   6.489   5.491   4.203
 6538SOL     OW20512   1.799   3.234   5.857
 6538SOL    HW120513   1.882   3.278   5.890
 6538SOL    HW220514   1.762   3.287   5.780
 6539SOL     OW20515   5.075   0.925   5.814
 6539SOL    HW120516   5.001   0.859   5.807
 6539SOL    HW220517   5.128   0.925   5.729
 6540SOL     OW20518   6.198   2.695   5.419
 6540SOL    HW120519   6.296   2.687   5.436
 6540SOL    HW220520   6.155   2.750   5.490
 6541SOL     OW20521   6.097   1.271   5.362
 6541SOL    HW120522   6.049   1.300   5.444
 6541SOL    HW220523   6.194   1.258   5.382
 6542SOL     OW20524   1.576   4.498   3.251
 6542SOL    HW120525   1.484   4.461   3.265
 6542SOL    HW220526   1.637   4.424   3.222
 6543SOL     OW20527   3.743   2.030   5.005
 6543SOL    HW120528   3.832   1.991   4.982
 6543SOL    HW220529   3.674   1.958   5.007
 6544SOL     OW20530   0.929   6.686   1.644
 6544SOL    HW120531   0.859   6.754   1.623
 6544SOL    HW220532   0.991   6.722   1.714
 6545SOL     OW20533   4.632   6.414   0.724
 6545SOL    HW120534   4.585   6.330   0.697
 6545SOL    HW220535   4.727   6.393   0.749
 6546SOL     OW20536   4.554   3.465   6.072
 6546SOL    HW120537   4.526   3.496   6.163
 6546SOL    HW220538   4.589   3.543   6.020
 6547SOL     OW20539   0.034   5.600   6.252
 6547SOL    HW120540   0.052   5.515   6.203
 6547SOL    HW220541   0.114   5.625   6.307
 6548SOL     OW20542   0.525   1.492   5.778
 6548SOL    HW120543   0.498   1.396   5.787
 6548SOL    HW220544   0.456   1.541   5.725
 6549SOL     OW20545   4.903   1.287   2.163
 6549SOL    HW120546   4.909   1.201   2.214
 6549SOL    HW220547   4.960   1.356   2.208
 6550SOL     OW20548   5.670   6.667   3.259
 6550SOL    HW120549   5.632   6.682   3.168
 6550SOL    HW220550   5.738   6.594   3.256
 6551SOL     OW20551   3.252   3.814   0.854
 6551SOL    HW120552   3.346   3.806   0.819
 6551SOL    HW220553   3.201   3.878   0.797
 6552SOL     OW20554   1.966   5.990   0.615
 6552SOL    HW120555   2.030   5.920   0.647
 6552SOL    HW220556   1.881   5.947   0.584
 6553SOL     OW20557   0.661   1.095   3.724
 6553SOL    HW120558   0.620   1.091   3.815
 6553SOL    HW220559   0.623   1.172   3.673
 6554SOL     OW20560   2.146   1.431   3.800
 6554SOL    HW120561   2.075   1.501   3.788
 6554SOL    HW220562   2.104   1.346   3.832
 6555SOL     OW20563   6.377   3.941   3.453
 6555SOL    HW120564   6.336   3.998   3.525
 6555SOL    HW220565   6.473   3.923   3.475
 6556SOL     OW20566   4.896   3.111   2.803
 6556SOL    HW120567   4.866   3.160   2.721
 6556SOL    HW220568   4.891   3.012   2.786
 6557SOL     OW20569   2.509   0.600   1.972
 6557SOL    HW120570   2.499   0.599   2.071
 6557SOL    HW220571   2.606   0.595   1.948
 6558SOL     OW20572   5.726   5.393   6.514
 6558SOL    HW120573   5.661   5.469   6.502
 6558SOL    HW220574   5.761   5.394   6.607
 6559SOL     OW20575   0.173   2.136   6.073
 6559SOL    HW120576   0.124   2.158   5.989
 6559SOL    HW220577   0.245   2.069   6.053
 6560SOL     OW20578   5.549   4.784   0.603
 6560SOL    HW120579   5.508   4.757   0.517
 6560SOL    HW220580   5.478   4.803   0.670
 6561SOL     OW20581   3.279   4.569   6.949
 6561SOL    HW120582   3.340   4.638   6.988
 6561SOL    HW220583   3.333   4.490   6.919
 6562SOL     OW20584   5.552   2.771   1.089
 6562SOL    HW120585   5.636   2.792   1.037
 6562SOL    HW220586   5.511   2.687   1.053
 6563SOL     OW20587   5.322   5.813   5.231
 6563SOL    HW120588   5.386   5.784   5.160
 6563SOL    HW220589   5.237   5.760   5.223
 6564SOL     OW20590   6.151   3.298   2.949
 6564SOL    HW120591   6.242   3.291   2.991
 6564SOL    HW220592   6.129   3.211   2.904
 6565SOL     OW20593   5.403   0.703   3.057
 6565SOL    HW120594   5.416   0.646   3.138
 6565SOL    HW220595   5.448   0.659   2.979
 6566SOL     OW20596   4.817   5.981   2.999
 6566SOL    HW120597   4.854   5.890   3.017
 6566SOL    HW220598   4.835   6.040   3.078
 6567SOL     OW20599   4.198   0.946   1.343
 6567SOL    HW120600   4.243   0.858   1.327
 6567SOL    HW220601   4.191   0.996   1.257
 6568SOL     OW20602   4.171   1.474   1.222
 6568SOL    HW120603   4.147   1.538   1.149
 6568SOL    HW220604   4.144   1.513   1.311
 6569SOL     OW20605   0.147   4.072   5.621
 6569SOL    HW120606   0.173   4.152   5.675
 6569SOL    HW220607   0.229   4.023   5.592
 6570SOL     OW20608   4.307   0.259   2.083
 6570SOL    HW120609   4.242   0.184   2.097
 6570SOL    HW220610   4.372   0.233   2.011
 6571SOL     OW20611   3.452   5.220   2.651
 6571SOL    HW120612   3.446   5.262   2.561
 6571SOL    HW220613   3.360   5.203   2.687
 6572SOL     OW20614   1.037   5.723   4.150
 6572SOL    HW120615   0.997   5.762   4.233
 6572SOL    HW220616   0.978   5.649   4.117
 6573SOL     OW20617   1.725   1.449   3.506
 6573SOL    HW120618   1.699   1.363   3.549
 6573SOL    HW220619   1.681   1.525   3.554
 6574SOL     OW20620   1.973   5.472   1.820
 6574SOL    HW120621   1.939   5.458   1.913
 6574SOL    HW220622   2.057   5.526   1.823
 6575SOL     OW20623   6.958   1.081   3.139
 6575SOL    HW120624   6.867   1.117   3.120
 6575SOL    HW220625   7.004   1.140   3.206
 6576SOL     OW20626   4.560   6.189   0.994
 6576SOL    HW120627   4.598   6.281   0.991
 6576SOL    HW220628   4.588   6.138   0.912
 6577SOL     OW20629   2.992   1.093   3.564
 6577SOL    HW120630   2.954   1.185   3.555
 6577SOL    HW220631   2.996   1.068   3.661
 6578SOL     OW20632   1.481   4.852   1.652
 6578SOL    HW120633   1.506   4.838   1.557
 6578SOL    HW220634   1.479   4.764   1.700
 6579SOL     OW20635   6.512   1.222   4.486
 6579SOL    HW120636   6.570   1.302   4.501
 6579SOL    HW220637   6.485   1.217   4.390
 6580SOL     OW20638   2.119   1.286   6.797
 6580SOL    HW120639   2.144   1.350   6.725
 6580SOL    HW220640   2.021   1.268   6.795
 6581SOL     OW20641   0.435   2.049   0.802
 6581SOL    HW120642   0.370   2.061   0.877
 6581SOL    HW220643   0.527   2.038   0.839
 6582SOL     OW20644   6.699   1.140   3.499
 6582SOL    HW120645   6.768   1.210   3.479
 6582SOL    HW220646   6.744   1.059   3.537
 6583SOL     OW20647   3.898   5.364   6.759
 6583SOL    HW120648   3.816   5.414   6.732
 6583SOL    HW220649   3.918   5.382   6.855
 6584SOL     OW20650   3.568   2.741   0.472
 6584SOL    HW120651   3.556   2.711   0.567
 6584SOL    HW220652   3.487   2.714   0.419
 6585SOL     OW20653   5.939   6.597   0.927
 6585SOL    HW120654   5.952   6.556   1.018
 6585SOL    HW220655   5.847   6.637   0.922
 6586SOL     OW20656   6.719   2.111   6.598
 6586SOL    HW120657   6.661   2.042   6.642
 6586SOL    HW220658   6.697   2.116   6.500
 6587SOL     OW20659   1.948   4.755   5.355
 6587SOL    HW120660   1.859   4.719   5.325
 6587SOL    HW220661   1.957   4.741   5.454
 6588SOL     OW20662   6.573   2.886   0.559
 6588SOL    HW120663   6.661   2.862   0.601
 6588SOL    HW220664   6.499   2.850   0.616
 6589SOL     OW20665   0.041   0.439   2.177
 6589SOL    HW120666   6.983   0.414   2.228
 6589SOL    HW220667   0.089   0.512   2.226
 6590SOL     OW20668   1.152   6.688   3.662
 6590SOL    HW120669   1.212   6.611   3.682
 6590SOL    HW220670   1.191   6.743   3.588
 6591SOL     OW20671   5.836   4.353   4.464
 6591SOL    HW120672   5.911   4.402   4.420
 6591SOL    HW220673   5.749   4.397   4.442
 6592SOL     OW20674   6.266   0.090   3.247
 6592SOL    HW120675   6.284   0.108   3.344
 6592SOL    HW220676   6.353   0.079   3.198
 6593SOL     OW20677   2.850   2.235   2.313
 6593SOL    HW120678   2.868   2.245   2.216
 6593SOL    HW220679   2.802   2.149   2.329
 6594SOL     OW20680   5.180   0.589   6.343
 6594SOL    HW120681   5.130   0.628   6.266
 6594SOL    HW220682   5.120   0.529   6.395
 6595SOL     OW20683   1.025   2.473   5.594
 6595SOL    HW120684   1.019   2.452   5.691
 6595SOL    HW220685   0.998   2.569   5.578
 6596SOL     OW20686   6.019   6.667   2.471
 6596SOL    HW120687   6.099   6.665   2.531
 6596SOL    HW220688   6.043   6.709   2.384
 6597SOL     OW20689   1.070   4.469   2.086
 6597SOL    HW120690   1.084   4.480   1.988
 6597SOL    HW220691   0.999   4.531   2.117
 6598SOL     OW20692   1.540   4.435   4.095
 6598SOL    HW120693   1.596   4.397   4.168
 6598SOL    HW220694   1.598   4.451   4.014
 6599SOL     OW20695   6.123   5.283   6.550
 6599SOL    HW120696   6.065   5.210   6.586
 6599SOL    HW220697   6.071   5.340   6.487
 6600SOL     OW20698   4.554   6.925   5.105
 6600SOL    HW120699   4.652   6.911   5.089
 6600SOL    HW220700   4.516   6.983   5.033
 6601SOL     OW20701   1.626   2.430   1.690
 6601SOL    HW120702   1.585   2.445   1.600
 6601SOL    HW220703   1.613   2.511   1.747
 6602SOL     OW20704   1.441   6.232   1.591
 6602SOL    HW120705   1.422   6.289   1.671
 6602SOL    HW220706   1.482   6.145   1.620
 6603SOL     OW20707   0.417   3.821   3.021
 6603SOL    HW120708   0.362   3.737   3.025
 6603SOL    HW220709   0.512   3.800   3.043
 6604SOL     OW20710   2.373   6.182   2.530
 6604SOL    HW120711   2.465   6.221   2.536
 6604SOL    HW220712   2.310   6.250   2.492
 6605SOL     OW20713   6.722   5.119   0.970
 6605SOL    HW120714   6.737   5.067   1.054
 6605SOL    HW220715   6.773   5.205   0.975
 6606SOL     OW20716   1.768   3.638   3.144
 6606SOL    HW120717   1.721   3.683   3.068
 6606SOL    HW220718   1.830   3.569   3.108
 6607SOL     OW20719   5.962   3.914   3.426
 6607SOL    HW120720   5.927   3.824   3.454
 6607SOL    HW220721   6.053   3.903   3.385
 6608SOL     OW20722   1.414   5.936   6.029
 6608SOL    HW120723   1.470   5.954   6.110
 6608SOL    HW220724   1.470   5.889   5.961
 6609SOL     OW20725   4.688   1.638   5.716
 6609SOL    HW120726   4.642   1.638   5.805
 6609SOL    HW220727   4.718   1.731   5.694
 6610SOL     OW20728   2.810   5.021   0.817
 6610SOL    HW120729   2.791   5.094   0.882
 6610SOL    HW220730   2.907   4.996   0.821
 6611SOL     OW20731   4.056   1.736   4.596
 6611SOL    HW120732   4.027   1.699   4.508
 6611SOL    HW220733   4.030   1.673   4.669
 6612SOL     OW20734   0.210   0.498   6.152
 6612SOL    HW120735   0.193   0.572   6.217
 6612SOL    HW220736   0.297   0.453   6.175
 6613SOL     OW20737   4.680   6.617   0.145
 6613SOL    HW120738   4.743   6.691   0.124
 6613SOL    HW220739   4.616   6.647   0.216
 6614SOL     OW20740   4.397   5.755   1.132
 6614SOL    HW120741   4.409   5.848   1.164
 6614SOL    HW220742   4.398   5.692   1.209
 6615SOL     OW20743   3.315   4.598   6.543
 6615SOL    HW120744   3.415   4.600   6.542
 6615SOL    HW220745   3.284   4.508   6.573
 6616SOL     OW20746   3.940   1.075   5.519
 6616SOL    HW120747   4.005   1.090   5.594
 6616SOL    HW220748   3.882   1.156   5.509
 6617SOL     OW20749   3.842   0.472   4.095
 6617SOL    HW120750   3.885   0.512   4.176
 6617SOL    HW220751   3.767   0.413   4.123
 6618SOL     OW20752   0.019   2.542   3.585
 6618SOL    HW120753   6.987   2.616   3.548
 6618SOL    HW220754   0.068   2.575   3.666
 6619SOL     OW20755   4.681   5.883   4.252
 6619SOL    HW120756   4.697   5.961   4.313
 6619SOL    HW220757   4.609   5.906   4.187
 6620SOL     OW20758   0.425   3.458   3.565
 6620SOL    HW120759   0.333   3.471   3.601
 6620SOL    HW220760   0.425   3.472   3.466
 6621SOL     OW20761   4.104   3.232   4.596
 6621SOL    HW120762   4.113   3.238   4.696
 6621SOL    HW220763   4.158   3.305   4.554
 6622SOL     OW20764   0.838   5.401   0.585
 6622SOL    HW120765   0.828   5.362   0.677
 6622SOL    HW220766   0.914   5.357   0.538
 6623SOL     OW20767   3.427   3.567   5.555
 6623SOL    HW120768   3.359   3.495   5.570
 6623SOL    HW220769   3.452   3.609   5.642
 6624SOL     OW20770   1.750   2.013   3.570
 6624SOL    HW120771   1.795   2.046   3.653
 6624SOL    HW220772   1.754   2.084   3.499
 6625SOL     OW20773   6.155   3.788   5.915
 6625SOL    HW120774   6.246   3.814   5.949
 6625SOL    HW220775   6.086   3.810   5.984
 6626SOL     OW20776   2.746   6.137   5.122
 6626SOL    HW120777   2.695   6.084   5.190
 6626SOL    HW220778   2.829   6.173   5.163
 6627SOL     OW20779   1.933   5.780   4.324
 6627SOL    HW120780   1.834   5.787   4.338
 6627SOL    HW220781   1.971   5.714   4.388
 6628SOL     OW20782   4.084   6.138   4.330
 6628SOL    HW120783   4.018   6.097   4.267
 6628SOL    HW220784   4.093   6.080   4.411
 6629SOL     OW20785   4.946   5.824   6.111
 6629SOL    HW120786   4.956   5.810   6.210
 6629SOL    HW220787   4.849   5.826   6.087
 6630SOL     OW20788   1.688   0.892   1.218
 6630SOL    HW120789   1.696   0.985   1.253
 6630SOL    HW220790   1.678   0.829   1.295
 6631SOL     OW20791   1.632   4.000   6.043
 6631SOL    HW120792   1.686   4.005   5.959
 6631SOL    HW220793   1.535   4.000   6.019
 6632SOL     OW20794   1.084   1.196   1.182
 6632SOL    HW120795   0.998   1.196   1.130
 6632SOL    HW220796   1.135   1.280   1.161
 6633SOL     OW20797   3.731   5.638   5.921
 6633SOL    HW120798   3.749   5.586   6.004
 6633SOL    HW220799   3.645   5.608   5.880
 6634SOL     OW20800   4.154   1.844   4.066
 6634SOL    HW120801   4.083   1.895   4.017
 6634SOL    HW220802   4.112   1.765   4.113
 6635SOL     OW20803   5.149   5.128   3.666
 6635SOL    HW120804   5.162   5.031   3.646
 6635SOL    HW220805   5.119   5.175   3.584
 6636SOL     OW20806   4.069   0.678   6.717
 6636SOL    HW120807   4.077   0.621   6.636
 6636SOL    HW220808   4.007   0.635   6.782
 6637SOL     OW20809   1.236   1.552   1.870
 6637SOL    HW120810   1.296   1.491   1.922
 6637SOL    HW220811   1.266   1.554   1.774
 6638SOL     OW20812   3.199   3.394   3.902
 6638SOL    HW120813   3.161   3.441   3.823
 6638SOL    HW220814   3.175   3.444   3.985
 6639SOL     OW20815   4.961   2.672   1.701
 6639SOL    HW120816   5.037   2.661   1.636
 6639SOL    HW220817   4.993   2.651   1.793
 6640SOL     OW20818   1.288   2.933   4.969
 6640SOL    HW120819   1.259   2.838   4.952
 6640SOL    HW220820   1.279   2.985   4.884
 6641SOL     OW20821   5.089   1.824   1.091
 6641SOL    HW120822   5.179   1.808   1.050
 6641SOL    HW220823   5.025   1.852   1.020
 6642SOL     OW20824   0.952   5.999   0.183
 6642SOL    HW120825   1.041   5.958   0.201
 6642SOL    HW220826   0.941   6.014   0.084
 6643SOL     OW20827   3.837   6.272   6.591
 6643SOL    HW120828   3.931   6.239   6.594
 6643SOL    HW220829   3.837   6.372   6.592
 6644SOL     OW20830   1.701   6.397   3.688
 6644SOL    HW120831   1.771   6.468   3.699
 6644SOL    HW220832   1.740   6.319   3.639
 6645SOL     OW20833   5.602   2.657   0.461
 6645SOL    HW120834   5.557   2.687   0.546
 6645SOL    HW220835   5.538   2.603   0.407
 6646SOL     OW20836   4.546   0.007   6.070
 6646SOL    HW120837   4.532   6.966   5.996
 6646SOL    HW220838   4.520   0.099   6.039
 6647SOL     OW20839   4.606   5.045   1.229
 6647SOL    HW120840   4.668   5.084   1.161
 6647SOL    HW220841   4.628   5.082   1.320
 6648SOL     OW20842   2.782   6.156   6.099
 6648SOL    HW120843   2.719   6.197   6.166
 6648SOL    HW220844   2.870   6.138   6.143
 6649SOL     OW20845   5.124   3.353   6.952
 6649SOL    HW120846   5.029   3.383   6.948
 6649SOL    HW220847   5.154   3.326   6.860
 6650SOL     OW20848   2.188   1.875   5.086
 6650SOL    HW120849   2.236   1.870   5.173
 6650SOL    HW220850   2.117   1.804   5.083
 6651SOL     OW20851   6.668   1.550   6.556
 6651SOL    HW120852   6.633   1.624   6.499
 6651SOL    HW220853   6.637   1.561   6.650
 6652SOL     OW20854   0.176   4.470   0.865
 6652SOL    HW120855   0.261   4.456   0.915
 6652SOL    HW220856   0.194   4.465   0.767
 6653SOL     OW20857   5.766   4.625   0.567
 6653SOL    HW120858   5.672   4.650   0.588
 6653SOL    HW220859   5.823   4.641   0.648
 6654SOL     OW20860   6.675   4.470   2.967
 6654SOL    HW120861   6.634   4.448   3.055
 6654SOL    HW220862   6.667   4.568   2.950
 6655SOL     OW20863   6.811   5.162   2.162
 6655SOL    HW120864   6.872   5.181   2.239
 6655SOL    HW220865   6.746   5.090   2.188
 6656SOL     OW20866   4.112   1.523   2.876
 6656SOL    HW120867   4.117   1.477   2.965
 6656SOL    HW220868   4.016   1.540   2.853
 6657SOL     OW20869   5.368   2.605   3.508
 6657SOL    HW120870   5.462   2.594   3.474
 6657SOL    HW220871   5.306   2.615   3.431
 6658SOL     OW20872   6.463   5.888   5.738
 6658SOL    HW120873   6.391   5.942   5.695
 6658SOL    HW220874   6.552   5.918   5.705
 6659SOL     OW20875   0.672   4.979   2.291
 6659SOL    HW120876   0.611   5.047   2.248
 6659SOL    HW220877   0.662   4.892   2.244
 6660SOL     OW20878   6.847   6.298   3.721
 6660SOL    HW120879   6.769   6.272   3.777
 6660SOL    HW220880   6.823   6.291   3.624
 6661SOL     OW20881   3.737   5.882   3.985
 6661SOL    HW120882   3.716   5.792   3.947
 6661SOL    HW220883   3.826   5.879   4.031
 6662SOL     OW20884   3.760   6.700   2.478
 6662SOL    HW120885   3.688   6.751   2.526
 6662SOL    HW220886   3.779   6.616   2.529
 6663SOL     OW20887   1.193   4.041   5.986
 6663SOL    HW120888   1.093   4.047   5.988
 6663SOL    HW220889   1.231   4.129   5.955
 6664SOL     OW20890   2.754   0.395   1.190
 6664SOL    HW120891   2.683   0.465   1.176
 6664SOL    HW220892   2.797   0.375   1.102
 6665SOL     OW20893   2.357   0.507   5.842
 6665SOL    HW120894   2.270   0.533   5.885
 6665SOL    HW220895   2.381   0.576   5.774
 6666SOL     OW20896   3.798   6.410   5.336
 6666SOL    HW120897   3.869   6.376   5.275
 6666SOL    HW220898   3.721   6.445   5.282
 6667SOL     OW20899   6.804   6.206   0.174
 6667SOL    HW120900   6.712   6.234   0.148
 6667SOL    HW220901   6.799   6.123   0.231
 6668SOL     OW20902   0.452   5.302   0.490
 6668SOL    HW120903   0.491   5.228   0.434
 6668SOL    HW220904   0.518   5.326   0.562
 6669SOL     OW20905   1.443   1.064   3.042
 6669SOL    HW120906   1.370   1.015   3.090
 6669SOL    HW220907   1.496   1.118   3.108
 6670SOL     OW20908   4.330   2.385   1.209
 6670SOL    HW120909   4.238   2.399   1.246
 6670SOL    HW220910   4.371   2.303   1.248
 6671SOL     OW20911   4.716   5.847   0.560
 6671SOL    HW120912   4.619   5.860   0.538
 6671SOL    HW220913   4.730   5.757   0.600
 6672SOL     OW20914   1.909   2.234   0.851
 6672SOL    HW120915   1.990   2.225   0.909
 6672SOL    HW220916   1.836   2.278   0.902
 6673SOL     OW20917   6.097   3.450   3.674
 6673SOL    HW120918   6.052   3.535   3.699
 6673SOL    HW220919   6.117   3.450   3.576
 6674SOL     OW20920   0.189   2.321   7.011
 6674SOL    HW120921   0.157   2.356   0.076
 6674SOL    HW220922   0.175   2.391   6.941
 6675SOL     OW20923   5.236   1.707   6.797
 6675SOL    HW120924   5.285   1.765   6.732
 6675SOL    HW220925   5.197   1.629   6.747
 6676SOL     OW20926   1.409   3.706   3.475
 6676SOL    HW120927   1.400   3.702   3.375
 6676SOL    HW220928   1.491   3.759   3.498
 6677SOL     OW20929   0.163   1.562   0.129
 6677SOL    HW120930   0.112   1.483   0.165
 6677SOL    HW220931   0.229   1.531   0.061
 6678SOL     OW20932   2.041   4.166   6.892
 6678SOL    HW120933   2.035   4.249   6.836
 6678SOL    HW220934   2.050   4.086   6.833
 6679SOL     OW20935   1.719   0.710   3.826
 6679SOL    HW120936   1.816   0.686   3.828
 6679SOL    HW220937   1.670   0.647   3.766
 6680SOL     OW20938   5.901   6.955   1.228
 6680SOL    HW120939   5.958   6.873   1.231
 6680SOL    HW220940   5.805   6.929   1.237
 6681SOL     OW20941   3.231   6.374   1.663
 6681SOL    HW120942   3.199   6.315   1.737
 6681SOL    HW220943   3.269   6.317   1.590
 6682SOL     OW20944   3.122   4.687   6.154
 6682SOL    HW120945   3.070   4.771   6.137
 6682SOL    HW220946   3.200   4.709   6.213
 6683SOL     OW20947   6.642   3.850   6.536
 6683SOL    HW120948   6.544   3.853   6.518
 6683SOL    HW220949   6.692   3.850   6.450
 6684SOL     OW20950   2.704   6.640   0.678
 6684SOL    HW120951   2.798   6.641   0.642
 6684SOL    HW220952   2.696   6.706   0.752
 6685SOL     OW20953   4.987   3.636   6.733
 6685SOL    HW120954   5.062   3.571   6.720
 6685SOL    HW220955   4.996   3.681   6.821
 6686SOL     OW20956   4.636   5.078   3.745
 6686SOL    HW120957   4.663   4.993   3.700
 6686SOL    HW220958   4.707   5.147   3.733
 6687SOL     OW20959   6.559   2.437   1.869
 6687SOL    HW120960   6.591   2.522   1.828
 6687SOL    HW220961   6.638   2.379   1.891
 6688SOL     OW20962   4.496   5.449   0.392
 6688SOL    HW120963   4.584   5.453   0.439
 6688SOL    HW220964   4.479   5.536   0.346
 6689SOL     OW20965   2.004   4.627   5.970
 6689SOL    HW120966   1.969   4.568   5.897
 6689SOL    HW220967   2.100   4.604   5.988
 6690SOL     OW20968   0.755   7.011   5.476
 6690SOL    HW120969   0.771   6.920   5.438
 6690SOL    HW220970   0.658   0.008   5.475
 6691SOL     OW20971   2.471   2.661   3.093
 6691SOL    HW120972   2.565   2.669   3.060
 6691SOL    HW220973   2.471   2.617   3.183
 6692SOL     OW20974   4.720   5.247   1.405
 6692SOL    HW120975   4.777   5.249   1.487
 6692SOL    HW220976   4.775   5.221   1.326
 6693SOL     OW20977   4.454   1.924   4.579
 6693SOL    HW120978   4.436   1.861   4.504
 6693SOL    HW220979   4.395   2.004   4.571
 6694SOL     OW20980   3.201   4.295   1.225
 6694SOL    HW120981   3.148   4.366   1.270
 6694SOL    HW220982   3.298   4.305   1.249
 6695SOL     OW20983   2.798   2.252   6.102
 6695SOL    HW120984   2.744   2.174   6.072
 6695SOL    HW220985   2.865   2.222   6.170
 6696SOL     OW20986   4.145   3.509   4.479
 6696SOL    HW120987   4.092   3.464   4.408
 6696SOL    HW220988   4.175   3.599   4.447
 6697SOL     OW20989   4.398   2.170   2.662
 6697SOL    HW120990   4.453   2.173   2.746
 6697SOL    HW220991   4.305   2.198   2.682
 6698SOL     OW20992   3.332   4.025   1.064
 6698SOL    HW120993   3.429   4.036   1.087
 6698SOL    HW220994   3.316   3.934   1.028
 6699SOL     OW20995   1.644   4.606   5.627
 6699SOL    HW120996   1.611   4.642   5.540
 6699SOL    HW220997   1.734   4.563   5.613
 6700SOL     OW20998   5.808   6.828   6.892
 6700SOL    HW120999   5.780   6.781   6.976
 6700SOL    HW221000   5.894   6.790   6.859
 6701SOL     OW21001   6.124   0.647   1.513
 6701SOL    HW121002   6.039   0.679   1.473
 6701SOL    HW221003   6.174   0.593   1.445
 6702SOL     OW21004   2.832   2.580   0.765
 6702SOL    HW121005   2.907   2.599   0.829
 6702SOL    HW221006   2.798   2.666   0.727
 6703SOL     OW21007   0.100   1.146   6.977
 6703SOL    HW121008   0.096   1.209   0.031
 6703SOL    HW221009   0.013   1.099   6.968
 6704SOL     OW21010   2.940   0.432   5.392
 6704SOL    HW121011   3.038   0.447   5.408
 6704SOL    HW221012   2.897   0.519   5.367
 6705SOL     OW21013   6.429   3.571   2.264
 6705SOL    HW121014   6.504   3.636   2.266
 6705SOL    HW221015   6.408   3.546   2.169
 6706SOL     OW21016   0.425   6.909   1.990
 6706SOL    HW121017   0.447   6.972   2.064
 6706SOL    HW221018   0.326   6.908   1.975
 6707SOL     OW21019   5.649   0.534   1.995
 6707SOL    HW121020   5.663   0.625   2.034
 6707SOL    HW221021   5.564   0.496   2.028
 6708SOL     OW21022   0.814   4.043   1.674
 6708SOL    HW121023   0.806   4.136   1.637
 6708SOL    HW221024   0.877   4.044   1.751
 6709SOL     OW21025   2.063   5.315   2.567
 6709SOL    HW121026   1.970   5.342   2.589
 6709SOL    HW221027   2.121   5.325   2.647
 6710SOL     OW21028   4.032   1.288   0.980
 6710SOL    HW121029   4.039   1.193   1.010
 6710SOL    HW221030   3.955   1.333   1.026
 6711SOL     OW21031   3.667   5.791   6.261
 6711SOL    HW121032   3.754   5.789   6.212
 6711SOL    HW221033   3.592   5.772   6.197
 6712SOL     OW21034   5.850   3.719   1.568
 6712SOL    HW121035   5.813   3.632   1.536
 6712SOL    HW221036   5.878   3.775   1.490
 6713SOL     OW21037   1.569   6.154   4.535
 6713SOL    HW121038   1.501   6.082   4.546
 6713SOL    HW221039   1.649   6.134   4.591
 6714SOL     OW21040   5.118   1.202   0.686
 6714SOL    HW121041   5.102   1.165   0.778
 6714SOL    HW221042   5.183   1.277   0.691
 6715SOL     OW21043   1.252   1.090   0.410
 6715SOL    HW121044   1.154   1.108   0.397
 6715SOL    HW221045   1.302   1.176   0.410
 6716SOL     OW21046   6.713   5.663   3.030
 6716SOL    HW121047   6.650   5.630   3.101
 6716SOL    HW221048   6.663   5.722   2.967
 6717SOL     OW21049   4.522   1.601   5.504
 6717SOL    HW121050   4.599   1.617   5.566
 6717SOL    HW221051   4.513   1.503   5.486
 6718SOL     OW21052   3.416   0.579   1.683
 6718SOL    HW121053   3.380   0.582   1.776
 6718SOL    HW221054   3.360   0.635   1.623
 6719SOL     OW21055   1.764   0.823   7.007
 6719SOL    HW121056   1.692   0.755   7.021
 6719SOL    HW221057   1.780   0.871   0.070
 6720SOL     OW21058   1.479   0.622   5.939
 6720SOL    HW121059   1.432   0.693   5.888
 6720SOL    HW221060   1.570   0.608   5.901
 6721SOL     OW21061   0.221   1.475   0.431
 6721SOL    HW121062   0.288   1.502   0.499
 6721SOL    HW221063   0.224   1.540   0.355
 6722SOL     OW21064   6.616   3.157   0.582
 6722SOL    HW121065   6.616   3.062   0.552
 6722SOL    HW221066   6.526   3.198   0.563
 6723SOL     OW21067   1.687   2.325   6.408
 6723SOL    HW121068   1.587   2.332   6.402
 6723SOL    HW221069   1.711   2.276   6.492
 6724SOL     OW21070   2.019   3.708   5.778
 6724SOL    HW121071   1.955   3.681   5.851
 6724SOL    HW221072   2.069   3.627   5.747
 6725SOL     OW21073   5.332   2.770   3.741
 6725SOL    HW121074   5.254   2.738   3.793
 6725SOL    HW221075   5.362   2.700   3.677
 6726SOL     OW21076   0.248   1.045   5.287
 6726SOL    HW121077   0.231   1.128   5.340
 6726SOL    HW221078   0.305   0.982   5.341
 6727SOL     OW21079   1.006   4.942   5.877
 6727SOL    HW121080   0.952   4.880   5.820
 6727SOL    HW221081   0.998   4.915   5.973
 6728SOL     OW21082   3.864   2.058   3.722
 6728SOL    HW121083   3.793   2.007   3.674
 6728SOL    HW221084   3.933   2.089   3.657
 6729SOL     OW21085   4.831   1.580   2.036
 6729SOL    HW121086   4.820   1.678   2.052
 6729SOL    HW221087   4.887   1.541   2.109
 6730SOL     OW21088   0.708   1.402   1.589
 6730SOL    HW121089   0.655   1.319   1.607
 6730SOL    HW221090   0.770   1.385   1.512
 6731SOL     OW21091   3.394   6.704   6.807
 6731SOL    HW121092   3.385   6.667   6.900
 6731SOL    HW221093   3.414   6.631   6.743
 6732SOL     OW21094   6.949   5.942   4.703
 6732SOL    HW121095   0.003   5.885   4.729
 6732SOL    HW221096   6.921   5.999   4.780
 6733SOL     OW21097   4.329   5.070   6.382
 6733SOL    HW121098   4.259   5.141   6.390
 6733SOL    HW221099   4.361   5.064   6.288
 6734SOL     OW21100   5.829   1.401   4.681
 6734SOL    HW121101   5.926   1.413   4.658
 6734SOL    HW221102   5.784   1.349   4.608
 6735SOL     OW21103   6.036   3.114   3.528
 6735SOL    HW121104   6.104   3.117   3.602
 6735SOL    HW221105   5.984   3.199   3.527
 6736SOL     OW21106   3.425   4.080   0.752
 6736SOL    HW121107   3.329   4.057   0.738
 6736SOL    HW221108   3.469   4.094   0.663
 6737SOL     OW21109   0.384   3.991   1.235
 6737SOL    HW121110   0.321   4.034   1.171
 6737SOL    HW221111   0.342   3.908   1.273
 6738SOL     OW21112   2.039   5.951   3.592
 6738SOL    HW121113   1.995   5.875   3.640
 6738SOL    HW221114   2.123   5.976   3.639
 6739SOL     OW21115   6.559   6.795   4.802
 6739SOL    HW121116   6.540   6.713   4.857
 6739SOL    HW221117   6.641   6.779   4.747
 6740SOL     OW21118   0.555   6.899   3.726
 6740SOL    HW121119   0.544   6.890   3.627
 6740SOL    HW221120   0.562   6.996   3.750
 6741SOL     OW21121   4.461   1.976   5.992
 6741SOL    HW121122   4.553   1.943   6.012
 6741SOL    HW221123   4.462   2.029   5.908
 6742SOL     OW21124   5.773   4.647   3.367
 6742SOL    HW121125   5.731   4.712   3.430
 6742SOL    HW221126   5.722   4.561   3.370
 6743SOL     OW21127   4.530   4.039   1.081
 6743SOL    HW121128   4.438   4.052   1.044
 6743SOL    HW221129   4.564   3.949   1.055
 6744SOL     OW21130   0.095   5.696   5.956
 6744SOL    HW121131   0.189   5.663   5.956
 6744SOL    HW221132   0.066   5.713   6.051
 6745SOL     OW21133   7.019   6.040   4.449
 6745SOL    HW121134   6.988   6.021   4.542
 6745SOL    HW221135   0.092   6.063   4.450
 6746SOL     OW21136   2.129   1.392   2.351
 6746SOL    HW121137   2.223   1.387   2.316
 6746SOL    HW221138   2.090   1.481   2.329
 6747SOL     OW21139   1.187   6.404   6.296
 6747SOL    HW121140   1.178   6.308   6.271
 6747SOL    HW221141   1.272   6.418   6.346
 6748SOL     OW21142   2.162   1.393   4.477
 6748SOL    HW121143   2.109   1.310   4.491
 6748SOL    HW221144   2.140   1.459   4.549
 6749SOL     OW21145   3.361   4.705   0.887
 6749SOL    HW121146   3.379   4.723   0.984
 6749SOL    HW221147   3.269   4.667   0.877
 6750SOL     OW21148   2.981   1.026   4.634
 6750SOL    HW121149   3.044   1.103   4.632
 6750SOL    HW221150   2.975   0.985   4.543
 6751SOL     OW21151   4.114   0.161   4.062
 6751SOL    HW121152   4.173   0.087   4.030
 6751SOL    HW221153   4.164   0.248   4.058
 6752SOL     OW21154   2.271   5.890   2.247
 6752SOL    HW121155   2.247   5.932   2.334
 6752SOL    HW221156   2.362   5.922   2.218
 6753SOL     OW21157   4.042   3.002   5.272
 6753SOL    HW121158   3.987   3.035   5.195
 6753SOL    HW221159   4.059   3.077   5.336
 6754SOL     OW21160   6.313   2.008   1.537
 6754SOL    HW121161   6.360   1.976   1.455
 6754SOL    HW221162   6.218   1.978   1.534
 6755SOL     OW21163   2.265   5.386   6.412
 6755SOL    HW121164   2.280   5.326   6.333
 6755SOL    HW221165   2.345   5.445   6.424
 6756SOL     OW21166   2.584   2.581   5.234
 6756SOL    HW121167   2.584   2.564   5.136
 6756SOL    HW221168   2.587   2.494   5.283
 6757SOL     OW21169   3.696   0.716   0.629
 6757SOL    HW121170   3.746   0.764   0.702
 6757SOL    HW221171   3.761   0.668   0.571
 6758SOL     OW21172   5.859   2.458   2.273
 6758SOL    HW121173   5.794   2.533   2.287
 6758SOL    HW221174   5.809   2.374   2.255
 6759SOL     OW21175   0.560   3.331   3.082
 6759SOL    HW121176   0.517   3.372   3.162
 6759SOL    HW221177   0.520   3.370   2.999
 6760SOL     OW21178   5.124   2.646   2.801
 6760SOL    HW121179   5.049   2.684   2.855
 6760SOL    HW221180   5.201   2.711   2.802
 6761SOL     OW21181   4.682   2.047   4.643
 6761SOL    HW121182   4.600   2.005   4.604
 6761SOL    HW221183   4.733   2.093   4.571
 6762SOL     OW21184   6.916   5.908   4.252
 6762SOL    HW121185   6.855   5.943   4.180
 6762SOL    HW221186   6.920   5.973   4.327
 6763SOL     OW21187   4.918   5.359   5.253
 6763SOL    HW121188   4.992   5.365   5.319
 6763SOL    HW221189   4.840   5.412   5.285
 6764SOL     OW21190   2.001   5.745   1.357
 6764SOL    HW121191   1.981   5.829   1.306
 6764SOL    HW221192   1.998   5.667   1.294
 6765SOL     OW21193   6.517   5.131   2.734
 6765SOL    HW121194   6.602   5.112   2.782
 6765SOL    HW221195   6.445   5.071   2.770
 6766SOL     OW21196   5.218   0.294   0.579
 6766SOL    HW121197   5.178   0.385   0.574
 6766SOL    HW221198   5.259   0.270   0.491
 6767SOL     OW21199   2.768   0.998   0.355
 6767SOL    HW121200   2.711   1.077   0.332
 6767SOL    HW221201   2.771   0.935   0.277
 6768SOL     OW21202   1.560   0.722   0.966
 6768SOL    HW121203   1.469   0.765   0.973
 6768SOL    HW221204   1.618   0.756   1.040
 6769SOL     OW21205   4.356   2.509   1.738
 6769SOL    HW121206   4.295   2.587   1.747
 6769SOL    HW221207   4.306   2.431   1.700
 6770SOL     OW21208   6.788   0.237   2.252
 6770SOL    HW121209   6.783   0.275   2.159
 6770SOL    HW221210   6.788   0.137   2.246
 6771SOL     OW21211   4.033   2.082   2.939
 6771SOL    HW121212   4.114   2.032   2.970
 6771SOL    HW221213   3.975   2.104   3.017
 6772SOL     OW21214   3.103   1.969   2.707
 6772SOL    HW121215   3.004   1.969   2.715
 6772SOL    HW221216   3.136   1.875   2.698
 6773SOL     OW21217   6.915   4.251   2.226
 6773SOL    HW121218   6.881   4.215   2.313
 6773SOL    HW221219   6.996   4.200   2.198
 6774SOL     OW21220   0.731   2.554   6.621
 6774SOL    HW121221   0.721   2.479   6.686
 6774SOL    HW221222   0.667   2.627   6.645
 6775SOL     OW21223   2.635   4.394   1.058
 6775SOL    HW121224   2.622   4.423   0.963
 6775SOL    HW221225   2.703   4.453   1.101
 6776SOL     OW21226   5.761   5.216   6.983
 6776SOL    HW121227   5.753   5.237   6.886
 6776SOL    HW221228   5.689   5.265   0.009
 6777SOL     OW21229   4.562   4.606   6.158
 6777SOL    HW121230   4.560   4.559   6.246
 6777SOL    HW221231   4.631   4.563   6.099
 6778SOL     OW21232   0.989   4.937   3.061
 6778SOL    HW121233   0.969   4.979   2.973
 6778SOL    HW221234   1.010   5.009   3.128
 6779SOL     OW21235   0.338   4.628   0.576
 6779SOL    HW121236   0.333   4.707   0.516
 6779SOL    HW221237   0.434   4.607   0.595
 6780SOL     OW21238   0.565   2.768   2.835
 6780SOL    HW121239   0.510   2.836   2.883
 6780SOL    HW221240   0.571   2.792   2.738
 6781SOL     OW21241   5.138   6.014   5.936
 6781SOL    HW121242   5.110   5.957   5.859
 6781SOL    HW221243   5.066   6.015   6.005
 6782SOL     OW21244   6.833   1.395   2.833
 6782SOL    HW121245   6.751   1.340   2.847
 6782SOL    HW221246   6.825   1.480   2.884
 6783SOL     OW21247   6.913   6.450   6.665
 6783SOL    HW121248   6.955   6.465   6.575
 6783SOL    HW221249   6.986   6.436   6.733
 6784SOL     OW21250   4.252   4.110   0.048
 6784SOL    HW121251   4.222   4.160   0.129
 6784SOL    HW221252   4.240   4.012   0.063
 6785SOL     OW21253   5.879   5.725   1.927
 6785SOL    HW121254   5.850   5.788   1.998
 6785SOL    HW221255   5.844   5.633   1.948
 6786SOL     OW21256   1.396   2.785   6.479
 6786SOL    HW121257   1.382   2.687   6.469
 6786SOL    HW221258   1.439   2.803   6.568
 6787SOL     OW21259   1.620   3.957   1.905
 6787SOL    HW121260   1.536   3.904   1.916
 6787SOL    HW221261   1.699   3.897   1.917
 6788SOL     OW21262   3.209   3.742   1.550
 6788SOL    HW121263   3.183   3.818   1.491
 6788SOL    HW221264   3.128   3.702   1.591
 6789SOL     OW21265   1.210   6.850   2.333
 6789SOL    HW121266   1.304   6.838   2.365
 6789SOL    HW221267   1.171   6.932   2.376
 6790SOL     OW21268   1.892   2.980   0.111
 6790SOL    HW121269   1.903   3.057   0.048
 6790SOL    HW221270   1.957   2.908   0.087
 6791SOL     OW21271   4.616   2.858   6.876
 6791SOL    HW121272   4.569   2.812   6.951
 6791SOL    HW221273   4.627   2.955   6.898
 6792SOL     OW21274   5.936   6.534   0.089
 6792SOL    HW121275   6.021   6.493   0.057
 6792SOL    HW221276   5.858   6.482   0.053
 6793SOL     OW21277   1.486   2.439   1.056
 6793SOL    HW121278   1.440   2.373   1.116
 6793SOL    HW221279   1.584   2.438   1.076
 6794SOL     OW21280   4.722   0.952   4.489
 6794SOL    HW121281   4.808   0.902   4.480
 6794SOL    HW221282   4.666   0.910   4.561
 6795SOL     OW21283   2.855   5.858   0.522
 6795SOL    HW121284   2.852   5.764   0.555
 6795SOL    HW221285   2.847   5.921   0.599
 6796SOL     OW21286   5.441   1.259   2.741
 6796SOL    HW121287   5.435   1.293   2.835
 6796SOL    HW221288   5.351   1.266   2.697
 6797SOL     OW21289   5.875   3.579   2.213
 6797SOL    HW121290   5.901   3.541   2.124
 6797SOL    HW221291   5.778   3.603   2.212
 6798SOL     OW21292   5.489   5.793   2.427
 6798SOL    HW121293   5.449   5.816   2.515
 6798SOL    HW221294   5.437   5.718   2.386
 6799SOL     OW21295   5.058   5.783   0.243
 6799SOL    HW121296   5.042   5.754   0.337
 6799SOL    HW221297   5.151   5.816   0.233
 6800SOL     OW21298   1.938   4.719   0.227
 6800SOL    HW121299   1.857   4.715   0.168
 6800SOL    HW221300   1.977   4.627   0.237
 6801SOL     OW21301   1.833   2.556   2.302
 6801SOL    HW121302   1.812   2.650   2.329
 6801SOL    HW221303   1.930   2.549   2.278
 6802SOL     OW21304   2.090   6.496   1.125
 6802SOL    HW121305   2.017   6.542   1.176
 6802SOL    HW221306   2.140   6.435   1.186
 6803SOL     OW21307   5.102   2.204   6.237
 6803SOL    HW121308   5.129   2.115   6.200
 6803SOL    HW221309   5.182   2.249   6.277
 6804SOL     OW21310   1.864   5.831   3.335
 6804SOL    HW121311   1.945   5.849   3.391
 6804SOL    HW221312   1.890   5.830   3.238
 6805SOL     OW21313   6.057   0.248   4.920
 6805SOL    HW121314   6.137   0.302   4.944
 6805SOL    HW221315   6.085   0.158   4.887
 6806SOL     OW21316   4.035   1.190   4.542
 6806SOL    HW121317   4.112   1.126   4.547
 6806SOL    HW221318   4.057   1.273   4.593
 6807SOL     OW21319   3.046   3.037   0.103
 6807SOL    HW121320   3.091   2.951   0.078
 6807SOL    HW221321   2.961   3.047   0.051
 6808SOL     OW21322   6.969   2.694   5.050
 6808SOL    HW121323   6.985   2.741   4.962
 6808SOL    HW221324   6.980   2.760   5.124
 6809SOL     OW21325   2.409   4.081   6.601
 6809SOL    HW121326   2.435   4.078   6.698
 6809SOL    HW221327   2.466   4.148   6.553
 6810SOL     OW21328   0.104   0.687   2.561
 6810SOL    HW121329   0.196   0.668   2.593
 6810SOL    HW221330   0.058   0.750   2.624
 6811SOL     OW21331   6.207   4.985   0.908
 6811SOL    HW121332   6.306   4.994   0.896
 6811SOL    HW221333   6.186   4.895   0.946
 6812SOL     OW21334   4.007   3.470   3.082
 6812SOL    HW121335   4.089   3.439   3.033
 6812SOL    HW221336   4.028   3.482   3.179
 6813SOL     OW21337   4.738   2.174   0.934
 6813SOL    HW121338   4.720   2.272   0.927
 6813SOL    HW221339   4.727   2.132   0.844
 6814SOL     OW21340   2.611   3.385   1.194
 6814SOL    HW121341   2.583   3.395   1.290
 6814SOL    HW221342   2.562   3.451   1.138
 6815SOL     OW21343   2.655   0.232   1.866
 6815SOL    HW121344   2.597   0.264   1.941
 6815SOL    HW221345   2.600   0.176   1.803
 6816SOL     OW21346   6.696   4.978   6.900
 6816SOL    HW121347   6.682   4.950   6.805
 6816SOL    HW221348   6.671   4.904   6.961
 6817SOL     OW21349   6.664   1.779   5.744
 6817SOL    HW121350   6.747   1.739   5.704
 6817SOL    HW221351   6.663   1.878   5.728
 6818SOL     OW21352   3.524   6.586   2.241
 6818SOL    HW121353   3.573   6.672   2.252
 6818SOL    HW221354   3.562   6.518   2.304
 6819SOL     OW21355   3.250   0.750   3.806
 6819SOL    HW121356   3.304   0.666   3.813
 6819SOL    HW221357   3.157   0.728   3.778
 6820SOL     OW21358   1.155   4.247   3.401
 6820SOL    HW121359   1.162   4.236   3.500
 6820SOL    HW221360   1.090   4.320   3.380
 6821SOL     OW21361   2.410   2.346   5.116
 6821SOL    HW121362   2.315   2.378   5.117
 6821SOL    HW221363   2.462   2.399   5.050
 6822SOL     OW21364   5.537   1.776   6.066
 6822SOL    HW121365   5.544   1.787   5.967
 6822SOL    HW221366   5.441   1.775   6.092
 6823SOL     OW21367   3.322   3.349   3.333
 6823SOL    HW121368   3.328   3.272   3.269
 6823SOL    HW221369   3.409   3.358   3.381
 6824SOL     OW21370   0.469   4.114   6.570
 6824SOL    HW121371   0.491   4.058   6.491
 6824SOL    HW221372   0.546   4.112   6.634
 6825SOL     OW21373   5.325   0.223   2.220
 6825SOL    HW121374   5.270   0.196   2.141
 6825SOL    HW221375   5.269   0.223   2.303
 6826SOL     OW21376   2.164   3.437   2.717
 6826SOL    HW121377   2.168   3.381   2.634
 6826SOL    HW221378   2.148   3.378   2.796
 6827SOL     OW21379   5.533   5.574   6.445
 6827SOL    HW121380   5.569   5.632   6.373
 6827SOL    HW221381   5.469   5.627   6.502
 6828SOL     OW21382   1.224   2.482   1.444
 6828SOL    HW121383   1.194   2.452   1.534
 6828SOL    HW221384   1.167   2.440   1.374
 6829SOL     OW21385   5.172   6.328   3.760
 6829SOL    HW121386   5.271   6.342   3.759
 6829SOL    HW221387   5.146   6.275   3.841
 6830SOL     OW21388   5.238   1.667   3.315
 6830SOL    HW121389   5.319   1.633   3.364
 6830SOL    HW221390   5.156   1.643   3.366
 6831SOL     OW21391   0.891   0.853   5.747
 6831SOL    HW121392   0.920   0.766   5.786
 6831SOL    HW221393   0.836   0.835   5.665
 6832SOL     OW21394   2.826   4.783   2.294
 6832SOL    HW121395   2.795   4.749   2.205
 6832SOL    HW221396   2.898   4.851   2.281
 6833SOL     OW21397   3.768   4.637   0.052
 6833SOL    HW121398   3.689   4.685   0.013
 6833SOL    HW221399   3.764   4.641   0.152
 6834SOL     OW21400   4.268   6.651   1.978
 6834SOL    HW121401   4.248   6.605   1.891
 6834SOL    HW221402   4.210   6.614   2.050
 6835SOL     OW21403   3.833   6.799   4.622
 6835SOL    HW121404   3.814   6.711   4.579
 6835SOL    HW221405   3.779   6.808   4.706
 6836SOL     OW21406   3.378   6.497   0.298
 6836SOL    HW121407   3.365   6.575   0.360
 6836SOL    HW221408   3.423   6.423   0.347
 6837SOL     OW21409   1.922   3.612   1.726
 6837SOL    HW121410   1.829   3.577   1.712
 6837SOL    HW221411   1.988   3.538   1.715
 6838SOL     OW21412   2.149   1.326   0.033
 6838SOL    HW121413   2.116   1.411   0.074
 6838SOL    HW221414   2.122   1.322   6.961
 6839SOL     OW21415   4.543   1.184   0.845
 6839SOL    HW121416   4.602   1.250   0.891
 6839SOL    HW221417   4.497   1.127   0.913
 6840SOL     OW21418   2.070   1.383   6.360
 6840SOL    HW121419   2.070   1.286   6.337
 6840SOL    HW221420   2.076   1.438   6.277
 6841SOL     OW21421   6.610   2.965   6.245
 6841SOL    HW121422   6.699   2.966   6.198
 6841SOL    HW221423   6.615   3.024   6.326
 6842SOL     OW21424   2.018   5.198   2.063
 6842SOL    HW121425   1.963   5.276   2.032
 6842SOL    HW221426   2.055   5.149   1.983
 6843SOL     OW21427   5.233   6.401   6.789
 6843SOL    HW121428   5.147   6.363   6.823
 6843SOL    HW221429   5.298   6.327   6.772
 6844SOL     OW21430   4.786   0.650   4.283
 6844SOL    HW121431   4.779   0.573   4.347
 6844SOL    HW221432   4.812   0.615   4.193
 6845SOL     OW21433   4.919   2.759   2.948
 6845SOL    HW121434   4.878   2.800   2.866
 6845SOL    HW221435   4.849   2.711   3.000
 6846SOL     OW21436   2.767   3.811   0.511
 6846SOL    HW121437   2.776   3.873   0.433
 6846SOL    HW221438   2.839   3.830   0.578
 6847SOL     OW21439   5.925   4.117   4.400
 6847SOL    HW121440   5.930   4.049   4.473
 6847SOL    HW221441   5.872   4.195   4.431
 6848SOL     OW21442   4.830   4.541   3.503
 6848SOL    HW121443   4.899   4.559   3.574
 6848SOL    HW221444   4.804   4.627   3.460
 6849SOL     OW21445   3.637   3.609   6.457
 6849SOL    HW121446   3.713   3.556   6.497
 6849SOL    HW221447   3.643   3.704   6.489
 6850SOL     OW21448   3.886   1.524   3.203
 6850SOL    HW121449   3.917   1.606   3.252
 6850SOL    HW221450   3.965   1.476   3.166
 6851SOL     OW21451   1.934   3.182   3.440
 6851SOL    HW121452   2.015   3.218   3.394
 6851SOL    HW221453   1.907   3.244   3.514
 6852SOL     OW21454   2.605   5.262   0.390
 6852SOL    HW121455   2.532   5.192   0.388
 6852SOL    HW221456   2.689   5.221   0.425
 6853SOL     OW21457   5.306   2.766   6.384
 6853SOL    HW121458   5.230   2.737   6.443
 6853SOL    HW221459   5.269   2.801   6.297
 6854SOL     OW21460   5.546   6.186   6.072
 6854SOL    HW121461   5.522   6.132   6.153
 6854SOL    HW221462   5.475   6.175   6.003
 6855SOL     OW21463   3.817   4.865   3.213
 6855SOL    HW121464   3.834   4.794   3.281
 6855SOL    HW221465   3.738   4.920   3.242
 6856SOL     OW21466   1.044   2.037   0.055
 6856SOL    HW121467   1.068   1.964   0.119
 6856SOL    HW221468   1.106   2.114   0.067
 6857SOL     OW21469   1.020   3.907   5.733
 6857SOL    HW121470   1.079   3.959   5.671
 6857SOL    HW221471   0.996   3.965   5.812
 6858SOL     OW21472   3.066   4.130   1.641
 6858SOL    HW121473   2.971   4.158   1.651
 6858SOL    HW221474   3.092   4.072   1.718
 6859SOL     OW21475   0.615   1.227   2.681
 6859SOL    HW121476   0.696   1.229   2.621
 6859SOL    HW221477   0.543   1.283   2.641
 6860SOL     OW21478   0.697   6.602   1.807
 6860SOL    HW121479   0.736   6.609   1.715
 6860SOL    HW221480   0.751   6.659   1.870
 6861SOL     OW21481   4.797   2.783   5.201
 6861SOL    HW121482   4.805   2.778   5.300
 6861SOL    HW221483   4.810   2.877   5.170
 6862SOL     OW21484   0.508   4.933   5.706
 6862SOL    HW121485   0.566   4.972   5.635
 6862SOL    HW221486   0.451   5.005   5.747
 6863SOL     OW21487   6.702   0.038   4.997
 6863SOL    HW121488   6.702   6.985   5.060
 6863SOL    HW221489   6.614   0.041   4.948
 6864SOL     OW21490   1.501   3.730   5.301
 6864SOL    HW121491   1.512   3.694   5.394
 6864SOL    HW221492   1.543   3.821   5.296
 6865SOL     OW21493   1.893   0.058   4.569
 6865SOL    HW121494   1.922   0.131   4.631
 6865SOL    HW221495   1.809   0.016   4.603
 6866SOL     OW21496   0.294   4.410   1.807
 6866SOL    HW121497   0.278   4.335   1.871
 6866SOL    HW221498   0.238   4.489   1.832
 6867SOL     OW21499   2.000   3.324   0.425
 6867SOL    HW121500   1.965   3.388   0.493
 6867SOL    HW221501   2.023   3.374   0.341
 6868SOL     OW21502   2.512   5.088   4.899
 6868SOL    HW121503   2.565   5.066   4.981
 6868SOL    HW221504   2.568   5.142   4.836
 6869SOL     OW21505   3.568   0.159   6.134
 6869SOL    HW121506   3.473   0.190   6.137
 6869SOL    HW221507   3.587   0.118   6.045
 6870SOL     OW21508   0.225   2.869   0.538
 6870SOL    HW121509   0.198   2.963   0.517
 6870SOL    HW221510   0.172   2.835   0.616
 6871SOL     OW21511   0.361   3.872   2.754
 6871SOL    HW121512   0.390   3.892   2.848
 6871SOL    HW221513   0.296   3.796   2.755
 6872SOL     OW21514   2.224   2.718   1.333
 6872SOL    HW121515   2.301   2.677   1.285
 6872SOL    HW221516   2.245   2.726   1.430
 6873SOL     OW21517   0.983   3.973   4.895
 6873SOL    HW121518   1.058   3.982   4.829
 6873SOL    HW221519   0.906   3.927   4.851
 6874SOL     OW21520   5.599   6.230   2.890
 6874SOL    HW121521   5.604   6.156   2.957
 6874SOL    HW221522   5.629   6.197   2.801
 6875SOL     OW21523   1.369   2.841   1.254
 6875SOL    HW121524   1.341   2.857   1.160
 6875SOL    HW221525   1.454   2.788   1.255
 6876SOL     OW21526   4.461   5.525   3.133
 6876SOL    HW121527   4.389   5.478   3.184
 6876SOL    HW221528   4.457   5.497   3.037
 6877SOL     OW21529   1.471   3.511   2.360
 6877SOL    HW121530   1.497   3.498   2.456
 6877SOL    HW221531   1.503   3.434   2.306
 6878SOL     OW21532   2.168   0.445   4.156
 6878SOL    HW121533   2.114   0.386   4.098
 6878SOL    HW221534   2.191   0.529   4.107
 6879SOL     OW21535   2.139   1.762   0.311
 6879SOL    HW121536   2.188   1.839   0.353
 6879SOL    HW221537   2.203   1.710   0.254
 6880SOL     OW21538   1.587   5.615   6.721
 6880SOL    HW121539   1.651   5.549   6.759
 6880SOL    HW221540   1.552   5.674   6.794
 6881SOL     OW21541   1.166   3.233   0.799
 6881SOL    HW121542   1.117   3.168   0.857
 6881SOL    HW221543   1.252   3.192   0.769
 6882SOL     OW21544   2.809   6.651   0.073
 6882SOL    HW121545   2.908   6.643   0.070
 6882SOL    HW221546   2.776   6.622   0.163
 6883SOL     OW21547   5.011   0.040   6.744
 6883SOL    HW121548   5.014   7.012   6.829
 6883SOL    HW221549   4.965   0.128   6.760
 6884SOL     OW21550   1.993   4.027   2.856
 6884SOL    HW121551   2.089   4.013   2.883
 6884SOL    HW221552   1.970   3.961   2.784
 6885SOL     OW21553   5.573   6.158   4.273
 6885SOL    HW121554   5.638   6.212   4.327
 6885SOL    HW221555   5.502   6.218   4.238
 6886SOL     OW21556   4.750   1.711   6.343
 6886SOL    HW121557   4.808   1.640   6.302
 6886SOL    HW221558   4.771   1.719   6.440
 6887SOL     OW21559   5.203   5.900   6.220
 6887SOL    HW121560   5.200   5.852   6.132
 6887SOL    HW221561   5.138   5.858   6.283
 6888SOL     OW21562   5.836   5.113   6.476
 6888SOL    HW121563   5.818   5.210   6.462
 6888SOL    HW221564   5.753   5.060   6.457
 6889SOL     OW21565   0.916   2.901   0.054
 6889SOL    HW121566   0.878   2.985   0.093
 6889SOL    HW221567   0.988   2.924   7.013
 6890SOL     OW21568   4.095   5.358   2.430
 6890SOL    HW121569   4.134   5.343   2.339
 6890SOL    HW221570   4.132   5.442   2.469
 6891SOL     OW21571   2.033   1.556   1.203
 6891SOL    HW121572   2.113   1.599   1.243
 6891SOL    HW221573   1.959   1.552   1.271
 6892SOL     OW21574   3.528   0.882   4.157
 6892SOL    HW121575   3.538   0.981   4.151
 6892SOL    HW221576   3.618   0.839   4.148
 6893SOL     OW21577   6.697   2.729   6.865
 6893SOL    HW121578   6.723   2.811   6.917
 6893SOL    HW221579   6.682   2.653   6.929
 6894SOL     OW21580   5.785   5.315   0.672
 6894SOL    HW121581   5.735   5.231   0.688
 6894SOL    HW221582   5.814   5.354   0.760
 6895SOL     OW21583   1.146   6.216   1.562
 6895SOL    HW121584   1.240   6.245   1.576
 6895SOL    HW221585   1.087   6.296   1.551
 6896SOL     OW21586   4.599   2.343   4.798
 6896SOL    HW121587   4.697   2.357   4.786
 6896SOL    HW221588   4.579   2.245   4.804
 6897SOL     OW21589   5.360   3.958   5.327
 6897SOL    HW121590   5.460   3.958   5.336
 6897SOL    HW221591   5.335   4.007   5.243
 6898SOL     OW21592   2.164   1.369   1.025
 6898SOL    HW121593   2.123   1.438   1.084
 6898SOL    HW221594   2.262   1.383   1.019
 6899SOL     OW21595   6.140   6.083   2.944
 6899SOL    HW121596   6.177   6.172   2.973
 6899SOL    HW221597   6.042   6.092   2.929
 6900SOL     OW21598   6.452   4.481   5.782
 6900SOL    HW121599   6.432   4.552   5.849
 6900SOL    HW221600   6.525   4.511   5.721
 6901SOL     OW21601   4.571   4.254   6.711
 6901SOL    HW121602   4.501   4.298   6.767
 6901SOL    HW221603   4.528   4.188   6.649
 6902SOL     OW21604   0.717   6.024   6.496
 6902SOL    HW121605   0.653   6.091   6.458
 6902SOL    HW221606   0.699   5.934   6.457
 6903SOL     OW21607   2.559   5.060   4.559
 6903SOL    HW121608   2.469   5.073   4.599
 6903SOL    HW221609   2.550   5.029   4.464
 6904SOL     OW21610   0.069   6.530   4.678
 6904SOL    HW121611   0.108   6.521   4.770
 6904SOL    HW221612   6.995   6.510   4.681
 6905SOL     OW21613   5.108   5.665   5.961
 6905SOL    HW121614   5.114   5.692   5.865
 6905SOL    HW221615   5.048   5.729   6.009
 6906SOL     OW21616   3.853   1.582   3.597
 6906SOL    HW121617   3.757   1.556   3.611
 6906SOL    HW221618   3.856   1.669   3.547
 6907SOL     OW21619   6.027   1.451   1.051
 6907SOL    HW121620   5.952   1.442   0.985
 6907SOL    HW221621   6.092   1.376   1.038
 6908SOL     OW21622   2.657   4.352   0.164
 6908SOL    HW121623   2.707   4.316   0.243
 6908SOL    HW221624   2.694   4.312   0.080
 6909SOL     OW21625   5.802   5.524   2.103
 6909SOL    HW121626   5.861   5.450   2.133
 6909SOL    HW221627   5.710   5.511   2.142
 6910SOL     OW21628   1.603   2.899   3.695
 6910SOL    HW121629   1.539   2.953   3.640
 6910SOL    HW221630   1.607   2.805   3.659
 6911SOL     OW21631   2.665   0.089   5.917
 6911SOL    HW121632   2.737   0.089   5.986
 6911SOL    HW221633   2.660   0.179   5.874
 6912SOL     OW21634   2.075   3.322   5.889
 6912SOL    HW121635   2.140   3.261   5.843
 6912SOL    HW221636   2.090   3.416   5.858
 6913SOL     OW21637   4.506   5.978   6.094
 6913SOL    HW121638   4.474   6.055   6.040
 6913SOL    HW221639   4.601   5.995   6.123
 6914SOL     OW21640   6.730   3.559   1.641
 6914SOL    HW121641   6.721   3.589   1.736
 6914SOL    HW221642   6.673   3.479   1.626
 6915SOL     OW21643   0.997   3.307   2.685
 6915SOL    HW121644   1.039   3.279   2.771
 6915SOL    HW221645   0.898   3.291   2.689
 6916SOL     OW21646   4.299   6.275   0.140
 6916SOL    HW121647   4.334   6.341   0.073
 6916SOL    HW221648   4.238   6.211   0.094
 6917SOL     OW21649   5.744   5.627   1.452
 6917SOL    HW121650   5.699   5.565   1.518
 6917SOL    HW221651   5.759   5.578   1.366
 6918SOL     OW21652   1.982   3.212   1.781
 6918SOL    HW121653   1.921   3.244   1.853
 6918SOL    HW221654   2.035   3.289   1.745
 6919SOL     OW21655   6.570   6.255   2.953
 6919SOL    HW121656   6.530   6.275   3.042
 6919SOL    HW221657   6.591   6.158   2.946
 6920SOL     OW21658   5.356   0.571   5.450
 6920SOL    HW121659   5.276   0.632   5.452
 6920SOL    HW221660   5.405   0.578   5.537
 6921SOL     OW21661   3.681   0.047   4.202
 6921SOL    HW121662   3.654   0.143   4.197
 6921SOL    HW221663   3.768   0.034   4.154
 6922SOL     OW21664   1.099   5.585   5.822
 6922SOL    HW121665   1.031   5.606   5.752
 6922SOL    HW221666   1.131   5.671   5.864
 6923SOL     OW21667   6.147   6.938   2.416
 6923SOL    HW121668   6.194   6.858   2.378
 6923SOL    HW221669   6.215   7.005   2.445
 6924SOL     OW21670   3.647   6.617   0.565
 6924SOL    HW121671   3.691   6.692   0.516
 6924SOL    HW221672   3.631   6.541   0.502
 6925SOL     OW21673   6.011   5.868   6.214
 6925SOL    HW121674   5.929   5.869   6.158
 6925SOL    HW221675   5.992   5.820   6.300
 6926SOL     OW21676   2.731   1.969   0.240
 6926SOL    HW121677   2.701   1.967   0.336
 6926SOL    HW221678   2.657   1.938   0.181
 6927SOL     OW21679   4.757   0.640   0.449
 6927SOL    HW121680   4.699   0.591   0.514
 6927SOL    HW221681   4.746   0.600   0.358
 6928SOL     OW21682   4.592   4.919   0.881
 6928SOL    HW121683   4.594   5.016   0.858
 6928SOL    HW221684   4.524   4.903   0.953
 6929SOL     OW21685   6.027   5.556   1.151
 6929SOL    HW121686   6.029   5.566   1.052
 6929SOL    HW221687   6.063   5.639   1.193
 6930SOL     OW21688   0.640   0.520   0.438
 6930SOL    HW121689   0.658   0.468   0.522
 6930SOL    HW221690   0.702   0.598   0.433
 6931SOL     OW21691   2.496   2.683   1.258
 6931SOL    HW121692   2.520   2.778   1.277
 6931SOL    HW221693   2.562   2.622   1.302
 6932SOL     OW21694   4.555   5.272   0.182
 6932SOL    HW121695   4.482   5.204   0.179
 6932SOL    HW221696   4.536   5.339   0.253
 6933SOL     OW21697   2.929   5.575   6.577
 6933SOL    HW121698   2.850   5.596   6.520
 6933SOL    HW221699   2.933   5.477   6.594
 6934SOL     OW21700   5.240   3.944   6.498
 6934SOL    HW121701   5.150   3.912   6.469
 6934SOL    HW221702   5.281   3.999   6.424
 6935SOL     OW21703   5.567   5.202   1.566
 6935SOL    HW121704   5.520   5.155   1.491
 6935SOL    HW221705   5.551   5.153   1.652
 6936SOL     OW21706   1.043   1.981   4.807
 6936SOL    HW121707   1.090   2.050   4.862
 6936SOL    HW221708   1.110   1.919   4.767
 6937SOL     OW21709   5.616   5.499   0.319
 6937SOL    HW121710   5.534   5.555   0.331
 6937SOL    HW221711   5.610   5.418   0.376
 6938SOL     OW21712   1.059   0.582   4.930
 6938SOL    HW121713   1.083   0.545   4.840
 6938SOL    HW221714   1.048   0.681   4.923
 6939SOL     OW21715   6.039   4.654   3.621
 6939SOL    HW121716   6.054   4.735   3.677
 6939SOL    HW221717   5.948   4.617   3.639
 6940SOL     OW21718   3.999   6.792   0.963
 6940SOL    HW121719   3.951   6.864   0.912
 6940SOL    HW221720   4.097   6.808   0.961
 6941SOL     OW21721   3.676   3.206   2.400
 6941SOL    HW121722   3.634   3.217   2.491
 6941SOL    HW221723   3.681   3.109   2.378
 6942SOL     OW21724   6.169   6.889   1.780
 6942SOL    HW121725   6.266   6.871   1.794
 6942SOL    HW221726   6.135   6.949   1.853
 6943SOL     OW21727   4.148   4.810   6.478
 6943SOL    HW121728   4.174   4.903   6.502
 6943SOL    HW221729   4.075   4.811   6.410
 6944SOL     OW21730   1.125   4.068   5.297
 6944SOL    HW121731   1.180   4.070   5.214
 6944SOL    HW221732   1.123   3.976   5.335
 6945SOL     OW21733   5.421   2.455   1.033
 6945SOL    HW121734   5.415   2.355   1.038
 6945SOL    HW221735   5.482   2.481   0.958
 6946SOL     OW21736   4.670   5.838   2.307
 6946SOL    HW121737   4.756   5.889   2.306
 6946SOL    HW221738   4.671   5.773   2.384
 6947SOL     OW21739   4.911   5.264   5.569
 6947SOL    HW121740   5.000   5.219   5.576
 6947SOL    HW221741   4.843   5.197   5.539
 6948SOL     OW21742   0.553   4.884   0.166
 6948SOL    HW121743   0.575   4.788   0.151
 6948SOL    HW221744   0.539   4.929   0.078
 6949SOL     OW21745   2.615   2.161   3.984
 6949SOL    HW121746   2.552   2.091   4.019
 6949SOL    HW221747   2.707   2.143   4.020
 6950SOL     OW21748   0.618   0.154   5.032
 6950SOL    HW121749   0.634   0.061   5.001
 6950SOL    HW221750   0.696   0.212   5.009
 6951SOL     OW21751   0.072   5.082   6.457
 6951SOL    HW121752   0.105   5.169   6.492
 6951SOL    HW221753   7.019   5.051   6.513
 6952SOL     OW21754   3.675   5.353   2.713
 6952SOL    HW121755   3.719   5.357   2.623
 6952SOL    HW221756   3.596   5.292   2.708
 6953SOL     OW21757   4.794   1.096   1.307
 6953SOL    HW121758   4.791   1.195   1.291
 6953SOL    HW221759   4.888   1.064   1.304
 6954SOL     OW21760   6.475   3.545   0.312
 6954SOL    HW121761   6.561   3.551   0.262
 6954SOL    HW221762   6.473   3.461   0.366
 6955SOL     OW21763   4.881   6.780   2.411
 6955SOL    HW121764   4.981   6.777   2.410
 6955SOL    HW221765   4.849   6.842   2.339
 6956SOL     OW21766   5.321   5.649   2.311
 6956SOL    HW121767   5.255   5.591   2.357
 6956SOL    HW221768   5.281   5.685   2.227
 6957SOL     OW21769   5.293   5.339   6.274
 6957SOL    HW121770   5.278   5.275   6.198
 6957SOL    HW221771   5.208   5.352   6.324
 6958SOL     OW21772   2.987   3.216   3.861
 6958SOL    HW121773   2.933   3.268   3.794
 6958SOL    HW221774   3.073   3.265   3.880
 6959SOL     OW21775   1.253   4.022   2.894
 6959SOL    HW121776   1.252   4.009   2.993
 6959SOL    HW221777   1.164   3.999   2.857
 6960SOL     OW21778   2.780   4.887   0.407
 6960SOL    HW121779   2.703   4.830   0.436
 6960SOL    HW221780   2.861   4.863   0.460
 6961SOL     OW21781   4.434   2.133   5.788
 6961SOL    HW121782   4.493   2.178   5.721
 6961SOL    HW221783   4.338   2.148   5.764
 6962SOL     OW21784   2.973   6.665   6.181
 6962SOL    HW121785   3.045   6.731   6.200
 6962SOL    HW221786   3.013   6.573   6.173
 6963SOL     OW21787   5.039   6.473   0.896
 6963SOL    HW121788   4.977   6.520   0.834
 6963SOL    HW221789   5.133   6.504   0.880
 6964SOL     OW21790   1.522   0.103   5.758
 6964SOL    HW121791   1.588   0.177   5.760
 6964SOL    HW221792   1.549   0.036   5.688
 6965SOL     OW21793   0.419   1.749   6.932
 6965SOL    HW121794   0.496   1.812   6.927
 6965SOL    HW221795   0.333   1.800   6.919
 6966SOL     OW21796   1.343   0.279   1.674
 6966SOL    HW121797   1.363   0.373   1.646
 6966SOL    HW221798   1.291   0.280   1.759
 6967SOL     OW21799   4.389   1.098   5.971
 6967SOL    HW121800   4.317   1.094   5.902
 6967SOL    HW221801   4.436   1.186   5.965
 6968SOL     OW21802   3.853   6.422   2.565
 6968SOL    HW121803   3.909   6.505   2.576
 6968SOL    HW221804   3.893   6.349   2.620
 6969SOL     OW21805   2.078   1.874   1.925
 6969SOL    HW121806   2.101   1.778   1.910
 6969SOL    HW221807   2.160   1.930   1.918
 6970SOL     OW21808   3.696   4.497   6.106
 6970SOL    HW121809   3.627   4.451   6.049
 6970SOL    HW221810   3.713   4.443   6.188
 6971SOL     OW21811   0.379   4.285   0.499
 6971SOL    HW121812   0.349   4.222   0.571
 6971SOL    HW221813   0.303   4.344   0.472
 6972SOL     OW21814   5.204   3.723   2.220
 6972SOL    HW121815   5.117   3.683   2.189
 6972SOL    HW221816   5.254   3.656   2.275
 6973SOL     OW21817   1.234   3.338   3.512
 6973SOL    HW121818   1.279   3.251   3.532
 6973SOL    HW221819   1.293   3.414   3.540
 6974SOL     OW21820   3.694   3.698   2.612
 6974SOL    HW121821   3.735   3.787   2.632
 6974SOL    HW221822   3.717   3.633   2.684
 6975SOL     OW21823   3.106   5.760   4.890
 6975SOL    HW121824   3.115   5.780   4.793
 6975SOL    HW221825   3.018   5.717   4.908
 6976SOL     OW21826   5.004   4.088   6.030
 6976SOL    HW121827   5.068   4.114   5.957
 6976SOL    HW221828   5.009   4.156   6.103
 6977SOL     OW21829   3.871   4.679   1.174
 6977SOL    HW121830   3.859   4.775   1.151
 6977SOL    HW221831   3.814   4.623   1.115
 6978SOL     OW21832   5.572   3.879   1.946
 6978SOL    HW121833   5.593   3.915   1.855
 6978SOL    HW221834   5.477   3.900   1.969
 6979SOL     OW21835   1.246   4.042   1.808
 6979SOL    HW121836   1.281   4.122   1.857
 6979SOL    HW221837   1.258   3.960   1.865
 6980SOL     OW21838   1.489   6.111   2.901
 6980SOL    HW121839   1.430   6.134   2.978
 6980SOL    HW221840   1.553   6.187   2.885
 6981SOL     OW21841   3.595   3.219   6.678
 6981SOL    HW121842   3.602   3.292   6.745
 6981SOL    HW221843   3.501   3.186   6.674
 6982SOL     OW21844   1.881   0.745   3.530
 6982SOL    HW121845   1.833   0.793   3.604
 6982SOL    HW221846   1.978   0.768   3.533
 6983SOL     OW21847   4.877   0.455   4.065
 6983SOL    HW121848   4.842   0.372   4.021
 6983SOL    HW221849   4.962   0.483   4.020
 6984SOL     OW21850   0.446   2.780   3.357
 6984SOL    HW121851   0.369   2.729   3.318
 6984SOL    HW221852   0.435   2.785   3.457
 6985SOL     OW21853   6.424   3.188   0.253
 6985SOL    HW121854   6.381   3.230   0.173
 6985SOL    HW221855   6.499   3.129   0.223
 6986SOL     OW21856   3.995   4.902   5.665
 6986SOL    HW121857   4.033   4.813   5.690
 6986SOL    HW221858   3.948   4.941   5.743
 6987SOL     OW21859   0.892   1.825   6.005
 6987SOL    HW121860   0.894   1.848   6.103
 6987SOL    HW221861   0.797   1.829   5.972
 6988SOL     OW21862   3.368   1.408   6.560
 6988SOL    HW121863   3.317   1.323   6.549
 6988SOL    HW221864   3.380   1.428   6.657
 6989SOL     OW21865   0.066   5.498   2.820
 6989SOL    HW121866   7.016   5.431   2.811
 6989SOL    HW221867   0.048   5.556   2.900
 6990SOL     OW21868   3.512   2.354   1.631
 6990SOL    HW121869   3.569   2.389   1.557
 6990SOL    HW221870   3.562   2.364   1.718
 6991SOL     OW21871   6.002   3.828   2.296
 6991SOL    HW121872   5.999   3.860   2.391
 6991SOL    HW221873   5.950   3.743   2.288
 6992SOL     OW21874   0.630   6.710   0.158
 6992SOL    HW121875   0.552   6.767   0.181
 6992SOL    HW221876   0.669   6.671   0.242
 6993SOL     OW21877   4.696   1.170   1.721
 6993SOL    HW121878   4.613   1.192   1.772
 6993SOL    HW221879   4.670   1.137   1.630
 6994SOL     OW21880   2.271   0.034   3.694
 6994SOL    HW121881   2.318   0.078   3.618
 6994SOL    HW221882   2.282   0.089   3.777
 6995SOL     OW21883   0.258   3.751   1.313
 6995SOL    HW121884   0.219   3.704   1.392
 6995SOL    HW221885   0.237   3.700   1.230
 6996SOL     OW21886   0.800   1.625   6.992
 6996SOL    HW121887   0.773   1.712   6.950
 6996SOL    HW221888   0.799   1.634   0.067
 6997SOL     OW21889   6.005   5.393   5.308
 6997SOL    HW121890   6.055   5.346   5.382
 6997SOL    HW221891   6.011   5.338   5.225
 6998SOL     OW21892   6.644   1.441   0.108
 6998SOL    HW121893   6.723   1.434   0.047
 6998SOL    HW221894   6.643   1.532   0.150
 6999SOL     OW21895   0.581   3.535   0.655
 6999SOL    HW121896   0.490   3.571   0.673
 6999SOL    HW221897   0.585   3.439   0.682
 7000SOL     OW21898   6.734   6.849   2.870
 7000SOL    HW121899   6.756   6.883   2.778
 7000SOL    HW221900   6.756   6.919   2.937
 7001SOL     OW21901   0.816   1.633   4.355
 7001SOL    HW121902   0.766   1.649   4.270
 7001SOL    HW221903   0.753   1.633   4.432
 7002SOL     OW21904   6.811   5.713   2.674
 7002SOL    HW121905   6.862   5.794   2.647
 7002SOL    HW221906   6.720   5.740   2.705
 7003SOL     OW21907   6.438   4.881   1.176
 7003SOL    HW121908   6.434   4.810   1.106
 7003SOL    HW221909   6.410   4.969   1.138
 7004SOL     OW21910   2.172   6.169   0.266
 7004SOL    HW121911   2.105   6.116   0.213
 7004SOL    HW221912   2.265   6.138   0.242
 7005SOL     OW21913   0.969   6.866   7.020
 7005SOL    HW121914   1.030   6.853   6.942
 7005SOL    HW221915   0.906   6.789   0.002
 7006SOL     OW21916   0.986   0.214   4.553
 7006SOL    HW121917   0.946   0.243   4.467
 7006SOL    HW221918   1.076   0.257   4.565
 7007SOL     OW21919   3.392   0.082   5.247
 7007SOL    HW121920   3.487   0.062   5.271
 7007SOL    HW221921   3.334   0.064   5.326
 7008SOL     OW21922   6.141   4.236   3.671
 7008SOL    HW121923   6.098   4.228   3.581
 7008SOL    HW221924   6.170   4.330   3.686
 7009SOL     OW21925   4.368   5.517   1.269
 7009SOL    HW121926   4.396   5.443   1.330
 7009SOL    HW221927   4.388   5.493   1.174
 7010SOL     OW21928   5.382   4.185   1.993
 7010SOL    HW121929   5.368   4.091   2.023
 7010SOL    HW221930   5.442   4.186   1.912
 7011SOL     OW21931   3.154   5.936   0.111
 7011SOL    HW121932   3.117   5.908   0.022
 7011SOL    HW221933   3.089   5.998   0.156
 7012SOL     OW21934   6.780   2.159   0.276
 7012SOL    HW121935   6.719   2.086   0.245
 7012SOL    HW221936   6.808   2.141   0.370
 7013SOL     OW21937   2.447   1.491   6.906
 7013SOL    HW121938   2.478   1.398   6.883
 7013SOL    HW221939   2.446   1.546   6.823
 7014SOL     OW21940   6.337   3.257   1.647
 7014SOL    HW121941   6.352   3.169   1.694
 7014SOL    HW221942   6.253   3.299   1.681
 7015SOL     OW21943   5.263   5.870   0.876
 7015SOL    HW121944   5.317   5.814   0.939
 7015SOL    HW221945   5.194   5.921   0.927
 7016SOL     OW21946   3.478   4.910   0.332
 7016SOL    HW121947   3.485   4.955   0.243
 7016SOL    HW221948   3.382   4.894   0.354
 7017SOL     OW21949   4.808   5.245   4.116
 7017SOL    HW121950   4.780   5.331   4.072
 7017SOL    HW221951   4.904   5.227   4.094
 7018SOL     OW21952   4.886   3.307   4.151
 7018SOL    HW121953   4.943   3.281   4.230
 7018SOL    HW221954   4.873   3.227   4.092
 7019SOL     OW21955   5.191   4.942   1.916
 7019SOL    HW121956   5.175   4.870   1.983
 7019SOL    HW221957   5.113   4.947   1.853
 7020SOL     OW21958   0.715   2.856   6.454
 7020SOL    HW121959   0.720   2.843   6.553
 7020SOL    HW221960   0.652   2.788   6.415
 7021SOL     OW21961   0.945   2.083   5.421
 7021SOL    HW121962   0.979   2.157   5.362
 7021SOL    HW221963   1.008   2.071   5.499
 7022SOL     OW21964   3.704   1.455   0.668
 7022SOL    HW121965   3.608   1.481   0.673
 7022SOL    HW221966   3.752   1.491   0.748
 7023SOL     OW21967   0.599   2.128   1.228
 7023SOL    HW121968   0.547   2.043   1.237
 7023SOL    HW221969   0.578   2.188   1.304
 7024SOL     OW21970   3.959   3.274   3.670
 7024SOL    HW121971   3.972   3.216   3.750
 7024SOL    HW221972   3.862   3.288   3.653
 7025SOL     OW21973   3.903   6.691   0.355
 7025SOL    HW121974   3.842   6.706   0.277
 7025SOL    HW221975   3.952   6.776   0.376
 7026SOL     OW21976   3.771   2.303   1.143
 7026SOL    HW121977   3.755   2.275   1.048
 7026SOL    HW221978   3.858   2.353   1.148
 7027SOL     OW21979   2.153   5.038   1.860
 7027SOL    HW121980   2.201   5.068   1.778
 7027SOL    HW221981   2.205   4.964   1.903
 7028SOL     OW21982   3.320   7.007   3.299
 7028SOL    HW121983   3.357   6.915   3.288
 7028SOL    HW221984   3.330   0.034   3.214
 7029SOL     OW21985   3.365   3.454   5.112
 7029SOL    HW121986   3.359   3.551   5.134
 7029SOL    HW221987   3.429   3.441   5.036
 7030SOL     OW21988   6.220   1.577   5.258
 7030SOL    HW121989   6.165   1.565   5.175
 7030SOL    HW221990   6.160   1.570   5.338
 7031SOL     OW21991   4.452   6.990   0.495
 7031SOL    HW121992   4.525   6.928   0.524
 7031SOL    HW221993   4.364   6.953   0.525
 7032SOL     OW21994   3.634   6.466   4.807
 7032SOL    HW121995   3.731   6.484   4.828
 7032SOL    HW221996   3.588   6.435   4.890
 7033SOL     OW21997   1.527   1.913   5.243
 7033SOL    HW121998   1.494   1.937   5.334
 7033SOL    HW221999   1.512   1.990   5.181
 7034SOL     OW22000   6.732   1.526   3.219
 7034SOL    HW122001   6.810   1.558   3.273
 7034SOL    HW222002   6.652   1.516   3.279
 7035SOL     OW22003   1.758   0.555   0.853
 7035SOL    HW122004   1.684   0.609   0.893
 7035SOL    HW222005   1.816   0.615   0.797
 7036SOL     OW22006   0.226   1.246   2.046
 7036SOL    HW122007   0.200   1.257   2.142
 7036SOL    HW222008   0.155   1.286   1.988
 7037SOL     OW22009   0.861   0.583   6.134
 7037SOL    HW122010   0.807   0.609   6.054
 7037SOL    HW222011   0.874   0.662   6.193
 7038SOL     OW22012   1.482   3.121   6.484
 7038SOL    HW122013   1.450   3.027   6.493
 7038SOL    HW222014   1.505   3.157   6.574
 7039SOL     OW22015   0.239   6.030   2.934
 7039SOL    HW122016   0.336   6.050   2.929
 7039SOL    HW222017   0.207   5.993   2.847
 7040SOL     OW22018   4.548   2.471   5.361
 7040SOL    HW122019   4.516   2.448   5.269
 7040SOL    HW222020   4.581   2.565   5.362
 7041SOL     OW22021   1.651   0.328   3.695
 7041SOL    HW122022   1.663   0.234   3.663
 7041SOL    HW222023   1.564   0.335   3.743
 7042SOL     OW22024   4.444   6.084   5.361
 7042SOL    HW122025   4.424   6.048   5.452
 7042SOL    HW222026   4.406   6.177   5.353
 7043SOL     OW22027   2.088   4.398   2.374
 7043SOL    HW122028   2.011   4.405   2.311
 7043SOL    HW222029   2.091   4.480   2.432
 7044SOL     OW22030   5.119   6.344   4.054
 7044SOL    HW122031   5.152   6.415   4.117
 7044SOL    HW222032   5.101   6.260   4.105
 7045SOL     OW22033   6.210   6.053   2.572
 7045SOL    HW122034   6.119   6.014   2.588
 7045SOL    HW222035   6.217   6.082   2.476
 7046SOL     OW22036   3.015   2.197   4.566
 7046SOL    HW122037   2.962   2.115   4.546
 7046SOL    HW222038   3.112   2.173   4.572
 7047SOL     OW22039   0.916   7.020   0.469
 7047SOL    HW122040   0.930   6.921   0.471
 7047SOL    HW222041   0.839   0.018   0.409
 7048SOL     OW22042   6.836   5.716   5.037
 7048SOL    HW122043   6.934   5.702   5.023
 7048SOL    HW222044   6.786   5.687   4.954
 7049SOL     OW22045   3.797   1.158   2.515
 7049SOL    HW122046   3.818   1.213   2.596
 7049SOL    HW222047   3.874   1.099   2.493
 7050SOL     OW22048   4.145   3.581   1.028
 7050SOL    HW122049   4.152   3.666   1.081
 7050SOL    HW222050   4.103   3.510   1.084
 7051SOL     OW22051   0.643   0.543   1.255
 7051SOL    HW122052   0.670   0.639   1.271
 7051SOL    HW222053   0.659   0.520   1.159
 7052SOL     OW22054   5.596   0.276   2.372
 7052SOL    HW122055   5.504   0.315   2.361
 7052SOL    HW222056   5.615   0.213   2.297
 7053SOL     OW22057   1.752   2.729   3.366
 7053SOL    HW122058   1.765   2.818   3.323
 7053SOL    HW222059   1.835   2.674   3.355
 7054SOL     OW22060   6.926   0.610   0.433
 7054SOL    HW122061   6.914   0.553   0.352
 7054SOL    HW222062   6.930   0.706   0.406
 7055SOL     OW22063   2.349   0.576   6.701
 7055SOL    HW122064   2.336   0.623   6.788
 7055SOL    HW222065   2.261   0.544   6.666
 7056SOL     OW22066   0.174   5.550   1.159
 7056SOL    HW122067   0.135   5.586   1.244
 7056SOL    HW222068   0.151   5.610   1.083
 7057SOL     OW22069   3.244   4.954   5.041
 7057SOL    HW122070   3.230   5.014   5.120
 7057SOL    HW222071   3.253   5.009   4.958
 7058SOL     OW22072   5.213   2.831   5.660
 7058SOL    HW122073   5.133   2.883   5.692
 7058SOL    HW222074   5.208   2.737   5.694
 7059SOL     OW22075   1.805   0.645   5.014
 7059SOL    HW122076   1.816   0.652   5.113
 7059SOL    HW222077   1.739   0.713   4.983
 7060SOL     OW22078   3.445   0.390   2.317
 7060SOL    HW122079   3.364   0.338   2.289
 7060SOL    HW222080   3.514   0.328   2.353
 7061SOL     OW22081   0.951   2.458   3.040
 7061SOL    HW122082   0.957   2.512   2.956
 7061SOL    HW222083   1.030   2.479   3.098
 7062SOL     OW22084   3.637   1.508   3.333
 7062SOL    HW122085   3.732   1.490   3.309
 7062SOL    HW222086   3.610   1.597   3.298
 7063SOL     OW22087   0.935   0.841   1.783
 7063SOL    HW122088   0.892   0.866   1.696
 7063SOL    HW222089   0.964   0.746   1.780
 7064SOL     OW22090   4.528   2.008   5.142
 7064SOL    HW122091   4.547   1.951   5.222
 7064SOL    HW222092   4.430   2.027   5.138
 7065SOL     OW22093   3.589   4.078   5.700
 7065SOL    HW122094   3.625   3.994   5.659
 7065SOL    HW222095   3.512   4.111   5.645
 7066SOL     OW22096   3.768   0.415   7.018
 7066SOL    HW122097   3.750   0.433   0.091
 7066SOL    HW222098   3.838   0.343   7.010
 7067SOL     OW22099   1.737   3.575   6.801
 7067SOL    HW122100   1.667   3.611   6.863
 7067SOL    HW222101   1.693   3.540   6.718
 7068SOL     OW22102   4.844   4.029   4.207
 7068SOL    HW122103   4.913   3.969   4.248
 7068SOL    HW222104   4.800   4.082   4.279
 7069SOL     OW22105   5.833   0.075   6.388
 7069SOL    HW122106   5.736   0.093   6.408
 7069SOL    HW222107   5.865   0.139   6.318
 7070SOL     OW22108   0.475   6.541   5.141
 7070SOL    HW122109   0.489   6.462   5.080
 7070SOL    HW222110   0.382   6.574   5.131
 7071SOL     OW22111   5.008   5.738   6.367
 7071SOL    HW122112   4.965   5.821   6.402
 7071SOL    HW222113   5.041   5.683   6.444
 7072SOL     OW22114   0.208   3.773   6.518
 7072SOL    HW122115   0.169   3.811   6.434
 7072SOL    HW222116   0.135   3.752   6.583
 7073SOL     OW22117   5.454   1.308   3.031
 7073SOL    HW122118   5.530   1.275   3.086
 7073SOL    HW222119   5.370   1.262   3.059
 7074SOL     OW22120   5.443   4.216   2.936
 7074SOL    HW122121   5.366   4.162   2.901
 7074SOL    HW222122   5.416   4.312   2.944
 7075SOL     OW22123   3.098   5.593   3.877
 7075SOL    HW122124   3.122   5.584   3.973
 7075SOL    HW222125   3.107   5.505   3.831
 7076SOL     OW22126   5.797   2.760   2.404
 7076SOL    HW122127   5.852   2.811   2.338
 7076SOL    HW222128   5.741   2.824   2.457
 7077SOL     OW22129   3.625   5.607   0.923
 7077SOL    HW122130   3.652   5.657   0.840
 7077SOL    HW222131   3.537   5.563   0.909
 7078SOL     OW22132   5.155   0.378   0.077
 7078SOL    HW122133   5.074   0.369   0.136
 7078SOL    HW222134   5.216   0.448   0.116
 7079SOL     OW22135   1.301   0.003   4.465
 7079SOL    HW122136   1.306   6.938   4.420
 7079SOL    HW222137   1.206   0.024   4.488
 7080SOL     OW22138   4.236   1.609   5.328
 7080SOL    HW122139   4.188   1.645   5.408
 7080SOL    HW222140   4.197   1.649   5.245
 7081SOL     OW22141   1.475   1.013   6.881
 7081SOL    HW122142   1.498   1.079   6.952
 7081SOL    HW222143   1.450   1.062   6.797
 7082SOL     OW22144   6.419   4.784   2.788
 7082SOL    HW122145   6.430   4.724   2.709
 7082SOL    HW222146   6.349   4.853   2.768
 7083SOL     OW22147   6.963   3.391   2.734
 7083SOL    HW122148   6.965   3.351   2.826
 7083SOL    HW222149   6.940   3.488   2.740
 7084SOL     OW22150   0.503   5.463   6.967
 7084SOL    HW122151   0.593   5.495   6.936
 7084SOL    HW222152   0.488   5.492   0.037
 7085SOL     OW22153   1.005   3.270   2.173
 7085SOL    HW122154   0.931   3.302   2.232
 7085SOL    HW222155   1.064   3.347   2.148
 7086SOL     OW22156   5.682   1.282   4.073
 7086SOL    HW122157   5.616   1.343   4.027
 7086SOL    HW222158   5.773   1.298   4.036
 7087SOL     OW22159   5.392   3.256   3.303
 7087SOL    HW122160   5.364   3.291   3.392
 7087SOL    HW222161   5.408   3.333   3.240
 7088SOL     OW22162   6.197   2.274   4.980
 7088SOL    HW122163   6.119   2.231   4.933
 7088SOL    HW222164   6.241   2.207   5.039
 7089SOL     OW22165   3.210   5.619   1.854
 7089SOL    HW122166   3.141   5.651   1.918
 7089SOL    HW222167   3.291   5.677   1.860
 7090SOL     OW22168   4.655   2.065   1.562
 7090SOL    HW122169   4.727   2.053   1.629
 7090SOL    HW222170   4.652   2.160   1.531
 7091SOL     OW22171   0.024   6.585   6.465
 7091SOL    HW122172   0.123   6.595   6.458
 7091SOL    HW222173   7.004   6.632   6.389
 7092SOL     OW22174   4.304   1.699   6.611
 7092SOL    HW122175   4.341   1.742   6.529
 7092SOL    HW222176   4.358   1.729   6.690
 7093SOL     OW22177   3.482   3.411   1.214
 7093SOL    HW122178   3.533   3.334   1.252
 7093SOL    HW222179   3.405   3.433   1.275
 7094SOL     OW22180   3.083   0.145   5.085
 7094SOL    HW122181   3.121   0.092   5.009
 7094SOL    HW222182   3.143   0.222   5.106
 7095SOL     OW22183   2.677   4.737   5.283
 7095SOL    HW122184   2.633   4.809   5.231
 7095SOL    HW222185   2.732   4.680   5.222
 7096SOL     OW22186   6.963   0.869   1.202
 7096SOL    HW122187   6.907   0.952   1.201
 7096SOL    HW222188   6.906   0.792   1.230
 7097SOL     OW22189   4.870   0.769   1.520
 7097SOL    HW122190   4.797   0.752   1.587
 7097SOL    HW222191   4.831   0.766   1.428
 7098SOL     OW22192   0.837   6.589   4.105
 7098SOL    HW122193   0.826   6.555   4.012
 7098SOL    HW222194   0.749   6.619   4.141
 7099SOL     OW22195   3.127   2.225   4.177
 7099SOL    HW122196   3.196   2.205   4.247
 7099SOL    HW222197   3.069   2.301   4.208
 7100SOL     OW22198   5.938   3.882   1.378
 7100SOL    HW122199   5.932   3.914   1.284
 7100SOL    HW222200   5.980   3.954   1.435
 7101SOL     OW22201   2.297   6.346   5.274
 7101SOL    HW122202   2.356   6.275   5.234
 7101SOL    HW222203   2.201   6.318   5.266
 7102SOL     OW22204   5.703   0.950   1.702
 7102SOL    HW122205   5.737   1.034   1.745
 7102SOL    HW222206   5.610   0.931   1.735
 7103SOL     OW22207   4.803   4.149   2.806
 7103SOL    HW122208   4.896   4.113   2.799
 7103SOL    HW222209   4.753   4.126   2.722
 7104SOL     OW22210   5.134   3.801   3.688
 7104SOL    HW122211   5.122   3.871   3.617
 7104SOL    HW222212   5.046   3.762   3.712
 7105SOL     OW22213   3.359   4.030   4.194
 7105SOL    HW122214   3.382   3.934   4.175
 7105SOL    HW222215   3.412   4.089   4.134
 7106SOL     OW22216   3.077   2.654   0.896
 7106SOL    HW122217   3.086   2.737   0.952
 7106SOL    HW222218   3.113   2.576   0.948
 7107SOL     OW22219   3.699   0.564   6.543
 7107SOL    HW122220   3.642   0.496   6.497
 7107SOL    HW222221   3.695   0.651   6.493
 7108SOL     OW22222   4.134   0.583   2.185
 7108SOL    HW122223   4.222   0.596   2.230
 7108SOL    HW222224   4.122   0.486   2.163
 7109SOL     OW22225   2.090   6.356   5.968
 7109SOL    HW122226   2.158   6.409   5.917
 7109SOL    HW222227   2.005   6.353   5.916
 7110SOL     OW22228   3.305   6.498   4.090
 7110SOL    HW122229   3.259   6.586   4.080
 7110SOL    HW222230   3.238   6.424   4.078
 7111SOL     OW22231   6.818   0.332   4.404
 7111SOL    HW122232   6.827   0.425   4.440
 7111SOL    HW222233   6.892   0.275   4.438
 7112SOL     OW22234   1.865   5.254   4.642
 7112SOL    HW122235   1.904   5.310   4.715
 7112SOL    HW222236   1.773   5.286   4.621
 7113SOL     OW22237   3.954   5.269   5.808
 7113SOL    HW122238   3.928   5.178   5.838
 7113SOL    HW222239   3.877   5.332   5.820
 7114SOL     OW22240   5.286   5.458   0.521
 7114SOL    HW122241   5.279   5.493   0.427
 7114SOL    HW222242   5.381   5.464   0.552
 7115SOL     OW22243   6.342   3.696   0.109
 7115SOL    HW122244   6.402   3.681   0.030
 7115SOL    HW222245   6.362   3.628   0.179
 7116SOL     OW22246   6.639   4.051   4.046
 7116SOL    HW122247   6.564   4.104   4.087
 7116SOL    HW222248   6.679   3.991   4.114
 7117SOL     OW22249   6.131   0.160   2.991
 7117SOL    HW122250   6.183   0.224   2.934
 7117SOL    HW222251   6.161   0.169   3.086
 7118SOL     OW22252   4.188   4.289   5.310
 7118SOL    HW122253   4.113   4.252   5.255
 7118SOL    HW222254   4.257   4.329   5.250
 7119SOL     OW22255   3.619   6.205   5.417
 7119SOL    HW122256   3.698   6.267   5.422
 7119SOL    HW222257   3.598   6.186   5.322
 7120SOL     OW22258   5.045   0.754   0.124
 7120SOL    HW122259   5.144   0.739   0.127
 7120SOL    HW222260   5.011   0.770   0.217
 7121SOL     OW22261   1.409   6.241   2.364
 7121SOL    HW122262   1.393   6.287   2.452
 7121SOL    HW222263   1.409   6.142   2.378
 7122SOL     OW22264   2.574   0.761   6.199
 7122SOL    HW122265   2.485   0.735   6.238
 7122SOL    HW222266   2.563   0.846   6.147
 7123SOL     OW22267   5.230   5.121   6.118
 7123SOL    HW122268   5.150   5.142   6.062
 7123SOL    HW222269   5.227   5.026   6.147
 7124SOL     OW22270   1.717   2.300   1.342
 7124SOL    HW122271   1.719   2.201   1.358
 7124SOL    HW222272   1.625   2.335   1.358
 7125SOL     OW22273   1.337   6.362   1.012
 7125SOL    HW122274   1.258   6.341   1.070
 7125SOL    HW222275   1.401   6.420   1.062
 7126SOL     OW22276   3.449   5.509   1.331
 7126SOL    HW122277   3.460   5.500   1.430
 7126SOL    HW222278   3.493   5.593   1.300
 7127SOL     OW22279   2.637   0.113   4.997
 7127SOL    HW122280   2.610   0.048   4.925
 7127SOL    HW222281   2.737   0.122   4.997
 7128SOL     OW22282   4.304   3.768   6.075
 7128SOL    HW122283   4.332   3.855   6.035
 7128SOL    HW222284   4.205   3.756   6.063
 7129SOL     OW22285   0.722   6.909   0.816
 7129SOL    HW122286   0.714   6.844   0.740
 7129SOL    HW222287   0.757   6.996   0.781
 7130SOL     OW22288   3.333   6.831   4.290
 7130SOL    HW122289   3.298   6.875   4.373
 7130SOL    HW222290   3.433   6.826   4.295
 7131SOL     OW22291   3.728   0.994   2.929
 7131SOL    HW122292   3.692   1.075   2.883
 7131SOL    HW222293   3.770   1.020   3.016
 7132SOL     OW22294   5.581   4.540   0.859
 7132SOL    HW122295   5.483   4.561   0.855
 7132SOL    HW222296   5.632   4.622   0.884
 7133SOL     OW22297   4.234   5.436   2.869
 7133SOL    HW122298   4.322   5.469   2.836
 7133SOL    HW222299   4.163   5.503   2.849
 7134SOL     OW22300   5.632   5.333   0.977
 7134SOL    HW122301   5.587   5.244   0.976
 7134SOL    HW222302   5.729   5.321   1.001
 7135SOL     OW22303   2.130   2.872   1.129
 7135SOL    HW122304   2.181   2.953   1.155
 7135SOL    HW222305   2.127   2.808   1.206
 7136SOL     OW22306   1.803   1.889   1.820
 7136SOL    HW122307   1.899   1.878   1.846
 7136SOL    HW222308   1.785   1.984   1.798
 7137SOL     OW22309   2.574   2.440   1.366
 7137SOL    HW122310   2.646   2.377   1.397
 7137SOL    HW222311   2.521   2.396   1.294
 7138SOL     OW22312   0.989   2.264   0.869
 7138SOL    HW122313   0.921   2.240   0.800
 7138SOL    HW222314   1.008   2.183   0.925
 7139SOL     OW22315   6.576   6.118   0.970
 7139SOL    HW122316   6.545   6.070   1.052
 7139SOL    HW222317   6.631   6.197   0.996
 7140SOL     OW22318   0.108   3.372   0.376
 7140SOL    HW122319   0.045   3.434   0.422
 7140SOL    HW222320   0.087   3.368   0.279
 7141SOL     OW22321   3.598   0.752   1.115
 7141SOL    HW122322   3.509   0.712   1.092
 7141SOL    HW222323   3.604   0.764   1.214
 7142SOL     OW22324   3.183   0.061   4.808
 7142SOL    HW122325   3.134   7.004   4.776
 7142SOL    HW222326   3.279   0.038   4.824
 7143SOL     OW22327   3.113   4.417   6.748
 7143SOL    HW122328   3.136   4.323   6.772
 7143SOL    HW222329   3.130   4.477   6.827
 7144SOL     OW22330   6.619   0.559   5.423
 7144SOL    HW122331   6.545   0.555   5.356
 7144SOL    HW222332   6.589   0.612   5.503
 7145SOL     OW22333   4.968   2.186   6.458
 7145SOL    HW122334   4.997   2.187   6.362
 7145SOL    HW222335   5.037   2.233   6.514
 7146SOL     OW22336   1.816   2.093   5.313
 7146SOL    HW122337   1.776   2.021   5.371
 7146SOL    HW222338   1.906   2.063   5.281
 7147SOL     OW22339   6.233   6.625   1.922
 7147SOL    HW122340   6.227   6.629   1.822
 7147SOL    HW222341   6.150   6.662   1.962
 7148SOL     OW22342   6.637   6.752   0.974
 7148SOL    HW122343   6.548   6.713   0.954
 7148SOL    HW222344   6.639   6.848   0.947
 7149SOL     OW22345   6.166   4.729   5.587
 7149SOL    HW122346   6.246   4.676   5.558
 7149SOL    HW222347   6.094   4.666   5.615
 7150SOL     OW22348   3.756   3.373   6.870
 7150SOL    HW122349   3.705   3.430   6.934
 7150SOL    HW222350   3.852   3.370   6.897
 7151SOL     OW22351   3.631   1.135   1.195
 7151SOL    HW122352   3.594   1.102   1.108
 7151SOL    HW222353   3.721   1.095   1.211
 7152SOL     OW22354   6.076   1.103   6.249
 7152SOL    HW122355   6.085   1.059   6.160
 7152SOL    HW222356   6.127   1.189   6.249
 7153SOL     OW22357   3.392   5.915   1.100
 7153SOL    HW122358   3.482   5.874   1.117
 7153SOL    HW222359   3.349   5.939   1.187
 7154SOL     OW22360   4.404   1.769   1.875
 7154SOL    HW122361   4.357   1.770   1.963
 7154SOL    HW222362   4.336   1.777   1.802
 7155SOL     OW22363   3.064   1.414   2.213
 7155SOL    HW122364   3.139   1.479   2.204
 7155SOL    HW222365   3.080   1.335   2.154
 7156SOL     OW22366   6.171   3.402   6.734
 7156SOL    HW122367   6.135   3.386   6.826
 7156SOL    HW222368   6.233   3.480   6.736
 7157SOL     OW22369   6.642   4.586   6.654
 7157SOL    HW122370   6.717   4.531   6.691
 7157SOL    HW222371   6.645   4.584   6.554
 7158SOL     OW22372   4.483   6.433   4.070
 7158SOL    HW122373   4.458   6.423   3.974
 7158SOL    HW222374   4.405   6.411   4.128
 7159SOL     OW22375   0.859   6.295   2.836
 7159SOL    HW122376   0.825   6.388   2.822
 7159SOL    HW222377   0.868   6.249   2.748
 7160SOL     OW22378   0.103   6.964   3.460
 7160SOL    HW122379   0.026   6.905   3.484
 7160SOL    HW222380   0.122   0.003   3.535
 7161SOL     OW22381   3.887   3.075   3.269
 7161SOL    HW122382   3.841   3.015   3.335
 7161SOL    HW222383   3.964   3.121   3.313
 7162SOL     OW22384   0.730   6.012   1.102
 7162SOL    HW122385   0.777   5.926   1.081
 7162SOL    HW222386   0.681   6.003   1.188
 7163SOL     OW22387   0.215   1.605   2.404
 7163SOL    HW122388   0.214   1.553   2.490
 7163SOL    HW222389   0.188   1.699   2.422
 7164SOL     OW22390   1.941   0.685   6.291
 7164SOL    HW122391   2.039   0.679   6.272
 7164SOL    HW222392   1.918   0.778   6.321
 7165SOL     OW22393   5.679   1.307   0.304
 7165SOL    HW122394   5.645   1.319   0.397
 7165SOL    HW222395   5.731   1.222   0.297
 7166SOL     OW22396   6.455   6.544   6.193
 7166SOL    HW122397   6.416   6.630   6.224
 7166SOL    HW222398   6.474   6.485   6.271
 7167SOL     OW22399   5.915   2.394   4.711
 7167SOL    HW122400   5.928   2.326   4.639
 7167SOL    HW222401   5.996   2.452   4.717
 7168SOL     OW22402   2.940   1.060   2.087
 7168SOL    HW122403   2.924   1.082   1.991
 7168SOL    HW222404   2.870   0.997   2.120
 7169SOL     OW22405   1.321   3.876   6.743
 7169SOL    HW122406   1.341   3.778   6.736
 7169SOL    HW222407   1.362   3.912   6.827
 7170SOL     OW22408   3.898   1.289   0.519
 7170SOL    HW122409   3.829   1.348   0.563
 7170SOL    HW222410   3.889   1.297   0.419
 7171SOL     OW22411   6.667   4.535   0.769
 7171SOL    HW122412   6.608   4.583   0.704
 7171SOL    HW222413   6.695   4.597   0.842
 7172SOL     OW22414   1.583   1.575   4.084
 7172SOL    HW122415   1.524   1.495   4.098
 7172SOL    HW222416   1.675   1.546   4.060
 7173SOL     OW22417   4.712   5.350   6.184
 7173SOL    HW122418   4.760   5.419   6.130
 7173SOL    HW222419   4.616   5.349   6.158
 7174SOL     OW22420   6.701   4.335   1.884
 7174SOL    HW122421   6.639   4.412   1.872
 7174SOL    HW222422   6.784   4.350   1.830
 7175SOL     OW22423   5.770   3.520   6.881
 7175SOL    HW122424   5.815   3.552   6.965
 7175SOL    HW222425   5.677   3.489   6.903
 7176SOL     OW22426   0.813   0.753   5.486
 7176SOL    HW122427   0.757   0.687   5.435
 7176SOL    HW222428   0.906   0.718   5.493
 7177SOL     OW22429   1.587   5.800   3.634
 7177SOL    HW122430   1.683   5.816   3.610
 7177SOL    HW222431   1.559   5.710   3.600
 7178SOL     OW22432   1.654   0.413   5.118
 7178SOL    HW122433   1.747   0.380   5.133
 7178SOL    HW222434   1.618   0.453   5.202
 7179SOL     OW22435   3.384   5.782   6.482
 7179SOL    HW122436   3.483   5.777   6.491
 7179SOL    HW222437   3.360   5.847   6.410
 7180SOL     OW22438   1.640   4.129   1.282
 7180SOL    HW122439   1.713   4.179   1.236
 7180SOL    HW222440   1.581   4.194   1.331
 7181SOL     OW22441   2.397   1.860   5.823
 7181SOL    HW122442   2.452   1.938   5.794
 7181SOL    HW222443   2.310   1.861   5.773
 7182SOL     OW22444   1.677   1.732   4.628
 7182SOL    HW122445   1.724   1.647   4.603
 7182SOL    HW222446   1.668   1.736   4.728
 7183SOL     OW22447   0.854   6.835   1.991
 7183SOL    HW122448   0.853   6.866   2.086
 7183SOL    HW222449   0.910   6.898   1.936
 7184SOL     OW22450   6.265   6.942   4.022
 7184SOL    HW122451   6.247   6.936   4.120
 7184SOL    HW222452   6.231   0.005   3.987
 7185SOL     OW22453   3.977   1.142   4.262
 7185SOL    HW122454   4.009   1.224   4.215
 7185SOL    HW222455   3.983   1.157   4.361
 7186SOL     OW22456   0.158   0.279   6.694
 7186SOL    HW122457   0.240   0.294   6.639
 7186SOL    HW222458   0.077   0.303   6.641
 7187SOL     OW22459   3.213   2.960   4.185
 7187SOL    HW122460   3.224   2.867   4.218
 7187SOL    HW222461   3.203   2.959   4.086
 7188SOL     OW22462   3.732   4.093   6.899
 7188SOL    HW122463   3.655   4.049   6.945
 7188SOL    HW222464   3.761   4.173   6.951
 7189SOL     OW22465   6.354   2.744   5.886
 7189SOL    HW122466   6.385   2.649   5.897
 7189SOL    HW222467   6.263   2.745   5.846
 7190SOL     OW22468   5.916   5.364   1.709
 7190SOL    HW122469   5.949   5.451   1.671
 7190SOL    HW222470   5.816   5.366   1.713
 7191SOL     OW22471   0.094   4.953   4.120
 7191SOL    HW122472   0.141   4.954   4.209
 7191SOL    HW222473   0.155   4.989   4.050
 7192SOL     OW22474   1.954   4.392   6.780
 7192SOL    HW122475   1.904   4.358   6.701
 7192SOL    HW222476   1.978   4.488   6.766
 7193SOL     OW22477   2.591   2.085   2.374
 7193SOL    HW122478   2.588   2.091   2.474
 7193SOL    HW222479   2.500   2.060   2.340
 7194SOL     OW22480   3.102   2.809   6.279
 7194SOL    HW122481   3.039   2.867   6.228
 7194SOL    HW222482   3.191   2.855   6.287
 7195SOL     OW22483   7.020   4.251   5.491
 7195SOL    HW122484   7.004   4.216   5.398
 7195SOL    HW222485   0.052   4.186   5.542
 7196SOL     OW22486   3.428   4.031   1.769
 7196SOL    HW122487   3.508   4.081   1.802
 7196SOL    HW222488   3.404   4.063   1.677
 7197SOL     OW22489   2.655   4.040   5.887
 7197SOL    HW122490   2.705   4.068   5.805
 7197SOL    HW222491   2.614   4.119   5.931
 7198SOL     OW22492   0.528   0.662   1.955
 7198SOL    HW122493   0.545   0.594   1.884
 7198SOL    HW222494   0.491   0.745   1.913
 7199SOL     OW22495   0.165   1.149   2.349
 7199SOL    HW122496   0.147   1.130   2.446
 7199SOL    HW222497   0.125   1.237   2.325
 7200SOL     OW22498   0.791   2.464   1.000
 7200SOL    HW122499   0.804   2.427   1.092
 7200SOL    HW222500   0.862   2.427   0.940
 7201SOL     OW22501   5.638   5.852   4.059
 7201SOL    HW122502   5.549   5.807   4.057
 7201SOL    HW222503   5.686   5.826   4.142
 7202SOL     OW22504   4.588   0.544   5.465
 7202SOL    HW122505   4.555   0.636   5.447
 7202SOL    HW222506   4.687   0.541   5.455
 7203SOL     OW22507   0.464   1.886   1.233
 7203SOL    HW122508   0.427   1.845   1.317
 7203SOL    HW222509   0.496   1.814   1.172
 7204SOL     OW22510   6.397   7.021   1.560
 7204SOL    HW122511   6.466   0.064   1.535
 7204SOL    HW222512   6.403   7.001   1.658
 7205SOL     OW22513   3.103   1.827   4.514
 7205SOL    HW122514   3.006   1.843   4.532
 7205SOL    HW222515   3.128   1.871   4.428
 7206SOL     OW22516   1.773   3.227   0.718
 7206SOL    HW122517   1.813   3.144   0.679
 7206SOL    HW222518   1.833   3.305   0.697
 7207SOL     OW22519   1.627   0.967   3.933
 7207SOL    HW122520   1.623   0.949   4.031
 7207SOL    HW222521   1.665   0.887   3.886
 7208SOL     OW22522   2.913   0.249   4.100
 7208SOL    HW122523   2.847   0.226   4.028
 7208SOL    HW222524   3.006   0.245   4.063
 7209SOL     OW22525   3.095   1.880   2.344
 7209SOL    HW122526   3.113   1.977   2.363
 7209SOL    HW222527   3.015   1.851   2.396
 7210SOL     OW22528   2.874   1.366   3.377
 7210SOL    HW122529   2.922   1.370   3.465
 7210SOL    HW222530   2.782   1.328   3.392
 7211SOL     OW22531   3.430   5.602   4.801
 7211SOL    HW122532   3.473   5.533   4.859
 7211SOL    HW222533   3.334   5.613   4.827
 7212SOL     OW22534   6.643   4.120   5.803
 7212SOL    HW122535   6.652   4.206   5.854
 7212SOL    HW222536   6.639   4.139   5.705
 7213SOL     OW22537   4.067   1.762   0.572
 7213SOL    HW122538   4.070   1.807   0.662
 7213SOL    HW222539   4.077   1.664   0.584
 7214SOL     OW22540   0.130   0.750   6.299
 7214SOL    HW122541   0.204   0.797   6.251
 7214SOL    HW222542   0.066   0.817   6.337
 7215SOL     OW22543   6.986   2.918   2.779
 7215SOL    HW122544   0.038   2.895   2.840
 7215SOL    HW222545   7.022   2.952   2.692
 7216SOL     OW22546   3.289   6.244   2.759
 7216SOL    HW122547   3.210   6.223   2.816
 7216SOL    HW222548   3.269   6.220   2.664
 7217SOL     OW22549   1.654   3.161   3.387
 7217SOL    HW122550   1.626   3.244   3.340
 7217SOL    HW222551   1.752   3.166   3.409
 7218SOL     OW22552   6.302   4.701   4.608
 7218SOL    HW122553   6.238   4.754   4.663
 7218SOL    HW222554   6.389   4.690   4.658
 7219SOL     OW22555   3.516   5.754   2.175
 7219SOL    HW122556   3.536   5.657   2.189
 7219SOL    HW222557   3.512   5.773   2.077
 7220SOL     OW22558   5.820   4.838   5.001
 7220SOL    HW122559   5.848   4.925   4.960
 7220SOL    HW222560   5.865   4.827   5.090
 7221SOL     OW22561   3.686   5.803   4.288
 7221SOL    HW122562   3.612   5.795   4.355
 7221SOL    HW222563   3.722   5.712   4.267
 7222SOL     OW22564   0.235   6.293   4.249
 7222SOL    HW122565   0.247   6.387   4.281
 7222SOL    HW222566   0.157   6.288   4.187
 7223SOL     OW22567   0.128   3.089   1.450
 7223SOL    HW122568   0.149   3.150   1.373
 7223SOL    HW222569   0.085   3.006   1.416
 7224SOL     OW22570   3.894   2.142   3.153
 7224SOL    HW122571   3.882   2.108   3.247
 7224SOL    HW222572   3.808   2.134   3.103
 7225SOL     OW22573   1.252   0.158   0.801
 7225SOL    HW122574   1.330   0.155   0.739
 7225SOL    HW222575   1.281   0.192   0.890
 7226SOL     OW22576   6.357   6.371   0.868
 7226SOL    HW122577   6.410   6.411   0.793
 7226SOL    HW222578   6.381   6.274   0.878
 7227SOL     OW22579   2.583   1.244   2.137
 7227SOL    HW122580   2.510   1.281   2.080
 7227SOL    HW222581   2.653   1.314   2.151
 7228SOL     OW22582   0.094   3.444   2.378
 7228SOL    HW122583   0.074   3.508   2.305
 7228SOL    HW222584   0.013   3.431   2.435
 7229SOL     OW22585   0.254   0.399   4.842
 7229SOL    HW122586   0.300   0.333   4.902
 7229SOL    HW222587   0.191   0.351   4.781
 7230SOL     OW22588   2.250   5.164   4.471
 7230SOL    HW122589   2.237   5.088   4.407
 7230SOL    HW222590   2.304   5.133   4.549
 7231SOL     OW22591   4.617   1.334   6.177
 7231SOL    HW122592   4.714   1.340   6.156
 7231SOL    HW222593   4.599   1.380   6.264
 7232SOL     OW22594   5.388   6.924   3.242
 7232SOL    HW122595   5.446   6.851   3.279
 7232SOL    HW222596   5.419   6.947   3.150
 7233SOL     OW22597   6.579   1.330   5.064
 7233SOL    HW122598   6.637   1.404   5.030
 7233SOL    HW222599   6.595   1.247   5.010
 7234SOL     OW22600   5.189   4.213   2.826
 7234SOL    HW122601   5.111   4.265   2.860
 7234SOL    HW222602   5.216   4.249   2.736
 7235SOL     OW22603   0.390   6.366   1.441
 7235SOL    HW122604   0.306   6.340   1.394
 7235SOL    HW222605   0.465   6.308   1.410
 7236SOL     OW22606   2.355   2.886   3.542
 7236SOL    HW122607   2.391   2.794   3.527
 7236SOL    HW222608   2.353   2.905   3.640
 7237SOL     OW22609   5.309   1.015   0.103
 7237SOL    HW122610   5.224   0.964   0.113
 7237SOL    HW222611   5.315   1.051   0.009
 7238SOL     OW22612   4.259   2.955   0.779
 7238SOL    HW122613   4.322   3.014   0.729
 7238SOL    HW222614   4.165   2.979   0.754
 7239SOL     OW22615   0.459   3.004   2.473
 7239SOL    HW122616   0.510   3.086   2.498
 7239SOL    HW222617   0.481   2.977   2.380
 7240SOL     OW22618   6.926   2.070   6.163
 7240SOL    HW122619   6.873   2.150   6.192
 7240SOL    HW222620   7.021   2.096   6.150
 7241SOL     OW22621   2.928   1.853   2.063
 7241SOL    HW122622   2.916   1.831   2.160
 7241SOL    HW222623   2.922   1.769   2.009
 7242SOL     OW22624   6.828   5.424   4.881
 7242SOL    HW122625   6.774   5.408   4.799
 7242SOL    HW222626   6.778   5.392   4.961
 7243SOL     OW22627   6.330   3.633   6.685
 7243SOL    HW122628   6.395   3.621   6.611
 7243SOL    HW222629   6.379   3.653   6.770
 7244SOL     OW22630   6.830   6.672   0.009
 7244SOL    HW122631   6.851   6.701   6.939
 7244SOL    HW222632   6.890   6.596   0.034
 7245SOL     OW22633   1.116   2.961   6.934
 7245SOL    HW122634   1.208   2.936   6.964
 7245SOL    HW222635   1.110   2.955   6.835
 7246SOL     OW22636   3.162   0.316   3.963
 7246SOL    HW122637   3.212   0.265   3.893
 7246SOL    HW222638   3.188   0.412   3.959
 7247SOL     OW22639   2.768   2.823   5.335
 7247SOL    HW122640   2.776   2.762   5.414
 7247SOL    HW222641   2.762   2.769   5.252
 7248SOL     OW22642   3.596   1.123   4.597
 7248SOL    HW122643   3.670   1.057   4.609
 7248SOL    HW222644   3.543   1.130   4.682
 7249SOL     OW22645   3.710   5.246   1.584
 7249SOL    HW122646   3.621   5.202   1.583
 7249SOL    HW222647   3.727   5.283   1.676
 7250SOL     OW22648   5.017   5.972   5.531
 7250SOL    HW122649   5.098   6.025   5.556
 7250SOL    HW222650   4.942   6.034   5.507
 7251SOL     OW22651   0.287   5.852   5.617
 7251SOL    HW122652   0.244   5.765   5.640
 7251SOL    HW222653   0.366   5.836   5.558
 7252SOL     OW22654   3.056   4.016   2.132
 7252SOL    HW122655   3.114   3.940   2.105
 7252SOL    HW222656   3.058   4.087   2.061
 7253SOL     OW22657   1.569   5.558   5.462
 7253SOL    HW122658   1.633   5.485   5.437
 7253SOL    HW222659   1.517   5.587   5.381
 7254SOL     OW22660   4.950   4.014   3.877
 7254SOL    HW122661   4.927   3.934   3.932
 7254SOL    HW222662   4.874   4.034   3.815
 7255SOL     OW22663   5.161   3.318   6.693
 7255SOL    HW122664   5.226   3.389   6.666
 7255SOL    HW222665   5.182   3.234   6.644
 7256SOL     OW22666   3.362   6.306   6.451
 7256SOL    HW122667   3.337   6.210   6.460
 7256SOL    HW222668   3.431   6.316   6.379
 7257SOL     OW22669   0.996   0.984   4.529
 7257SOL    HW122670   1.059   1.008   4.455
 7257SOL    HW222671   0.904   0.972   4.493
 7258SOL     OW22672   6.032   1.855   3.249
 7258SOL    HW122673   5.933   1.850   3.264
 7258SOL    HW222674   6.049   1.884   3.155
 7259SOL     OW22675   0.991   3.904   2.860
 7259SOL    HW122676   1.031   3.812   2.854
 7259SOL    HW222677   0.982   3.931   2.956
 7260SOL     OW22678   5.213   3.102   0.551
 7260SOL    HW122679   5.251   3.036   0.616
 7260SOL    HW222680   5.186   3.054   0.467
 7261SOL     OW22681   0.330   4.054   0.666
 7261SOL    HW122682   0.304   3.971   0.617
 7261SOL    HW222683   0.249   4.096   0.706
 7262SOL     OW22684   6.058   1.915   6.117
 7262SOL    HW122685   6.074   1.824   6.079
 7262SOL    HW222686   6.137   1.973   6.102
 7263SOL     OW22687   0.348   5.247   6.968
 7263SOL    HW122688   0.305   5.261   0.032
 7263SOL    HW222689   0.417   5.318   6.952
 7264SOL     OW22690   5.435   0.852   0.312
 7264SOL    HW122691   5.423   0.904   0.228
 7264SOL    HW222692   5.455   0.915   0.388
 7265SOL     OW22693   4.216   5.747   5.508
 7265SOL    HW122694   4.290   5.699   5.462
 7265SOL    HW222695   4.212   5.841   5.475
 7266SOL     OW22696   0.031   0.424   3.897
 7266SOL    HW122697   7.007   0.472   3.824
 7266SOL    HW222698   0.037   0.483   3.977
 7267SOL     OW22699   6.258   5.563   5.109
 7267SOL    HW122700   6.287   5.531   5.199
 7267SOL    HW222701   6.285   5.496   5.040
 7268SOL     OW22702   6.294   6.211   4.261
 7268SOL    HW122703   6.356   6.194   4.337
 7268SOL    HW222704   6.201   6.189   4.289
 7269SOL     OW22705   2.524   5.153   5.479
 7269SOL    HW122706   2.537   5.205   5.395
 7269SOL    HW222707   2.427   5.146   5.500
 7270SOL     OW22708   0.650   1.384   4.134
 7270SOL    HW122709   0.566   1.335   4.111
 7270SOL    HW222710   0.730   1.330   4.107
 7271SOL     OW22711   0.773   4.213   3.408
 7271SOL    HW122712   0.788   4.214   3.309
 7271SOL    HW222713   0.674   4.210   3.426
 7272SOL     OW22714   6.209   5.718   2.526
 7272SOL    HW122715   6.196   5.775   2.445
 7272SOL    HW222716   6.180   5.769   2.607
 7273SOL     OW22717   0.050   2.784   5.795
 7273SOL    HW122718   0.009   2.749   5.710
 7273SOL    HW222719   0.080   2.878   5.781
 7274SOL     OW22720   0.558   4.470   0.343
 7274SOL    HW122721   0.458   4.474   0.352
 7274SOL    HW222722   0.592   4.388   0.388
 7275SOL     OW22723   6.419   0.126   2.852
 7275SOL    HW122724   6.423   0.221   2.821
 7275SOL    HW222725   6.332   0.086   2.823
 7276SOL     OW22726   4.531   6.444   3.781
 7276SOL    HW122727   4.551   6.400   3.694
 7276SOL    HW222728   4.609   6.500   3.808
 7277SOL     OW22729   4.600   0.488   5.735
 7277SOL    HW122730   4.609   0.488   5.636
 7277SOL    HW222731   4.505   0.468   5.760
 7278SOL     OW22732   3.343   3.791   2.396
 7278SOL    HW122733   3.402   3.721   2.435
 7278SOL    HW222734   3.347   3.874   2.452
 7279SOL     OW22735   3.877   6.036   0.234
 7279SOL    HW122736   3.927   5.969   0.179
 7279SOL    HW222737   3.924   6.052   0.320
 7280SOL     OW22738   4.640   0.044   5.728
 7280SOL    HW122739   4.591   0.101   5.794
 7280SOL    HW222740   4.656   6.977   5.767
 7281SOL     OW22741   3.852   1.934   6.298
 7281SOL    HW122742   3.886   2.027   6.286
 7281SOL    HW222743   3.903   1.871   6.239
 7282SOL     OW22744   5.532   5.843   2.152
 7282SOL    HW122745   5.623   5.882   2.140
 7282SOL    HW222746   5.509   5.842   2.250
 7283SOL     OW22747   2.699   1.013   3.157
 7283SOL    HW122748   2.601   0.993   3.163
 7283SOL    HW222749   2.729   1.005   3.062
 7284SOL     OW22750   6.882   3.647   5.126
 7284SOL    HW122751   6.911   3.577   5.060
 7284SOL    HW222752   6.949   3.653   5.200
 7285SOL     OW22753   4.466   5.639   1.808
 7285SOL    HW122754   4.510   5.644   1.898
 7285SOL    HW222755   4.457   5.543   1.780
 7286SOL     OW22756   2.550   2.577   0.995
 7286SOL    HW122757   2.617   2.506   1.017
 7286SOL    HW222758   2.493   2.595   1.075
 7287SOL     OW22759   6.589   0.884   6.731
 7287SOL    HW122760   6.504   0.832   6.747
 7287SOL    HW222761   6.604   0.947   6.807
 7288SOL     OW22762   3.944   0.010   6.652
 7288SOL    HW122763   3.933   6.957   6.590
 7288SOL    HW222764   3.867   0.073   6.642
 7289SOL     OW22765   5.767   1.768   3.232
 7289SOL    HW122766   5.785   1.756   3.134
 7289SOL    HW222767   5.755   1.678   3.274
 7290SOL     OW22768   2.538   5.314   5.250
 7290SOL    HW122769   2.627   5.311   5.205
 7290SOL    HW222770   2.475   5.369   5.195
 7291SOL     OW22771   2.611   6.456   1.202
 7291SOL    HW122772   2.555   6.538   1.190
 7291SOL    HW222773   2.567   6.379   1.155
 7292SOL     OW22774   2.869   6.768   3.255
 7292SOL    HW122775   2.946   6.803   3.201
 7292SOL    HW222776   2.898   6.752   3.349
 7293SOL     OW22777   1.676   1.686   4.956
 7293SOL    HW122778   1.684   1.682   5.056
 7293SOL    HW222779   1.687   1.594   4.918
 7294SOL     OW22780   2.579   5.131   0.088
 7294SOL    HW122781   2.607   5.161   0.179
 7294SOL    HW222782   2.533   5.043   0.095
 7295SOL     OW22783   0.259   1.839   0.691
 7295SOL    HW122784   0.287   1.762   0.748
 7295SOL    HW222785   0.323   1.914   0.703
 7296SOL     OW22786   3.000   4.799   0.572
 7296SOL    HW122787   3.041   4.708   0.569
 7296SOL    HW222788   3.045   4.854   0.643
 7297SOL     OW22789   4.368   6.612   0.602
 7297SOL    HW122790   4.463   6.591   0.627
 7297SOL    HW222791   4.307   6.547   0.646
 7298SOL     OW22792   5.663   4.038   4.694
 7298SOL    HW122793   5.591   4.101   4.665
 7298SOL    HW222794   5.689   4.058   4.789
 7299SOL     OW22795   6.429   2.532   0.627
 7299SOL    HW122796   6.412   2.545   0.529
 7299SOL    HW222797   6.375   2.598   0.679
 7300SOL     OW22798   4.876   5.965   0.826
 7300SOL    HW122799   4.780   5.966   0.855
 7300SOL    HW222800   4.888   6.027   0.748
 7301SOL     OW22801   6.840   0.049   5.902
 7301SOL    HW122802   6.927   0.064   5.948
 7301SOL    HW222803   6.765   0.068   5.965
 7302SOL     OW22804   0.027   1.295   0.164
 7302SOL    HW122805   0.114   1.259   0.196
 7302SOL    HW222806   6.977   1.259   0.221
 7303SOL     OW22807   3.600   0.214   6.870
 7303SOL    HW122808   3.632   0.287   6.931
 7303SOL    HW222809   3.678   0.164   6.834
 7304SOL     OW22810   4.438   3.539   5.792
 7304SOL    HW122811   4.434   3.519   5.890
 7304SOL    HW222812   4.523   3.587   5.771
 7305SOL     OW22813   5.271   2.134   0.081
 7305SOL    HW122814   5.290   2.064   0.151
 7305SOL    HW222815   5.271   2.224   0.124
 7306SOL     OW22816   4.991   3.973   1.503
 7306SOL    HW122817   5.011   3.913   1.426
 7306SOL    HW222818   4.911   3.939   1.552
 7307SOL     OW22819   3.149   6.817   1.739
 7307SOL    HW122820   3.226   6.772   1.693
 7307SOL    HW222821   3.116   6.758   1.813
 7308SOL     OW22822   6.707   3.504   4.020
 7308SOL    HW122823   6.612   3.481   4.000
 7308SOL    HW222824   6.726   3.598   3.990
 7309SOL     OW22825   5.303   6.174   0.588
 7309SOL    HW122826   5.287   6.077   0.574
 7309SOL    HW222827   5.402   6.193   0.583
 7310SOL     OW22828   2.405   5.507   1.246
 7310SOL    HW122829   2.323   5.453   1.233
 7310SOL    HW222830   2.384   5.604   1.233
 7311SOL     OW22831   2.604   2.195   2.107
 7311SOL    HW122832   2.597   2.149   2.195
 7311SOL    HW222833   2.682   2.258   2.108
 7312SOL     OW22834   6.893   2.050   5.547
 7312SOL    HW122835   6.926   2.120   5.483
 7312SOL    HW222836   6.971   2.006   5.592
 7313SOL     OW22837   4.366   2.477   6.422
 7313SOL    HW122838   4.422   2.423   6.486
 7313SOL    HW222839   4.426   2.530   6.363
 7314SOL     OW22840   6.642   3.887   5.429
 7314SOL    HW122841   6.545   3.895   5.452
 7314SOL    HW222842   6.692   3.849   5.506
 7315SOL     OW22843   6.083   0.129   3.994
 7315SOL    HW122844   6.005   0.108   4.054
 7315SOL    HW222845   6.088   0.228   3.978
 7316SOL     OW22846   3.704   3.051   5.319
 7316SOL    HW122847   3.635   3.119   5.344
 7316SOL    HW222848   3.766   3.036   5.396
 7317SOL     OW22849   3.989   0.952   2.446
 7317SOL    HW122850   4.017   0.982   2.355
 7317SOL    HW222851   3.954   0.859   2.441
 7318SOL     OW22852   0.796   1.711   1.646
 7318SOL    HW122853   0.737   1.636   1.617
 7318SOL    HW222854   0.770   1.741   1.737
 7319SOL     OW22855   6.139   4.154   0.075
 7319SOL    HW122856   6.124   4.164   7.000
 7319SOL    HW222857   6.122   4.059   0.101
 7320SOL     OW22858   0.341   3.523   2.220
 7320SOL    HW122859   0.260   3.474   2.252
 7320SOL    HW222860   0.418   3.459   2.214
 7321SOL     OW22861   2.479   1.187   4.625
 7321SOL    HW122862   2.497   1.280   4.657
 7321SOL    HW222863   2.386   1.160   4.649
 7322SOL     OW22864   1.216   3.785   3.137
 7322SOL    HW122865   1.261   3.874   3.145
 7322SOL    HW222866   1.150   3.775   3.211
 7323SOL     OW22867   1.681   2.179   3.347
 7323SOL    HW122868   1.667   2.113   3.274
 7323SOL    HW222869   1.743   2.251   3.316
 7324SOL     OW22870   5.649   0.672   3.546
 7324SOL    HW122871   5.676   0.620   3.627
 7324SOL    HW222872   5.722   0.666   3.477
 7325SOL     OW22873   4.195   6.327   6.283
 7325SOL    HW122874   4.282   6.303   6.324
 7325SOL    HW222875   4.124   6.264   6.315
 7326SOL     OW22876   2.525   6.259   5.553
 7326SOL    HW122877   2.531   6.194   5.478
 7326SOL    HW222878   2.616   6.295   5.574
 7327SOL     OW22879   1.026   3.187   5.944
 7327SOL    HW122880   1.124   3.204   5.947
 7327SOL    HW222881   0.998   3.140   6.028
 7328SOL     OW22882   3.073   0.152   7.010
 7328SOL    HW122883   3.169   0.159   6.982
 7328SOL    HW222884   3.050   0.229   0.046
 7329SOL     OW22885   4.490   3.333   1.317
 7329SOL    HW122886   4.418   3.401   1.333
 7329SOL    HW222887   4.567   3.377   1.269
 7330SOL     OW22888   3.387   1.695   6.785
 7330SOL    HW122889   3.423   1.737   6.702
 7330SOL    HW222890   3.320   1.756   6.826
 7331SOL     OW22891   5.306   1.035   1.796
 7331SOL    HW122892   5.273   1.118   1.751
 7331SOL    HW222893   5.264   1.027   1.886
 7332SOL     OW22894   2.649   6.233   0.003
 7332SOL    HW122895   2.734   6.193   6.994
 7332SOL    HW222896   2.585   6.242   6.950
 7333SOL     OW22897   0.731   4.735   3.197
 7333SOL    HW122898   0.666   4.768   3.129
 7333SOL    HW222899   0.797   4.674   3.153
 7334SOL     OW22900   3.644   5.721   5.070
 7334SOL    HW122901   3.552   5.682   5.072
 7334SOL    HW222902   3.668   5.755   5.160
 7335SOL     OW22903   1.558   2.581   2.635
 7335SOL    HW122904   1.488   2.555   2.569
 7335SOL    HW222905   1.577   2.679   2.627
 7336SOL     OW22906   1.574   5.811   4.055
 7336SOL    HW122907   1.604   5.884   3.994
 7336SOL    HW222908   1.617   5.725   4.028
 7337SOL     OW22909   1.452   3.017   2.216
 7337SOL    HW122910   1.456   2.960   2.298
 7337SOL    HW222911   1.494   2.969   2.139
 7338SOL     OW22912   6.684   2.644   1.789
 7338SOL    HW122913   6.746   2.685   1.721
 7338SOL    HW222914   6.736   2.622   1.871
 7339SOL     OW22915   6.305   6.192   3.993
 7339SOL    HW122916   6.287   6.182   4.091
 7339SOL    HW222917   6.218   6.197   3.944
 7340SOL     OW22918   2.388   0.401   0.026
 7340SOL    HW122919   2.469   0.354   7.016
 7340SOL    HW222920   2.308   0.341   0.017
 7341SOL     OW22921   6.293   2.021   0.341
 7341SOL    HW122922   6.321   2.107   0.383
 7341SOL    HW222923   6.264   2.038   0.247
 7342SOL     OW22924   6.710   6.527   2.939
 7342SOL    HW122925   6.616   6.514   2.907
 7342SOL    HW222926   6.734   6.624   2.934
 7343SOL     OW22927   5.012   2.659   0.362
 7343SOL    HW122928   5.078   2.600   0.410
 7343SOL    HW222929   4.954   2.706   0.429
 7344SOL     OW22930   1.159   6.091   5.726
 7344SOL    HW122931   1.214   6.166   5.762
 7344SOL    HW222932   1.211   6.042   5.655
 7345SOL     OW22933   3.765   3.252   5.753
 7345SOL    HW122934   3.670   3.282   5.759
 7345SOL    HW222935   3.792   3.209   5.839
 7346SOL     OW22936   3.765   5.672   2.496
 7346SOL    HW122937   3.684   5.681   2.554
 7346SOL    HW222938   3.844   5.649   2.553
 7347SOL     OW22939   6.590   1.999   0.408
 7347SOL    HW122940   6.505   1.947   0.398
 7347SOL    HW222941   6.569   2.091   0.439
 7348SOL     OW22942   1.836   4.422   3.037
 7348SOL    HW122943   1.877   4.511   3.022
 7348SOL    HW222944   1.850   4.364   2.957
 7349SOL     OW22945   4.176   0.564   1.123
 7349SOL    HW122946   4.243   0.622   1.170
 7349SOL    HW222947   4.124   0.620   1.058
 7350SOL     OW22948   2.825   0.576   5.003
 7350SOL    HW122949   2.765   0.632   4.946
 7350SOL    HW222950   2.850   0.493   4.954
 7351SOL     OW22951   4.380   4.959   3.806
 7351SOL    HW122952   4.468   4.999   3.781
 7351SOL    HW222953   4.309   4.991   3.743
 7352SOL     OW22954   0.441   2.388   3.351
 7352SOL    HW122955   0.342   2.375   3.356
 7352SOL    HW222956   0.461   2.479   3.315
 7353SOL     OW22957   6.123   0.227   6.946
 7353SOL    HW122958   6.128   0.166   0.002
 7353SOL    HW222959   6.187   0.302   6.958
 7354SOL     OW22960   1.333   1.672   3.142
 7354SOL    HW122961   1.359   1.765   3.169
 7354SOL    HW222962   1.235   1.670   3.123
 7355SOL     OW22963   0.264   1.881   6.566
 7355SOL    HW122964   0.209   1.943   6.621
 7355SOL    HW222965   0.278   1.921   6.475
 7356SOL     OW22966   3.936   3.400   5.610
 7356SOL    HW122967   4.030   3.374   5.633
 7356SOL    HW222968   3.873   3.349   5.669
 7357SOL     OW22969   4.886   5.504   1.500
 7357SOL    HW122970   4.956   5.502   1.428
 7357SOL    HW222971   4.895   5.423   1.558
 7358SOL     OW22972   6.068   2.199   2.693
 7358SOL    HW122973   6.067   2.242   2.603
 7358SOL    HW222974   6.054   2.268   2.764
 7359SOL     OW22975   4.493   0.702   5.917
 7359SOL    HW122976   4.536   0.646   5.846
 7359SOL    HW222977   4.559   0.719   5.991
 7360SOL     OW22978   2.456   3.344   5.676
 7360SOL    HW122979   2.385   3.389   5.729
 7360SOL    HW222980   2.546   3.378   5.703
 7361SOL     OW22981   4.642   0.249   2.360
 7361SOL    HW122982   4.653   0.252   2.459
 7361SOL    HW222983   4.643   0.153   2.329
 7362SOL     OW22984   4.239   5.623   6.574
 7362SOL    HW122985   4.238   5.617   6.674
 7362SOL    HW222986   4.330   5.598   6.540
 7363SOL     OW22987   3.855   1.035   0.905
 7363SOL    HW122988   3.770   1.084   0.883
 7363SOL    HW222989   3.834   0.952   0.957
 7364SOL     OW22990   4.305   0.185   1.695
 7364SOL    HW122991   4.233   0.122   1.726
 7364SOL    HW222992   4.267   0.249   1.629
 7365SOL     OW22993   6.472   4.730   2.342
 7365SOL    HW122994   6.538   4.800   2.316
 7365SOL    HW222995   6.380   4.769   2.342
 7366SOL     OW22996   2.535   1.096   3.751
 7366SOL    HW122997   2.625   1.111   3.792
 7366SOL    HW222998   2.480   1.178   3.762
 7367SOL     OW22999   5.095   1.272   6.260
 7367SOL    HW123000   5.079   1.215   6.180
 7367SOL    HW223001   5.161   1.228   6.320
 7368SOL     OW23002   4.010   3.143   2.607
 7368SOL    HW123003   3.977   3.237   2.600
 7368SOL    HW223004   3.954   3.093   2.674
 7369SOL     OW23005   4.578   2.590   0.533
 7369SOL    HW123006   4.608   2.600   0.439
 7369SOL    HW223007   4.604   2.501   0.568
 7370SOL     OW23008   2.074   1.537   4.732
 7370SOL    HW123009   2.104   1.615   4.787
 7370SOL    HW223010   2.096   1.452   4.781
 7371SOL     OW23011   4.071   6.796   3.645
 7371SOL    HW123012   4.085   6.892   3.621
 7371SOL    HW223013   4.086   6.783   3.743
 7372SOL     OW23014   3.882   0.099   4.802
 7372SOL    HW123015   3.956   0.163   4.782
 7372SOL    HW223016   3.840   0.069   4.717
 7373SOL     OW23017   4.799   2.377   4.575
 7373SOL    HW123018   4.705   2.411   4.571
 7373SOL    HW223019   4.808   2.297   4.517
 7374SOL     OW23020   0.755   1.307   4.784
 7374SOL    HW123021   0.798   1.233   4.836
 7374SOL    HW223022   0.716   1.373   4.847
 7375SOL     OW23023   1.889   2.951   2.156
 7375SOL    HW123024   1.839   3.012   2.095
 7375SOL    HW223025   1.939   2.884   2.102
 7376SOL     OW23026   0.585   3.750   1.171
 7376SOL    HW123027   0.577   3.842   1.210
 7376SOL    HW223028   0.672   3.743   1.122
 7377SOL     OW23029   3.146   5.890   0.439
 7377SOL    HW123030   3.156   5.796   0.474
 7377SOL    HW223031   3.107   5.888   0.347
 7378SOL     OW23032   1.614   6.521   4.117
 7378SOL    HW123033   1.625   6.437   4.064
 7378SOL    HW223034   1.633   6.502   4.213
 7379SOL     OW23035   4.336   0.717   1.296
 7379SOL    HW123036   4.349   0.704   1.394
 7379SOL    HW223037   4.424   0.709   1.249
 7380SOL     OW23038   5.957   4.243   3.432
 7380SOL    HW123039   5.889   4.270   3.500
 7380SOL    HW223040   5.963   4.313   3.361
 7381SOL     OW23041   3.953   1.012   0.223
 7381SOL    HW123042   4.006   1.063   0.290
 7381SOL    HW223043   3.855   1.025   0.241
 7382SOL     OW23044   6.957   1.584   6.316
 7382SOL    HW123045   0.003   1.610   6.382
 7382SOL    HW223046   6.908   1.665   6.285
 7383SOL     OW23047   1.682   6.952   1.913
 7383SOL    HW123048   1.648   6.965   1.820
 7383SOL    HW223049   1.782   6.947   1.911
 7384SOL     OW23050   0.643   6.989   1.111
 7384SOL    HW123051   0.591   6.915   1.154
 7384SOL    HW223052   0.623   6.992   1.013
 7385SOL     OW23053   4.210   5.074   2.630
 7385SOL    HW123054   4.111   5.090   2.629
 7385SOL    HW223055   4.229   4.979   2.603
 7386SOL     OW23056   6.010   3.087   0.864
 7386SOL    HW123057   6.046   3.024   0.932
 7386SOL    HW223058   6.079   3.104   0.794
 7387SOL     OW23059   6.402   4.628   5.487
 7387SOL    HW123060   6.472   4.630   5.558
 7387SOL    HW223061   6.433   4.680   5.407
 7388SOL     OW23062   1.742   6.363   2.253
 7388SOL    HW123063   1.666   6.376   2.189
 7388SOL    HW223064   1.786   6.275   2.235
 7389SOL     OW23065   6.875   3.045   0.354
 7389SOL    HW123066   6.903   3.062   0.449
 7389SOL    HW223067   6.856   3.132   0.309
 7390SOL     OW23068   2.802   2.125   2.702
 7390SOL    HW123069   2.769   2.208   2.656
 7390SOL    HW223070   2.739   2.050   2.686
 7391SOL     OW23071   3.271   3.082   2.895
 7391SOL    HW123072   3.216   3.066   2.976
 7391SOL    HW223073   3.348   3.019   2.894
 7392SOL     OW23074   4.400   5.071   6.822
 7392SOL    HW123075   4.427   5.042   6.731
 7392SOL    HW223076   4.362   4.993   6.872
 7393SOL     OW23077   5.986   5.093   4.589
 7393SOL    HW123078   5.945   5.181   4.563
 7393SOL    HW223079   6.085   5.100   4.585
 7394SOL     OW23080   2.158   2.385   6.151
 7394SOL    HW123081   2.115   2.298   6.175
 7394SOL    HW223082   2.128   2.412   6.059
 7395SOL     OW23083   2.744   4.190   0.889
 7395SOL    HW123084   2.750   4.110   0.950
 7395SOL    HW223085   2.719   4.271   0.942
 7396SOL     OW23086   2.602   5.255   1.517
 7396SOL    HW123087   2.672   5.211   1.572
 7396SOL    HW223088   2.522   5.275   1.574
 7397SOL     OW23089   5.617   3.748   4.118
 7397SOL    HW123090   5.685   3.686   4.079
 7397SOL    HW223091   5.584   3.810   4.047
 7398SOL     OW23092   2.165   4.662   2.835
 7398SOL    HW123093   2.209   4.596   2.774
 7398SOL    HW223094   2.196   4.646   2.929
 7399SOL     OW23095   5.343   1.942   4.621
 7399SOL    HW123096   5.349   1.941   4.721
 7399SOL    HW223097   5.432   1.968   4.583
 7400SOL     OW23098   5.522   2.229   5.514
 7400SOL    HW123099   5.617   2.199   5.518
 7400SOL    HW223100   5.517   2.326   5.539
 7401SOL     OW23101   0.883   2.562   3.835
 7401SOL    HW123102   0.902   2.598   3.926
 7401SOL    HW223103   0.943   2.606   3.768
 7402SOL     OW23104   2.735   5.968   5.400
 7402SOL    HW123105   2.789   5.912   5.338
 7402SOL    HW223106   2.784   5.980   5.486
 7403SOL     OW23107   1.325   2.838   4.290
 7403SOL    HW123108   1.363   2.804   4.204
 7403SOL    HW223109   1.364   2.928   4.309
 7404SOL     OW23110   3.045   3.538   1.191
 7404SOL    HW123111   2.991   3.611   1.233
 7404SOL    HW223112   3.140   3.546   1.219
 7405SOL     OW23113   3.041   5.813   5.792
 7405SOL    HW123114   2.999   5.903   5.782
 7405SOL    HW223115   3.126   5.821   5.844
 7406SOL     OW23116   0.700   0.852   5.050
 7406SOL    HW123117   0.663   0.838   4.958
 7406SOL    HW223118   0.678   0.945   5.080
 7407SOL     OW23119   0.736   6.302   6.153
 7407SOL    HW123120   0.704   6.247   6.075
 7407SOL    HW223121   0.820   6.350   6.127
 7408SOL     OW23122   3.473   3.807   5.453
 7408SOL    HW123123   3.558   3.828   5.501
 7408SOL    HW223124   3.429   3.728   5.495
 7409SOL     OW23125   6.282   4.286   0.646
 7409SOL    HW123126   6.326   4.362   0.695
 7409SOL    HW223127   6.183   4.300   0.644
 7410SOL     OW23128   0.023   0.396   1.451
 7410SOL    HW123129   6.997   0.319   1.412
 7410SOL    HW223130   7.002   0.426   1.535
 7411SOL     OW23131   1.146   2.199   5.562
 7411SOL    HW123132   1.244   2.205   5.584
 7411SOL    HW223133   1.115   2.288   5.529
 7412SOL     OW23134   3.955   0.216   6.991
 7412SOL    HW123135   3.978   0.120   6.971
 7412SOL    HW223136   3.968   0.233   0.064
 7413SOL     OW23137   4.144   6.134   3.144
 7413SOL    HW123138   4.099   6.088   3.221
 7413SOL    HW223139   4.218   6.076   3.109
 7414SOL     OW23140   2.363   2.115   4.214
 7414SOL    HW123141   2.345   2.203   4.169
 7414SOL    HW223142   2.412   2.131   4.300
 7415SOL     OW23143   4.211   6.000   6.981
 7415SOL    HW123144   4.135   6.034   6.926
 7415SOL    HW223145   4.274   5.947   6.923
 7416SOL     OW23146   0.951   1.846   2.388
 7416SOL    HW123147   0.862   1.880   2.418
 7416SOL    HW223148   0.997   1.802   2.465
 7417SOL     OW23149   1.063   1.794   3.966
 7417SOL    HW123150   1.011   1.829   4.044
 7417SOL    HW223151   1.019   1.822   3.881
 7418SOL     OW23152   1.304   3.718   6.367
 7418SOL    HW123153   1.313   3.661   6.285
 7418SOL    HW223154   1.318   3.814   6.343
 7419SOL     OW23155   6.743   4.018   3.772
 7419SOL    HW123156   6.747   4.068   3.858
 7419SOL    HW223157   6.676   3.944   3.779
 7420SOL     OW23158   6.728   0.326   1.975
 7420SOL    HW123159   6.766   0.242   1.937
 7420SOL    HW223160   6.637   0.309   2.013
 7421SOL     OW23161   5.063   3.935   1.869
 7421SOL    HW123162   5.013   4.022   1.872
 7421SOL    HW223163   5.008   3.864   1.914
 7422SOL     OW23164   5.747   2.799   1.965
 7422SOL    HW123165   5.673   2.780   1.901
 7422SOL    HW223166   5.732   2.747   2.049
 7423SOL     OW23167   5.504   1.728   5.782
 7423SOL    HW123168   5.461   1.817   5.799
 7423SOL    HW223169   5.436   1.664   5.748
 7424SOL     OW23170   0.153   1.085   4.460
 7424SOL    HW123171   0.196   1.041   4.539
 7424SOL    HW223172   0.205   1.063   4.378
 7425SOL     OW23173   5.562   0.072   0.449
 7425SOL    HW123174   5.537   7.013   0.398
 7425SOL    HW223175   5.591   0.046   0.541
 7426SOL     OW23176   3.698   2.721   6.009
 7426SOL    HW123177   3.646   2.713   6.094
 7426SOL    HW223178   3.724   2.630   5.978
 7427SOL     OW23179   3.766   1.719   3.915
 7427SOL    HW123180   3.824   1.800   3.921
 7427SOL    HW223181   3.823   1.637   3.913
 7428SOL     OW23182   4.383   5.988   5.611
 7428SOL    HW123183   4.344   5.933   5.685
 7428SOL    HW223184   4.375   6.085   5.633
 7429SOL     OW23185   1.803   0.337   2.342
 7429SOL    HW123186   1.718   0.382   2.317
 7429SOL    HW223187   1.863   0.331   2.262
 7430SOL     OW23188   6.292   5.295   3.068
 7430SOL    HW123189   6.204   5.342   3.074
 7430SOL    HW223190   6.277   5.197   3.079
 7431SOL     OW23191   1.772   2.119   4.679
 7431SOL    HW123192   1.783   2.034   4.731
 7431SOL    HW223193   1.685   2.119   4.631
 7432SOL     OW23194   1.720   0.038   3.446
 7432SOL    HW123195   1.805   0.084   3.473
 7432SOL    HW223196   1.661   0.027   3.526
 7433SOL     OW23197   2.359   0.218   6.587
 7433SOL    HW123198   2.392   0.128   6.614
 7433SOL    HW223199   2.289   0.249   6.651
 7434SOL     OW23200   3.984   5.875   5.740
 7434SOL    HW123201   4.027   5.854   5.652
 7434SOL    HW223202   3.976   5.791   5.794
 7435SOL     OW23203   4.882   6.459   3.017
 7435SOL    HW123204   4.911   6.485   3.109
 7435SOL    HW223205   4.798   6.405   3.023
 7436SOL     OW23206   5.489   3.046   6.284
 7436SOL    HW123207   5.578   3.067   6.245
 7436SOL    HW223208   5.500   2.983   6.360
 7437SOL     OW23209   4.337   6.279   1.455
 7437SOL    HW123210   4.270   6.344   1.419
 7437SOL    HW223211   4.423   6.287   1.405
 7438SOL     OW23212   2.565   0.754   6.794
 7438SOL    HW123213   2.488   0.752   6.859
 7438SOL    HW223214   2.561   0.839   6.742
 7439SOL     OW23215   0.974   4.719   6.393
 7439SOL    HW123216   1.041   4.654   6.431
 7439SOL    HW223217   0.956   4.790   6.461
 7440SOL     OW23218   5.177   3.470   3.957
 7440SOL    HW123219   5.158   3.568   3.946
 7440SOL    HW223220   5.093   3.418   3.941
 7441SOL     OW23221   6.193   6.531   1.648
 7441SOL    HW123222   6.277   6.481   1.671
 7441SOL    HW223223   6.115   6.469   1.651
 7442SOL     OW23224   4.887   0.558   5.193
 7442SOL    HW123225   4.968   0.512   5.157
 7442SOL    HW223226   4.888   0.553   5.293
 7443SOL     OW23227   0.086   0.374   1.917
 7443SOL    HW123228   0.070   0.397   2.013
 7443SOL    HW223229   0.159   0.433   1.880
 7444SOL     OW23230   0.419   6.460   6.205
 7444SOL    HW123231   0.395   6.463   6.302
 7444SOL    HW223232   0.518   6.454   6.196
 7445SOL     OW23233   4.569   5.782   1.555
 7445SOL    HW123234   4.544   5.700   1.504
 7445SOL    HW223235   4.523   5.782   1.644
 7446SOL     OW23236   4.995   3.758   0.441
 7446SOL    HW123237   5.010   3.739   0.538
 7446SOL    HW223238   4.981   3.672   0.392
 7447SOL     OW23239   1.068   4.827   1.694
 7447SOL    HW123240   1.095   4.903   1.752
 7447SOL    HW223241   0.981   4.850   1.648
 7448SOL     OW23242   4.922   5.040   5.977
 7448SOL    HW123243   4.847   5.046   5.911
 7448SOL    HW223244   4.886   5.053   6.069
 7449SOL     OW23245   0.391   4.494   6.971
 7449SOL    HW123246   0.340   4.408   6.959
 7449SOL    HW223247   0.470   4.495   6.910
 7450SOL     OW23248   5.292   1.551   5.710
 7450SOL    HW123249   5.206   1.575   5.753
 7450SOL    HW223250   5.274   1.490   5.632
 7451SOL     OW23251   5.685   5.055   2.322
 7451SOL    HW123252   5.771   5.080   2.366
 7451SOL    HW223253   5.618   5.029   2.393
 7452SOL     OW23254   5.744   5.479   5.318
 7452SOL    HW123255   5.694   5.418   5.379
 7452SOL    HW223256   5.839   5.448   5.311
 7453SOL     OW23257   4.310   5.611   6.852
 7453SOL    HW123258   4.364   5.540   6.898
 7453SOL    HW223259   4.367   5.691   6.836
 7454SOL     OW23260   3.887   2.161   0.653
 7454SOL    HW123261   3.793   2.149   0.620
 7454SOL    HW223262   3.950   2.150   0.576
 7455SOL     OW23263   6.817   2.793   3.153
 7455SOL    HW123264   6.784   2.720   3.092
 7455SOL    HW223265   6.757   2.872   3.145
 7456SOL     OW23266   3.195   2.295   5.561
 7456SOL    HW123267   3.291   2.312   5.537
 7456SOL    HW223268   3.137   2.312   5.482
 7457SOL     OW23269   2.859   0.162   3.280
 7457SOL    HW123270   2.865   0.244   3.223
 7457SOL    HW223271   2.950   0.130   3.303
 7458SOL     OW23272   1.389   5.856   5.584
 7458SOL    HW123273   1.395   5.756   5.585
 7458SOL    HW223274   1.427   5.890   5.498
 7459SOL     OW23275   6.092   0.923   3.152
 7459SOL    HW123276   6.045   1.008   3.127
 7459SOL    HW223277   6.141   0.935   3.238
 7460SOL     OW23278   1.341   0.111   1.065
 7460SOL    HW123279   1.292   0.028   1.092
 7460SOL    HW223280   1.374   0.158   1.146
 7461SOL     OW23281   1.258   5.345   5.911
 7461SOL    HW123282   1.281   5.375   6.004
 7461SOL    HW223283   1.230   5.424   5.856
 7462SOL     OW23284   1.313   4.840   1.292
 7462SOL    HW123285   1.324   4.891   1.206
 7462SOL    HW223286   1.228   4.787   1.289
 7463SOL     OW23287   3.912   4.427   0.376
 7463SOL    HW123288   3.825   4.477   0.370
 7463SOL    HW223289   3.895   4.330   0.357
 7464SOL     OW23290   6.445   6.126   5.392
 7464SOL    HW123291   6.392   6.104   5.474
 7464SOL    HW223292   6.476   6.042   5.349
 7465SOL     OW23293   2.224   5.078   0.142
 7465SOL    HW123294   2.258   5.112   0.230
 7465SOL    HW223295   2.223   5.153   0.076
 7466SOL     OW23296   0.505   6.660   4.676
 7466SOL    HW123297   0.450   6.660   4.760
 7466SOL    HW223298   0.483   6.579   4.622
 7467SOL     OW23299   0.270   3.291   6.082
 7467SOL    HW123300   0.327   3.359   6.037
 7467SOL    HW223301   0.263   3.209   6.025
 7468SOL     OW23302   6.206   3.508   5.868
 7468SOL    HW123303   6.140   3.476   5.801
 7468SOL    HW223304   6.188   3.604   5.889
 7469SOL     OW23305   6.939   2.486   0.906
 7469SOL    HW123306   0.013   2.503   0.905
 7469SOL    HW223307   6.904   2.499   0.999
 7470SOL     OW23308   5.521   3.718   3.784
 7470SOL    HW123309   5.560   3.643   3.836
 7470SOL    HW223310   5.448   3.683   3.725
 7471SOL     OW23311   5.344   5.587   6.093
 7471SOL    HW123312   5.260   5.607   6.042
 7471SOL    HW223313   5.323   5.525   6.169
 7472SOL     OW23314   6.096   6.167   5.399
 7472SOL    HW123315   5.997   6.165   5.415
 7472SOL    HW223316   6.115   6.133   5.307
 7473SOL     OW23317   3.650   5.995   3.730
 7473SOL    HW123318   3.599   6.075   3.762
 7473SOL    HW223319   3.697   5.952   3.807
 7474SOL     OW23320   6.691   1.970   5.384
 7474SOL    HW123321   6.606   1.983   5.435
 7474SOL    HW223322   6.769   1.976   5.447
 7475SOL     OW23323   4.635   2.421   0.999
 7475SOL    HW123324   4.707   2.425   1.069
 7475SOL    HW223325   4.630   2.509   0.952
 7476SOL     OW23326   2.430   1.336   3.216
 7476SOL    HW123327   2.332   1.343   3.201
 7476SOL    HW223328   2.476   1.316   3.129
 7477SOL     OW23329   0.913   4.427   5.569
 7477SOL    HW123330   0.827   4.385   5.540
 7477SOL    HW223331   0.936   4.501   5.506
 7478SOL     OW23332   0.691   1.651   5.596
 7478SOL    HW123333   0.787   1.626   5.580
 7478SOL    HW223334   0.650   1.586   5.660
 7479SOL     OW23335   6.237   3.066   6.853
 7479SOL    HW123336   6.268   2.975   6.824
 7479SOL    HW223337   6.148   3.086   6.813
 7480SOL     OW23338   3.610   5.125   2.306
 7480SOL    HW123339   3.554   5.046   2.281
 7480SOL    HW223340   3.551   5.203   2.326
 7481SOL     OW23341   0.308   4.038   6.768
 7481SOL    HW123342   0.310   3.947   6.809
 7481SOL    HW223343   0.366   4.040   6.687
 7482SOL     OW23344   4.080   2.190   2.480
 7482SOL    HW123345   4.118   2.218   2.392
 7482SOL    HW223346   4.087   2.090   2.489
 7483SOL     OW23347   4.371   2.399   6.016
 7483SOL    HW123348   4.342   2.378   6.110
 7483SOL    HW223349   4.382   2.314   5.965
 7484SOL     OW23350   2.953   6.418   4.178
 7484SOL    HW123351   2.955   6.352   4.103
 7484SOL    HW223352   3.045   6.456   4.192
 7485SOL     OW23353   2.568   6.850   4.480
 7485SOL    HW123354   2.529   6.900   4.557
 7485SOL    HW223355   2.574   6.752   4.503
 7486SOL     OW23356   2.194   6.371   0.450
 7486SOL    HW123357   2.099   6.369   0.479
 7486SOL    HW223358   2.205   6.317   0.367
 7487SOL     OW23359   3.840   6.302   3.812
 7487SOL    HW123360   3.782   6.225   3.841
 7487SOL    HW223361   3.898   6.329   3.888
 7488SOL     OW23362   0.851   5.523   4.091
 7488SOL    HW123363   0.878   5.436   4.051
 7488SOL    HW223364   0.766   5.512   4.142
 7489SOL     OW23365   6.517   3.580   6.901
 7489SOL    HW123366   6.585   3.629   6.845
 7489SOL    HW223367   6.503   3.489   6.863
 7490SOL     OW23368   1.071   2.127   2.308
 7490SOL    HW123369   1.149   2.128   2.370
 7490SOL    HW223370   0.988   2.152   2.358
 7491SOL     OW23371   4.464   3.093   0.156
 7491SOL    HW123372   4.411   3.104   0.072
 7491SOL    HW223373   4.444   3.169   0.218
 7492SOL     OW23374   1.790   0.255   4.284
 7492SOL    HW123375   1.784   0.240   4.185
 7492SOL    HW223376   1.746   0.178   4.331
 7493SOL     OW23377   6.419   4.306   5.434
 7493SOL    HW123378   6.335   4.259   5.461
 7493SOL    HW223379   6.399   4.402   5.415
 7494SOL     OW23380   5.895   1.432   3.010
 7494SOL    HW123381   5.904   1.350   2.953
 7494SOL    HW223382   5.985   1.473   3.023
 7495SOL     OW23383   1.848   3.463   4.930
 7495SOL    HW123384   1.752   3.446   4.954
 7495SOL    HW223385   1.859   3.453   4.831
 7496SOL     OW23386   5.545   4.039   2.421
 7496SOL    HW123387   5.451   4.006   2.426
 7496SOL    HW223388   5.548   4.127   2.373
 7497SOL     OW23389   0.220   6.654   0.434
 7497SOL    HW123390   0.124   6.656   0.408
 7497SOL    HW223391   0.234   6.586   0.507
 7498SOL     OW23392   3.353   0.131   3.049
 7498SOL    HW123393   3.330   0.060   2.983
 7498SOL    HW223394   3.313   0.218   3.020
 7499SOL     OW23395   3.863   2.038   3.393
 7499SOL    HW123396   3.875   1.939   3.404
 7499SOL    HW223397   3.768   2.062   3.415
 7500SOL     OW23398   4.018   6.172   2.919
 7500SOL    HW123399   4.064   6.165   3.008
 7500SOL    HW223400   3.972   6.260   2.912
 7501SOL     OW23401   6.188   2.483   4.784
 7501SOL    HW123402   6.274   2.526   4.756
 7501SOL    HW223403   6.205   2.418   4.859
 7502SOL     OW23404   4.002   0.274   4.309
 7502SOL    HW123405   4.092   0.276   4.353
 7502SOL    HW223406   4.014   0.254   4.212
 7503SOL     OW23407   1.510   6.012   1.260
 7503SOL    HW123408   1.592   6.015   1.319
 7503SOL    HW223409   1.464   6.100   1.263
 7504SOL     OW23410   6.237   6.696   3.355
 7504SOL    HW123411   6.201   6.770   3.298
 7504SOL    HW223412   6.210   6.712   3.450
 7505SOL     OW23413   1.063   6.720   5.039
 7505SOL    HW123414   1.120   6.796   5.007
 7505SOL    HW223415   1.042   6.733   5.136
 7506SOL     OW23416   2.538   1.878   3.608
 7506SOL    HW123417   2.596   1.871   3.527
 7506SOL    HW223418   2.594   1.875   3.690
 7507SOL     OW23419   6.385   4.090   4.666
 7507SOL    HW123420   6.301   4.129   4.629
 7507SOL    HW223421   6.388   3.992   4.644
 7508SOL     OW23422   1.875   5.805   6.873
 7508SOL    HW123423   1.862   5.895   6.831
 7508SOL    HW223424   1.899   5.738   6.803
 7509SOL     OW23425   5.055   4.174   0.780
 7509SOL    HW123426   5.102   4.094   0.742
 7509SOL    HW223427   5.023   4.152   0.873
 7510SOL     OW23428   4.006   3.961   4.019
 7510SOL    HW123429   3.920   4.011   4.033
 7510SOL    HW223430   4.081   4.026   4.014
 7511SOL     OW23431   3.678   5.656   3.144
 7511SOL    HW123432   3.709   5.682   3.236
 7511SOL    HW223433   3.610   5.722   3.112
 7512SOL     OW23434   3.195   6.816   6.504
 7512SOL    HW123435   3.147   6.785   6.586
 7512SOL    HW223436   3.214   6.738   6.445
 7513SOL     OW23437   1.137   2.172   3.130
 7513SOL    HW123438   1.051   2.222   3.143
 7513SOL    HW223439   1.168   2.183   3.035
 7514SOL     OW23440   2.280   4.219   2.692
 7514SOL    HW123441   2.208   4.217   2.621
 7514SOL    HW223442   2.315   4.127   2.706
 7515SOL     OW23443   0.460   4.368   4.526
 7515SOL    HW123444   0.455   4.384   4.427
 7515SOL    HW223445   0.549   4.329   4.549
 7516SOL     OW23446   1.207   5.613   5.394
 7516SOL    HW123447   1.157   5.700   5.397
 7516SOL    HW223448   1.295   5.627   5.350
 7517SOL     OW23449   0.408   1.763   0.232
 7517SOL    HW123450   0.424   1.753   0.133
 7517SOL    HW223451   0.313   1.789   0.248
 7518SOL     OW23452   4.731   2.905   3.847
 7518SOL    HW123453   4.788   2.853   3.783
 7518SOL    HW223454   4.638   2.868   3.846
 7519SOL     OW23455   3.530   6.356   5.043
 7519SOL    HW123456   3.432   6.373   5.034
 7519SOL    HW223457   3.546   6.260   5.063
 7520SOL     OW23458   1.916   1.882   1.362
 7520SOL    HW123459   1.991   1.883   1.427
 7520SOL    HW223460   1.940   1.939   1.283
 7521SOL     OW23461   4.245   1.336   5.387
 7521SOL    HW123462   4.222   1.433   5.391
 7521SOL    HW223463   4.331   1.321   5.436
 7522SOL     OW23464   1.756   6.754   2.552
 7522SOL    HW123465   1.774   6.821   2.625
 7522SOL    HW223466   1.824   6.681   2.556
 7523SOL     OW23467   5.424   1.617   6.446
 7523SOL    HW123468   5.485   1.560   6.392
 7523SOL    HW223469   5.476   1.664   6.517
 7524SOL     OW23470   0.013   3.152   4.924
 7524SOL    HW123471   0.004   3.081   4.994
 7524SOL    HW223472   7.002   3.239   4.960
 7525SOL     OW23473   4.272   5.951   6.574
 7525SOL    HW123474   4.313   5.994   6.493
 7525SOL    HW223475   4.183   5.993   6.592
 7526SOL     OW23476   2.485   3.327   1.705
 7526SOL    HW123477   2.411   3.376   1.752
 7526SOL    HW223478   2.506   3.374   1.619
 7527SOL     OW23479   3.727   5.638   3.827
 7527SOL    HW123480   3.693   5.570   3.892
 7527SOL    HW223481   3.759   5.592   3.744
 7528SOL     OW23482   6.811   2.989   6.555
 7528SOL    HW123483   6.768   3.049   6.487
 7528SOL    HW223484   6.748   2.914   6.578
 7529SOL     OW23485   6.560   2.786   4.022
 7529SOL    HW123486   6.486   2.755   4.082
 7529SOL    HW223487   6.607   2.706   3.984
 7530SOL     OW23488   6.414   2.027   2.258
 7530SOL    HW123489   6.368   2.085   2.191
 7530SOL    HW223490   6.499   1.992   2.219
 7531SOL     OW23491   4.249   2.006   3.645
 7531SOL    HW123492   4.177   2.068   3.614
 7531SOL    HW223493   4.209   1.915   3.662
 7532SOL     OW23494   4.485   5.348   6.738
 7532SOL    HW123495   4.463   5.252   6.756
 7532SOL    HW223496   4.493   5.364   6.640
 7533SOL     OW23497   4.732   3.485   1.688
 7533SOL    HW123498   4.668   3.551   1.650
 7533SOL    HW223499   4.703   3.392   1.663
 7534SOL     OW23500   4.606   6.669   4.044
 7534SOL    HW123501   4.654   6.699   4.127
 7534SOL    HW223502   4.551   6.588   4.065
 7535SOL     OW23503   0.506   5.485   4.187
 7535SOL    HW123504   0.506   5.477   4.286
 7535SOL    HW223505   0.451   5.564   4.159
 7536SOL     OW23506   4.997   5.527   4.418
 7536SOL    HW123507   4.922   5.503   4.357
 7536SOL    HW223508   5.084   5.514   4.371
 7537SOL     OW23509   2.924   6.245   2.832
 7537SOL    HW123510   2.848   6.257   2.895
 7537SOL    HW223511   2.979   6.328   2.828
 7538SOL     OW23512   1.150   4.294   0.995
 7538SOL    HW123513   1.090   4.227   0.949
 7538SOL    HW223514   1.186   4.358   0.927
 7539SOL     OW23515   0.668   6.219   3.667
 7539SOL    HW123516   0.739   6.184   3.728
 7539SOL    HW223517   0.631   6.304   3.704
 7540SOL     OW23518   5.822   5.144   3.852
 7540SOL    HW123519   5.793   5.164   3.758
 7540SOL    HW223520   5.745   5.107   3.903
 7541SOL     OW23521   1.179   4.192   6.921
 7541SOL    HW123522   1.133   4.280   6.921
 7541SOL    HW223523   1.196   4.163   7.015
 7542SOL     OW23524   6.138   5.452   6.151
 7542SOL    HW123525   6.105   5.453   6.246
 7542SOL    HW223526   6.060   5.448   6.089
 7543SOL     OW23527   2.900   1.063   5.961
 7543SOL    HW123528   2.965   0.989   5.952
 7543SOL    HW223529   2.843   1.069   5.879
 7544SOL     OW23530   0.240   2.895   4.098
 7544SOL    HW123531   0.258   2.901   4.000
 7544SOL    HW223532   0.144   2.916   4.117
 7545SOL     OW23533   0.924   4.810   0.048
 7545SOL    HW123534   0.976   4.882   0.092
 7545SOL    HW223535   0.905   4.737   0.114
 7546SOL     OW23536   3.353   3.014   1.746
 7546SOL    HW123537   3.315   3.103   1.718
 7546SOL    HW223538   3.289   2.970   1.808
 7547SOL     OW23539   4.352   0.247   2.362
 7547SOL    HW123540   4.339   0.244   2.263
 7547SOL    HW223541   4.449   0.238   2.383
 7548SOL     OW23542   4.525   2.369   6.620
 7548SOL    HW123543   4.589   2.292   6.621
 7548SOL    HW223544   4.567   2.448   6.664
 7549SOL     OW23545   4.182   2.767   5.380
 7549SOL    HW123546   4.122   2.842   5.352
 7549SOL    HW223547   4.172   2.691   5.316
 7550SOL     OW23548   2.035   4.158   4.216
 7550SOL    HW123549   2.067   4.225   4.284
 7550SOL    HW223550   1.949   4.118   4.247
 7551SOL     OW23551   6.079   2.280   5.702
 7551SOL    HW123552   6.115   2.290   5.795
 7551SOL    HW223553   6.128   2.206   5.656
 7552SOL     OW23554   2.600   6.056   4.902
 7552SOL    HW123555   2.505   6.054   4.935
 7552SOL    HW223556   2.660   6.087   4.976
 7553SOL     OW23557   5.751   6.124   5.899
 7553SOL    HW123558   5.748   6.174   5.812
 7553SOL    HW223559   5.676   6.154   5.958
 7554SOL     OW23560   5.448   0.868   0.991
 7554SOL    HW123561   5.380   0.915   0.934
 7554SOL    HW223562   5.401   0.818   1.064
 7555SOL     OW23563   3.661   4.913   5.990
 7555SOL    HW123564   3.678   5.011   5.982
 7555SOL    HW223565   3.623   4.879   5.904
 7556SOL     OW23566   0.271   0.066   1.005
 7556SOL    HW123567   0.298   0.144   0.949
 7556SOL    HW223568   0.265   0.094   1.101
 7557SOL     OW23569   4.856   0.621   6.986
 7557SOL    HW123570   4.944   0.657   7.015
 7557SOL    HW223571   4.861   0.596   6.889
 7558SOL     OW23572   1.618   2.046   3.987
 7558SOL    HW123573   1.584   1.974   4.046
 7558SOL    HW223574   1.715   2.062   4.006
 7559SOL     OW23575   4.260   2.281   4.777
 7559SOL    HW123576   4.342   2.226   4.792
 7559SOL    HW223577   4.253   2.351   4.848
 7560SOL     OW23578   0.427   0.366   6.205
 7560SOL    HW123579   0.508   0.378   6.263
 7560SOL    HW223580   0.443   0.290   6.142
 7561SOL     OW23581   5.505   2.253   4.716
 7561SOL    HW123582   5.537   2.193   4.643
 7561SOL    HW223583   5.406   2.260   4.712
 7562SOL     OW23584   1.516   4.730   3.987
 7562SOL    HW123585   1.446   4.797   3.962
 7562SOL    HW223586   1.509   4.709   4.084
 7563SOL     OW23587   3.541   5.475   2.198
 7563SOL    HW123588   3.472   5.422   2.247
 7563SOL    HW223589   3.631   5.460   2.240
 7564SOL     OW23590   4.658   1.517   4.419
 7564SOL    HW123591   4.729   1.553   4.479
 7564SOL    HW223592   4.650   1.418   4.432
 7565SOL     OW23593   5.322   3.595   6.639
 7565SOL    HW123594   5.408   3.573   6.592
 7565SOL    HW223595   5.298   3.690   6.621
 7566SOL     OW23596   3.861   3.994   1.384
 7566SOL    HW123597   3.875   4.092   1.401
 7566SOL    HW223598   3.847   3.979   1.286
 7567SOL     OW23599   1.526   0.568   4.953
 7567SOL    HW123600   1.586   0.497   4.990
 7567SOL    HW223601   1.433   0.555   4.988
 7568SOL     OW23602   6.114   5.587   1.619
 7568SOL    HW123603   6.090   5.640   1.537
 7568SOL    HW223604   6.205   5.547   1.607
 7569SOL     OW23605   4.677   3.467   6.863
 7569SOL    HW123606   4.674   3.457   6.764
 7569SOL    HW223607   4.591   3.433   6.902
 7570SOL     OW23608   6.377   2.941   3.097
 7570SOL    HW123609   6.471   2.948   3.062
 7570SOL    HW223610   6.356   2.846   3.116
 7571SOL     OW23611   4.564   2.230   2.877
 7571SOL    HW123612   4.644   2.269   2.831
 7571SOL    HW223613   4.509   2.303   2.917
 7572SOL     OW23614   4.942   6.307   2.363
 7572SOL    HW123615   5.026   6.341   2.319
 7572SOL    HW223616   4.867   6.309   2.298
 7573SOL     OW23617   4.922   6.237   5.890
 7573SOL    HW123618   4.934   6.243   5.989
 7573SOL    HW223619   4.844   6.178   5.868
 7574SOL     OW23620   6.842   1.368   4.488
 7574SOL    HW123621   6.937   1.368   4.519
 7574SOL    HW223622   6.839   1.387   4.390
 7575SOL     OW23623   0.092   6.690   2.406
 7575SOL    HW123624   0.057   6.612   2.353
 7575SOL    HW223625   0.114   6.765   2.344
 7576SOL     OW23626   5.447   2.845   0.634
 7576SOL    HW123627   5.519   2.785   0.668
 7576SOL    HW223628   5.360   2.822   0.678
 7577SOL     OW23629   1.071   0.362   0.720
 7577SOL    HW123630   1.065   0.382   0.622
 7577SOL    HW223631   1.135   0.286   0.735
 7578SOL     OW23632   6.839   6.009   3.409
 7578SOL    HW123633   6.816   6.099   3.445
 7578SOL    HW223634   6.910   6.017   3.339
 7579SOL     OW23635   6.550   1.077   6.954
 7579SOL    HW123636   6.524   1.056   0.024
 7579SOL    HW223637   6.473   1.120   6.907
 7580SOL     OW23638   2.329   4.882   3.621
 7580SOL    HW123639   2.362   4.930   3.539
 7580SOL    HW223640   2.347   4.938   3.702
 7581SOL     OW23641   6.346   0.945   2.397
 7581SOL    HW123642   6.363   0.881   2.472
 7581SOL    HW223643   6.405   0.923   2.320
 7582SOL     OW23644   3.125   1.269   4.639
 7582SOL    HW123645   3.098   1.256   4.544
 7582SOL    HW223646   3.199   1.337   4.643
 7583SOL     OW23647   4.896   3.243   3.474
 7583SOL    HW123648   4.935   3.161   3.433
 7583SOL    HW223649   4.898   3.318   3.409
 7584SOL     OW23650   0.085   0.400   2.731
 7584SOL    HW123651   7.009   0.404   2.727
 7584SOL    HW223652   0.117   0.456   2.808
 7585SOL     OW23653   0.745   1.967   0.088
 7585SOL    HW123654   0.747   1.911   0.170
 7585SOL    HW223655   0.831   2.017   0.079
 7586SOL     OW23656   1.226   1.887   2.898
 7586SOL    HW123657   1.244   1.797   2.856
 7586SOL    HW223658   1.223   1.877   2.998
 7587SOL     OW23659   2.874   0.987   0.792
 7587SOL    HW123660   2.919   1.009   0.705
 7587SOL    HW223661   2.942   0.950   0.856
 7588SOL     OW23662   1.809   2.637   4.361
 7588SOL    HW123663   1.769   2.639   4.269
 7588SOL    HW223664   1.836   2.729   4.388
 7589SOL     OW23665   0.196   0.725   3.075
 7589SOL    HW123666   0.217   0.660   3.001
 7589SOL    HW223667   0.266   0.718   3.145
 7590SOL     OW23668   0.116   1.564   6.811
 7590SOL    HW123669   0.139   1.634   6.878
 7590SOL    HW223670   0.200   1.521   6.777
 7591SOL     OW23671   4.089   3.252   5.340
 7591SOL    HW123672   4.054   3.315   5.272
 7591SOL    HW223673   4.171   3.290   5.382
 7592SOL     OW23674   6.818   6.637   5.154
 7592SOL    HW123675   6.799   6.567   5.086
 7592SOL    HW223676   6.907   6.620   5.197
 7593SOL     OW23677   1.068   1.515   5.988
 7593SOL    HW123678   0.989   1.575   5.980
 7593SOL    HW223679   1.038   1.421   6.003
 7594SOL     OW23680   0.647   4.372   0.772
 7594SOL    HW123681   0.730   4.394   0.823
 7594SOL    HW223682   0.567   4.381   0.831
 7595SOL     OW23683   6.787   2.766   5.886
 7595SOL    HW123684   6.798   2.800   5.979
 7595SOL    HW223685   6.829   2.676   5.878
 7596SOL     OW23686   3.045   0.735   5.026
 7596SOL    HW123687   3.007   0.822   4.997
 7596SOL    HW223688   2.977   0.662   5.013
 7597SOL     OW23689   1.597   4.622   2.224
 7597SOL    HW123690   1.530   4.561   2.182
 7597SOL    HW223691   1.615   4.700   2.164
 7598SOL     OW23692   6.481   1.053   3.357
 7598SOL    HW123693   6.536   1.098   3.427
 7598SOL    HW223694   6.533   0.977   3.318
 7599SOL     OW23695   3.866   2.982   1.005
 7599SOL    HW123696   3.808   2.989   1.087
 7599SOL    HW223697   3.962   2.992   1.032
 7600SOL     OW23698   1.331   0.772   4.227
 7600SOL    HW123699   1.289   0.750   4.139
 7600SOL    HW223700   1.263   0.765   4.300
 7601SOL     OW23701   3.871   5.914   2.023
 7601SOL    HW123702   3.890   5.873   1.934
 7601SOL    HW223703   3.846   5.842   2.088
 7602SOL     OW23704   6.774   1.558   0.851
 7602SOL    HW123705   6.721   1.511   0.921
 7602SOL    HW223706   6.736   1.649   0.836
 7603SOL     OW23707   2.471   0.489   5.269
 7603SOL    HW123708   2.569   0.478   5.285
 7603SOL    HW223709   2.454   0.504   5.172
 7604SOL     OW23710   0.636   2.816   4.894
 7604SOL    HW123711   0.582   2.887   4.850
 7604SOL    HW223712   0.575   2.742   4.925
 7605SOL     OW23713   2.249   0.132   0.232
 7605SOL    HW123714   2.152   0.120   0.251
 7605SOL    HW223715   2.303   0.090   0.305
 7606SOL     OW23716   6.551   1.615   3.741
 7606SOL    HW123717   6.524   1.537   3.685
 7606SOL    HW223718   6.621   1.668   3.692
 7607SOL     OW23719   2.772   5.763   5.877
 7607SOL    HW123720   2.864   5.751   5.840
 7607SOL    HW223721   2.710   5.697   5.834
 7608SOL     OW23722   6.105   2.611   5.986
 7608SOL    HW123723   6.038   2.606   5.911
 7608SOL    HW223724   6.058   2.595   6.073
 7609SOL     OW23725   0.914   1.635   4.764
 7609SOL    HW123726   0.855   1.693   4.820
 7609SOL    HW223727   0.935   1.551   4.813
 7610SOL     OW23728   3.603   4.682   5.772
 7610SOL    HW123729   3.592   4.685   5.673
 7610SOL    HW223730   3.518   4.709   5.816
 7611SOL     OW23731   4.771   3.458   1.263
 7611SOL    HW123732   4.774   3.375   1.207
 7611SOL    HW223733   4.789   3.434   1.359
 7612SOL     OW23734   2.298   1.705   3.156
 7612SOL    HW123735   2.211   1.755   3.157
 7612SOL    HW223736   2.319   1.673   3.248
 7613SOL     OW23737   0.445   1.123   2.331
 7613SOL    HW123738   0.483   1.215   2.336
 7613SOL    HW223739   0.345   1.128   2.332
 7614SOL     OW23740   5.197   3.540   0.883
 7614SOL    HW123741   5.200   3.440   0.887
 7614SOL    HW223742   5.119   3.573   0.937
 7615SOL     OW23743   5.719   3.498   4.771
 7615SOL    HW123744   5.629   3.542   4.778
 7615SOL    HW223745   5.766   3.532   4.689
 7616SOL     OW23746   6.428   6.926   3.476
 7616SOL    HW123747   6.466   7.005   3.523
 7616SOL    HW223748   6.388   6.864   3.543
 7617SOL     OW23749   5.376   5.299   3.342
 7617SOL    HW123750   5.464   5.264   3.374
 7617SOL    HW223751   5.337   5.236   3.275
 7618SOL     OW23752   2.949   3.100   0.432
 7618SOL    HW123753   2.878   3.031   0.444
 7618SOL    HW223754   3.029   3.058   0.388
 7619SOL     OW23755   0.947   2.322   4.155
 7619SOL    HW123756   0.936   2.290   4.249
 7619SOL    HW223757   1.030   2.376   4.147
 7620SOL     OW23758   4.037   3.783   1.413
 7620SOL    HW123759   4.012   3.704   1.469
 7620SOL    HW223760   3.957   3.843   1.402
 7621SOL     OW23761   0.298   4.820   0.796
 7621SOL    HW123762   0.296   4.920   0.788
 7621SOL    HW223763   0.313   4.780   0.706
 7622SOL     OW23764   2.869   3.351   1.106
 7622SOL    HW123765   2.796   3.333   1.171
 7622SOL    HW223766   2.945   3.395   1.153
 7623SOL     OW23767   4.889   4.847   1.159
 7623SOL    HW123768   4.980   4.805   1.162
 7623SOL    HW223769   4.823   4.780   1.125
 7624SOL     OW23770   0.817   2.931   2.420
 7624SOL    HW123771   0.745   2.972   2.363
 7624SOL    HW223772   0.906   2.952   2.380
 7625SOL     OW23773   5.196   1.611   0.498
 7625SOL    HW123774   5.240   1.568   0.420
 7625SOL    HW223775   5.126   1.550   0.535
 7626SOL     OW23776   5.610   0.721   5.227
 7626SOL    HW123777   5.566   0.802   5.266
 7626SOL    HW223778   5.710   0.730   5.236
 7627SOL     OW23779   3.519   2.120   6.171
 7627SOL    HW123780   3.474   2.045   6.221
 7627SOL    HW223781   3.571   2.176   6.235
 7628SOL     OW23782   3.640   2.814   6.951
 7628SOL    HW123783   3.551   2.768   6.947
 7628SOL    HW223784   3.627   2.911   6.969
 7629SOL     OW23785   6.167   3.113   3.774
 7629SOL    HW123786   6.226   3.193   3.781
 7629SOL    HW223787   6.180   3.055   3.855
 7630SOL     OW23788   1.406   6.861   5.371
 7630SOL    HW123789   1.445   6.844   5.280
 7630SOL    HW223790   1.365   6.777   5.406
 7631SOL     OW23791   1.811   0.018   5.423
 7631SOL    HW123792   1.886   6.989   5.386
 7631SOL    HW223793   1.844   0.076   5.498
 7632SOL     OW23794   4.970   5.216   0.520
 7632SOL    HW123795   4.927   5.253   0.437
 7632SOL    HW223796   5.013   5.289   0.572
 7633SOL     OW23797   6.175   1.245   0.946
 7633SOL    HW123798   6.113   1.214   0.873
 7633SOL    HW223799   6.189   1.170   1.011
 7634SOL     OW23800   0.315   2.119   0.387
 7634SOL    HW123801   0.319   2.218   0.398
 7634SOL    HW223802   0.392   2.077   0.436
 7635SOL     OW23803   2.595   4.509   6.353
 7635SOL    HW123804   2.645   4.466   6.278
 7635SOL    HW223805   2.506   4.540   6.321
 7636SOL     OW23806   0.630   3.726   4.914
 7636SOL    HW123807   0.601   3.719   4.819
 7636SOL    HW223808   0.689   3.648   4.937
 7637SOL     OW23809   0.634   6.403   4.339
 7637SOL    HW123810   0.588   6.424   4.253
 7637SOL    HW223811   0.660   6.306   4.339
 7638SOL     OW23812   0.513   5.495   1.677
 7638SOL    HW123813   0.611   5.481   1.664
 7638SOL    HW223814   0.467   5.406   1.683
 7639SOL     OW23815   1.566   1.169   0.059
 7639SOL    HW123816   1.553   1.266   0.084
 7639SOL    HW223817   1.593   1.117   0.140
 7640SOL     OW23818   3.289   0.940   6.741
 7640SOL    HW123819   3.240   1.024   6.720
 7640SOL    HW223820   3.229   0.862   6.729
 7641SOL     OW23821   0.602   3.999   3.176
 7641SOL    HW123822   0.517   4.002   3.124
 7641SOL    HW223823   0.586   4.034   3.269
 7642SOL     OW23824   6.232   0.891   3.910
 7642SOL    HW123825   6.247   0.990   3.912
 7642SOL    HW223826   6.295   0.846   3.973
 7643SOL     OW23827   5.199   3.429   2.997
 7643SOL    HW123828   5.161   3.462   2.910
 7643SOL    HW223829   5.124   3.412   3.061
 7644SOL     OW23830   5.254   3.674   1.753
 7644SOL    HW123831   5.224   3.768   1.768
 7644SOL    HW223832   5.348   3.674   1.717
 7645SOL     OW23833   3.348   3.868   6.176
 7645SOL    HW123834   3.379   3.773   6.186
 7645SOL    HW223835   3.270   3.871   6.114
 7646SOL     OW23836   0.505   2.534   2.897
 7646SOL    HW123837   0.517   2.481   2.813
 7646SOL    HW223838   0.521   2.631   2.879
 7647SOL     OW23839   6.780   2.923   5.183
 7647SOL    HW123840   6.720   2.980   5.127
 7647SOL    HW223841   6.862   2.975   5.208
 7648SOL     OW23842   2.466   1.493   1.568
 7648SOL    HW123843   2.554   1.529   1.535
 7648SOL    HW223844   2.482   1.425   1.639
 7649SOL     OW23845   4.982   1.168   5.367
 7649SOL    HW123846   5.053   1.223   5.323
 7649SOL    HW223847   4.908   1.152   5.301
 7650SOL     OW23848   4.067   1.930   0.355
 7650SOL    HW123849   4.052   2.025   0.382
 7650SOL    HW223850   4.045   1.870   0.432
 7651SOL     OW23851   2.635   4.818   5.964
 7651SOL    HW123852   2.715   4.854   6.011
 7651SOL    HW223853   2.631   4.719   5.975
 7652SOL     OW23854   6.131   1.358   4.191
 7652SOL    HW123855   6.110   1.406   4.106
 7652SOL    HW223856   6.229   1.336   4.193
 7653SOL     OW23857   0.682   1.598   6.410
 7653SOL    HW123858   0.776   1.632   6.421
 7653SOL    HW223859   0.620   1.653   6.466
 7654SOL     OW23860   5.785   2.466   6.278
 7654SOL    HW123861   5.702   2.514   6.251
 7654SOL    HW223862   5.761   2.385   6.331
 7655SOL     OW23863   3.078   0.586   3.270
 7655SOL    HW123864   3.155   0.644   3.244
 7655SOL    HW223865   3.077   0.574   3.370
 7656SOL     OW23866   6.647   3.201   0.006
 7656SOL    HW123867   6.549   3.193   0.024
 7656SOL    HW223868   6.662   3.242   6.940
 7657SOL     OW23869   1.422   3.818   4.464
 7657SOL    HW123870   1.464   3.908   4.451
 7657SOL    HW223871   1.400   3.778   4.376
 7658SOL     OW23872   2.494   1.487   0.677
 7658SOL    HW123873   2.542   1.451   0.757
 7658SOL    HW223874   2.472   1.583   0.691
 7659SOL     OW23875   4.336   3.815   5.557
 7659SOL    HW123876   4.351   3.738   5.496
 7659SOL    HW223877   4.297   3.891   5.505
 7660SOL     OW23878   0.235   5.844   4.617
 7660SOL    HW123879   0.208   5.931   4.574
 7660SOL    HW223880   0.315   5.808   4.570
 7661SOL     OW23881   4.774   2.674   5.738
 7661SOL    HW123882   4.828   2.610   5.793
 7661SOL    HW223883   4.677   2.651   5.746
 7662SOL     OW23884   0.690   1.765   1.956
 7662SOL    HW123885   0.599   1.728   1.975
 7662SOL    HW223886   0.759   1.695   1.977
 7663SOL     OW23887   6.359   5.451   5.324
 7663SOL    HW123888   6.454   5.462   5.353
 7663SOL    HW223889   6.300   5.446   5.404
 7664SOL     OW23890   3.657   2.066   2.261
 7664SOL    HW123891   3.647   2.092   2.357
 7664SOL    HW223892   3.695   2.142   2.209
 7665SOL     OW23893   4.127   1.385   4.786
 7665SOL    HW123894   4.165   1.384   4.878
 7665SOL    HW223895   4.167   1.462   4.735
 7666SOL     OW23896   5.708   5.132   4.207
 7666SOL    HW123897   5.696   5.048   4.154
 7666SOL    HW223898   5.805   5.143   4.230
 7667SOL     OW23899   4.632   6.234   1.622
 7667SOL    HW123900   4.678   6.275   1.543
 7667SOL    HW223901   4.561   6.296   1.655
 7668SOL     OW23902   2.287   4.942   1.022
 7668SOL    HW123903   2.379   4.978   1.039
 7668SOL    HW223904   2.233   4.949   1.106
 7669SOL     OW23905   2.729   6.755   5.592
 7669SOL    HW123906   2.642   6.798   5.565
 7669SOL    HW223907   2.730   6.742   5.691
 7670SOL     OW23908   0.249   6.521   0.153
 7670SOL    HW123909   0.237   6.558   0.246
 7670SOL    HW223910   0.270   6.595   0.090
 7671SOL     OW23911   4.673   0.293   0.904
 7671SOL    HW123912   4.634   0.361   0.841
 7671SOL    HW223913   4.628   0.300   0.993
 7672SOL     OW23914   5.143   4.424   3.091
 7672SOL    HW123915   5.054   4.397   3.053
 7672SOL    HW223916   5.207   4.443   3.017
 7673SOL     OW23917   0.734   6.127   4.284
 7673SOL    HW123918   0.806   6.114   4.352
 7673SOL    HW223919   0.704   6.038   4.251
 7674SOL     OW23920   3.823   6.491   4.502
 7674SOL    HW123921   3.767   6.555   4.448
 7674SOL    HW223922   3.863   6.423   4.441
 7675SOL     OW23923   3.925   6.924   2.958
 7675SOL    HW123924   3.912   6.962   3.050
 7675SOL    HW223925   3.932   6.998   2.892
 7676SOL     OW23926   3.104   2.901   5.280
 7676SOL    HW123927   3.191   2.933   5.318
 7676SOL    HW223928   3.092   2.938   5.188
 7677SOL     OW23929   5.883   4.917   1.161
 7677SOL    HW123930   5.800   4.951   1.205
 7677SOL    HW223931   5.932   4.993   1.118
 7678SOL     OW23932   1.418   1.185   5.317
 7678SOL    HW123933   1.372   1.096   5.315
 7678SOL    HW223934   1.357   1.255   5.280
 7679SOL     OW23935   1.978   5.467   5.305
 7679SOL    HW123936   2.012   5.435   5.217
 7679SOL    HW223937   2.051   5.517   5.352
 7680SOL     OW23938   2.101   0.215   5.066
 7680SOL    HW123939   2.170   0.218   4.994
 7680SOL    HW223940   2.050   0.129   5.060
 7681SOL     OW23941   2.562   3.542   6.723
 7681SOL    HW123942   2.469   3.504   6.731
 7681SOL    HW223943   2.563   3.610   6.650
 7682SOL     OW23944   3.233   1.645   2.267
 7682SOL    HW123945   3.277   1.640   2.356
 7682SOL    HW223946   3.163   1.716   2.268
 7683SOL     OW23947   1.112   0.695   4.392
 7683SOL    HW123948   1.073   0.610   4.356
 7683SOL    HW223949   1.058   0.773   4.359
 7684SOL     OW23950   4.499   2.114   1.782
 7684SOL    HW123951   4.502   2.042   1.713
 7684SOL    HW223952   4.528   2.201   1.740
 7685SOL     OW23953   2.335   0.667   6.958
 7685SOL    HW123954   2.272   0.723   7.012
 7685SOL    HW223955   2.354   0.582   7.007
 7686SOL     OW23956   5.731   0.392   4.211
 7686SOL    HW123957   5.644   0.424   4.248
 7686SOL    HW223958   5.723   0.385   4.111
 7687SOL     OW23959   5.247   5.063   4.916
 7687SOL    HW123960   5.200   5.007   4.848
 7687SOL    HW223961   5.181   5.100   4.981
 7688SOL     OW23962   0.662   4.765   6.632
 7688SOL    HW123963   0.682   4.862   6.617
 7688SOL    HW223964   0.716   4.732   6.710
 7689SOL     OW23965   4.540   0.471   1.721
 7689SOL    HW123966   4.475   0.440   1.790
 7689SOL    HW223967   4.493   0.527   1.653
 7690SOL     OW23968   6.100   5.731   1.343
 7690SOL    HW123969   6.198   5.710   1.343
 7690SOL    HW223970   6.086   5.825   1.311
 7691SOL     OW23971   4.575   4.420   2.619
 7691SOL    HW123972   4.565   4.503   2.564
 7691SOL    HW223973   4.575   4.340   2.559
 7692SOL     OW23974   2.242   6.842   1.999
 7692SOL    HW123975   2.245   6.941   1.989
 7692SOL    HW223976   2.274   6.816   2.090
 7693SOL     OW23977   2.685   1.871   0.869
 7693SOL    HW123978   2.616   1.806   0.838
 7693SOL    HW223979   2.776   1.834   0.850
 7694SOL     OW23980   5.804   1.950   5.412
 7694SOL    HW123981   5.817   2.036   5.461
 7694SOL    HW223982   5.710   1.919   5.423
 7695SOL     OW23983   5.328   0.470   2.472
 7695SOL    HW123984   5.308   0.372   2.470
 7695SOL    HW223985   5.243   0.521   2.458
 7696SOL     OW23986   0.479   2.683   6.501
 7696SOL    HW123987   0.436   2.689   6.591
 7696SOL    HW223988   0.414   2.708   6.430
 7697SOL     OW23989   4.525   6.861   2.859
 7697SOL    HW123990   4.517   6.948   2.811
 7697SOL    HW223991   4.444   6.806   2.843
 7698SOL     OW23992   6.224   2.090   6.653
 7698SOL    HW123993   6.320   2.116   6.660
 7698SOL    HW223994   6.206   2.013   6.714
 7699SOL     OW23995   3.613   5.201   5.604
 7699SOL    HW123996   3.644   5.270   5.539
 7699SOL    HW223997   3.614   5.111   5.561
 7700SOL     OW23998   4.805   5.376   2.578
 7700SOL    HW123999   4.718   5.395   2.623
 7700SOL    HW224000   4.809   5.424   2.491
 7701SOL     OW24001   0.274   2.762   6.036
 7701SOL    HW124002   0.323   2.718   5.961
 7701SOL    HW224003   0.340   2.793   6.105
 7702SOL     OW24004   4.496   0.088   4.924
 7702SOL    HW124005   4.408   0.083   4.971
 7702SOL    HW224006   4.487   0.046   4.833
 7703SOL     OW24007   6.353   6.755   5.114
 7703SOL    HW124008   6.374   6.853   5.119
 7703SOL    HW224009   6.318   6.725   5.203
 7704SOL     OW24010   6.585   1.843   4.304
 7704SOL    HW124011   6.672   1.805   4.273
 7704SOL    HW224012   6.581   1.940   4.282
 7705SOL     OW24013   1.835   5.135   0.560
 7705SOL    HW124014   1.901   5.147   0.634
 7705SOL    HW224015   1.748   5.179   0.584
 7706SOL     OW24016   3.450   2.810   2.144
 7706SOL    HW124017   3.486   2.733   2.091
 7706SOL    HW224018   3.351   2.801   2.152
 7707SOL     OW24019   6.835   5.079   6.565
 7707SOL    HW124020   6.804   4.984   6.567
 7707SOL    HW224021   6.757   5.139   6.548
 7708SOL     OW24022   2.364   0.024   4.605
 7708SOL    HW124023   2.318   6.999   4.679
 7708SOL    HW224024   2.295   0.063   4.544
 7709SOL     OW24025   0.406   5.268   1.720
 7709SOL    HW124026   0.401   5.205   1.797
 7709SOL    HW224027   0.356   5.230   1.642
 7710SOL     OW24028   0.918   3.904   1.449
 7710SOL    HW124029   0.872   3.929   1.363
 7710SOL    HW224030   0.896   3.971   1.519
 7711SOL     OW24031   6.775   4.975   5.246
 7711SOL    HW124032   6.819   5.002   5.160
 7711SOL    HW224033   6.839   4.922   5.301
 7712SOL     OW24034   6.487   4.297   5.987
 7712SOL    HW124035   6.500   4.356   5.908
 7712SOL    HW224036   6.406   4.240   5.973
 7713SOL     OW24037   2.218   4.734   0.049
 7713SOL    HW124038   2.173   4.648   0.074
 7713SOL    HW224039   2.249   4.730   6.979
 7714SOL     OW24040   6.619   0.835   5.335
 7714SOL    HW124041   6.699   0.775   5.343
 7714SOL    HW224042   6.624   0.887   5.250
 7715SOL     OW24043   3.050   2.772   5.798
 7715SOL    HW124044   2.987   2.846   5.820
 7715SOL    HW224045   2.999   2.695   5.760
 7716SOL     OW24046   1.360   5.566   5.622
 7716SOL    HW124047   1.441   5.549   5.565
 7716SOL    HW224048   1.279   5.573   5.564
 7717SOL     OW24049   1.316   1.816   6.647
 7717SOL    HW124050   1.305   1.717   6.640
 7717SOL    HW224051   1.242   1.854   6.703
 7718SOL     OW24052   1.363   3.881   2.678
 7718SOL    HW124053   1.374   3.913   2.772
 7718SOL    HW224054   1.363   3.781   2.677
 7719SOL     OW24055   1.595   4.360   4.872
 7719SOL    HW124056   1.503   4.385   4.901
 7719SOL    HW224057   1.614   4.265   4.898
 7720SOL     OW24058   5.617   1.745   6.611
 7720SOL    HW124059   5.555   1.818   6.641
 7720SOL    HW224060   5.707   1.785   6.591
 7721SOL     OW24061   0.767   0.693   2.357
 7721SOL    HW124062   0.746   0.789   2.341
 7721SOL    HW224063   0.753   0.672   2.454
 7722SOL     OW24064   2.534   6.167   3.275
 7722SOL    HW124065   2.527   6.259   3.314
 7722SOL    HW224066   2.491   6.101   3.336
 7723SOL     OW24067   5.100   4.485   0.889
 7723SOL    HW124068   5.068   4.458   0.798
 7723SOL    HW224069   5.122   4.403   0.943
 7724SOL     OW24070   2.246   3.987   2.132
 7724SOL    HW124071   2.281   4.073   2.168
 7724SOL    HW224072   2.207   3.933   2.206
 7725SOL     OW24073   5.353   3.374   3.530
 7725SOL    HW124074   5.336   3.458   3.580
 7725SOL    HW224075   5.353   3.296   3.593
 7726SOL     OW24076   0.361   2.993   6.497
 7726SOL    HW124077   0.377   2.895   6.511
 7726SOL    HW224078   0.296   3.026   6.566
 7727SOL     OW24079   5.500   1.907   2.284
 7727SOL    HW124080   5.564   1.854   2.339
 7727SOL    HW224081   5.544   1.934   2.198
 7728SOL     OW24082   2.059   3.445   4.584
 7728SOL    HW124083   1.970   3.421   4.622
 7728SOL    HW224084   2.073   3.543   4.592
 7729SOL     OW24085   6.530   2.137   4.184
 7729SOL    HW124086   6.445   2.119   4.134
 7729SOL    HW224087   6.606   2.147   4.120
 7730SOL     OW24088   6.628   4.363   5.189
 7730SOL    HW124089   6.555   4.355   5.257
 7730SOL    HW224090   6.637   4.276   5.140
 7731SOL     OW24091   6.278   6.683   6.834
 7731SOL    HW124092   6.293   6.590   6.867
 7731SOL    HW224093   6.366   6.726   6.812
 7732SOL     OW24094   4.092   7.021   6.379
 7732SOL    HW124095   4.028   0.073   6.365
 7732SOL    HW224096   4.185   0.034   6.390
 7733SOL     OW24097   6.364   6.031   2.293
 7733SOL    HW124098   6.333   5.945   2.252
 7733SOL    HW224099   6.455   6.017   2.333
 7734SOL     OW24100   3.351   3.730   5.232
 7734SOL    HW124101   3.340   3.804   5.165
 7734SOL    HW224102   3.428   3.751   5.292
 7735SOL     OW24103   0.057   6.177   0.746
 7735SOL    HW124104   0.075   6.091   0.795
 7735SOL    HW224105   0.134   6.239   0.758
 7736SOL     OW24106   2.836   3.193   0.741
 7736SOL    HW124107   2.875   3.170   0.652
 7736SOL    HW224108   2.897   3.163   0.814
 7737SOL     OW24109   3.835   4.588   1.454
 7737SOL    HW124110   3.820   4.631   1.365
 7737SOL    HW224111   3.934   4.577   1.469
 7738SOL     OW24112   2.453   6.449   6.718
 7738SOL    HW124113   2.381   6.384   6.741
 7738SOL    HW224114   2.538   6.400   6.701
 7739SOL     OW24115   1.106   1.945   0.328
 7739SOL    HW124116   1.082   1.895   0.411
 7739SOL    HW224117   1.205   1.939   0.313
 7740SOL     OW24118   1.816   0.736   4.516
 7740SOL    HW124119   1.808   0.676   4.436
 7740SOL    HW224120   1.771   0.823   4.496
 7741SOL     OW24121   1.773   3.947   6.270
 7741SOL    HW124122   1.698   3.925   6.208
 7741SOL    HW224123   1.848   3.988   6.217
 7742SOL     OW24124   4.237   1.494   4.239
 7742SOL    HW124125   4.288   1.578   4.223
 7742SOL    HW224126   4.267   1.424   4.174
 7743SOL     OW24127   4.847   1.850   5.717
 7743SOL    HW124128   4.920   1.881   5.655
 7743SOL    HW224129   4.867   1.882   5.810
 7744SOL     OW24130   0.240   6.496   4.465
 7744SOL    HW124131   0.164   6.527   4.523
 7744SOL    HW224132   0.309   6.451   4.523
 7745SOL     OW24133   2.287   0.162   0.809
 7745SOL    HW124134   2.320   0.163   0.904
 7745SOL    HW224135   2.298   0.253   0.769
 7746SOL     OW24136   1.411   6.149   0.860
 7746SOL    HW124137   1.489   6.169   0.801
 7746SOL    HW224138   1.397   6.224   0.924
 7747SOL     OW24139   1.129   6.248   0.503
 7747SOL    HW124140   1.165   6.225   0.412
 7747SOL    HW224141   1.131   6.167   0.561
 7748SOL     OW24142   4.231   2.420   5.661
 7748SOL    HW124143   4.223   2.396   5.564
 7748SOL    HW224144   4.167   2.494   5.683
 7749SOL     OW24145   3.743   3.353   4.109
 7749SOL    HW124146   3.661   3.410   4.116
 7749SOL    HW224147   3.728   3.267   4.157
 7750SOL     OW24148   5.741   4.346   5.566
 7750SOL    HW124149   5.660   4.293   5.541
 7750SOL    HW224150   5.772   4.400   5.488
 7751SOL     OW24151   6.879   0.762   5.134
 7751SOL    HW124152   6.868   0.679   5.080
 7751SOL    HW224153   6.958   0.814   5.102
 7752SOL     OW24154   6.225   5.815   5.217
 7752SOL    HW124155   6.225   5.736   5.156
 7752SOL    HW224156   6.174   5.889   5.174
 7753SOL     OW24157   2.415   0.833   4.578
 7753SOL    HW124158   2.509   0.866   4.571
 7753SOL    HW224159   2.407   0.773   4.658
 7754SOL     OW24160   5.856   0.754   1.412
 7754SOL    HW124161   5.786   0.826   1.412
 7754SOL    HW224162   5.823   0.677   1.358
 7755SOL     OW24163   0.920   5.685   5.620
 7755SOL    HW124164   0.860   5.754   5.660
 7755SOL    HW224165   0.961   5.721   5.536
 7756SOL     OW24166   3.792   5.357   1.791
 7756SOL    HW124167   3.749   5.302   1.862
 7756SOL    HW224168   3.846   5.430   1.834
 7757SOL     OW24169   4.578   6.294   5.783
 7757SOL    HW124170   4.599   6.307   5.687
 7757SOL    HW224171   4.623   6.211   5.817
 7758SOL     OW24172   2.590   2.062   5.803
 7758SOL    HW124173   2.663   2.007   5.763
 7758SOL    HW224174   2.579   2.146   5.749
 7759SOL     OW24175   2.186   1.047   3.988
 7759SOL    HW124176   2.201   0.991   4.070
 7759SOL    HW224177   2.224   1.138   4.003
 7760SOL     OW24178   5.246   2.979   2.318
 7760SOL    HW124179   5.158   2.981   2.366
 7760SOL    HW224180   5.306   3.050   2.355
 7761SOL     OW24181   3.369   6.624   0.060
 7761SOL    HW124182   3.368   6.587   0.153
 7761SOL    HW224183   3.407   6.716   0.061
 7762SOL     OW24184   3.970   1.309   0.086
 7762SOL    HW124185   3.918   1.343   0.008
 7762SOL    HW224186   3.909   1.262   0.149
 7763SOL     OW24187   1.758   1.981   0.481
 7763SOL    HW124188   1.673   2.021   0.448
 7763SOL    HW224189   1.819   1.964   0.403
 7764SOL     OW24190   3.436   2.868   2.527
 7764SOL    HW124191   3.426   2.774   2.496
 7764SOL    HW224192   3.481   2.922   2.456
 7765SOL     OW24193   6.698   2.224   2.910
 7765SOL    HW124194   6.760   2.294   2.876
 7765SOL    HW224195   6.618   2.268   2.951
 7766SOL     OW24196   6.399   2.213   6.984
 7766SOL    HW124197   6.490   2.183   7.012
 7766SOL    HW224198   6.330   2.165   0.015
 7767SOL     OW24199   4.370   5.704   4.131
 7767SOL    HW124200   4.395   5.704   4.228
 7767SOL    HW224201   4.385   5.795   4.092
 7768SOL     OW24202   3.819   4.925   2.162
 7768SOL    HW124203   3.797   4.987   2.237
 7768SOL    HW224204   3.735   4.878   2.133
 7769SOL     OW24205   5.367   2.027   0.865
 7769SOL    HW124206   5.335   1.941   0.904
 7769SOL    HW224207   5.381   2.094   0.938
 7770SOL     OW24208   2.911   5.088   1.298
 7770SOL    HW124209   2.845   5.024   1.338
 7770SOL    HW224210   2.914   5.171   1.353
 7771SOL     OW24211   2.730   2.548   6.087
 7771SOL    HW124212   2.644   2.578   6.047
 7771SOL    HW224213   2.725   2.451   6.111
 7772SOL     OW24214   4.484   0.619   4.116
 7772SOL    HW124215   4.575   0.659   4.131
 7772SOL    HW224216   4.482   0.576   4.026
 7773SOL     OW24217   4.099   3.793   5.748
 7773SOL    HW124218   4.180   3.804   5.690
 7773SOL    HW224219   4.113   3.842   5.834
 7774SOL     OW24220   4.984   1.929   5.931
 7774SOL    HW124221   5.039   1.997   5.882
 7774SOL    HW224222   5.041   1.884   6.000
 7775SOL     OW24223   3.609   6.440   2.007
 7775SOL    HW124224   3.623   6.507   1.934
 7775SOL    HW224225   3.553   6.480   2.079
 7776SOL     OW24226   3.556   3.622   6.886
 7776SOL    HW124227   3.571   3.711   6.843
 7776SOL    HW224228   3.565   3.630   6.985
 7777SOL     OW24229   2.187   0.416   6.336
 7777SOL    HW124230   2.145   0.504   6.359
 7777SOL    HW224231   2.179   0.401   6.237
 7778SOL     OW24232   5.374   0.242   0.125
 7778SOL    HW124233   5.449   0.292   0.083
 7778SOL    HW224234   5.287   0.277   0.090
 7779SOL     OW24235   3.933   2.557   0.596
 7779SOL    HW124236   3.907   2.509   0.680
 7779SOL    HW224237   3.858   2.551   0.530
 7780SOL     OW24238   2.270   6.007   5.060
 7780SOL    HW124239   2.178   5.978   5.088
 7780SOL    HW224240   2.322   5.927   5.031
 7781SOL     OW24241   1.345   4.418   5.001
 7781SOL    HW124242   1.259   4.390   4.959
 7781SOL    HW224243   1.335   4.418   5.101
 7782SOL     OW24244   2.300   4.278   6.195
 7782SOL    HW124245   2.307   4.255   6.292
 7782SOL    HW224246   2.206   4.260   6.163
 7783SOL     OW24247   2.575   5.584   6.674
 7783SOL    HW124248   2.560   5.590   6.575
 7783SOL    HW224249   2.490   5.600   6.722
 7784SOL     OW24250   0.549   2.856   0.262
 7784SOL    HW124251   0.628   2.878   0.320
 7784SOL    HW224252   0.580   2.840   0.168
 7785SOL     OW24253   2.299   6.205   4.308
 7785SOL    HW124254   2.297   6.158   4.219
 7785SOL    HW224255   2.206   6.230   4.334
 7786SOL     OW24256   2.991   4.277   5.288
 7786SOL    HW124257   3.053   4.305   5.362
 7786SOL    HW224258   2.946   4.359   5.251
 7787SOL     OW24259   2.120   2.926   5.146
 7787SOL    HW124260   2.213   2.938   5.109
 7787SOL    HW224261   2.123   2.933   5.246
 7788SOL     OW24262   0.665   1.738   1.003
 7788SOL    HW124263   0.581   1.697   0.968
 7788SOL    HW224264   0.714   1.671   1.059
 7789SOL     OW24265   2.629   0.935   1.372
 7789SOL    HW124266   2.645   0.890   1.285
 7789SOL    HW224267   2.602   1.030   1.356
 7790SOL     OW24268   5.350   3.235   2.800
 7790SOL    HW124269   5.295   3.281   2.870
 7790SOL    HW224270   5.313   3.143   2.783
 7791SOL     OW24271   1.874   5.025   4.517
 7791SOL    HW124272   1.792   4.980   4.551
 7791SOL    HW224273   1.893   5.107   4.571
 7792SOL     OW24274   2.696   5.726   6.401
 7792SOL    HW124275   2.658   5.817   6.416
 7792SOL    HW224276   2.734   5.720   6.308
 7793SOL     OW24277   1.328   0.957   6.018
 7793SOL    HW124278   1.257   0.888   6.033
 7793SOL    HW224279   1.288   1.048   6.023
 7794SOL     OW24280   5.379   5.660   4.570
 7794SOL    HW124281   5.421   5.729   4.629
 7794SOL    HW224282   5.387   5.689   4.474
 7795SOL     OW24283   2.052   4.286   5.455
 7795SOL    HW124284   2.048   4.190   5.428
 7795SOL    HW224285   1.965   4.313   5.494
 7796SOL     OW24286   3.440   4.193   3.150
 7796SOL    HW124287   3.516   4.246   3.111
 7796SOL    HW224288   3.440   4.101   3.110
 7797SOL     OW24289   0.008   6.655   3.088
 7797SOL    HW124290   0.023   6.633   3.185
 7797SOL    HW224291   7.020   6.754   3.078
 7798SOL     OW24292   3.442   5.754   0.475
 7798SOL    HW124293   3.381   5.748   0.396
 7798SOL    HW224294   3.397   5.716   0.556
 7799SOL     OW24295   0.250   4.947   1.239
 7799SOL    HW124296   0.154   4.945   1.210
 7799SOL    HW224297   0.299   4.869   1.199
 7800SOL     OW24298   0.119   5.461   1.915
 7800SOL    HW124299   0.191   5.522   1.947
 7800SOL    HW224300   0.050   5.450   1.988
 7801SOL     OW24301   2.687   2.059   6.650
 7801SOL    HW124302   2.750   2.043   6.574
 7801SOL    HW224303   2.669   2.157   6.659
 7802SOL     OW24304   5.477   2.645   1.429
 7802SOL    HW124305   5.527   2.725   1.397
 7802SOL    HW224306   5.496   2.631   1.526
 7803SOL     OW24307   4.151   4.307   5.595
 7803SOL    HW124308   4.221   4.288   5.664
 7803SOL    HW224309   4.189   4.292   5.503
 7804SOL     OW24310   5.109   1.898   5.606
 7804SOL    HW124311   5.203   1.933   5.608
 7804SOL    HW224312   5.104   1.818   5.547
 7805SOL     OW24313   5.273   3.337   2.079
 7805SOL    HW124314   5.220   3.353   2.162
 7805SOL    HW224315   5.324   3.420   2.056
 7806SOL     OW24316   5.778   2.975   6.255
 7806SOL    HW124317   5.728   2.915   6.193
 7806SOL    HW224318   5.874   2.979   6.226
 7807SOL     OW24319   6.891   3.700   5.943
 7807SOL    HW124320   6.946   3.731   5.865
 7807SOL    HW224321   6.804   3.750   5.944
 7808SOL     OW24322   0.965   0.879   4.776
 7808SOL    HW124323   0.983   0.921   4.687
 7808SOL    HW224324   0.870   0.849   4.781
 7809SOL     OW24325   2.816   5.711   4.810
 7809SOL    HW124326   2.728   5.693   4.855
 7809SOL    HW224327   2.800   5.758   4.723
 7810SOL     OW24328   3.050   0.422   5.912
 7810SOL    HW124329   2.989   0.497   5.940
 7810SOL    HW224330   2.996   0.340   5.895
 7811SOL     OW24331   5.590   4.472   4.449
 7811SOL    HW124332   5.610   4.562   4.411
 7811SOL    HW224333   5.498   4.472   4.489
 7812SOL     OW24334   1.718   1.237   3.833
 7812SOL    HW124335   1.684   1.160   3.886
 7812SOL    HW224336   1.670   1.242   3.745
 7813SOL     OW24337   6.381   2.763   0.003
 7813SOL    HW124338   6.359   2.808   6.941
 7813SOL    HW224339   6.468   2.713   7.017
 7814SOL     OW24340   6.757   3.636   3.484
 7814SOL    HW124341   6.845   3.680   3.501
 7814SOL    HW224342   6.750   3.553   3.540
 7815SOL     OW24343   6.167   1.378   6.252
 7815SOL    HW124344   6.235   1.440   6.292
 7815SOL    HW224345   6.075   1.412   6.272
 7816SOL     OW24346   1.145   4.303   5.652
 7816SOL    HW124347   1.060   4.332   5.608
 7816SOL    HW224348   1.222   4.349   5.609
 7817SOL     OW24349   5.472   4.184   4.592
 7817SOL    HW124350   5.493   4.275   4.557
 7817SOL    HW224351   5.410   4.137   4.528
 7818SOL     OW24352   5.744   6.169   1.897
 7818SOL    HW124353   5.792   6.257   1.895
 7818SOL    HW224354   5.691   6.159   1.812
 7819SOL     OW24355   6.851   2.469   1.454
 7819SOL    HW124356   6.834   2.558   1.496
 7819SOL    HW224357   6.876   2.482   1.358
 7820SOL     OW24358   1.679   1.330   6.487
 7820SOL    HW124359   1.629   1.406   6.446
 7820SOL    HW224360   1.698   1.262   6.416
 7821SOL     OW24361   3.203   5.075   1.239
 7821SOL    HW124362   3.240   5.152   1.291
 7821SOL    HW224363   3.104   5.072   1.249
 7822SOL     OW24364   1.484   5.643   5.229
 7822SOL    HW124365   1.495   5.742   5.220
 7822SOL    HW224366   1.456   5.604   5.142
 7823SOL     OW24367   1.719   4.461   5.112
 7823SOL    HW124368   1.807   4.413   5.123
 7823SOL    HW224369   1.683   4.444   5.021
 7824SOL     OW24370   0.481   2.965   5.173
 7824SOL    HW124371   0.411   2.969   5.101
 7824SOL    HW224372   0.562   3.016   5.144
 7825SOL     OW24373   2.706   1.747   6.562
 7825SOL    HW124374   2.786   1.801   6.587
 7825SOL    HW224375   2.646   1.736   6.641
 7826SOL     OW24376   6.857   2.385   6.920
 7826SOL    HW124377   6.920   2.422   6.989
 7826SOL    HW224378   6.893   2.299   6.885
 7827SOL     OW24379   6.807   6.325   4.172
 7827SOL    HW124380   6.763   6.236   4.157
 7827SOL    HW224381   6.794   6.353   4.267
 7828SOL     OW24382   0.658   4.130   6.752
 7828SOL    HW124383   0.663   4.072   6.833
 7828SOL    HW224384   0.655   4.226   6.780
 7829SOL     OW24385   3.380   2.348   0.855
 7829SOL    HW124386   3.339   2.347   0.945
 7829SOL    HW224387   3.426   2.435   0.839
 7830SOL     OW24388   2.830   4.801   4.199
 7830SOL    HW124389   2.902   4.860   4.161
 7830SOL    HW224390   2.785   4.751   4.125
 7831SOL     OW24391   1.479   1.666   0.453
 7831SOL    HW124392   1.537   1.588   0.433
 7831SOL    HW224393   1.387   1.635   0.477
 7832SOL     OW24394   5.659   0.692   4.481
 7832SOL    HW124395   5.694   0.782   4.453
 7832SOL    HW224396   5.713   0.657   4.557
 7833SOL     OW24397   2.246   0.909   4.218
 7833SOL    HW124398   2.262   0.837   4.286
 7833SOL    HW224399   2.200   0.986   4.261
 7834SOL     OW24400   6.046   3.264   4.059
 7834SOL    HW124401   6.007   3.191   4.114
 7834SOL    HW224402   6.047   3.349   4.112
 7835SOL     OW24403   4.234   1.939   4.873
 7835SOL    HW124404   4.319   1.985   4.846
 7835SOL    HW224405   4.229   1.850   4.828
 7836SOL     OW24406   3.821   4.367   5.240
 7836SOL    HW124407   3.786   4.425   5.166
 7836SOL    HW224408   3.815   4.416   5.327
 7837SOL     OW24409   5.944   5.746   6.445
 7837SOL    HW124410   6.018   5.774   6.506
 7837SOL    HW224411   5.856   5.775   6.484
 7838SOL     OW24412   5.737   5.236   1.248
 7838SOL    HW124413   5.737   5.333   1.273
 7838SOL    HW224414   5.825   5.213   1.206
 7839SOL     OW24415   6.333   4.030   4.091
 7839SOL    HW124416   6.234   4.040   4.105
 7839SOL    HW224417   6.369   4.113   4.048
 7840SOL     OW24418   1.960   2.980   4.055
 7840SOL    HW124419   1.934   3.042   4.129
 7840SOL    HW224420   1.886   2.915   4.038
 7841SOL     OW24421   4.859   2.285   6.114
 7841SOL    HW124422   4.939   2.293   6.172
 7841SOL    HW224423   4.851   2.192   6.079
 7842SOL     OW24424   2.055   1.602   2.210
 7842SOL    HW124425   2.114   1.628   2.134
 7842SOL    HW224426   1.964   1.577   2.175
 7843SOL     OW24427   0.207   6.418   3.167
 7843SOL    HW124428   0.174   6.427   3.261
 7843SOL    HW224429   0.148   6.355   3.117
 7844SOL     OW24430   3.590   1.196   2.731
 7844SOL    HW124431   3.655   1.164   2.662
 7844SOL    HW224432   3.559   1.288   2.707
 7845SOL     OW24433   6.484   2.648   1.012
 7845SOL    HW124434   6.548   2.671   0.938
 7845SOL    HW224435   6.503   2.556   1.045
 7846SOL     OW24436   0.872   2.796   0.624
 7846SOL    HW124437   0.953   2.837   0.582
 7846SOL    HW224438   0.816   2.867   0.666
 7847SOL     OW24439   5.629   3.017   4.852
 7847SOL    HW124440   5.710   2.970   4.886
 7847SOL    HW224441   5.657   3.096   4.797
 7848SOL     OW24442   3.086   4.585   0.920
 7848SOL    HW124443   3.011   4.573   0.856
 7848SOL    HW224444   3.050   4.590   1.013
 7849SOL     OW24445   4.682   3.963   6.230
 7849SOL    HW124446   4.623   3.883   6.240
 7849SOL    HW224447   4.778   3.935   6.240
 7850SOL     OW24448   6.910   0.974   3.614
 7850SOL    HW124449   6.945   0.907   3.549
 7850SOL    HW224450   6.973   1.052   3.618
 7851SOL     OW24451   0.602   4.233   1.970
 7851SOL    HW124452   0.521   4.225   2.028
 7851SOL    HW224453   0.631   4.141   1.942
 7852SOL     OW24454   1.692   2.184   6.657
 7852SOL    HW124455   1.638   2.266   6.676
 7852SOL    HW224456   1.637   2.103   6.677
 7853SOL     OW24457   4.231   2.757   1.706
 7853SOL    HW124458   4.138   2.792   1.714
 7853SOL    HW224459   4.292   2.830   1.678
 7854SOL     OW24460   5.142   2.616   6.102
 7854SOL    HW124461   5.061   2.660   6.141
 7854SOL    HW224462   5.209   2.687   6.079
 7855SOL     OW24463   5.100   6.943   4.484
 7855SOL    HW124464   5.071   6.963   4.577
 7855SOL    HW224465   5.134   0.002   4.440
 7856SOL     OW24466   2.098   6.250   4.714
 7856SOL    HW124467   2.158   6.170   4.701
 7856SOL    HW224468   2.082   6.264   4.811
 7857SOL     OW24469   5.326   3.762   1.021
 7857SOL    HW124470   5.251   3.826   1.034
 7857SOL    HW224471   5.312   3.711   0.936
 7858SOL     OW24472   0.778   5.263   5.763
 7858SOL    HW124473   0.694   5.267   5.819
 7858SOL    HW224474   0.857   5.257   5.823
 7859SOL     OW24475   5.292   2.723   0.182
 7859SOL    HW124476   5.296   2.811   0.135
 7859SOL    HW224477   5.239   2.658   0.128
 7860SOL     OW24478   2.798   0.676   4.514
 7860SOL    HW124479   2.749   0.590   4.526
 7860SOL    HW224480   2.865   0.665   4.439
 7861SOL     OW24481   2.846   6.305   0.790
 7861SOL    HW124482   2.905   6.290   0.711
 7861SOL    HW224483   2.885   6.376   0.848
 7862SOL     OW24484   2.792   6.303   0.463
 7862SOL    HW124485   2.808   6.325   0.367
 7862SOL    HW224486   2.879   6.303   0.513
 7863SOL     OW24487   6.714   4.522   3.537
 7863SOL    HW124488   6.729   4.599   3.476
 7863SOL    HW224489   6.799   4.500   3.585
 7864SOL     OW24490   2.449   0.032   5.185
 7864SOL    HW124491   2.535   0.052   5.138
 7864SOL    HW224492   2.405   0.118   5.212
 7865SOL     OW24493   6.258   5.971   3.802
 7865SOL    HW124494   6.330   6.000   3.866
 7865SOL    HW224495   6.288   5.888   3.754
 7866SOL     OW24496   1.314   6.703   5.741
 7866SOL    HW124497   1.232   6.744   5.780
 7866SOL    HW224498   1.292   6.658   5.655
 7867SOL     OW24499   5.450   6.313   3.785
 7867SOL    HW124500   5.478   6.226   3.744
 7867SOL    HW224501   5.501   6.388   3.742
 7868SOL     OW24502   3.413   6.869   1.080
 7868SOL    HW124503   3.427   6.933   1.155
 7868SOL    HW224504   3.477   6.792   1.088
 7869SOL     OW24505   5.404   4.357   6.090
 7869SOL    HW124506   5.446   4.296   6.024
 7869SOL    HW224507   5.331   4.410   6.046
 7870SOL     OW24508   5.067   6.011   5.095
 7870SOL    HW124509   5.116   5.949   5.034
 7870SOL    HW224510   5.020   5.957   5.166
 7871SOL     OW24511   5.059   1.488   1.873
 7871SOL    HW124512   5.020   1.411   1.822
 7871SOL    HW224513   4.986   1.538   1.920
 7872SOL     OW24514   1.884   5.872   2.303
 7872SOL    HW124515   1.889   5.812   2.382
 7872SOL    HW224516   1.824   5.833   2.234
 7873SOL     OW24517   6.461   1.020   0.188
 7873SOL    HW124518   6.501   1.035   0.278
 7873SOL    HW224519   6.361   1.020   0.195
 7874SOL     OW24520   5.631   2.481   0.839
 7874SOL    HW124521   5.608   2.425   0.760
 7874SOL    HW224522   5.727   2.470   0.862
 7875SOL     OW24523   4.943   4.065   6.596
 7875SOL    HW124524   4.931   3.966   6.586
 7875SOL    HW224525   4.915   4.093   6.688
 7876SOL     OW24526   1.124   0.222   2.007
 7876SOL    HW124527   1.037   0.236   2.053
 7876SOL    HW224528   1.194   0.197   2.074
 7877SOL     OW24529   0.164   2.074   3.327
 7877SOL    HW124530   0.172   2.171   3.347
 7877SOL    HW224531   0.253   2.037   3.299
 7878SOL     OW24532   4.254   4.975   3.555
 7878SOL    HW124533   4.197   5.032   3.496
 7878SOL    HW224534   4.338   4.951   3.507
 7879SOL     OW24535   2.422   4.693   3.357
 7879SOL    HW124536   2.395   4.788   3.344
 7879SOL    HW224537   2.475   4.662   3.278
 7880SOL     OW24538   1.381   4.223   1.964
 7880SOL    HW124539   1.450   4.280   2.008
 7880SOL    HW224540   1.304   4.210   2.026
 7881SOL     OW24541   5.232   4.047   3.840
 7881SOL    HW124542   5.232   3.952   3.808
 7881SOL    HW224543   5.139   4.077   3.858
 7882SOL     OW24544   1.632   2.897   1.023
 7882SOL    HW124545   1.626   2.798   1.030
 7882SOL    HW224546   1.724   2.924   0.996
 7883SOL     OW24547   1.261   1.376   5.223
 7883SOL    HW124548   1.322   1.435   5.170
 7883SOL    HW224549   1.186   1.344   5.164
 7884SOL     OW24550   0.480   3.391   4.740
 7884SOL    HW124551   0.557   3.397   4.803
 7884SOL    HW224552   0.479   3.471   4.680
 7885SOL     OW24553   5.795   5.995   0.313
 7885SOL    HW124554   5.890   5.994   0.282
 7885SOL    HW224555   5.761   5.902   0.321
 7886SOL     OW24556   4.528   4.855   0.094
 7886SOL    HW124557   4.596   4.824   0.027
 7886SOL    HW224558   4.477   4.776   0.128
 7887SOL     OW24559   5.085   1.832   6.973
 7887SOL    HW124560   5.094   1.790   0.039
 7887SOL    HW224561   5.136   1.778   6.906
 7888SOL     OW24562   4.669   0.878   4.169
 7888SOL    HW124563   4.720   0.834   4.243
 7888SOL    HW224564   4.597   0.935   4.207
 7889SOL     OW24565   0.475   6.598   1.953
 7889SOL    HW124566   0.552   6.586   1.890
 7889SOL    HW224567   0.478   6.690   1.991
 7890SOL     OW24568   1.503   3.479   2.906
 7890SOL    HW124569   1.594   3.495   2.868
 7890SOL    HW224570   1.464   3.396   2.866
 7891SOL     OW24571   2.124   4.992   2.251
 7891SOL    HW124572   2.186   4.993   2.330
 7891SOL    HW224573   2.135   5.077   2.200
 7892SOL     OW24574   1.738   2.442   5.979
 7892SOL    HW124575   1.805   2.394   6.035
 7892SOL    HW224576   1.785   2.485   5.901
 7893SOL     OW24577   6.168   6.343   1.302
 7893SOL    HW124578   6.231   6.420   1.314
 7893SOL    HW224579   6.186   6.274   1.372
 7894SOL     OW24580   2.932   6.809   1.557
 7894SOL    HW124581   2.968   6.723   1.520
 7894SOL    HW224582   2.995   6.845   1.625
 7895SOL     OW24583   6.926   1.445   4.804
 7895SOL    HW124584   6.975   1.423   4.888
 7895SOL    HW224585   6.969   1.398   4.726
 7896SOL     OW24586   4.746   3.273   5.427
 7896SOL    HW124587   4.741   3.362   5.472
 7896SOL    HW224588   4.749   3.285   5.328
 7897SOL     OW24589   3.020   3.065   6.668
 7897SOL    HW124590   3.000   3.157   6.700
 7897SOL    HW224591   2.991   3.055   6.573
 7898SOL     OW24592   4.334   2.448   3.737
 7898SOL    HW124593   4.284   2.510   3.797
 7898SOL    HW224594   4.315   2.353   3.764
 7899SOL     OW24595   5.689   2.016   2.892
 7899SOL    HW124596   5.634   2.084   2.843
 7899SOL    HW224597   5.628   1.945   2.930
 7900SOL     OW24598   1.737   5.385   0.852
 7900SOL    HW124599   1.744   5.480   0.882
 7900SOL    HW224600   1.825   5.354   0.817
 7901SOL     OW24601   6.211   6.461   6.457
 7901SOL    HW124602   6.155   6.522   6.401
 7901SOL    HW224603   6.300   6.503   6.474
 7902SOL     OW24604   4.425   3.416   6.976
 7902SOL    HW124605   4.351   3.477   6.946
 7902SOL    HW224606   4.418   3.329   6.929
 7903SOL     OW24607   6.589   1.759   6.970
 7903SOL    HW124608   6.612   1.669   6.931
 7903SOL    HW224609   6.495   1.757   7.004
 7904SOL     OW24610   6.825   1.038   2.510
 7904SOL    HW124611   6.884   1.113   2.539
 7904SOL    HW224612   6.776   1.001   2.589
 7905SOL     OW24613   4.116   1.018   0.960
 7905SOL    HW124614   4.122   0.919   0.949
 7905SOL    HW224615   4.023   1.049   0.938
 7906SOL     OW24616   6.050   5.627   7.018
 7906SOL    HW124617   6.097   5.551   6.972
 7906SOL    HW224618   6.040   5.606   0.091
 7907SOL     OW24619   0.221   2.565   2.579
 7907SOL    HW124620   0.218   2.598   2.485
 7907SOL    HW224621   0.224   2.642   2.642
 7908SOL     OW24622   6.546   2.477   4.047
 7908SOL    HW124623   6.548   2.384   4.010
 7908SOL    HW224624   6.457   2.518   4.027
 7909SOL     OW24625   4.875   4.426   5.096
 7909SOL    HW124626   4.790   4.375   5.081
 7909SOL    HW224627   4.910   4.406   5.188
 7910SOL     OW24628   5.700   2.953   5.510
 7910SOL    HW124629   5.760   2.876   5.487
 7910SOL    HW224630   5.612   2.918   5.541
 7911SOL     OW24631   6.003   4.744   0.273
 7911SOL    HW124632   5.990   4.650   0.304
 7911SOL    HW224633   5.936   4.803   0.318
 7912SOL     OW24634   6.285   4.845   6.071
 7912SOL    HW124635   6.326   4.919   6.017
 7912SOL    HW224636   6.207   4.880   6.122
 7913SOL     OW24637   6.890   5.542   5.925
 7913SOL    HW124638   6.964   5.609   5.918
 7913SOL    HW224639   6.920   5.465   5.983
 7914SOL     OW24640   6.325   4.314   1.493
 7914SOL    HW124641   6.305   4.261   1.576
 7914SOL    HW224642   6.240   4.329   1.442
 7915SOL     OW24643   3.388   1.362   3.418
 7915SOL    HW124644   3.482   1.396   3.412
 7915SOL    HW224645   3.335   1.395   3.340
 7916SOL     OW24646   5.178   3.919   5.519
 7916SOL    HW124647   5.251   3.927   5.451
 7916SOL    HW224648   5.090   3.919   5.472
 7917SOL     OW24649   3.407   3.787   4.089
 7917SOL    HW124650   3.427   3.751   3.998
 7917SOL    HW224651   3.319   3.752   4.120
 7918SOL     OW24652   6.102   1.809   2.952
 7918SOL    HW124653   6.119   1.836   2.857
 7918SOL    HW224654   6.006   1.779   2.962
 7919SOL     OW24655   5.536   5.236   2.162
 7919SOL    HW124656   5.599   5.167   2.199
 7919SOL    HW224657   5.462   5.190   2.113
 7920SOL     OW24658   0.834   5.127   1.662
 7920SOL    HW124659   0.792   5.119   1.752
 7920SOL    HW224660   0.835   5.037   1.618
 7921SOL     OW24661   2.215   6.828   1.051
 7921SOL    HW124662   2.304   6.817   1.006
 7921SOL    HW224663   2.200   6.751   1.113
 7922SOL     OW24664   0.825   5.413   6.687
 7922SOL    HW124665   0.875   5.492   6.722
 7922SOL    HW224666   0.813   5.423   6.588
 7923SOL     OW24667   1.481   2.078   3.098
 7923SOL    HW124668   1.409   2.027   3.146
 7923SOL    HW224669   1.556   2.016   3.076
 7924SOL     OW24670   2.528   6.880   3.995
 7924SOL    HW124671   2.493   6.822   3.921
 7924SOL    HW224672   2.597   6.943   3.958
 7925SOL     OW24673   6.284   0.953   6.371
 7925SOL    HW124674   6.292   0.992   6.463
 7925SOL    HW224675   6.204   0.992   6.325
 7926SOL     OW24676   3.984   0.108   1.698
 7926SOL    HW124677   3.991   0.091   1.796
 7926SOL    HW224678   3.957   0.202   1.682
 7927SOL     OW24679   4.762   5.341   4.730
 7927SOL    HW124680   4.749   5.243   4.746
 7927SOL    HW224681   4.698   5.373   4.660
 7928SOL     OW24682   1.730   5.432   1.701
 7928SOL    HW124683   1.817   5.436   1.752
 7928SOL    HW224684   1.749   5.429   1.603
 7929SOL     OW24685   3.630   3.824   4.252
 7929SOL    HW124686   3.636   3.750   4.319
 7929SOL    HW224687   3.557   3.803   4.186
 7930SOL     OW24688   4.981   5.814   3.878
 7930SOL    HW124689   4.884   5.789   3.874
 7930SOL    HW224690   5.025   5.791   3.792
 7931SOL     OW24691   2.433   1.748   0.425
 7931SOL    HW124692   2.402   1.719   0.335
 7931SOL    HW224693   2.355   1.749   0.488
 7932SOL     OW24694   2.493   0.397   0.757
 7932SOL    HW124695   2.583   0.437   0.745
 7932SOL    HW224696   2.448   0.439   0.836
 7933SOL     OW24697   1.857   1.201   6.730
 7933SOL    HW124698   1.823   1.107   6.733
 7933SOL    HW224699   1.796   1.256   6.673
 7934SOL     OW24700   2.737   3.483   6.200
 7934SOL    HW124701   2.665   3.463   6.267
 7934SOL    HW224702   2.695   3.507   6.112
 7935SOL     OW24703   4.451   6.601   1.404
 7935SOL    HW124704   4.483   6.666   1.334
 7935SOL    HW224705   4.359   6.570   1.380
 7936SOL     OW24706   4.333   5.764   3.059
 7936SOL    HW124707   4.388   5.846   3.075
 7936SOL    HW224708   4.388   5.682   3.078
 7937SOL     OW24709   6.370   6.516   5.627
 7937SOL    HW124710   6.287   6.566   5.651
 7937SOL    HW224711   6.359   6.473   5.537
 7938SOL     OW24712   4.975   5.457   4.863
 7938SOL    HW124713   5.061   5.455   4.812
 7938SOL    HW224714   4.906   5.403   4.816
 7939SOL     OW24715   1.023   1.090   5.252
 7939SOL    HW124716   0.986   1.172   5.207
 7939SOL    HW224717   1.114   1.111   5.288
 7940SOL     OW24718   1.738   6.043   1.093
 7940SOL    HW124719   1.736   6.005   1.001
 7940SOL    HW224720   1.662   6.006   1.147
 7941SOL     OW24721   0.545   0.459   0.962
 7941SOL    HW124722   0.582   0.552   0.959
 7941SOL    HW224723   0.482   0.451   1.040
 7942SOL     OW24724   0.620   0.707   1.531
 7942SOL    HW124725   0.672   0.621   1.524
 7942SOL    HW224726   0.528   0.692   1.496
 7943SOL     OW24727   5.155   1.407   1.412
 7943SOL    HW124728   5.166   1.502   1.440
 7943SOL    HW224729   5.188   1.346   1.483
 7944SOL     OW24730   0.879   4.456   1.794
 7944SOL    HW124731   0.961   4.513   1.801
 7944SOL    HW224732   0.904   4.360   1.792
 7945SOL     OW24733   5.178   6.777   2.415
 7945SOL    HW124734   5.252   6.840   2.438
 7945SOL    HW224735   5.171   6.768   2.315
 7946SOL     OW24736   1.577   2.608   6.119
 7946SOL    HW124737   1.611   2.666   6.193
 7946SOL    HW224738   1.653   2.555   6.081
 7947SOL     OW24739   4.162   3.297   6.246
 7947SOL    HW124740   4.235   3.255   6.193
 7947SOL    HW224741   4.090   3.328   6.183
 7948SOL     OW24742   0.034   6.055   0.470
 7948SOL    HW124743   0.099   5.980   0.464
 7948SOL    HW224744   0.052   6.109   0.552
 7949SOL     OW24745   5.515   4.468   4.031
 7949SOL    HW124746   5.505   4.369   4.039
 7949SOL    HW224747   5.494   4.511   4.119
 7950SOL     OW24748   3.509   5.163   4.141
 7950SOL    HW124749   3.428   5.156   4.084
 7950SOL    HW224750   3.491   5.227   4.216
 7951SOL     OW24751   3.336   3.394   0.961
 7951SOL    HW124752   3.242   3.379   0.992
 7951SOL    HW224753   3.396   3.406   1.040
 7952SOL     OW24754   5.593   3.221   1.034
 7952SOL    HW124755   5.557   3.133   1.002
 7952SOL    HW224756   5.520   3.271   1.081
 7953SOL     OW24757   2.010   2.820   3.105
 7953SOL    HW124758   2.084   2.822   3.172
 7953SOL    HW224759   1.929   2.864   3.143
 7954SOL     OW24760   3.713   5.222   5.115
 7954SOL    HW124761   3.719   5.155   5.041
 7954SOL    HW224762   3.803   5.261   5.133
 7955SOL     OW24763   0.959   6.444   6.150
 7955SOL    HW124764   1.058   6.447   6.164
 7955SOL    HW224765   0.913   6.486   6.228
 7956SOL     OW24766   5.786   6.963   4.360
 7956SOL    HW124767   5.688   6.979   4.356
 7956SOL    HW224768   5.818   6.929   4.271
 7957SOL     OW24769   0.810   2.365   1.283
 7957SOL    HW124770   0.830   2.270   1.260
 7957SOL    HW224771   0.868   2.393   1.360
 7958SOL     OW24772   2.785   5.157   2.887
 7958SOL    HW124773   2.774   5.203   2.799
 7958SOL    HW224774   2.698   5.157   2.936
 7959SOL     OW24775   5.945   4.935   0.726
 7959SOL    HW124776   6.012   5.007   0.747
 7959SOL    HW224777   5.941   4.921   0.627
 7960SOL     OW24778   2.794   2.011   1.072
 7960SOL    HW124779   2.747   1.946   1.012
 7960SOL    HW224780   2.729   2.049   1.138
 7961SOL     OW24781   1.912   5.666   6.655
 7961SOL    HW124782   1.980   5.624   6.595
 7961SOL    HW224783   1.868   5.596   6.711
 7962SOL     OW24784   0.958   1.060   2.319
 7962SOL    HW124785   0.893   1.107   2.259
 7962SOL    HW224786   1.007   1.128   2.374
 7963SOL     OW24787   0.556   0.505   4.988
 7963SOL    HW124788   0.656   0.514   4.987
 7963SOL    HW224789   0.532   0.411   5.011
 7964SOL     OW24790   6.014   5.788   3.682
 7964SOL    HW124791   5.918   5.813   3.676
 7964SOL    HW224792   6.067   5.866   3.713
 7965SOL     OW24793   5.382   2.119   6.843
 7965SOL    HW124794   5.334   2.080   6.921
 7965SOL    HW224795   5.348   2.212   6.827
 7966SOL     OW24796   6.836   4.942   3.584
 7966SOL    HW124797   6.818   4.861   3.528
 7966SOL    HW224798   6.903   4.920   3.655
 7967SOL     OW24799   3.200   6.153   2.505
 7967SOL    HW124800   3.258   6.172   2.425
 7967SOL    HW224801   3.106   6.180   2.485
 7968SOL     OW24802   2.007   2.250   2.498
 7968SOL    HW124803   2.066   2.256   2.578
 7968SOL    HW224804   1.948   2.330   2.493
 7969SOL     OW24805   3.039   2.203   3.496
 7969SOL    HW124806   2.989   2.119   3.518
 7969SOL    HW224807   3.068   2.200   3.400
 7970SOL     OW24808   0.828   4.213   3.124
 7970SOL    HW124809   0.853   4.116   3.118
 7970SOL    HW224810   0.744   4.229   3.072
 7971SOL     OW24811   3.000   1.555   1.653
 7971SOL    HW124812   2.930   1.515   1.594
 7971SOL    HW224813   3.070   1.599   1.597
 7972SOL     OW24814   0.446   4.674   1.628
 7972SOL    HW124815   0.498   4.643   1.707
 7972SOL    HW224816   0.490   4.754   1.587
 7973SOL     OW24817   4.889   3.025   3.233
 7973SOL    HW124818   4.799   2.992   3.258
 7973SOL    HW224819   4.957   2.989   3.297
 7974SOL     OW24820   5.058   0.206   4.077
 7974SOL    HW124821   5.134   0.258   4.037
 7974SOL    HW224822   5.015   0.150   4.007
 7975SOL     OW24823   3.096   1.213   4.374
 7975SOL    HW124824   3.016   1.154   4.363
 7975SOL    HW224825   3.109   1.267   4.291
 7976SOL     OW24826   0.819   5.760   6.245
 7976SOL    HW124827   0.847   5.709   6.164
 7976SOL    HW224828   0.870   5.727   6.324
 7977SOL     OW24829   5.353   6.039   1.560
 7977SOL    HW124830   5.254   6.044   1.569
 7977SOL    HW224831   5.387   5.959   1.610
 7978SOL     OW24832   4.661   3.312   5.738
 7978SOL    HW124833   4.590   3.360   5.790
 7978SOL    HW224834   4.708   3.377   5.677
 7979SOL     OW24835   3.302   0.188   4.518
 7979SOL    HW124836   3.277   0.226   4.606
 7979SOL    HW224837   3.399   0.165   4.517
 7980SOL     OW24838   3.432   6.311   0.726
 7980SOL    HW124839   3.498   6.378   0.691
 7980SOL    HW224840   3.402   6.252   0.652
 7981SOL     OW24841   1.024   4.990   2.722
 7981SOL    HW124842   0.924   4.982   2.713
 7981SOL    HW224843   1.046   5.071   2.775
 7982SOL     OW24844   6.638   3.031   0.856
 7982SOL    HW124845   6.564   3.055   0.793
 7982SOL    HW224846   6.697   2.962   0.814
 7983SOL     OW24847   5.323   2.110   2.582
 7983SOL    HW124848   5.252   2.166   2.626
 7983SOL    HW224849   5.280   2.041   2.524
 7984SOL     OW24850   0.430   1.970   2.115
 7984SOL    HW124851   0.516   2.021   2.120
 7984SOL    HW224852   0.383   1.993   2.030
 7985SOL     OW24853   0.060   1.404   2.311
 7985SOL    HW124854   0.092   1.488   2.356
 7985SOL    HW224855   7.015   1.428   2.242
 7986SOL     OW24856   3.907   0.898   6.639
 7986SOL    HW124857   3.883   0.975   6.698
 7986SOL    HW224858   3.972   0.839   6.687
 7987SOL     OW24859   0.567   3.065   4.824
 7987SOL    HW124860   0.529   3.146   4.868
 7987SOL    HW224861   0.666   3.069   4.826
 7988SOL     OW24862   2.875   1.657   4.847
 7988SOL    HW124863   2.874   1.750   4.885
 7988SOL    HW224864   2.968   1.620   4.855
 7989SOL     OW24865   3.024   2.664   5.387
 7989SOL    HW124866   2.954   2.665   5.457
 7989SOL    HW224867   3.058   2.757   5.372
 7990SOL     OW24868   1.369   2.415   5.144
 7990SOL    HW124869   1.431   2.486   5.111
 7990SOL    HW224870   1.275   2.449   5.139
 7991SOL     OW24871   0.810   3.108   5.785
 7991SOL    HW124872   0.876   3.148   5.848
 7991SOL    HW224873   0.786   3.016   5.815
 7992SOL     OW24874   2.501   0.753   0.488
 7992SOL    HW124875   2.412   0.798   0.486
 7992SOL    HW224876   2.513   0.699   0.405
 7993SOL     OW24877   1.877   6.541   0.032
 7993SOL    HW124878   1.955   6.503   0.081
 7993SOL    HW224879   1.869   6.639   0.052
 7994SOL     OW24880   6.104   1.062   3.616
 7994SOL    HW124881   6.186   1.014   3.647
 7994SOL    HW224882   6.036   1.063   3.689
 7995SOL     OW24883   2.993   5.278   3.322
 7995SOL    HW124884   3.053   5.248   3.248
 7995SOL    HW224885   2.943   5.200   3.358
 7996SOL     OW24886   3.906   6.842   5.541
 7996SOL    HW124887   3.849   6.833   5.459
 7996SOL    HW224888   3.964   6.923   5.532
 7997SOL     OW24889   5.938   2.561   1.301
 7997SOL    HW124890   5.853   2.508   1.310
 7997SOL    HW224891   5.974   2.550   1.209
 7998SOL     OW24892   6.240   5.225   0.050
 7998SOL    HW124893   6.316   5.275   0.007
 7998SOL    HW224894   6.268   5.131   0.067
 7999SOL     OW24895   1.772   0.335   5.473
 7999SOL    HW124896   1.839   0.267   5.503
 7999SOL    HW224897   1.691   0.329   5.531
 8000SOL     OW24898   6.056   6.843   5.472
 8000SOL    HW124899   6.090   6.891   5.553
 8000SOL    HW224900   6.088   6.889   5.389
 8001SOL     OW24901   1.895   6.976   1.336
 8001SOL    HW124902   1.981   7.013   1.371
 8001SOL    HW224903   1.899   6.970   1.236
 8002SOL     OW24904   5.861   2.815   4.904
 8002SOL    HW124905   5.933   2.752   4.932
 8002SOL    HW224906   5.783   2.807   4.967
 8003SOL     OW24907   3.379   4.952   3.036
 8003SOL    HW124908   3.401   4.912   2.948
 8003SOL    HW224909   3.423   4.899   3.109
 8004SOL     OW24910   1.905   3.872   2.602
 8004SOL    HW124911   1.813   3.911   2.605
 8004SOL    HW224912   1.939   3.874   2.508
 8005SOL     OW24913   3.004   0.917   1.426
 8005SOL    HW124914   3.076   0.968   1.380
 8005SOL    HW224915   2.920   0.921   1.371
 8006SOL     OW24916   3.117   6.044   0.660
 8006SOL    HW124917   3.021   6.065   0.680
 8006SOL    HW224918   3.121   5.982   0.582
 8007SOL     OW24919   0.521   0.298   4.303
 8007SOL    HW124920   0.527   0.377   4.242
 8007SOL    HW224921   0.483   0.326   4.391
 8008SOL     OW24922   6.009   6.859   0.903
 8008SOL    HW124923   6.007   6.915   0.820
 8008SOL    HW224924   5.982   6.765   0.881
 8009SOL     OW24925   6.959   6.732   3.808
 8009SOL    HW124926   6.974   6.637   3.836
 8009SOL    HW224927   0.007   6.790   3.847
 8010SOL     OW24928   2.154   2.551   6.613
 8010SOL    HW124929   2.166   2.572   6.711
 8010SOL    HW224930   2.118   2.631   6.566
 8011SOL     OW24931   3.363   2.183   0.601
 8011SOL    HW124932   3.283   2.240   0.618
 8011SOL    HW224933   3.390   2.138   0.686
 8012SOL     OW24934   2.443   6.444   1.518
 8012SOL    HW124935   2.343   6.450   1.516
 8012SOL    HW224936   2.482   6.527   1.477
 8013SOL     OW24937   6.348   4.063   4.938
 8013SOL    HW124938   6.248   4.057   4.936
 8013SOL    HW224939   6.383   4.063   4.845
 8014SOL     OW24940   2.147   6.908   6.936
 8014SOL    HW124941   2.157   6.822   6.887
 8014SOL    HW224942   2.149   6.892   0.011
 8015SOL     OW24943   2.469   2.667   0.185
 8015SOL    HW124944   2.378   2.692   0.217
 8015SOL    HW224945   2.499   2.734   0.117
 8016SOL     OW24946   4.488   6.709   0.308
 8016SOL    HW124947   4.417   6.640   0.328
 8016SOL    HW224948   4.530   6.740   0.393
 8017SOL     OW24949   5.876   4.681   4.729
 8017SOL    HW124950   5.792   4.716   4.770
 8017SOL    HW224951   5.871   4.692   4.629
 8018SOL     OW24952   5.377   1.880   4.898
 8018SOL    HW124953   5.409   1.873   4.992
 8018SOL    HW224954   5.354   1.789   4.864
 8019SOL     OW24955   2.809   5.999   0.744
 8019SOL    HW124956   2.805   5.916   0.799
 8019SOL    HW224957   2.786   6.078   0.801
 8020SOL     OW24958   4.832   5.185   0.194
 8020SOL    HW124959   4.871   5.258   0.250
 8020SOL    HW224960   4.733   5.200   0.184
 8021SOL     OW24961   0.824   0.693   0.668
 8021SOL    HW124962   0.781   0.607   0.696
 8021SOL    HW224963   0.758   0.768   0.680
 8022SOL     OW24964   4.341   6.327   3.103
 8022SOL    HW124965   4.270   6.260   3.126
 8022SOL    HW224966   4.298   6.417   3.092
 8023SOL     OW24967   5.814   6.475   2.958
 8023SOL    HW124968   5.825   6.553   3.020
 8023SOL    HW224969   5.728   6.485   2.909
 8024SOL     OW24970   4.784   5.078   5.262
 8024SOL    HW124971   4.833   5.165   5.255
 8024SOL    HW224972   4.833   5.008   5.210
 8025SOL     OW24973   4.048   5.684   6.904
 8025SOL    HW124974   3.991   5.638   6.836
 8025SOL    HW224975   4.143   5.655   6.892
 8026SOL     OW24976   1.370   3.114   0.606
 8026SOL    HW124977   1.448   3.146   0.551
 8026SOL    HW224978   1.394   3.028   0.651
 8027SOL     OW24979   4.737   1.629   5.020
 8027SOL    HW124980   4.769   1.723   5.035
 8027SOL    HW224981   4.638   1.625   5.035
 8028SOL     OW24982   5.337   4.765   6.998
 8028SOL    HW124983   5.246   4.757   0.015
 8028SOL    HW224984   5.367   4.860   7.003
 8029SOL     OW24985   4.056   3.822   0.443
 8029SOL    HW124986   4.087   3.832   0.349
 8029SOL    HW224987   4.059   3.910   0.489
 8030SOL     OW24988   5.871   4.275   6.291
 8030SOL    HW124989   5.797   4.211   6.309
 8030SOL    HW224990   5.833   4.359   6.251
 8031SOL     OW24991   3.762   5.362   1.311
 8031SOL    HW124992   3.750   5.432   1.240
 8031SOL    HW224993   3.733   5.400   1.399
 8032SOL     OW24994   5.344   3.925   5.751
 8032SOL    HW124995   5.299   3.922   5.662
 8032SOL    HW224996   5.431   3.877   5.746
 8033SOL     OW24997   5.802   2.514   7.020
 8033SOL    HW124998   5.796   2.526   0.095
 8033SOL    HW224999   5.876   2.450   6.999
 8034SOL     OW25000   5.565   6.945   4.873
 8034SOL    HW125001   5.498   7.006   4.915
 8034SOL    HW225002   5.655   6.958   4.915
 8035SOL     OW25003   5.756   6.720   6.592
 8035SOL    HW125004   5.671   6.768   6.609
 8035SOL    HW225005   5.804   6.706   6.679
 8036SOL     OW25006   1.897   4.569   1.655
 8036SOL    HW125007   1.828   4.501   1.680
 8036SOL    HW225008   1.972   4.524   1.607
 8037SOL     OW25009   1.586   2.707   1.293
 8037SOL    HW125010   1.645   2.668   1.222
 8037SOL    HW225011   1.642   2.758   1.358
 8038SOL     OW25012   0.312   2.178   4.231
 8038SOL    HW125013   0.217   2.149   4.240
 8038SOL    HW225014   0.329   2.257   4.290
 8039SOL     OW25015   2.466   6.883   3.291
 8039SOL    HW125016   2.538   6.919   3.232
 8039SOL    HW225017   2.504   6.813   3.351
 8040SOL     OW25018   0.145   5.970   1.245
 8040SOL    HW125019   0.200   5.957   1.162
 8040SOL    HW225020   0.174   5.904   1.314
 8041SOL     OW25021   4.362   1.169   0.640
 8041SOL    HW125022   4.318   1.252   0.673
 8041SOL    HW225023   4.432   1.140   0.706
 8042SOL     OW25024   2.944   2.931   1.742
 8042SOL    HW125025   2.966   2.837   1.714
 8042SOL    HW225026   2.847   2.948   1.728
 8043SOL     OW25027   2.141   6.715   1.768
 8043SOL    HW125028   2.156   6.616   1.767
 8043SOL    HW225029   2.172   6.752   1.856
 8044SOL     OW25030   2.807   3.899   1.684
 8044SOL    HW125031   2.845   3.864   1.770
 8044SOL    HW225032   2.787   3.996   1.693
 8045SOL     OW25033   5.388   2.742   2.968
 8045SOL    HW125034   5.468   2.800   2.986
 8045SOL    HW225035   5.312   2.770   3.026
 8046SOL     OW25036   6.623   4.916   6.068
 8046SOL    HW125037   6.565   4.984   6.023
 8046SOL    HW225038   6.651   4.951   6.158
 8047SOL     OW25039   3.594   6.183   4.655
 8047SOL    HW125040   3.635   6.103   4.698
 8047SOL    HW225041   3.648   6.264   4.676
 8048SOL     OW25042   6.485   0.238   5.274
 8048SOL    HW125043   6.494   0.214   5.371
 8048SOL    HW225044   6.410   0.304   5.264
 8049SOL     OW25045   1.431   6.392   0.468
 8049SOL    HW125046   1.438   6.477   0.415
 8049SOL    HW225047   1.336   6.360   0.467
 8050SOL     OW25048   2.051   3.055   1.383
 8050SOL    HW125049   2.019   3.116   1.311
 8050SOL    HW225050   2.141   3.018   1.358
 8051SOL     OW25051   4.681   0.778   3.742
 8051SOL    HW125052   4.673   0.859   3.800
 8051SOL    HW225053   4.594   0.763   3.694
 8052SOL     OW25054   2.854   1.322   2.644
 8052SOL    HW125055   2.930   1.360   2.697
 8052SOL    HW225056   2.840   1.226   2.670
 8053SOL     OW25057   3.894   3.613   2.374
 8053SOL    HW125058   3.983   3.657   2.384
 8053SOL    HW225059   3.827   3.661   2.430
 8054SOL     OW25060   4.062   6.240   4.836
 8054SOL    HW125061   4.062   6.319   4.775
 8054SOL    HW225062   3.968   6.222   4.867
 8055SOL     OW25063   1.488   6.897   6.250
 8055SOL    HW125064   1.471   6.820   6.188
 8055SOL    HW225065   1.551   6.961   6.206
 8056SOL     OW25066   4.271   1.740   2.812
 8056SOL    HW125067   4.359   1.695   2.798
 8056SOL    HW225068   4.214   1.685   2.873
 8057SOL     OW25069   3.222   6.475   3.000
 8057SOL    HW125070   3.209   6.548   3.067
 8057SOL    HW225071   3.319   6.468   2.976
 8058SOL     OW25072   3.159   1.000   2.256
 8058SOL    HW125073   3.090   1.028   2.189
 8058SOL    HW225074   3.182   0.904   2.242
 8059SOL     OW25075   3.334   1.625   4.110
 8059SOL    HW125076   3.329   1.716   4.069
 8059SOL    HW225077   3.388   1.630   4.194
 8060SOL     OW25078   6.911   0.938   4.532
 8060SOL    HW125079   6.919   0.842   4.557
 8060SOL    HW225080   6.990   0.967   4.479
 8061SOL     OW25081   6.938   5.539   2.483
 8061SOL    HW125082   7.001   5.462   2.494
 8061SOL    HW225083   6.937   5.594   2.567
 8062SOL     OW25084   1.997   4.002   3.403
 8062SOL    HW125085   1.940   3.977   3.324
 8062SOL    HW225086   1.973   4.094   3.433
 8063SOL     OW25087   3.405   2.957   6.770
 8063SOL    HW125088   3.396   3.032   6.836
 8063SOL    HW225089   3.348   2.880   6.800
 8064SOL     OW25090   6.966   3.695   0.197
 8064SOL    HW125091   0.001   3.650   0.264
 8064SOL    HW225092   6.900   3.753   0.245
 8065SOL     OW25093   4.740   0.180   4.955
 8065SOL    HW125094   4.777   0.091   4.927
 8065SOL    HW225095   4.641   0.178   4.951
 8066SOL     OW25096   1.947   0.786   1.649
 8066SOL    HW125097   1.953   0.726   1.570
 8066SOL    HW225098   1.943   0.881   1.619
 8067SOL     OW25099   5.076   2.535   2.231
 8067SOL    HW125100   5.034   2.451   2.265
 8067SOL    HW225101   5.175   2.529   2.241
 8068SOL     OW25102   1.093   4.248   4.911
 8068SOL    HW125103   1.148   4.181   4.960
 8068SOL    HW225104   1.015   4.202   4.868
 8069SOL     OW25105   1.178   6.729   1.824
 8069SOL    HW125106   1.189   6.753   1.920
 8069SOL    HW225107   1.267   6.735   1.778
 8070SOL     OW25108   3.886   6.895   1.236
 8070SOL    HW125109   3.886   6.832   1.158
 8070SOL    HW225110   3.837   6.978   1.212
 8071SOL     OW25111   3.478   6.459   6.641
 8071SOL    HW125112   3.412   6.404   6.590
 8071SOL    HW225113   3.553   6.485   6.581
 8072SOL     OW25114   5.250   1.203   0.355
 8072SOL    HW125115   5.304   1.156   0.424
 8072SOL    HW225116   5.286   1.183   0.264
 8073SOL     OW25117   4.076   6.284   5.981
 8073SOL    HW125118   4.023   6.222   5.924
 8073SOL    HW225119   4.041   6.281   6.075
 8074SOL     OW25120   3.651   3.646   0.116
 8074SOL    HW125121   3.641   3.713   0.190
 8074SOL    HW225122   3.687   3.561   0.154
 8075SOL     OW25123   6.956   1.632   3.347
 8075SOL    HW125124   0.027   1.601   3.352
 8075SOL    HW225125   6.952   1.730   3.371
 8076SOL     OW25126   6.002   2.876   5.832
 8076SOL    HW125127   5.994   2.839   5.925
 8076SOL    HW225128   5.961   2.967   5.828
 8077SOL     OW25129   1.706   0.711   1.438
 8077SOL    HW125130   1.696   0.612   1.441
 8077SOL    HW225131   1.776   0.739   1.504
 8078SOL     OW25132   6.154   3.050   0.601
 8078SOL    HW125133   6.194   2.974   0.550
 8078SOL    HW225134   6.209   3.133   0.586
 8079SOL     OW25135   7.006   2.481   2.490
 8079SOL    HW125136   6.938   2.541   2.531
 8079SOL    HW225137   0.068   2.490   2.540
 8080SOL     OW25138   3.447   4.775   0.029
 8080SOL    HW125139   3.372   4.787   0.093
 8080SOL    HW225140   3.477   4.865   7.021
 8081SOL     OW25141   5.869   0.773   5.299
 8081SOL    HW125142   5.918   0.845   5.250
 8081SOL    HW225143   5.881   0.785   5.398
 8082SOL     OW25144   0.030   2.946   3.536
 8082SOL    HW125145   0.005   2.860   3.492
 8082SOL    HW225146   0.060   2.927   3.630
 8083SOL     OW25147   4.936   2.510   3.963
 8083SOL    HW125148   5.018   2.461   3.991
 8083SOL    HW225149   4.874   2.447   3.916
 8084SOL     OW25150   6.932   0.195   1.292
 8084SOL    HW125151   6.876   0.227   1.216
 8084SOL    HW225152   6.937   0.095   1.290
 8085SOL     OW25153   5.742   1.103   0.977
 8085SOL    HW125154   5.654   1.101   1.024
 8085SOL    HW225155   5.815   1.087   1.044
 8086SOL     OW25156   3.779   0.115   5.455
 8086SOL    HW125157   3.767   0.040   5.519
 8086SOL    HW225158   3.732   0.196   5.489
 8087SOL     OW25159   2.815   2.279   1.397
 8087SOL    HW125160   2.834   2.318   1.487
 8087SOL    HW225161   2.876   2.202   1.380
 8088SOL     OW25162   4.318   0.980   2.944
 8088SOL    HW125163   4.270   1.057   2.904
 8088SOL    HW225164   4.326   0.907   2.877
 8089SOL     OW25165   6.064   2.731   6.875
 8089SOL    HW125166   6.021   2.805   6.822
 8089SOL    HW225167   6.095   2.767   6.962
 8090SOL     OW25168   4.099   1.999   5.538
 8090SOL    HW125169   4.107   1.899   5.541
 8090SOL    HW225170   4.161   2.035   5.468
 8091SOL     OW25171   3.025   4.781   5.744
 8091SOL    HW125172   3.067   4.716   5.808
 8091SOL    HW225173   3.035   4.747   5.651
 8092SOL     OW25174   1.417   1.468   4.517
 8092SOL    HW125175   1.463   1.521   4.588
 8092SOL    HW225176   1.486   1.423   4.459
 8093SOL     OW25177   5.746   5.908   1.429
 8093SOL    HW125178   5.781   5.934   1.519
 8093SOL    HW225179   5.763   5.811   1.414
 8094SOL     OW25180   0.916   4.060   5.953
 8094SOL    HW125181   0.887   4.145   5.911
 8094SOL    HW225182   0.843   4.025   6.012
 8095SOL     OW25183   5.186   3.786   3.972
 8095SOL    HW125184   5.107   3.832   4.014
 8095SOL    HW225185   5.172   3.779   3.873
 8096SOL     OW25186   3.839   6.245   1.595
 8096SOL    HW125187   3.744   6.274   1.587
 8096SOL    HW225188   3.872   6.264   1.688
 8097SOL     OW25189   5.050   1.055   3.710
 8097SOL    HW125190   4.967   1.043   3.655
 8097SOL    HW225191   5.073   1.152   3.714
 8098SOL     OW25192   2.836   6.629   3.889
 8098SOL    HW125193   2.772   6.602   3.961
 8098SOL    HW225194   2.835   6.728   3.878
 8099SOL     OW25195   4.549   6.273   4.738
 8099SOL    HW125196   4.632   6.288   4.793
 8099SOL    HW225197   4.470   6.262   4.799
 8100SOL     OW25198   0.329   6.844   1.068
 8100SOL    HW125199   0.277   6.793   0.999
 8100SOL    HW225200   0.313   6.942   1.058
 8101SOL     OW25201   1.376   6.079   3.406
 8101SOL    HW125202   1.352   6.172   3.376
 8101SOL    HW225203   1.473   6.062   3.387
 8102SOL     OW25204   6.946   5.973   6.038
 8102SOL    HW125205   7.002   5.944   5.960
 8102SOL    HW225206   6.855   5.933   6.032
 8103SOL     OW25207   3.336   1.214   2.206
 8103SOL    HW125208   3.280   1.131   2.218
 8103SOL    HW225209   3.402   1.221   2.281
 8104SOL     OW25210   2.702   6.705   6.233
 8104SOL    HW125211   2.692   6.613   6.269
 8104SOL    HW225212   2.793   6.715   6.192
 8105SOL     OW25213   2.686   1.869   3.840
 8105SOL    HW125214   2.629   1.915   3.908
 8105SOL    HW225215   2.774   1.917   3.833
 8106SOL     OW25216   1.409   4.078   4.296
 8106SOL    HW125217   1.354   4.152   4.334
 8106SOL    HW225218   1.506   4.101   4.304
 8107SOL     OW25219   1.956   6.316   6.214
 8107SOL    HW125220   1.868   6.350   6.181
 8107SOL    HW225221   2.025   6.326   6.142
 8108SOL     OW25222   0.787   3.611   4.225
 8108SOL    HW125223   0.795   3.584   4.320
 8108SOL    HW225224   0.690   3.623   4.202
 8109SOL     OW25225   1.668   5.341   4.890
 8109SOL    HW125226   1.636   5.320   4.982
 8109SOL    HW225227   1.767   5.328   4.886
 8110SOL     OW25228   2.191   5.378   0.376
 8110SOL    HW125229   2.270   5.427   0.412
 8110SOL    HW225230   2.111   5.396   0.434
 8111SOL     OW25231   2.610   5.360   4.449
 8111SOL    HW125232   2.600   5.417   4.368
 8111SOL    HW225233   2.690   5.391   4.501
 8112SOL     OW25234   3.175   0.890   4.392
 8112SOL    HW125235   3.136   0.900   4.300
 8112SOL    HW225236   3.245   0.960   4.407
 8113SOL     OW25237   3.547   2.127   5.894
 8113SOL    HW125238   3.521   2.118   5.990
 8113SOL    HW225239   3.518   2.217   5.859
 8114SOL     OW25240   2.419   3.069   1.666
 8114SOL    HW125241   2.449   3.163   1.684
 8114SOL    HW225242   2.331   3.053   1.710
 8115SOL     OW25243   3.782   1.414   1.137
 8115SOL    HW125244   3.754   1.479   1.208
 8115SOL    HW225245   3.792   1.323   1.177
 8116SOL     OW25246   5.721   0.439   5.239
 8116SOL    HW125247   5.662   0.520   5.238
 8116SOL    HW225248   5.813   0.465   5.212
 8117SOL     OW25249   1.755   1.896   5.562
 8117SOL    HW125250   1.755   1.820   5.497
 8117SOL    HW225251   1.666   1.943   5.558
 8118SOL     OW25252   0.764   3.407   4.875
 8118SOL    HW125253   0.831   3.438   4.942
 8118SOL    HW225254   0.809   3.395   4.786
 8119SOL     OW25255   0.902   6.493   2.550
 8119SOL    HW125256   0.920   6.404   2.592
 8119SOL    HW225257   0.845   6.481   2.469
 8120SOL     OW25258   4.287   3.864   1.757
 8120SOL    HW125259   4.267   3.897   1.665
 8120SOL    HW225260   4.271   3.937   1.823
 8121SOL     OW25261   5.962   0.627   2.688
 8121SOL    HW125262   5.924   0.544   2.728
 8121SOL    HW225263   5.986   0.610   2.593
 8122SOL     OW25264   6.864   6.401   2.079
 8122SOL    HW125265   6.825   6.311   2.099
 8122SOL    HW225266   6.852   6.461   2.158
 8123SOL     OW25267   1.200   6.598   6.968
 8123SOL    HW125268   1.288   6.641   6.948
 8123SOL    HW225269   1.151   6.582   6.882
 8124SOL     OW25270   1.110   5.786   2.501
 8124SOL    HW125271   1.043   5.808   2.572
 8124SOL    HW225272   1.183   5.730   2.539
 8125SOL     OW25273   5.675   5.462   3.043
 8125SOL    HW125274   5.583   5.500   3.045
 8125SOL    HW225275   5.740   5.534   3.020
 8126SOL     OW25276   5.686   4.670   2.518
 8126SOL    HW125277   5.751   4.634   2.452
 8126SOL    HW225278   5.642   4.752   2.480
 8127SOL     OW25279   2.288   4.722   6.781
 8127SOL    HW125280   2.286   4.628   6.747
 8127SOL    HW225281   2.377   4.741   6.822
 8128SOL     OW25282   4.034   2.255   5.223
 8128SOL    HW125283   4.115   2.221   5.272
 8128SOL    HW225284   4.063   2.321   5.154
 8129SOL     OW25285   5.091   0.281   6.538
 8129SOL    HW125286   5.191   0.279   6.538
 8129SOL    HW225287   5.057   0.228   6.616
 8130SOL     OW25288   2.073   6.411   0.158
 8130SOL    HW125289   2.072   6.326   0.210
 8130SOL    HW225290   2.144   6.472   0.195
 8131SOL     OW25291   2.010   1.455   0.450
 8131SOL    HW125292   1.941   1.520   0.481
 8131SOL    HW225293   2.061   1.493   0.374
 8132SOL     OW25294   6.228   5.015   4.003
 8132SOL    HW125295   6.297   4.990   3.935
 8132SOL    HW225296   6.225   5.115   4.011
 8133SOL     OW25297   1.538   5.221   2.022
 8133SOL    HW125298   1.512   5.299   1.966
 8133SOL    HW225299   1.540   5.138   1.965
 8134SOL     OW25300   2.100   2.666   2.890
 8134SOL    HW125301   2.193   2.699   2.870
 8134SOL    HW225302   2.060   2.723   2.962
 8135SOL     OW25303   4.238   5.846   2.169
 8135SOL    HW125304   4.169   5.833   2.241
 8135SOL    HW225305   4.325   5.810   2.200
 8136SOL     OW25306   4.727   5.848   1.227
 8136SOL    HW125307   4.720   5.760   1.275
 8136SOL    HW225308   4.694   5.921   1.287
 8137SOL     OW25309   2.131   3.965   5.252
 8137SOL    HW125310   2.224   3.987   5.222
 8137SOL    HW225311   2.114   3.867   5.238
 8138SOL     OW25312   4.836   0.946   3.533
 8138SOL    HW125313   4.822   0.922   3.437
 8138SOL    HW225314   4.767   0.900   3.589
 8139SOL     OW25315   1.537   2.256   3.812
 8139SOL    HW125316   1.618   2.218   3.767
 8139SOL    HW225317   1.532   2.219   3.905
 8140SOL     OW25318   4.443   0.546   0.802
 8140SOL    HW125319   4.538   0.573   0.818
 8140SOL    HW225320   4.389   0.627   0.779
 8141SOL     OW25321   4.762   1.136   4.846
 8141SOL    HW125322   4.783   1.226   4.808
 8141SOL    HW225323   4.839   1.074   4.831
 8142SOL     OW25324   1.900   6.147   0.828
 8142SOL    HW125325   1.928   6.235   0.866
 8142SOL    HW225326   1.959   6.123   0.751
 8143SOL     OW25327   6.435   4.854   0.379
 8143SOL    HW125328   6.351   4.900   0.351
 8143SOL    HW225329   6.513   4.900   0.337
 8144SOL     OW25330   0.143   4.667   6.122
 8144SOL    HW125331   0.052   4.625   6.123
 8144SOL    HW225332   0.135   4.763   6.149
 8145SOL     OW25333   5.287   5.663   6.933
 8145SOL    HW125334   5.234   5.722   6.872
 8145SOL    HW225335   5.231   5.587   6.965
 8146SOL     OW25336   5.862   0.548   4.660
 8146SOL    HW125337   5.933   0.616   4.643
 8146SOL    HW225338   5.864   0.479   4.587
 8147SOL     OW25339   1.586   0.954   6.086
 8147SOL    HW125340   1.640   0.905   6.017
 8147SOL    HW225341   1.491   0.959   6.055
 8148SOL     OW25342   4.505   4.525   0.310
 8148SOL    HW125343   4.457   4.463   0.372
 8148SOL    HW225344   4.441   4.559   0.241
 8149SOL     OW25345   1.036   5.906   5.075
 8149SOL    HW125346   1.023   6.004   5.089
 8149SOL    HW225347   1.098   5.891   4.998
 8150SOL     OW25348   0.629   3.253   1.472
 8150SOL    HW125349   0.589   3.254   1.380
 8150SOL    HW225350   0.583   3.322   1.528
 8151SOL     OW25351   6.112   5.554   3.543
 8151SOL    HW125352   6.048   5.620   3.582
 8151SOL    HW225353   6.065   5.498   3.476
 8152SOL     OW25354   4.844   1.646   3.416
 8152SOL    HW125355   4.916   1.583   3.444
 8152SOL    HW225356   4.870   1.693   3.332
 8153SOL     OW25357   0.451   1.222   3.009
 8153SOL    HW125358   0.425   1.275   3.089
 8153SOL    HW225359   0.480   1.130   3.037
 8154SOL     OW25360   1.974   0.594   3.214
 8154SOL    HW125361   1.880   0.583   3.248
 8154SOL    HW225362   2.028   0.643   3.281
 8155SOL     OW25363   1.762   5.428   2.660
 8155SOL    HW125364   1.744   5.330   2.655
 8155SOL    HW225365   1.724   5.465   2.745
 8156SOL     OW25366   6.482   5.354   1.545
 8156SOL    HW125367   6.479   5.311   1.455
 8156SOL    HW225368   6.571   5.397   1.558
 8157SOL     OW25369   0.087   3.042   5.775
 8157SOL    HW125370   0.159   3.057   5.843
 8157SOL    HW225371   0.110   3.091   5.691
 8158SOL     OW25372   5.505   5.055   6.448
 8158SOL    HW125373   5.511   5.117   6.369
 8158SOL    HW225374   5.514   4.960   6.417
 8159SOL     OW25375   3.156   6.581   5.705
 8159SOL    HW125376   3.114   6.670   5.683
 8159SOL    HW225377   3.249   6.579   5.669
 8160SOL     OW25378   5.087   1.042   3.281
 8160SOL    HW125379   5.158   0.982   3.319
 8160SOL    HW225380   5.009   0.986   3.251
 8161SOL     OW25381   5.725   3.055   1.208
 8161SOL    HW125382   5.798   3.123   1.217
 8161SOL    HW225383   5.668   3.078   1.129
 8162SOL     OW25384   0.417   5.026   6.244
 8162SOL    HW125385   0.377   5.118   6.250
 8162SOL    HW225386   0.377   4.967   6.314
 8163SOL     OW25387   4.644   4.802   5.228
 8163SOL    HW125388   4.679   4.769   5.316
 8163SOL    HW225389   4.720   4.824   5.168
 8164SOL     OW25390   4.887   1.505   0.270
 8164SOL    HW125391   4.797   1.545   0.253
 8164SOL    HW225392   4.904   1.503   0.369
 8165SOL     OW25393   6.892   1.139   6.725
 8165SOL    HW125394   6.893   1.229   6.683
 8165SOL    HW225395   6.945   1.075   6.669
 8166SOL     OW25396   1.780   1.906   4.850
 8166SOL    HW125397   1.756   1.816   4.888
 8166SOL    HW225398   1.769   1.976   4.921
 8167SOL     OW25399   0.585   2.933   4.476
 8167SOL    HW125400   0.565   3.017   4.527
 8167SOL    HW225401   0.626   2.957   4.388
 8168SOL     OW25402   2.771   0.885   2.179
 8168SOL    HW125403   2.783   0.785   2.179
 8168SOL    HW225404   2.677   0.907   2.150
 8169SOL     OW25405   5.224   2.514   0.824
 8169SOL    HW125406   5.143   2.479   0.871
 8169SOL    HW225407   5.303   2.511   0.885
 8170SOL     OW25408   6.224   5.263   2.686
 8170SOL    HW125409   6.289   5.335   2.710
 8170SOL    HW225410   6.230   5.243   2.588
 8171SOL     OW25411   1.771   1.035   0.672
 8171SOL    HW125412   1.832   1.089   0.730
 8171SOL    HW225413   1.703   1.094   0.630
 8172SOL     OW25414   0.544   2.878   1.372
 8172SOL    HW125415   0.590   2.923   1.449
 8172SOL    HW225416   0.600   2.803   1.339
 8173SOL     OW25417   5.915   1.379   2.295
 8173SOL    HW125418   5.897   1.386   2.393
 8173SOL    HW225419   5.998   1.430   2.273
 8174SOL     OW25420   2.301   5.249   2.737
 8174SOL    HW125421   2.369   5.185   2.773
 8174SOL    HW225422   2.348   5.324   2.690
 8175SOL     OW25423   0.698   1.656   4.601
 8175SOL    HW125424   0.623   1.596   4.629
 8175SOL    HW225425   0.770   1.654   4.670
 8176SOL     OW25426   2.256   3.746   0.719
 8176SOL    HW125427   2.279   3.842   0.738
 8176SOL    HW225428   2.323   3.686   0.761
 8177SOL     OW25429   3.831   1.053   3.190
 8177SOL    HW125430   3.911   1.054   3.250
 8177SOL    HW225431   3.765   1.121   3.221
 8178SOL     OW25432   2.281   6.558   0.925
 8178SOL    HW125433   2.241   6.531   0.837
 8178SOL    HW225434   2.209   6.564   0.994
 8179SOL     OW25435   5.934   1.210   3.430
 8179SOL    HW125436   5.847   1.160   3.423
 8179SOL    HW225437   6.000   1.154   3.481
 8180SOL     OW25438   5.010   6.192   6.891
 8180SOL    HW125439   5.069   6.170   6.968
 8180SOL    HW225440   4.963   6.279   6.908
 8181SOL     OW25441   0.423   1.003   0.800
 8181SOL    HW125442   0.406   1.007   0.898
 8181SOL    HW225443   0.413   1.095   0.761
 8182SOL     OW25444   3.096   3.366   5.029
 8182SOL    HW125445   3.022   3.382   5.094
 8182SOL    HW225446   3.181   3.404   5.065
 8183SOL     OW25447   0.362   0.251   5.066
 8183SOL    HW125448   0.299   0.192   5.116
 8183SOL    HW225449   0.450   0.205   5.054
 8184SOL     OW25450   0.096   6.115   6.614
 8184SOL    HW125451   0.103   6.016   6.599
 8184SOL    HW225452   0.039   6.133   6.694
 8185SOL     OW25453   0.779   6.577   6.769
 8185SOL    HW125454   0.740   6.532   6.849
 8185SOL    HW225455   0.878   6.587   6.781
 8186SOL     OW25456   1.048   5.573   6.738
 8186SOL    HW125457   1.143   5.551   6.713
 8186SOL    HW225458   1.030   5.669   6.718
 8187SOL     OW25459   0.695   0.867   6.139
 8187SOL    HW125460   0.654   0.791   6.189
 8187SOL    HW225461   0.673   0.858   6.041
 8188SOL     OW25462   2.547   2.370   3.560
 8188SOL    HW125463   2.621   2.312   3.527
 8188SOL    HW225464   2.534   2.356   3.658
 8189SOL     OW25465   5.327   4.485   3.802
 8189SOL    HW125466   5.393   4.482   3.877
 8189SOL    HW225467   5.374   4.470   3.715
 8190SOL     OW25468   6.192   3.404   3.431
 8190SOL    HW125469   6.284   3.429   3.398
 8190SOL    HW225470   6.130   3.398   3.353
 8191SOL     OW25471   3.377   5.319   1.023
 8191SOL    HW125472   3.468   5.300   1.059
 8191SOL    HW225473   3.345   5.407   1.058
 8192SOL     OW25474   1.172   5.070   3.736
 8192SOL    HW125475   1.102   5.040   3.672
 8192SOL    HW225476   1.157   5.165   3.762
 8193SOL     OW25477   0.786   4.185   5.019
 8193SOL    HW125478   0.710   4.192   5.083
 8193SOL    HW225479   0.869   4.161   5.069
 8194SOL     OW25480   5.201   6.616   1.654
 8194SOL    HW125481   5.184   6.597   1.558
 8194SOL    HW225482   5.156   6.547   1.711
 8195SOL     OW25483   5.365   6.453   3.278
 8195SOL    HW125484   5.365   6.490   3.185
 8195SOL    HW225485   5.380   6.528   3.343
 8196SOL     OW25486   4.945   0.334   0.259
 8196SOL    HW125487   4.933   0.322   0.357
 8196SOL    HW225488   4.903   0.420   0.230
 8197SOL     OW25489   4.774   1.854   2.672
 8197SOL    HW125490   4.739   1.774   2.624
 8197SOL    HW225491   4.855   1.889   2.625
 8198SOL     OW25492   1.978   0.681   2.662
 8198SOL    HW125493   1.987   0.702   2.759
 8198SOL    HW225494   2.026   0.595   2.642
 8199SOL     OW25495   5.437   2.956   5.560
 8199SOL    HW125496   5.364   2.904   5.604
 8199SOL    HW225497   5.398   3.017   5.491
 8200SOL     OW25498   4.541   2.657   1.254
 8200SOL    HW125499   4.512   2.622   1.343
 8200SOL    HW225500   4.514   2.593   1.182
 8201SOL     OW25501   6.687   6.866   5.199
 8201SOL    HW125502   6.725   6.789   5.148
 8201SOL    HW225503   6.621   6.833   5.266
 8202SOL     OW25504   1.100   6.438   1.910
 8202SOL    HW125505   1.154   6.517   1.879
 8202SOL    HW225506   1.064   6.457   2.002
 8203SOL     OW25507   0.969   3.479   1.242
 8203SOL    HW125508   0.931   3.494   1.334
 8203SOL    HW225509   1.011   3.388   1.238
 8204SOL     OW25510   3.987   2.973   1.450
 8204SOL    HW125511   4.043   2.897   1.418
 8204SOL    HW225512   3.904   2.937   1.495
 8205SOL     OW25513   1.431   3.576   0.938
 8205SOL    HW125514   1.488   3.531   0.869
 8205SOL    HW225515   1.431   3.674   0.923
 8206SOL     OW25516   3.840   0.757   0.028
 8206SOL    HW125517   3.939   0.760   0.039
 8206SOL    HW225518   3.818   0.716   6.963
 8207SOL     OW25519   3.821   2.957   4.599
 8207SOL    HW125520   3.834   3.039   4.655
 8207SOL    HW225521   3.736   2.911   4.626
 8208SOL     OW25522   1.971   0.974   0.485
 8208SOL    HW125523   1.923   0.962   0.572
 8208SOL    HW225524   1.958   1.068   0.453
 8209SOL     OW25525   6.688   1.047   5.525
 8209SOL    HW125526   6.665   0.990   5.604
 8209SOL    HW225527   6.669   0.996   5.441
 8210SOL     OW25528   1.382   2.881   0.015
 8210SOL    HW125529   1.327   2.827   0.079
 8210SOL    HW225530   1.460   2.921   0.063
 8211SOL     OW25531   2.875   4.505   0.758
 8211SOL    HW125532   2.869   4.510   0.658
 8211SOL    HW225533   2.790   4.467   0.794
 8212SOL     OW25534   1.477   2.672   3.382
 8212SOL    HW125535   1.445   2.585   3.420
 8212SOL    HW225536   1.575   2.680   3.397
 8213SOL     OW25537   0.021   5.435   1.670
 8213SOL    HW125538   0.005   5.338   1.653
 8213SOL    HW225539   0.064   5.446   1.760
 8214SOL     OW25540   5.093   4.552   3.337
 8214SOL    HW125541   5.123   4.498   3.259
 8214SOL    HW225542   5.017   4.505   3.382
 8215SOL     OW25543   3.137   5.124   4.680
 8215SOL    HW125544   3.117   5.026   4.671
 8215SOL    HW225545   3.052   5.174   4.700
 8216SOL     OW25546   4.409   4.567   3.387
 8216SOL    HW125547   4.378   4.595   3.478
 8216SOL    HW225548   4.486   4.504   3.396
 8217SOL     OW25549   2.523   6.455   0.339
 8217SOL    HW125550   2.530   6.392   0.417
 8217SOL    HW225551   2.562   6.543   0.364
 8218SOL     OW25552   0.362   1.442   6.988
 8218SOL    HW125553   0.346   1.383   6.909
 8218SOL    HW225554   0.439   1.503   6.970
 8219SOL     OW25555   6.060   1.983   6.453
 8219SOL    HW125556   6.106   1.998   6.366
 8219SOL    HW225557   6.109   2.033   6.525
 8220SOL     OW25558   3.580   3.442   3.168
 8220SOL    HW125559   3.544   3.492   3.089
 8220SOL    HW225560   3.637   3.366   3.137
 8221SOL     OW25561   5.312   5.926   3.673
 8221SOL    HW125562   5.393   5.974   3.641
 8221SOL    HW225563   5.294   5.951   3.769
 8222SOL     OW25564   5.789   1.568   2.103
 8222SOL    HW125565   5.801   1.500   2.174
 8222SOL    HW225566   5.844   1.649   2.124
 8223SOL     OW25567   0.300   4.544   5.932
 8223SOL    HW125568   0.243   4.463   5.917
 8223SOL    HW225569   0.254   4.605   5.996
 8224SOL     OW25570   1.042   3.079   3.568
 8224SOL    HW125571   1.011   3.000   3.516
 8224SOL    HW225572   0.977   3.155   3.555
 8225SOL     OW25573   4.747   1.273   6.545
 8225SOL    HW125574   4.813   1.346   6.529
 8225SOL    HW225575   4.696   1.292   6.629
 8226SOL     OW25576   5.203   0.919   0.879
 8226SOL    HW125577   5.210   0.877   0.789
 8226SOL    HW225578   5.124   0.882   0.927
 8227SOL     OW25579   6.304   2.814   3.491
 8227SOL    HW125580   6.368   2.862   3.430
 8227SOL    HW225581   6.353   2.741   3.540
 8228SOL     OW25582   6.311   3.070   4.665
 8228SOL    HW125583   6.264   3.058   4.752
 8228SOL    HW225584   6.383   3.002   4.656
 8229SOL     OW25585   3.605   5.359   0.027
 8229SOL    HW125586   3.606   5.283   6.987
 8229SOL    HW225587   3.662   5.433   7.016
 8230SOL     OW25588   5.281   0.326   4.459
 8230SOL    HW125589   5.195   0.373   4.476
 8230SOL    HW225590   5.322   0.297   4.545
 8231SOL     OW25591   5.307   5.449   0.870
 8231SOL    HW125592   5.322   5.521   0.937
 8231SOL    HW225593   5.230   5.391   0.899
 8232SOL     OW25594   3.719   2.005   0.186
 8232SOL    HW125595   3.778   2.080   0.154
 8232SOL    HW225596   3.768   1.919   0.180
 8233SOL     OW25597   0.706   5.062   6.343
 8233SOL    HW125598   0.622   5.040   6.293
 8233SOL    HW225599   0.775   4.992   6.325
 8234SOL     OW25600   2.993   2.485   6.910
 8234SOL    HW125601   3.030   2.493   7.003
 8234SOL    HW225602   3.067   2.464   6.846
 8235SOL     OW25603   4.058   3.382   1.189
 8235SOL    HW125604   3.977   3.399   1.246
 8235SOL    HW225605   4.096   3.292   1.211
 8236SOL     OW25606   6.147   2.863   0.112
 8236SOL    HW125607   6.235   2.818   0.098
 8236SOL    HW225608   6.102   2.826   0.193
 8237SOL     OW25609   3.762   5.894   5.268
 8237SOL    HW125610   3.836   5.883   5.202
 8237SOL    HW225611   3.783   5.842   5.351
 8238SOL     OW25612   2.142   3.396   6.439
 8238SOL    HW125613   2.148   3.448   6.354
 8238SOL    HW225614   2.159   3.299   6.420
 8239SOL     OW25615   6.929   1.590   5.899
 8239SOL    HW125616   6.839   1.608   5.938
 8239SOL    HW225617   6.932   1.625   5.805
 8240SOL     OW25618   3.655   4.102   2.970
 8240SOL    HW125619   3.748   4.079   2.939
 8240SOL    HW225620   3.591   4.091   2.893
 8241SOL     OW25621   3.262   6.966   0.367
 8241SOL    HW125622   3.181   7.018   0.392
 8241SOL    HW225623   3.330   0.003   0.326
 8242SOL     OW25624   0.950   4.684   5.451
 8242SOL    HW125625   0.951   4.654   5.356
 8242SOL    HW225626   0.859   4.670   5.490
 8243SOL     OW25627   0.370   3.170   5.360
 8243SOL    HW125628   0.438   3.220   5.306
 8243SOL    HW225629   0.392   3.073   5.359
 8244SOL     OW25630   0.892   6.424   3.861
 8244SOL    HW125631   0.904   6.387   3.954
 8244SOL    HW225632   0.970   6.398   3.805
 8245SOL     OW25633   4.313   1.884   1.203
 8245SOL    HW125634   4.383   1.832   1.252
 8245SOL    HW225635   4.357   1.935   1.128
 8246SOL     OW25636   5.888   3.550   6.233
 8246SOL    HW125637   5.912   3.615   6.305
 8246SOL    HW225638   5.809   3.584   6.182
 8247SOL     OW25639   0.899   0.110   1.681
 8247SOL    HW125640   0.986   0.086   1.723
 8247SOL    HW225641   0.914   0.133   1.584
 8248SOL     OW25642   5.445   4.207   4.006
 8248SOL    HW125643   5.499   4.125   3.988
 8248SOL    HW225644   5.360   4.203   3.952
 8249SOL     OW25645   1.972   4.599   3.899
 8249SOL    HW125646   1.967   4.560   3.990
 8249SOL    HW225647   2.052   4.563   3.851
 8250SOL     OW25648   3.901   3.970   2.986
 8250SOL    HW125649   3.967   3.897   3.006
 8250SOL    HW225650   3.895   4.031   3.065
 8251SOL     OW25651   5.447   1.593   5.068
 8251SOL    HW125652   5.429   1.510   5.015
 8251SOL    HW225653   5.526   1.640   5.029
 8252SOL     OW25654   1.970   2.833   6.217
 8252SOL    HW125655   2.054   2.883   6.193
 8252SOL    HW225656   1.993   2.739   6.242
 8253SOL     OW25657   3.374   2.790   5.204
 8253SOL    HW125658   3.327   2.702   5.194
 8253SOL    HW225659   3.360   2.824   5.297
 8254SOL     OW25660   4.117   4.799   3.683
 8254SOL    HW125661   4.166   4.872   3.635
 8254SOL    HW225662   4.166   4.713   3.672
 8255SOL     OW25663   4.285   5.522   3.911
 8255SOL    HW125664   4.328   5.544   3.999
 8255SOL    HW225665   4.189   5.550   3.913
 8256SOL     OW25666   5.925   1.677   4.204
 8256SOL    HW125667   5.872   1.670   4.288
 8256SOL    HW225668   6.018   1.645   4.220
 8257SOL     OW25669   5.563   4.941   3.067
 8257SOL    HW125670   5.613   5.025   3.043
 8257SOL    HW225671   5.628   4.867   3.083
 8258SOL     OW25672   3.754   1.274   0.252
 8258SOL    HW125673   3.664   1.266   0.296
 8258SOL    HW225674   3.763   1.364   0.211
 8259SOL     OW25675   3.574   2.120   3.355
 8259SOL    HW125676   3.529   2.185   3.417
 8259SOL    HW225677   3.549   2.027   3.382
 8260SOL     OW25678   2.837   0.061   0.940
 8260SOL    HW125679   2.767   0.131   0.928
 8260SOL    HW225680   2.919   0.102   0.981
 8261SOL     OW25681   5.470   1.269   1.275
 8261SOL    HW125682   5.537   1.195   1.272
 8261SOL    HW225683   5.504   1.348   1.223
 8262SOL     OW25684   1.119   2.434   1.709
 8262SOL    HW125685   1.156   2.492   1.782
 8262SOL    HW225686   1.074   2.355   1.750
 8263SOL     OW25687   6.340   1.547   1.223
 8263SOL    HW125688   6.375   1.508   1.138
 8263SOL    HW225689   6.383   1.501   1.301
 8264SOL     OW25690   1.557   5.819   2.612
 8264SOL    HW125691   1.574   5.815   2.710
 8264SOL    HW225692   1.494   5.895   2.592
 8265SOL     OW25693   1.775   0.696   2.137
 8265SOL    HW125694   1.865   0.663   2.165
 8265SOL    HW225695   1.781   0.738   2.047
 8266SOL     OW25696   2.849   6.642   2.471
 8266SOL    HW125697   2.946   6.667   2.466
 8266SOL    HW225698   2.834   6.556   2.421
 8267SOL     OW25699   1.347   3.495   1.443
 8267SOL    HW125700   1.254   3.526   1.463
 8267SOL    HW225701   1.391   3.561   1.382
 8268SOL     OW25702   2.317   6.780   5.834
 8268SOL    HW125703   2.235   6.726   5.816
 8268SOL    HW225704   2.334   6.783   5.932
 8269SOL     OW25705   5.526   1.377   0.892
 8269SOL    HW125706   5.547   1.401   0.987
 8269SOL    HW225707   5.529   1.459   0.835
 8270SOL     OW25708   3.486   6.409   3.897
 8270SOL    HW125709   3.538   6.487   3.862
 8270SOL    HW225710   3.416   6.441   3.961
 8271SOL     OW25711   0.031   1.646   3.025
 8271SOL    HW125712   6.982   1.616   2.965
 8271SOL    HW225713   7.016   1.691   3.105
 8272SOL     OW25714   4.180   0.771   2.543
 8272SOL    HW125715   4.208   0.713   2.467
 8272SOL    HW225716   4.125   0.847   2.509
 8273SOL     OW25717   2.404   0.168   1.065
 8273SOL    HW125718   2.387   0.248   1.123
 8273SOL    HW225719   2.425   0.089   1.123
 8274SOL     OW25720   4.704   5.334   3.015
 8274SOL    HW125721   4.684   5.249   2.967
 8274SOL    HW225722   4.744   5.401   2.951
 8275SOL     OW25723   4.661   1.845   6.134
 8275SOL    HW125724   4.706   1.791   6.205
 8275SOL    HW225725   4.703   1.936   6.130
 8276SOL     OW25726   1.522   2.373   4.448
 8276SOL    HW125727   1.465   2.455   4.443
 8276SOL    HW225728   1.563   2.355   4.359
 8277SOL     OW25729   6.949   6.998   6.578
 8277SOL    HW125730   6.947   0.074   6.587
 8277SOL    HW225731   7.014   6.959   6.642
 8278SOL     OW25732   2.339   1.673   0.160
 8278SOL    HW125733   2.287   1.701   0.079
 8278SOL    HW225734   2.398   1.596   0.137
 8279SOL     OW25735   0.553   6.480   4.093
 8279SOL    HW125736   0.605   6.539   4.032
 8279SOL    HW225737   0.467   6.454   4.049
 8280SOL     OW25738   3.414   2.407   6.194
 8280SOL    HW125739   3.457   2.345   6.129
 8280SOL    HW225740   3.485   2.453   6.248
 8281SOL     OW25741   0.635   5.940   1.361
 8281SOL    HW125742   0.560   5.874   1.358
 8281SOL    HW225743   0.682   5.934   1.449
 8282SOL     OW25744   4.968   3.037   5.834
 8282SOL    HW125745   4.885   3.006   5.880
 8282SOL    HW225746   5.045   3.035   5.899
 8283SOL     OW25747   1.328   3.984   6.250
 8283SOL    HW125748   1.393   4.055   6.276
 8283SOL    HW225749   1.307   3.994   6.153
 8284SOL     OW25750   6.787   4.714   1.669
 8284SOL    HW125751   6.694   4.676   1.670
 8284SOL    HW225752   6.800   4.774   1.747
 8285SOL     OW25753   4.079   3.302   4.874
 8285SOL    HW125754   4.088   3.375   4.941
 8285SOL    HW225755   4.035   3.223   4.917
 8286SOL     OW25756   6.436   2.340   6.116
 8286SOL    HW125757   6.529   2.357   6.085
 8286SOL    HW225758   6.394   2.427   6.145
 8287SOL     OW25759   0.947   5.815   4.400
 8287SOL    HW125760   0.848   5.825   4.387
 8287SOL    HW225761   0.991   5.904   4.389
 8288SOL     OW25762   2.243   2.963   2.718
 8288SOL    HW125763   2.175   2.997   2.782
 8288SOL    HW225764   2.312   2.909   2.767
 8289SOL     OW25765   1.070   0.709   0.549
 8289SOL    HW125766   0.982   0.681   0.589
 8289SOL    HW225767   1.141   0.645   0.578
 8290SOL     OW25768   6.256   1.873   0.764
 8290SOL    HW125769   6.204   1.790   0.786
 8290SOL    HW225770   6.301   1.906   0.847
 8291SOL     OW25771   4.079   6.772   6.246
 8291SOL    HW125772   4.049   6.832   6.321
 8291SOL    HW225773   4.060   6.816   6.158
 8292SOL     OW25774   3.082   6.581   0.075
 8292SOL    HW125775   3.062   6.515   0.147
 8292SOL    HW225776   3.181   6.587   0.061
 8293SOL     OW25777   4.248   6.736   5.912
 8293SOL    HW125778   4.157   6.741   5.871
 8293SOL    HW225779   4.313   6.699   5.845
 8294SOL     OW25780   6.025   2.888   6.132
 8294SOL    HW125781   6.119   2.915   6.154
 8294SOL    HW225782   6.007   2.797   6.171
 8295SOL     OW25783   5.528   4.153   1.764
 8295SOL    HW125784   5.595   4.206   1.711
 8295SOL    HW225785   5.526   4.059   1.730
 8296SOL     OW25786   1.482   5.816   6.889
 8296SOL    HW125787   1.389   5.844   6.911
 8296SOL    HW225788   1.537   5.814   6.973
 8297SOL     OW25789   6.106   2.470   3.370
 8297SOL    HW125790   6.204   2.458   3.385
 8297SOL    HW225791   6.086   2.466   3.272
 8298SOL     OW25792   4.931   1.219   1.836
 8298SOL    HW125793   4.844   1.183   1.801
 8298SOL    HW225794   4.928   1.221   1.936
 8299SOL     OW25795   6.572   3.144   2.148
 8299SOL    HW125796   6.597   3.186   2.061
 8299SOL    HW225797   6.555   3.216   2.216
 8300SOL     OW25798   0.928   4.466   5.246
 8300SOL    HW125799   0.837   4.492   5.211
 8300SOL    HW225800   0.926   4.372   5.278
 8301SOL     OW25801   4.500   2.637   1.540
 8301SOL    HW125802   4.463   2.572   1.606
 8301SOL    HW225803   4.486   2.730   1.572
 8302SOL     OW25804   5.837   6.800   6.355
 8302SOL    HW125805   5.840   6.899   6.366
 8302SOL    HW225806   5.827   6.756   6.444
 8303SOL     OW25807   0.788   0.224   4.715
 8303SOL    HW125808   0.737   0.138   4.710
 8303SOL    HW225809   0.873   0.216   4.664
 8304SOL     OW25810   0.678   3.874   6.529
 8304SOL    HW125811   0.732   3.958   6.531
 8304SOL    HW225812   0.604   3.883   6.462
 8305SOL     OW25813   3.325   5.138   3.795
 8305SOL    HW125814   3.334   5.235   3.821
 8305SOL    HW225815   3.280   5.132   3.706
 8306SOL     OW25816   0.775   2.944   5.100
 8306SOL    HW125817   0.753   2.896   5.015
 8306SOL    HW225818   0.729   2.900   5.176
 8307SOL     OW25819   3.264   5.691   0.703
 8307SOL    HW125820   3.209   5.647   0.633
 8307SOL    HW225821   3.216   5.772   0.737
 8308SOL     OW25822   4.021   6.914   1.499
 8308SOL    HW125823   4.014   7.010   1.526
 8308SOL    HW225824   4.027   6.907   1.400
 8309SOL     OW25825   5.736   6.127   2.670
 8309SOL    HW125826   5.792   6.191   2.723
 8309SOL    HW225827   5.792   6.049   2.643
 8310SOL     OW25828   0.826   4.865   0.400
 8310SOL    HW125829   0.783   4.804   0.334
 8310SOL    HW225830   0.836   4.818   0.488
 8311SOL     OW25831   6.808   0.660   6.320
 8311SOL    HW125832   6.832   0.623   6.231
 8311SOL    HW225833   6.819   0.589   6.390
 8312SOL     OW25834   5.365   6.848   1.758
 8312SOL    HW125835   5.290   6.888   1.706
 8312SOL    HW225836   5.376   6.752   1.733
 8313SOL     OW25837   3.584   1.693   2.963
 8313SOL    HW125838   3.648   1.712   3.038
 8313SOL    HW225839   3.626   1.719   2.876
 8314SOL     OW25840   5.683   0.129   1.570
 8314SOL    HW125841   5.633   0.211   1.597
 8314SOL    HW225842   5.712   0.138   1.475
 8315SOL     OW25843   4.835   3.128   0.637
 8315SOL    HW125844   4.827   3.228   0.640
 8315SOL    HW225845   4.859   3.099   0.545
 8316SOL     OW25846   1.585   4.532   0.804
 8316SOL    HW125847   1.582   4.630   0.821
 8316SOL    HW225848   1.678   4.499   0.814
 8317SOL     OW25849   1.887   4.268   2.829
 8317SOL    HW125850   1.808   4.257   2.769
 8317SOL    HW225851   1.920   4.178   2.858
 8318SOL     OW25852   3.623   1.515   5.211
 8318SOL    HW125853   3.606   1.562   5.124
 8318SOL    HW225854   3.540   1.515   5.266
 8319SOL     OW25855   3.612   0.962   5.136
 8319SOL    HW125856   3.585   0.937   5.043
 8319SOL    HW225857   3.602   1.060   5.149
 8320SOL     OW25858   2.908   4.675   1.111
 8320SOL    HW125859   2.958   4.613   1.173
 8320SOL    HW225860   2.876   4.754   1.162
 8321SOL     OW25861   0.544   0.988   0.334
 8321SOL    HW125862   0.457   0.944   0.312
 8321SOL    HW225863   0.534   1.088   0.329
 8322SOL     OW25864   0.225   6.975   0.234
 8322SOL    HW125865   0.178   6.896   0.194
 8322SOL    HW225866   0.287   6.943   0.305
 8323SOL     OW25867   1.006   1.097   2.731
 8323SOL    HW125868   0.988   1.192   2.758
 8323SOL    HW225869   1.024   1.093   2.633
 8324SOL     OW25870   5.923   1.108   2.119
 8324SOL    HW125871   5.825   1.121   2.133
 8324SOL    HW225872   5.974   1.174   2.174
 8325SOL     OW25873   3.617   2.938   3.885
 8325SOL    HW125874   3.693   3.004   3.888
 8325SOL    HW225875   3.543   2.969   3.944
 8326SOL     OW25876   4.218   3.376   5.658
 8326SOL    HW125877   4.262   3.394   5.570
 8326SOL    HW225878   4.274   3.415   5.731
 8327SOL     OW25879   5.541   2.591   6.187
 8327SOL    HW125880   5.519   2.520   6.120
 8327SOL    HW225881   5.470   2.662   6.185
 8328SOL     OW25882   2.202   3.129   6.367
 8328SOL    HW125883   2.268   3.091   6.431
 8328SOL    HW225884   2.243   3.135   6.276
 8329SOL     OW25885   0.074   3.042   5.161
 8329SOL    HW125886   0.168   3.056   5.130
 8329SOL    HW225887   0.069   2.957   5.213
 8330SOL     OW25888   1.651   6.678   0.462
 8330SOL    HW125889   1.744   6.645   0.479
 8330SOL    HW225890   1.617   6.726   0.542
 8331SOL     OW25891   3.248   0.582   1.415
 8331SOL    HW125892   3.253   0.490   1.452
 8331SOL    HW225893   3.158   0.598   1.375
 8332SOL     OW25894   4.753   5.114   2.006
 8332SOL    HW125895   4.679   5.126   2.072
 8332SOL    HW225896   4.830   5.068   2.051
 8333SOL     OW25897   0.408   6.137   0.210
 8333SOL    HW125898   0.414   6.037   0.207
 8333SOL    HW225899   0.446   6.175   0.125
 8334SOL     OW25900   6.460   1.827   3.889
 8334SOL    HW125901   6.479   1.733   3.863
 8334SOL    HW225902   6.450   1.884   3.807
 8335SOL     OW25903   6.236   5.716   5.783
 8335SOL    HW125904   6.182   5.779   5.839
 8335SOL    HW225905   6.327   5.754   5.767
 8336SOL     OW25906   0.380   1.706   2.024
 8336SOL    HW125907   0.409   1.799   2.048
 8336SOL    HW225908   0.288   1.690   2.058
 8337SOL     OW25909   1.104   6.046   2.399
 8337SOL    HW125910   1.101   5.953   2.435
 8337SOL    HW225911   1.059   6.049   2.310
 8338SOL     OW25912   1.930   5.273   1.132
 8338SOL    HW125913   1.942   5.179   1.164
 8338SOL    HW225914   1.850   5.277   1.072
 8339SOL     OW25915   5.671   1.022   2.813
 8339SOL    HW125916   5.642   1.072   2.731
 8339SOL    HW225917   5.590   0.990   2.862
 8340SOL     OW25918   4.989   3.701   0.720
 8340SOL    HW125919   5.080   3.661   0.729
 8340SOL    HW225920   4.958   3.733   0.810
 8341SOL     OW25921   1.583   0.041   0.998
 8341SOL    HW125922   1.489   0.073   1.007
 8341SOL    HW225923   1.642   0.119   0.973
 8342SOL     OW25924   3.531   0.994   0.986
 8342SOL    HW125925   3.550   0.913   1.041
 8342SOL    HW225926   3.514   0.967   0.891
 8343SOL     OW25927   1.185   5.781   6.343
 8343SOL    HW125928   1.119   5.714   6.375
 8343SOL    HW225929   1.196   5.854   6.411
 8344SOL     OW25930   4.415   6.192   5.978
 8344SOL    HW125931   4.324   6.227   5.999
 8344SOL    HW225932   4.453   6.244   5.902
 8345SOL     OW25933   6.009   1.164   3.156
 8345SOL    HW125934   6.042   1.238   3.097
 8345SOL    HW225935   5.994   1.200   3.249
 8346SOL     OW25936   2.216   4.667   0.972
 8346SOL    HW125937   2.267   4.637   1.053
 8346SOL    HW225938   2.250   4.758   0.944
 8347SOL     OW25939   2.808   6.686   5.255
 8347SOL    HW125940   2.803   6.649   5.162
 8347SOL    HW225941   2.731   6.749   5.270
 8348SOL     OW25942   1.148   0.513   1.246
 8348SOL    HW125943   1.164   0.426   1.292
 8348SOL    HW225944   1.093   0.498   1.164
 8349SOL     OW25945   5.881   3.424   0.652
 8349SOL    HW125946   5.865   3.384   0.743
 8349SOL    HW225947   5.795   3.462   0.617
 8350SOL     OW25948   6.348   1.131   5.456
 8350SOL    HW125949   6.322   1.040   5.487
 8350SOL    HW225950   6.399   1.125   5.371
 8351SOL     OW25951   3.150   6.276   4.012
 8351SOL    HW125952   3.139   6.284   3.913
 8351SOL    HW225953   3.140   6.180   4.039
 8352SOL     OW25954   6.658   6.776   2.355
 8352SOL    HW125955   6.670   6.701   2.420
 8352SOL    HW225956   6.589   6.749   2.287
 8353SOL     OW25957   6.330   3.885   2.174
 8353SOL    HW125958   6.312   3.811   2.238
 8353SOL    HW225959   6.259   3.887   2.104
 8354SOL     OW25960   2.852   1.527   6.710
 8354SOL    HW125961   2.791   1.582   6.767
 8354SOL    HW225962   2.798   1.473   6.645
 8355SOL     OW25963   2.954   0.350   0.178
 8355SOL    HW125964   3.027   0.411   0.210
 8355SOL    HW225965   2.877   0.405   0.145
 8356SOL     OW25966   1.192   5.854   0.202
 8356SOL    HW125967   1.229   5.846   0.294
 8356SOL    HW225968   1.146   5.769   0.176
 8357SOL     OW25969   3.453   5.530   4.543
 8357SOL    HW125970   3.459   5.620   4.501
 8357SOL    HW225971   3.425   5.539   4.638
 8358SOL     OW25972   1.920   2.556   5.520
 8358SOL    HW125973   1.884   2.467   5.491
 8358SOL    HW225974   2.020   2.554   5.519
 8359SOL     OW25975   4.393   5.348   4.139
 8359SOL    HW125976   4.331   5.351   4.060
 8359SOL    HW225977   4.456   5.272   4.128
 8360SOL     OW25978   4.448   0.152   3.141
 8360SOL    HW125979   4.462   0.229   3.078
 8360SOL    HW225980   4.351   0.128   3.142
 8361SOL     OW25981   1.656   1.567   2.633
 8361SOL    HW125982   1.558   1.581   2.618
 8361SOL    HW225983   1.685   1.621   2.713
 8362SOL     OW25984   2.167   2.504   0.320
 8362SOL    HW125985   2.096   2.433   0.321
 8362SOL    HW225986   2.252   2.467   0.356
 8363SOL     OW25987   0.737   2.723   0.936
 8363SOL    HW125988   0.747   2.632   0.975
 8363SOL    HW225989   0.696   2.717   0.845
 8364SOL     OW25990   6.064   3.377   3.198
 8364SOL    HW125991   6.122   3.297   3.188
 8364SOL    HW225992   6.114   3.459   3.168
 8365SOL     OW25993   1.479   3.391   0.310
 8365SOL    HW125994   1.555   3.454   0.326
 8365SOL    HW225995   1.515   3.298   0.305
 8366SOL     OW25996   4.690   6.407   2.678
 8366SOL    HW125997   4.612   6.454   2.720
 8366SOL    HW225998   4.658   6.355   2.599
 8367SOL     OW25999   4.820   6.201   3.718
 8367SOL    HW126000   4.777   6.195   3.628
 8367SOL    HW226001   4.831   6.297   3.744
 8368SOL     OW26002   2.532   5.268   5.897
 8368SOL    HW126003   2.529   5.198   5.826
 8368SOL    HW226004   2.505   5.356   5.859
 8369SOL     OW26005   2.006   1.109   0.096
 8369SOL    HW126006   2.051   1.196   0.073
 8369SOL    HW226007   2.058   1.034   0.056
 8370SOL     OW26008   1.437   1.822   6.412
 8370SOL    HW126009   1.419   1.914   6.376
 8370SOL    HW226010   1.405   1.816   6.507
 8371SOL     OW26011   1.336   2.813   0.663
 8371SOL    HW126012   1.277   2.842   0.588
 8371SOL    HW226013   1.281   2.767   0.733
 8372SOL     OW26014   6.976   0.254   2.475
 8372SOL    HW126015   0.048   0.270   2.454
 8372SOL    HW226016   6.920   0.272   2.394
 8373SOL     OW26017   1.454   6.137   5.676
 8373SOL    HW126018   1.541   6.122   5.724
 8373SOL    HW226019   1.418   6.050   5.643
 8374SOL     OW26020   6.634   0.599   0.193
 8374SOL    HW126021   6.662   0.516   0.145
 8374SOL    HW226022   6.715   0.651   0.218
 8375SOL     OW26023   3.276   6.591   6.367
 8375SOL    HW126024   3.302   6.526   6.438
 8375SOL    HW226025   3.335   6.578   6.287
 8376SOL     OW26026   2.912   0.271   3.786
 8376SOL    HW126027   2.892   0.277   3.688
 8376SOL    HW226028   3.010   0.256   3.799
 8377SOL     OW26029   6.438   5.203   1.332
 8377SOL    HW126030   6.338   5.198   1.339
 8377SOL    HW226031   6.465   5.183   1.238
 8378SOL     OW26032   5.437   3.507   3.134
 8378SOL    HW126033   5.508   3.543   3.074
 8378SOL    HW226034   5.352   3.498   3.082
 8379SOL     OW26035   6.469   3.657   1.783
 8379SOL    HW126036   6.448   3.599   1.705
 8379SOL    HW226037   6.477   3.752   1.754
 8380SOL     OW26038   5.705   1.775   2.453
 8380SOL    HW126039   5.796   1.801   2.418
 8380SOL    HW226040   5.714   1.741   2.546
 8381SOL     OW26041   1.258   5.258   4.467
 8381SOL    HW126042   1.165   5.279   4.438
 8381SOL    HW226043   1.263   5.162   4.494
 8382SOL     OW26044   1.179   2.308   2.639
 8382SOL    HW126045   1.215   2.233   2.583
 8382SOL    HW226046   1.211   2.296   2.733
 8383SOL     OW26047   2.710   2.334   6.674
 8383SOL    HW126048   2.674   2.401   6.739
 8383SOL    HW226049   2.746   2.381   6.594
 8384SOL     OW26050   0.043   6.115   1.593
 8384SOL    HW126051   0.014   6.198   1.639
 8384SOL    HW226052   0.143   6.114   1.585
 8385SOL     OW26053   5.134   2.254   2.688
 8385SOL    HW126054   5.131   2.329   2.753
 8385SOL    HW226055   5.042   2.217   2.674
 8386SOL     OW26056   0.616   4.339   3.001
 8386SOL    HW126057   0.606   4.361   2.904
 8386SOL    HW226058   0.526   4.334   3.044
 8387SOL     OW26059   1.015   1.923   1.645
 8387SOL    HW126060   1.050   1.849   1.587
 8387SOL    HW226061   0.916   1.931   1.631
 8388SOL     OW26062   3.027   6.519   1.556
 8388SOL    HW126063   3.062   6.429   1.579
 8388SOL    HW226064   3.031   6.578   1.637
 8389SOL     OW26065   5.123   3.111   2.040
 8389SOL    HW126066   5.073   3.075   2.118
 8389SOL    HW226067   5.185   3.183   2.070
 8390SOL     OW26068   4.429   1.796   5.678
 8390SOL    HW126069   4.462   1.727   5.614
 8390SOL    HW226070   4.481   1.880   5.666
 8391SOL     OW26071   6.520   0.466   0.873
 8391SOL    HW126072   6.481   0.441   0.785
 8391SOL    HW226073   6.446   0.480   0.939
 8392SOL     OW26074   5.668   3.241   4.164
 8392SOL    HW126075   5.579   3.210   4.197
 8392SOL    HW226076   5.715   3.293   4.236
 8393SOL     OW26077   4.849   0.164   2.042
 8393SOL    HW126078   4.857   0.263   2.027
 8393SOL    HW226079   4.893   0.116   1.966
 8394SOL     OW26080   6.048   3.807   2.765
 8394SOL    HW126081   6.017   3.713   2.756
 8394SOL    HW226082   6.148   3.808   2.776
 8395SOL     OW26083   2.538   1.041   4.865
 8395SOL    HW126084   2.540   1.046   4.765
 8395SOL    HW226085   2.467   0.975   4.893
 8396SOL     OW26086   4.340   5.297   4.641
 8396SOL    HW126087   4.393   5.215   4.620
 8396SOL    HW226088   4.394   5.358   4.699
 8397SOL     OW26089   6.360   0.956   3.676
 8397SOL    HW126090   6.457   0.973   3.658
 8397SOL    HW226091   6.351   0.887   3.749
 8398SOL     OW26092   5.204   2.159   5.846
 8398SOL    HW126093   5.134   2.164   5.774
 8398SOL    HW226094   5.208   2.246   5.895
 8399SOL     OW26095   0.198   5.850   0.409
 8399SOL    HW126096   0.141   5.783   0.360
 8399SOL    HW226097   0.281   5.869   0.356
 8400SOL     OW26098   1.351   2.135   4.215
 8400SOL    HW126099   1.318   2.154   4.123
 8400SOL    HW226100   1.291   2.180   4.282
 8401SOL     OW26101   3.242   0.520   5.770
 8401SOL    HW126102   3.165   0.488   5.826
 8401SOL    HW226103   3.277   0.444   5.715
 8402SOL     OW26104   4.114   1.148   5.781
 8402SOL    HW126105   4.130   1.225   5.843
 8402SOL    HW226106   4.096   1.065   5.834
 8403SOL     OW26107   6.097   4.826   4.779
 8403SOL    HW126108   6.014   4.772   4.762
 8403SOL    HW226109   6.080   4.889   4.855
 8404SOL     OW26110   2.135   1.783   6.418
 8404SOL    HW126111   2.171   1.817   6.332
 8404SOL    HW226112   2.036   1.795   6.420
 8405SOL     OW26113   3.916   1.050   5.111
 8405SOL    HW126114   3.974   1.123   5.147
 8405SOL    HW226115   3.838   1.091   5.063
 8406SOL     OW26116   5.382   0.744   6.390
 8406SOL    HW126117   5.303   0.683   6.383
 8406SOL    HW226118   5.462   0.699   6.349
 8407SOL     OW26119   3.808   6.718   3.542
 8407SOL    HW126120   3.893   6.730   3.593
 8407SOL    HW226121   3.763   6.634   3.572
 8408SOL     OW26122   5.318   0.346   1.367
 8408SOL    HW126123   5.340   0.251   1.344
 8408SOL    HW226124   5.223   0.352   1.396
 8409SOL     OW26125   4.497   2.465   2.373
 8409SOL    HW126126   4.590   2.500   2.380
 8409SOL    HW226127   4.434   2.530   2.417
 8410SOL     OW26128   0.081   1.890   1.855
 8410SOL    HW126129   0.095   1.843   1.942
 8410SOL    HW226130   0.001   1.950   1.863
 8411SOL     OW26131   1.204   6.035   0.690
 8411SOL    HW126132   1.289   6.049   0.741
 8411SOL    HW226133   1.156   5.955   0.726
 8412SOL     OW26134   2.783   3.064   7.013
 8412SOL    HW126135   2.750   3.065   6.919
 8412SOL    HW226136   2.800   2.969   0.017
 8413SOL     OW26137   4.192   5.069   5.537
 8413SOL    HW126138   4.111   5.056   5.594
 8413SOL    HW226139   4.228   5.162   5.551
 8414SOL     OW26140   1.386   1.562   2.558
 8414SOL    HW126141   1.372   1.587   2.462
 8414SOL    HW226142   1.300   1.528   2.597
 8415SOL     OW26143   2.667   0.429   4.545
 8415SOL    HW126144   2.766   0.416   4.535
 8415SOL    HW226145   2.622   0.340   4.554
 8416SOL     OW26146   6.467   1.672   5.108
 8416SOL    HW126147   6.392   1.668   5.043
 8416SOL    HW226148   6.432   1.700   5.197
 8417SOL     OW26149   0.909   3.580   5.012
 8417SOL    HW126150   0.905   3.674   5.047
 8417SOL    HW226151   0.980   3.574   4.943
 8418SOL     OW26152   0.956   5.844   2.705
 8418SOL    HW126153   0.990   5.886   2.789
 8418SOL    HW226154   0.928   5.750   2.724
 8419SOL     OW26155   5.267   0.752   4.016
 8419SOL    HW126156   5.266   0.828   4.080
 8419SOL    HW226157   5.251   0.786   3.923
 8420SOL     OW26158   3.370   6.795   2.092
 8420SOL    HW126159   3.278   6.773   2.123
 8420SOL    HW226160   3.430   6.716   2.107
 8421SOL     OW26161   4.017   6.133   6.351
 8421SOL    HW126162   3.959   6.127   6.270
 8421SOL    HW226163   3.965   6.107   6.432
 8422SOL     OW26164   4.671   2.691   3.062
 8422SOL    HW126165   4.646   2.594   3.053
 8422SOL    HW226166   4.666   2.718   3.158
 8423SOL     OW26167   5.624   4.501   6.057
 8423SOL    HW126168   5.540   4.446   6.061
 8423SOL    HW226169   5.666   4.504   6.147
 8424SOL     OW26170   2.097   0.060   3.259
 8424SOL    HW126171   2.031   0.109   3.316
 8424SOL    HW226172   2.052   0.028   3.175
 8425SOL     OW26173   3.275   3.769   3.508
 8425SOL    HW126174   3.341   3.726   3.447
 8425SOL    HW226175   3.284   3.868   3.503
 8426SOL     OW26176   3.611   2.910   1.895
 8426SOL    HW126177   3.557   2.982   1.850
 8426SOL    HW226178   3.575   2.894   1.987
 8427SOL     OW26179   2.940   3.587   3.913
 8427SOL    HW126180   3.000   3.625   3.843
 8427SOL    HW226181   2.866   3.536   3.870
 8428SOL     OW26182   0.193   0.504   0.928
 8428SOL    HW126183   0.157   0.571   0.993
 8428SOL    HW226184   0.207   0.547   0.839
 8429SOL     OW26185   1.455   5.751   6.361
 8429SOL    HW126186   1.505   5.833   6.335
 8429SOL    HW226187   1.362   5.754   6.323
 8430SOL     OW26188   4.371   5.961   4.570
 8430SOL    HW126189   4.451   5.964   4.510
 8430SOL    HW226190   4.329   6.052   4.574
 8431SOL     OW26191   2.961   3.376   6.336
 8431SOL    HW126192   3.033   3.369   6.268
 8431SOL    HW226193   2.880   3.419   6.294
 8432SOL     OW26194   6.360   5.798   6.630
 8432SOL    HW126195   6.377   5.877   6.571
 8432SOL    HW226196   6.379   5.714   6.579
 8433SOL     OW26197   4.872   2.419   0.780
 8433SOL    HW126198   4.834   2.490   0.840
 8433SOL    HW226199   4.906   2.343   0.835
 8434SOL     OW26200   2.282   5.503   5.384
 8434SOL    HW126201   2.354   5.434   5.386
 8434SOL    HW226202   2.311   5.579   5.325
 8435SOL     OW26203   5.168   0.834   3.064
 8435SOL    HW126204   5.122   0.784   3.138
 8435SOL    HW226205   5.258   0.792   3.048
 8436SOL     OW26206   2.326   6.881   2.824
 8436SOL    HW126207   2.332   6.866   2.923
 8436SOL    HW226208   2.304   6.977   2.806
 8437SOL     OW26209   2.119   3.108   2.277
 8437SOL    HW126210   2.054   3.032   2.273
 8437SOL    HW226211   2.074   3.192   2.247
 8438SOL     OW26212   1.670   4.600   2.709
 8438SOL    HW126213   1.702   4.527   2.771
 8438SOL    HW226214   1.575   4.583   2.685
 8439SOL     OW26215   5.795   5.970   3.592
 8439SOL    HW126216   5.838   5.956   3.503
 8439SOL    HW226217   5.842   6.043   3.641
 8440SOL     OW26218   1.881   1.433   3.273
 8440SOL    HW126219   1.794   1.463   3.312
 8440SOL    HW226220   1.915   1.355   3.324
 8441SOL     OW26221   5.736   0.266   5.619
 8441SOL    HW126222   5.709   0.218   5.535
 8441SOL    HW226223   5.741   0.201   5.694
 8442SOL     OW26224   3.790   1.294   5.772
 8442SOL    HW126225   3.768   1.289   5.870
 8442SOL    HW226226   3.882   1.330   5.761
 8443SOL     OW26227   1.506   4.815   3.626
 8443SOL    HW126228   1.577   4.809   3.556
 8443SOL    HW226229   1.549   4.815   3.716
 8444SOL     OW26230   4.885   5.781   3.400
 8444SOL    HW126231   4.809   5.716   3.390
 8444SOL    HW226232   4.919   5.778   3.494
 8445SOL     OW26233   3.589   6.277   6.853
 8445SOL    HW126234   3.618   6.340   6.781
 8445SOL    HW226235   3.518   6.320   6.909
 8446SOL     OW26236   0.836   6.005   5.396
 8446SOL    HW126237   0.835   6.100   5.427
 8446SOL    HW226238   0.749   5.984   5.351
 8447SOL     OW26239   3.802   1.501   2.930
 8447SOL    HW126240   3.828   1.497   3.027
 8447SOL    HW226241   3.744   1.580   2.915
 8448SOL     OW26242   4.460   6.703   3.130
 8448SOL    HW126243   4.504   6.710   3.041
 8448SOL    HW226244   4.525   6.729   3.202
 8449SOL     OW26245   1.870   2.222   2.954
 8449SOL    HW126246   1.901   2.288   2.886
 8449SOL    HW226247   1.865   2.265   3.044
 8450SOL     OW26248   6.820   0.422   6.950
 8450SOL    HW126249   6.733   0.433   6.902
 8450SOL    HW226250   6.885   0.491   6.920
 8451SOL     OW26251   4.962   2.235   1.360
 8451SOL    HW126252   4.956   2.137   1.346
 8451SOL    HW226253   4.986   2.254   1.455
 8452SOL     OW26254   5.190   2.102   4.908
 8452SOL    HW126255   5.169   2.118   5.005
 8452SOL    HW226256   5.255   2.027   4.900
 8453SOL     OW26257   0.831   5.715   0.110
 8453SOL    HW126258   0.841   5.814   0.109
 8453SOL    HW226259   0.778   5.687   0.190
 8454SOL     OW26260   0.943   4.405   0.384
 8454SOL    HW126261   1.012   4.346   0.425
 8454SOL    HW226262   0.852   4.368   0.402
 8455SOL     OW26263   1.127   0.579   2.619
 8455SOL    HW126264   1.160   0.587   2.525
 8455SOL    HW226265   1.057   0.508   2.624
 8456SOL     OW26266   5.916   1.463   3.570
 8456SOL    HW126267   5.825   1.458   3.611
 8456SOL    HW226268   5.938   1.376   3.526
 8457SOL     OW26269   6.025   6.262   4.420
 8457SOL    HW126270   5.925   6.263   4.415
 8457SOL    HW226271   6.059   6.172   4.392
 8458SOL     OW26272   6.485   0.178   6.715
 8458SOL    HW126273   6.537   0.162   6.799
 8458SOL    HW226274   6.388   0.166   6.733
 8459SOL     OW26275   1.229   5.793   3.062
 8459SOL    HW126276   1.325   5.794   3.092
 8459SOL    HW226277   1.217   5.722   2.992
 8460SOL     OW26278   3.318   3.936   5.073
 8460SOL    HW126279   3.376   4.002   5.026
 8460SOL    HW226280   3.272   3.980   5.150
 8461SOL     OW26281   6.036   3.505   4.179
 8461SOL    HW126282   5.985   3.530   4.262
 8461SOL    HW226283   5.995   3.551   4.100
 8462SOL     OW26284   2.461   2.234   1.715
 8462SOL    HW126285   2.406   2.272   1.790
 8462SOL    HW226286   2.525   2.167   1.752
 8463SOL     OW26287   5.783   0.793   2.509
 8463SOL    HW126288   5.785   0.700   2.545
 8463SOL    HW226289   5.696   0.836   2.533
 8464SOL     OW26290   5.716   2.941   4.439
 8464SOL    HW126291   5.755   2.947   4.531
 8464SOL    HW226292   5.771   2.879   4.383
 8465SOL     OW26293   1.582   2.410   0.612
 8465SOL    HW126294   1.582   2.487   0.676
 8465SOL    HW226295   1.643   2.431   0.535
 8466SOL     OW26296   0.757   5.964   3.423
 8466SOL    HW126297   0.812   5.884   3.400
 8466SOL    HW226298   0.797   6.045   3.381
 8467SOL     OW26299   2.962   5.714   0.903
 8467SOL    HW126300   2.904   5.750   0.975
 8467SOL    HW226301   3.044   5.770   0.895
 8468SOL     OW26302   4.501   1.789   6.776
 8468SOL    HW126303   4.549   1.876   6.779
 8468SOL    HW226304   4.543   1.725   6.840
 8469SOL     OW26305   3.384   2.653   6.792
 8469SOL    HW126306   3.474   2.609   6.786
 8469SOL    HW226307   3.313   2.582   6.790
 8470SOL     OW26308   2.753   3.517   6.930
 8470SOL    HW126309   2.715   3.440   6.981
 8470SOL    HW226310   2.696   3.536   6.850
 8471SOL     OW26311   3.668   0.909   3.838
 8471SOL    HW126312   3.586   0.898   3.782
 8471SOL    HW226313   3.673   1.003   3.872
 8472SOL     OW26314   1.456   6.589   4.385
 8472SOL    HW126315   1.360   6.611   4.398
 8472SOL    HW226316   1.465   6.492   4.361
 8473SOL     OW26317   6.995   5.185   6.798
 8473SOL    HW126318   0.063   5.147   6.784
 8473SOL    HW226319   6.931   5.142   6.735
 8474SOL     OW26320   3.499   3.736   1.512
 8474SOL    HW126321   3.537   3.824   1.539
 8474SOL    HW226322   3.426   3.710   1.574
 8475SOL     OW26323   5.732   1.616   2.690
 8475SOL    HW126324   5.788   1.695   2.716
 8475SOL    HW226325   5.669   1.593   2.764
 8476SOL     OW26326   4.574   0.602   2.024
 8476SOL    HW126327   4.576   0.508   2.059
 8476SOL    HW226328   4.599   0.665   2.097
 8477SOL     OW26329   2.850   0.900   1.176
 8477SOL    HW126330   2.939   0.862   1.152
 8477SOL    HW226331   2.780   0.863   1.114
 8478SOL     OW26332   1.164   0.383   5.568
 8478SOL    HW126333   1.213   0.312   5.516
 8478SOL    HW226334   1.161   0.358   5.665
 8479SOL     OW26335   6.044   0.903   0.826
 8479SOL    HW126336   6.047   0.997   0.794
 8479SOL    HW226337   5.996   0.899   0.914
 8480SOL     OW26338   3.260   1.055   1.555
 8480SOL    HW126339   3.251   1.093   1.463
 8480SOL    HW226340   3.274   0.956   1.549
 8481SOL     OW26341   3.665   1.131   4.175
 8481SOL    HW126342   3.650   1.189   4.255
 8481SOL    HW226343   3.758   1.146   4.140
 8482SOL     OW26344   1.565   6.768   2.078
 8482SOL    HW126345   1.615   6.837   2.025
 8482SOL    HW226346   1.618   6.744   2.160
 8483SOL     OW26347   4.044   5.872   0.843
 8483SOL    HW126348   3.965   5.841   0.896
 8483SOL    HW226349   4.099   5.793   0.817
 8484SOL     OW26350   0.648   5.088   4.673
 8484SOL    HW126351   0.593   5.068   4.754
 8484SOL    HW226352   0.649   5.187   4.657
 8485SOL     OW26353   2.110   3.306   6.991
 8485SOL    HW126354   2.080   3.363   6.915
 8485SOL    HW226355   2.210   3.300   6.991
 8486SOL     OW26356   5.641   0.734   2.242
 8486SOL    HW126357   5.706   0.763   2.311
 8486SOL    HW226358   5.548   0.740   2.278
 8487SOL     OW26359   4.919   0.436   1.017
 8487SOL    HW126360   4.903   0.418   1.115
 8487SOL    HW226361   4.836   0.412   0.966
 8488SOL     OW26362   4.881   3.536   3.992
 8488SOL    HW126363   4.807   3.522   3.926
 8488SOL    HW226364   4.881   3.460   4.058
 8489SOL     OW26365   4.858   4.735   1.614
 8489SOL    HW126366   4.937   4.691   1.571
 8489SOL    HW226367   4.795   4.765   1.543
 8490SOL     OW26368   4.364   5.211   2.798
 8490SOL    HW126369   4.309   5.165   2.727
 8490SOL    HW226370   4.304   5.264   2.857
 8491SOL     OW26371   2.534   0.656   2.290
 8491SOL    HW126372   2.467   0.720   2.329
 8491SOL    HW226373   2.581   0.608   2.364
 8492SOL     OW26374   5.919   3.145   4.562
 8492SOL    HW126375   5.905   3.048   4.584
 8492SOL    HW226376   5.983   3.153   4.486
 8493SOL     OW26377   4.176   1.521   6.440
 8493SOL    HW126378   4.209   1.591   6.505
 8493SOL    HW226379   4.167   1.563   6.350
 8494SOL     OW26380   3.646   5.422   6.404
 8494SOL    HW126381   3.658   5.437   6.502
 8494SOL    HW226382   3.549   5.426   6.381
 8495SOL     OW26383   6.814   2.795   1.052
 8495SOL    HW126384   6.836   2.870   1.114
 8495SOL    HW226385   6.744   2.824   0.988
 8496SOL     OW26386   0.138   2.934   3.823
 8496SOL    HW126387   0.056   2.991   3.827
 8496SOL    HW226388   0.216   2.989   3.792
 8497SOL     OW26389   5.686   5.741   3.223
 8497SOL    HW126390   5.635   5.826   3.235
 8497SOL    HW226391   5.677   5.685   3.305
 8498SOL     OW26392   0.306   1.189   1.038
 8498SOL    HW126393   0.228   1.215   0.982
 8498SOL    HW226394   0.278   1.177   1.133
 8499SOL     OW26395   3.523   4.073   6.150
 8499SOL    HW126396   3.460   3.997   6.161
 8499SOL    HW226397   3.617   4.039   6.155
 8500SOL     OW26398   2.705   6.352   5.922
 8500SOL    HW126399   2.608   6.330   5.906
 8500SOL    HW226400   2.745   6.282   5.982
 8501SOL     OW26401   1.277   3.429   6.807
 8501SOL    HW126402   1.350   3.477   6.759
 8501SOL    HW226403   1.316   3.374   6.881
 8502SOL     OW26404   6.552   0.194   1.534
 8502SOL    HW126405   6.646   0.190   1.500
 8502SOL    HW226406   6.537   0.282   1.581
 8503SOL     OW26407   2.655   5.001   3.292
 8503SOL    HW126408   2.703   5.071   3.346
 8503SOL    HW226409   2.640   5.035   3.200
 8504SOL     OW26410   1.427   5.256   3.247
 8504SOL    HW126411   1.499   5.189   3.231
 8504SOL    HW226412   1.418   5.273   3.346
 8505SOL     OW26413   5.113   3.696   3.321
 8505SOL    HW126414   5.070   3.607   3.333
 8505SOL    HW226415   5.073   3.743   3.242
 8506SOL     OW26416   1.515   6.701   0.226
 8506SOL    HW126417   1.555   6.707   0.318
 8506SOL    HW226418   1.572   6.750   0.161
 8507SOL     OW26419   1.254   0.954   5.386
 8507SOL    HW126420   1.263   0.860   5.354
 8507SOL    HW226421   1.218   0.955   5.479
 8508SOL     OW26422   0.581   2.203   5.760
 8508SOL    HW126423   0.576   2.291   5.712
 8508SOL    HW226424   0.648   2.210   5.834
 8509SOL     OW26425   6.273   1.755   4.625
 8509SOL    HW126426   6.288   1.854   4.620
 8509SOL    HW226427   6.331   1.709   4.558
 8510SOL     OW26428   5.460   6.159   2.520
 8510SOL    HW126429   5.554   6.146   2.551
 8510SOL    HW226430   5.400   6.168   2.599
 8511SOL     OW26431   6.421   4.918   1.912
 8511SOL    HW126432   6.517   4.931   1.934
 8511SOL    HW226433   6.413   4.865   1.827
 8512SOL     OW26434   5.170   2.507   0.039
 8512SOL    HW126435   5.205   2.438   0.101
 8512SOL    HW226436   5.075   2.528   0.062
 8513SOL     OW26437   6.558   4.444   1.167
 8513SOL    HW126438   6.609   4.432   1.253
 8513SOL    HW226439   6.515   4.358   1.141
 8514SOL     OW26440   2.942   1.973   5.327
 8514SOL    HW126441   3.012   1.986   5.257
 8514SOL    HW226442   2.948   2.047   5.394
 8515SOL     OW26443   0.961   1.065   0.736
 8515SOL    HW126444   0.891   1.013   0.688
 8515SOL    HW226445   0.927   1.092   0.826
 8516SOL     OW26446   6.075   2.586   2.359
 8516SOL    HW126447   6.050   2.640   2.439
 8516SOL    HW226448   5.991   2.551   2.316
 8517SOL     OW26449   1.474   2.854   5.498
 8517SOL    HW126450   1.500   2.851   5.401
 8517SOL    HW226451   1.402   2.787   5.515
 8518SOL     OW26452   5.661   4.763   6.675
 8518SOL    HW126453   5.564   4.740   6.686
 8518SOL    HW226454   5.675   4.859   6.698
 8519SOL     OW26455   1.529   3.835   0.878
 8519SOL    HW126456   1.553   3.854   0.973
 8519SOL    HW226457   1.582   3.895   0.818
 8520SOL     OW26458   3.912   3.576   4.621
 8520SOL    HW126459   3.977   3.516   4.575
 8520SOL    HW226460   3.927   3.670   4.590
 8521SOL     OW26461   1.845   5.968   5.590
 8521SOL    HW126462   1.806   5.876   5.581
 8521SOL    HW226463   1.943   5.961   5.604
 8522SOL     OW26464   1.297   6.605   0.785
 8522SOL    HW126465   1.269   6.675   0.850
 8522SOL    HW226466   1.219   6.580   0.727
 8523SOL     OW26467   2.607   0.006   6.405
 8523SOL    HW126468   2.541   6.959   6.384
 8523SOL    HW226469   2.559   0.090   6.431
 8524SOL     OW26470   1.334   5.470   4.652
 8524SOL    HW126471   1.280   5.408   4.596
 8524SOL    HW226472   1.278   5.551   4.675
 8525SOL     OW26473   0.128   4.870   1.522
 8525SOL    HW126474   0.148   4.847   1.426
 8525SOL    HW226475   0.079   4.794   1.564
 8526SOL     OW26476   2.601   7.005   0.729
 8526SOL    HW126477   2.622   0.051   0.797
 8526SOL    HW226478   2.503   6.983   0.733
 8527SOL     OW26479   3.560   0.082   6.468
 8527SOL    HW126480   3.535   0.099   6.372
 8527SOL    HW226481   3.482   0.040   6.515
 8528SOL     OW26482   5.170   2.522   0.526
 8528SOL    HW126483   5.210   2.532   0.617
 8528SOL    HW226484   5.110   2.442   0.524
 8529SOL     OW26485   1.287   6.218   6.885
 8529SOL    HW126486   1.317   6.290   6.948
 8529SOL    HW226487   1.279   6.256   6.793
 8530SOL     OW26488   3.182   3.684   4.247
 8530SOL    HW126489   3.120   3.753   4.285
 8530SOL    HW226490   3.131   3.601   4.225
 8531SOL     OW26491   6.719   5.544   3.469
 8531SOL    HW126492   6.715   5.643   3.465
 8531SOL    HW226493   6.701   5.513   3.562
 8532SOL     OW26494   3.453   6.342   4.251
 8532SOL    HW126495   3.389   6.406   4.209
 8532SOL    HW226496   3.439   6.342   4.350
 8533SOL     OW26497   1.020   6.359   6.526
 8533SOL    HW126498   1.072   6.342   6.442
 8533SOL    HW226499   1.005   6.273   6.574
 8534SOL     OW26500   4.475   2.515   4.109
 8534SOL    HW126501   4.492   2.421   4.080
 8534SOL    HW226502   4.543   2.576   4.068
 8535SOL     OW26503   6.107   1.153   3.937
 8535SOL    HW126504   6.104   1.182   4.033
 8535SOL    HW226505   6.014   1.132   3.906
 8536SOL     OW26506   0.140   0.764   4.404
 8536SOL    HW126507   0.229   0.738   4.365
 8536SOL    HW226508   0.074   0.779   4.330
 8537SOL     OW26509   6.975   0.817   3.161
 8537SOL    HW126510   0.042   0.786   3.137
 8537SOL    HW226511   6.973   0.917   3.161
 8538SOL     OW26512   1.386   2.515   0.410
 8538SOL    HW126513   1.410   2.447   0.480
 8538SOL    HW226514   1.462   2.580   0.401
 8539SOL     OW26515   6.696   2.633   2.956
 8539SOL    HW126516   6.684   2.699   2.881
 8539SOL    HW226517   6.611   2.582   2.969
 8540SOL     OW26518   4.409   6.994   0.094
 8540SOL    HW126519   4.449   7.011   0.004
 8540SOL    HW226520   4.350   6.913   0.090
 8541SOL     OW26521   2.251   2.552   3.552
 8541SOL    HW126522   2.318   2.513   3.489
 8541SOL    HW226523   2.299   2.585   3.634
 8542SOL     OW26524   4.060   3.797   6.722
 8542SOL    HW126525   4.091   3.891   6.714
 8542SOL    HW226526   3.985   3.792   6.789
 8543SOL     OW26527   2.019   2.767   6.974
 8543SOL    HW126528   2.064   2.678   6.977
 8543SOL    HW226529   2.074   2.830   6.919
 8544SOL     OW26530   5.554   2.658   4.096
 8544SOL    HW126531   5.631   2.687   4.040
 8544SOL    HW226532   5.502   2.738   4.126
 8545SOL     OW26533   4.990   6.287   5.131
 8545SOL    HW126534   4.965   6.196   5.096
 8545SOL    HW226535   5.059   6.277   5.203
 8546SOL     OW26536   4.926   1.517   4.017
 8546SOL    HW126537   4.921   1.497   3.919
 8546SOL    HW226538   5.022   1.532   4.043
 8547SOL     OW26539   0.925   4.829   3.404
 8547SOL    HW126540   0.877   4.800   3.321
 8547SOL    HW226541   1.002   4.767   3.421
 8548SOL     OW26542   5.625   1.070   4.891
 8548SOL    HW126543   5.626   1.037   4.796
 8548SOL    HW226544   5.535   1.055   4.931
 8549SOL     OW26545   6.746   3.615   4.318
 8549SOL    HW126546   6.691   3.691   4.355
 8549SOL    HW226547   6.692   3.564   4.252
 8550SOL     OW26548   1.382   5.302   6.493
 8550SOL    HW126549   1.339   5.211   6.492
 8550SOL    HW226550   1.454   5.306   6.424
 8551SOL     OW26551   3.493   3.963   0.046
 8551SOL    HW126552   3.469   3.869   0.069
 8551SOL    HW226553   3.445   4.026   0.108
 8552SOL     OW26554   2.304   6.314   3.861
 8552SOL    HW126555   2.209   6.333   3.888
 8552SOL    HW226556   2.305   6.241   3.792
 8553SOL     OW26557   5.044   6.751   0.486
 8553SOL    HW126558   4.990   6.805   0.421
 8553SOL    HW226559   5.136   6.738   0.450
 8554SOL     OW26560   7.021   3.998   6.921
 8554SOL    HW126561   6.948   4.026   6.982
 8554SOL    HW226562   0.069   4.067   6.920
 8555SOL     OW26563   1.377   0.047   3.968
 8555SOL    HW126564   1.471   0.079   3.971
 8555SOL    HW226565   1.375   6.972   3.953
 8556SOL     OW26566   6.326   0.479   4.038
 8556SOL    HW126567   6.347   0.495   4.134
 8556SOL    HW226568   6.411   0.471   3.986
 8557SOL     OW26569   6.963   6.917   1.083
 8557SOL    HW126570   7.022   6.916   1.164
 8557SOL    HW226571   7.020   6.928   1.001
 8558SOL     OW26572   0.955   4.931   2.179
 8558SOL    HW126573   0.968   4.989   2.259
 8558SOL    HW226574   1.038   4.932   2.123
 8559SOL     OW26575   1.508   0.043   1.697
 8559SOL    HW126576   1.455   0.122   1.728
 8559SOL    HW226577   1.561   0.067   1.616
 8560SOL     OW26578   6.388   1.762   0.356
 8560SOL    HW126579   6.351   1.855   0.368
 8560SOL    HW226580   6.371   1.708   0.439
 8561SOL     OW26581   4.751   6.235   3.444
 8561SOL    HW126582   4.702   6.175   3.381
 8561SOL    HW226583   4.740   6.330   3.415
 8562SOL     OW26584   3.659   6.633   3.854
 8562SOL    HW126585   3.743   6.642   3.907
 8562SOL    HW226586   3.620   6.723   3.837
 8563SOL     OW26587   2.715   2.537   6.874
 8563SOL    HW126588   2.673   2.507   6.959
 8563SOL    HW226589   2.815   2.529   6.882
 8564SOL     OW26590   0.989   0.035   3.286
 8564SOL    HW126591   0.987   0.033   3.386
 8564SOL    HW226592   1.084   0.033   3.255
 8565SOL     OW26593   3.592   6.688   1.072
 8565SOL    HW126594   3.529   6.612   1.056
 8565SOL    HW226595   3.678   6.671   1.024
 8566SOL     OW26596   1.227   2.337   3.395
 8566SOL    HW126597   1.301   2.289   3.347
 8566SOL    HW226598   1.224   2.306   3.490
 8567SOL     OW26599   5.190   1.195   1.250
 8567SOL    HW126600   5.283   1.223   1.227
 8567SOL    HW226601   5.148   1.264   1.309
 8568SOL     OW26602   5.322   1.517   0.011
 8568SOL    HW126603   5.311   1.572   6.952
 8568SOL    HW226604   5.416   1.523   0.043
 8569SOL     OW26605   4.328   1.454   4.499
 8569SOL    HW126606   4.403   1.513   4.472
 8569SOL    HW226607   4.261   1.449   4.425
 8570SOL     OW26608   0.418   4.051   0.342
 8570SOL    HW126609   0.475   4.038   0.424
 8570SOL    HW226610   0.377   4.142   0.345
 8571SOL     OW26611   7.018   4.128   4.774
 8571SOL    HW126612   0.075   4.186   4.765
 8571SOL    HW226613   0.006   4.066   4.852
 8572SOL     OW26614   2.376   4.866   5.442
 8572SOL    HW126615   2.357   4.948   5.497
 8572SOL    HW226616   2.344   4.785   5.491
 8573SOL     OW26617   3.616   5.621   5.563
 8573SOL    HW126618   3.636   5.717   5.581
 8573SOL    HW226619   3.675   5.587   5.490
 8574SOL     OW26620   0.724   3.377   5.736
 8574SOL    HW126621   0.738   3.278   5.734
 8574SOL    HW226622   0.796   3.420   5.790
 8575SOL     OW26623   3.140   2.306   0.722
 8575SOL    HW126624   3.214   2.311   0.789
 8575SOL    HW226625   3.065   2.251   0.759
 8576SOL     OW26626   1.661   0.115   1.450
 8576SOL    HW126627   1.714   0.039   1.411
 8576SOL    HW226628   1.719   0.195   1.459
 8577SOL     OW26629   6.105   6.250   3.337
 8577SOL    HW126630   6.186   6.280   3.287
 8577SOL    HW226631   6.128   6.168   3.390
 8578SOL     OW26632   4.391   6.814   3.587
 8578SOL    HW126633   4.387   6.906   3.547
 8578SOL    HW226634   4.313   6.761   3.555
 8579SOL     OW26635   1.426   5.240   3.550
 8579SOL    HW126636   1.513   5.236   3.601
 8579SOL    HW226637   1.352   5.206   3.607
 8580SOL     OW26638   2.077   5.637   0.824
 8580SOL    HW126639   2.152   5.697   0.851
 8580SOL    HW226640   1.993   5.666   0.871
 8581SOL     OW26641   3.310   1.971   1.223
 8581SOL    HW126642   3.345   2.056   1.261
 8581SOL    HW226643   3.236   1.991   1.158
 8582SOL     OW26644   4.081   4.502   1.518
 8582SOL    HW126645   4.163   4.555   1.496
 8582SOL    HW226646   4.106   4.425   1.576
 8583SOL     OW26647   6.012   0.037   6.110
 8583SOL    HW126648   5.951   0.108   6.074
 8583SOL    HW226649   6.071   0.077   6.180
 8584SOL     OW26650   6.800   5.618   0.168
 8584SOL    HW126651   6.739   5.673   0.226
 8584SOL    HW226652   6.751   5.592   0.084
 8585SOL     OW26653   0.260   0.791   7.014
 8585SOL    HW126654   0.195   0.769   0.063
 8585SOL    HW226655   0.272   0.891   7.010
 8586SOL     OW26656   3.874   5.350   2.895
 8586SOL    HW126657   3.870   5.295   2.978
 8586SOL    HW226658   3.801   5.323   2.833
 8587SOL     OW26659   0.201   2.103   2.181
 8587SOL    HW126660   0.203   2.169   2.256
 8587SOL    HW226661   0.276   2.038   2.191
 8588SOL     OW26662   4.891   2.641   0.127
 8588SOL    HW126663   4.944   2.662   0.209
 8588SOL    HW226664   4.858   2.547   0.132
 8589SOL     OW26665   3.576   2.044   4.340
 8589SOL    HW126666   3.657   2.075   4.389
 8589SOL    HW226667   3.532   1.971   4.392
 8590SOL     OW26668   5.925   5.050   5.228
 8590SOL    HW126669   5.847   5.053   5.291
 8590SOL    HW226670   5.895   5.073   5.136
 8591SOL     OW26671   1.002   3.416   6.890
 8591SOL    HW126672   1.095   3.412   6.852
 8591SOL    HW226673   0.939   3.448   6.819
 8592SOL     OW26674   6.148   4.463   0.394
 8592SOL    HW126675   6.100   4.389   0.441
 8592SOL    HW226676   6.192   4.428   0.312
 8593SOL     OW26677   1.329   0.845   2.533
 8593SOL    HW126678   1.395   0.884   2.468
 8593SOL    HW226679   1.236   0.861   2.500
 8594SOL     OW26680   3.020   3.863   4.343
 8594SOL    HW126681   3.033   3.904   4.434
 8594SOL    HW226682   3.040   3.931   4.273
 8595SOL     OW26683   1.607   2.172   2.540
 8595SOL    HW126684   1.612   2.205   2.635
 8595SOL    HW226685   1.606   2.250   2.478
 8596SOL     OW26686   6.182   5.581   1.907
 8596SOL    HW126687   6.123   5.597   1.828
 8596SOL    HW226688   6.155   5.642   1.982
 8597SOL     OW26689   2.691   1.385   0.508
 8597SOL    HW126690   2.620   1.432   0.559
 8597SOL    HW226691   2.649   1.337   0.430
 8598SOL     OW26692   5.916   5.329   0.939
 8598SOL    HW126693   5.971   5.412   0.933
 8598SOL    HW226694   5.962   5.263   0.998
 8599SOL     OW26695   1.667   3.192   3.036
 8599SOL    HW126696   1.608   3.128   3.087
 8599SOL    HW226697   1.615   3.229   2.958
 8600SOL     OW26698   6.635   4.865   6.654
 8600SOL    HW126699   6.550   4.895   6.612
 8600SOL    HW226700   6.636   4.765   6.658
 8601SOL     OW26701   0.422   6.896   4.328
 8601SOL    HW126702   0.354   6.868   4.397
 8601SOL    HW226703   0.388   6.976   4.279
 8602SOL     OW26704   2.589   5.630   2.194
 8602SOL    HW126705   2.602   5.591   2.285
 8602SOL    HW226706   2.573   5.556   2.129
 8603SOL     OW26707   4.012   2.856   0.193
 8603SOL    HW126708   3.943   2.901   0.251
 8603SOL    HW226709   4.094   2.839   0.248
 8604SOL     OW26710   5.315   2.982   3.524
 8604SOL    HW126711   5.395   2.974   3.465
 8604SOL    HW226712   5.318   2.911   3.595
 8605SOL     OW26713   2.265   6.460   2.871
 8605SOL    HW126714   2.248   6.537   2.809
 8605SOL    HW226715   2.178   6.414   2.890
 8606SOL     OW26716   4.096   4.652   5.737
 8606SOL    HW126717   4.030   4.627   5.808
 8606SOL    HW226718   4.104   4.577   5.671
 8607SOL     OW26719   4.181   5.611   1.662
 8607SOL    HW126720   4.213   5.691   1.713
 8607SOL    HW226721   4.232   5.530   1.691
 8608SOL     OW26722   4.482   5.524   2.109
 8608SOL    HW126723   4.483   5.623   2.094
 8608SOL    HW226724   4.572   5.494   2.138
 8609SOL     OW26725   3.559   0.577   5.362
 8609SOL    HW126726   3.494   0.639   5.406
 8609SOL    HW226727   3.603   0.624   5.286
 8610SOL     OW26728   0.929   6.245   4.069
 8610SOL    HW126729   0.911   6.200   3.982
 8610SOL    HW226730   0.851   6.231   4.130
 8611SOL     OW26731   1.912   2.059   4.321
 8611SOL    HW126732   1.941   2.133   4.381
 8611SOL    HW226733   1.881   1.981   4.376
 8612SOL     OW26734   4.154   2.692   5.807
 8612SOL    HW126735   4.247   2.727   5.820
 8612SOL    HW226736   4.095   2.765   5.774
 8613SOL     OW26737   1.975   1.681   0.885
 8613SOL    HW126738   1.900   1.736   0.924
 8613SOL    HW226739   1.946   1.643   0.797
 8614SOL     OW26740   0.978   2.044   3.541
 8614SOL    HW126741   1.068   2.083   3.558
 8614SOL    HW226742   0.914   2.118   3.518
 8615SOL     OW26743   4.272   2.110   5.342
 8615SOL    HW126744   4.262   2.099   5.243
 8615SOL    HW226745   4.301   2.204   5.362
 8616SOL     OW26746   1.257   4.570   0.456
 8616SOL    HW126747   1.231   4.474   0.464
 8616SOL    HW226748   1.190   4.627   0.504
 8617SOL     OW26749   5.953   2.712   0.743
 8617SOL    HW126750   5.927   2.803   0.709
 8617SOL    HW226751   6.053   2.707   0.751
 8618SOL     OW26752   4.707   0.099   3.252
 8618SOL    HW126753   4.690   0.073   3.347
 8618SOL    HW226754   4.620   0.117   3.206
 8619SOL     OW26755   4.346   4.630   0.099
 8619SOL    HW126756   4.250   4.619   0.125
 8619SOL    HW226757   4.375   4.549   0.047
 8620SOL     OW26758   6.223   6.738   2.688
 8620SOL    HW126759   6.287   6.782   2.626
 8620SOL    HW226760   6.179   6.806   2.746
 8621SOL     OW26761   5.777   0.928   3.638
 8621SOL    HW126762   5.814   0.839   3.666
 8621SOL    HW226763   5.680   0.932   3.659
 8622SOL     OW26764   4.799   5.059   0.665
 8622SOL    HW126765   4.866   5.107   0.608
 8622SOL    HW226766   4.845   4.986   0.716
 8623SOL     OW26767   0.197   3.985   3.133
 8623SOL    HW126768   0.122   3.945   3.081
 8623SOL    HW226769   0.274   3.921   3.135
 8624SOL     OW26770   0.266   4.429   3.339
 8624SOL    HW126771   0.334   4.456   3.407
 8624SOL    HW226772   0.249   4.331   3.346
 8625SOL     OW26773   3.713   0.711   4.802
 8625SOL    HW126774   3.692   0.695   4.899
 8625SOL    HW226775   3.715   0.623   4.754
 8626SOL     OW26776   3.213   3.916   3.753
 8626SOL    HW126777   3.133   3.909   3.813
 8626SOL    HW226778   3.215   3.837   3.691
 8627SOL     OW26779   1.327   0.896   0.244
 8627SOL    HW126780   1.270   0.814   0.241
 8627SOL    HW226781   1.289   0.961   0.310
 8628SOL     OW26782   5.467   0.601   7.003
 8628SOL    HW126783   5.421   0.606   6.915
 8628SOL    HW226784   5.549   0.658   7.002
 8629SOL     OW26785   1.376   3.978   4.041
 8629SOL    HW126786   1.413   4.069   4.024
 8629SOL    HW226787   1.356   3.968   4.139
 8630SOL     OW26788   5.687   4.681   3.956
 8630SOL    HW126789   5.621   4.607   3.966
 8630SOL    HW226790   5.779   4.648   3.978
 8631SOL     OW26791   3.830   5.770   4.537
 8631SOL    HW126792   3.795   5.804   4.450
 8631SOL    HW226793   3.899   5.833   4.573
 8632SOL     OW26794   3.899   0.320   3.112
 8632SOL    HW126795   3.810   0.366   3.118
 8632SOL    HW226796   3.921   0.303   3.016
 8633SOL     OW26797   5.922   1.404   3.950
 8633SOL    HW126798   5.990   1.421   3.878
 8633SOL    HW226799   5.843   1.465   3.937
 8634SOL     OW26800   6.872   4.902   1.869
 8634SOL    HW126801   6.954   4.891   1.926
 8634SOL    HW226802   6.888   4.976   1.803
 8635SOL     OW26803   6.418   3.540   5.365
 8635SOL    HW126804   6.416   3.492   5.453
 8635SOL    HW226805   6.337   3.598   5.357
 8636SOL     OW26806   6.650   5.478   0.493
 8636SOL    HW126807   6.657   5.461   0.591
 8636SOL    HW226808   6.689   5.568   0.473
 8637SOL     OW26809   1.924   0.716   0.668
 8637SOL    HW126810   1.934   0.813   0.691
 8637SOL    HW226811   2.014   0.678   0.648
 8638SOL     OW26812   3.185   4.926   0.097
 8638SOL    HW126813   3.098   4.973   0.084
 8638SOL    HW226814   3.260   4.987   0.072
 8639SOL     OW26815   6.439   3.893   1.670
 8639SOL    HW126816   6.484   3.982   1.681
 8639SOL    HW226817   6.409   3.883   1.575
 8640SOL     OW26818   4.711   5.192   1.019
 8640SOL    HW126819   4.806   5.186   0.987
 8640SOL    HW226820   4.650   5.199   0.941
 8641SOL     OW26821   6.387   4.311   2.980
 8641SOL    HW126822   6.364   4.345   3.071
 8641SOL    HW226823   6.485   4.288   2.977
 8642SOL     OW26824   4.214   1.128   1.879
 8642SOL    HW126825   4.132   1.107   1.931
 8642SOL    HW226826   4.237   1.051   1.819
 8643SOL     OW26827   4.852   0.160   6.122
 8643SOL    HW126828   4.936   0.153   6.068
 8643SOL    HW226829   4.808   0.248   6.105
 8644SOL     OW26830   5.928   2.864   4.632
 8644SOL    HW126831   5.892   2.855   4.725
 8644SOL    HW226832   5.994   2.792   4.615
 8645SOL     OW26833   6.110   4.819   1.275
 8645SOL    HW126834   6.024   4.865   1.253
 8645SOL    HW226835   6.152   4.784   1.191
 8646SOL     OW26836   5.519   0.609   0.387
 8646SOL    HW126837   5.594   0.569   0.335
 8646SOL    HW226838   5.489   0.693   0.342
 8647SOL     OW26839   4.364   4.934   0.413
 8647SOL    HW126840   4.272   4.901   0.436
 8647SOL    HW226841   4.428   4.907   0.485
 8648SOL     OW26842   5.496   1.202   3.783
 8648SOL    HW126843   5.473   1.219   3.687
 8648SOL    HW226844   5.415   1.217   3.839
 8649SOL     OW26845   6.215   3.789   5.629
 8649SOL    HW126846   6.306   3.750   5.643
 8649SOL    HW226847   6.159   3.772   5.710
 8650SOL     OW26848   2.121   5.064   3.424
 8650SOL    HW126849   2.136   5.158   3.394
 8650SOL    HW226850   2.209   5.018   3.438
 8651SOL     OW26851   3.813   1.397   6.919
 8651SOL    HW126852   3.769   1.359   6.838
 8651SOL    HW226853   3.763   1.479   6.949
 8652SOL     OW26854   2.151   3.761   3.475
 8652SOL    HW126855   2.152   3.673   3.427
 8652SOL    HW226856   2.102   3.829   3.420
 8653SOL     OW26857   0.102   2.597   0.095
 8653SOL    HW126858   0.023   2.647   0.131
 8653SOL    HW226859   0.130   2.637   0.008
 8654SOL     OW26860   0.845   0.142   3.051
 8654SOL    HW126861   0.895   0.146   3.137
 8654SOL    HW226862   0.872   0.218   2.992
 8655SOL     OW26863   6.146   6.304   4.683
 8655SOL    HW126864   6.076   6.288   4.753
 8655SOL    HW226865   6.102   6.317   4.594
 8656SOL     OW26866   6.504   1.142   1.083
 8656SOL    HW126867   6.412   1.103   1.092
 8656SOL    HW226868   6.525   1.156   0.986
 8657SOL     OW26869   4.418   4.021   6.893
 8657SOL    HW126870   4.374   4.077   6.963
 8657SOL    HW226871   4.397   4.057   6.803
 8658SOL     OW26872   5.430   5.282   6.918
 8658SOL    HW126873   5.486   5.348   6.968
 8658SOL    HW226874   5.334   5.303   6.931
 8659SOL     OW26875   5.493   0.593   4.101
 8659SOL    HW126876   5.478   0.562   4.195
 8659SOL    HW226877   5.430   0.668   4.080
 8660SOL     OW26878   5.550   3.466   0.886
 8660SOL    HW126879   5.461   3.441   0.923
 8660SOL    HW226880   5.583   3.394   0.825
 8661SOL     OW26881   0.063   3.970   1.556
 8661SOL    HW126882   0.095   4.053   1.603
 8661SOL    HW226883   0.122   3.893   1.580
 8662SOL     OW26884   6.844   6.588   0.962
 8662SOL    HW126885   6.921   6.635   0.918
 8662SOL    HW226886   6.770   6.653   0.978
 8663SOL     OW26887   2.547   5.651   0.673
 8663SOL    HW126888   2.507   5.673   0.762
 8663SOL    HW226889   2.645   5.630   0.684
 8664SOL     OW26890   4.284   6.044   0.369
 8664SOL    HW126891   4.343   6.000   0.301
 8664SOL    HW226892   4.306   6.141   0.373
 8665SOL     OW26893   4.512   5.512   5.740
 8665SOL    HW126894   4.415   5.535   5.754
 8665SOL    HW226895   4.518   5.425   5.690
 8666SOL     OW26896   5.094   2.662   4.908
 8666SOL    HW126897   5.098   2.665   5.008
 8666SOL    HW226898   5.187   2.657   4.872
 8667SOL     OW26899   5.106   1.329   3.759
 8667SOL    HW126900   5.138   1.315   3.853
 8667SOL    HW226901   5.157   1.405   3.718
 8668SOL     OW26902   4.825   2.119   4.394
 8668SOL    HW126903   4.911   2.082   4.358
 8668SOL    HW226904   4.762   2.137   4.319
 8669SOL     OW26905   3.925   0.165   5.903
 8669SOL    HW126906   3.933   0.249   5.957
 8669SOL    HW226907   3.981   0.173   5.820
 8670SOL     OW26908   3.379   5.562   4.099
 8670SOL    HW126909   3.477   5.543   4.105
 8670SOL    HW226910   3.337   5.547   4.188
 8671SOL     OW26911   6.241   6.762   3.703
 8671SOL    HW126912   6.175   6.748   3.776
 8671SOL    HW226913   6.318   6.700   3.714
 8672SOL     OW26914   3.262   5.153   4.447
 8672SOL    HW126915   3.350   5.105   4.449
 8672SOL    HW226916   3.221   5.153   4.538
 8673SOL     OW26917   6.391   2.231   0.861
 8673SOL    HW126918   6.476   2.273   0.893
 8673SOL    HW226919   6.375   2.146   0.911
 8674SOL     OW26920   6.876   0.243   3.021
 8674SOL    HW126921   6.852   0.154   3.061
 8674SOL    HW226922   6.815   0.313   3.056
 8675SOL     OW26923   2.181   0.991   3.218
 8675SOL    HW126924   2.136   1.049   3.150
 8675SOL    HW226925   2.280   1.000   3.208
 8676SOL     OW26926   4.201   0.061   2.963
 8676SOL    HW126927   4.198   6.993   3.002
 8676SOL    HW226928   4.294   0.080   2.930
 8677SOL     OW26929   2.701   4.396   6.121
 8677SOL    HW126930   2.626   4.341   6.085
 8677SOL    HW226931   2.742   4.450   6.047
 8678SOL     OW26932   1.181   0.350   6.668
 8678SOL    HW126933   1.112   0.423   6.667
 8678SOL    HW226934   1.254   0.371   6.603
 8679SOL     OW26935   6.219   2.132   5.470
 8679SOL    HW126936   6.197   2.208   5.408
 8679SOL    HW226937   6.135   2.080   5.488
 8680SOL     OW26938   1.397   3.646   0.225
 8680SOL    HW126939   1.394   3.565   0.284
 8680SOL    HW226940   1.355   3.626   0.137
 8681SOL     OW26941   4.143   4.146   0.354
 8681SOL    HW126942   4.075   4.137   0.427
 8681SOL    HW226943   4.221   4.088   0.374
 8682SOL     OW26944   2.622   6.263   2.574
 8682SOL    HW126945   2.624   6.264   2.474
 8682SOL    HW226946   2.700   6.210   2.608
 8683SOL     OW26947   0.350   3.051   1.658
 8683SOL    HW126948   0.288   3.099   1.596
 8683SOL    HW226949   0.379   2.965   1.615
 8684SOL     OW26950   6.084   3.406   4.650
 8684SOL    HW126951   6.047   3.345   4.720
 8684SOL    HW226952   6.024   3.485   4.641
 8685SOL     OW26953   0.550   2.133   6.498
 8685SOL    HW126954   0.506   2.151   6.586
 8685SOL    HW226955   0.482   2.102   6.432
 8686SOL     OW26956   0.128   2.109   2.582
 8686SOL    HW126957   0.088   2.104   2.674
 8686SOL    HW226958   0.174   2.023   2.561
 8687SOL     OW26959   3.624   6.833   2.249
 8687SOL    HW126960   3.546   6.894   2.236
 8687SOL    HW226961   3.646   6.826   2.346
 8688SOL     OW26962   2.397   0.371   1.558
 8688SOL    HW126963   2.441   0.287   1.590
 8688SOL    HW226964   2.358   0.420   1.636
 8689SOL     OW26965   4.753   6.031   0.238
 8689SOL    HW126966   4.655   6.044   0.247
 8689SOL    HW226967   4.801   6.090   0.304
 8690SOL     OW26968   0.704   1.805   3.316
 8690SOL    HW126969   0.710   1.709   3.342
 8690SOL    HW226970   0.607   1.831   3.309
 8691SOL     OW26971   4.767   2.529   6.345
 8691SOL    HW126972   4.711   2.450   6.370
 8691SOL    HW226973   4.810   2.567   6.428
 8692SOL     OW26974   2.435   2.328   3.840
 8692SOL    HW126975   2.378   2.254   3.805
 8692SOL    HW226976   2.507   2.289   3.899
 8693SOL     OW26977   5.727   2.019   0.909
 8693SOL    HW126978   5.674   2.020   0.824
 8693SOL    HW226979   5.745   2.113   0.938
 8694SOL     OW26980   4.626   0.045   6.320
 8694SOL    HW126981   4.610   0.048   6.221
 8694SOL    HW226982   4.576   6.992   6.359
 8695SOL     OW26983   5.182   3.625   5.648
 8695SOL    HW126984   5.191   3.535   5.606
 8695SOL    HW226985   5.237   3.691   5.598
 8696SOL     OW26986   2.505   6.230   1.107
 8696SOL    HW126987   2.548   6.205   1.020
 8696SOL    HW226988   2.555   6.189   1.183
 8697SOL     OW26989   6.529   3.611   0.725
 8697SOL    HW126990   6.491   3.679   0.787
 8697SOL    HW226991   6.477   3.526   0.732
 8698SOL     OW26992   5.124   6.073   4.539
 8698SOL    HW126993   5.126   6.173   4.543
 8698SOL    HW226994   5.032   6.041   4.560
 8699SOL     OW26995   1.353   1.718   5.571
 8699SOL    HW126996   1.275   1.690   5.515
 8699SOL    HW226997   1.343   1.681   5.663
 8700SOL     OW26998   2.741   1.161   5.006
 8700SOL    HW126999   2.825   1.107   5.001
 8700SOL    HW227000   2.667   1.112   4.959
 8701SOL     OW27001   0.888   1.114   4.935
 8701SOL    HW127002   0.819   1.097   5.006
 8701SOL    HW227003   0.934   1.028   4.913
 8702SOL     OW27004   5.357   5.155   0.338
 8702SOL    HW127005   5.390   5.084   0.276
 8702SOL    HW227006   5.320   5.231   0.285
 8703SOL     OW27007   2.809   5.861   1.072
 8703SOL    HW127008   2.737   5.800   1.104
 8703SOL    HW227009   2.783   5.956   1.088
 8704SOL     OW27010   0.054   4.879   2.022
 8704SOL    HW127011   0.114   4.800   2.005
 8704SOL    HW227012   0.105   4.949   2.072
 8705SOL     OW27013   5.087   6.893   6.553
 8705SOL    HW127014   5.056   6.949   6.630
 8705SOL    HW227015   5.016   6.891   6.482
 8706SOL     OW27016   5.003   2.090   7.021
 8706SOL    HW127017   5.006   1.993   6.998
 8706SOL    HW227018   5.097   2.125   0.004
 8707SOL     OW27019   4.690   3.252   6.409
 8707SOL    HW127020   4.785   3.245   6.439
 8707SOL    HW227021   4.673   3.185   6.337
 8708SOL     OW27022   4.007   1.236   1.553
 8708SOL    HW127023   4.032   1.139   1.544
 8708SOL    HW227024   3.913   1.243   1.586
 8709SOL     OW27025   0.141   4.216   0.762
 8709SOL    HW127026   0.123   4.284   0.691
 8709SOL    HW227027   0.121   4.255   0.851
 8710SOL     OW27028   2.063   3.667   2.875
 8710SOL    HW127029   2.120   3.645   2.795
 8710SOL    HW227030   2.040   3.583   2.923
 8711SOL     OW27031   6.256   0.720   3.117
 8711SOL    HW127032   6.271   0.683   3.025
 8711SOL    HW227033   6.181   0.787   3.114
 8712SOL     OW27034   3.200   1.233   5.006
 8712SOL    HW127035   3.256   1.311   5.033
 8712SOL    HW227036   3.221   1.206   4.912
 8713SOL     OW27037   6.504   4.609   3.720
 8713SOL    HW127038   6.564   4.653   3.786
 8713SOL    HW227039   6.558   4.554   3.657
 8714SOL     OW27040   1.403   0.848   5.743
 8714SOL    HW127041   1.305   0.869   5.734
 8714SOL    HW227042   1.454   0.932   5.761
 8715SOL     OW27043   6.513   1.983   1.747
 8715SOL    HW127044   6.446   1.916   1.780
 8715SOL    HW227045   6.471   2.042   1.679
 8716SOL     OW27046   1.042   1.682   1.497
 8716SOL    HW127047   0.957   1.678   1.549
 8716SOL    HW227048   1.105   1.611   1.529
 8717SOL     OW27049   4.214   3.614   1.867
 8717SOL    HW127050   4.232   3.711   1.849
 8717SOL    HW227051   4.172   3.604   1.957
 8718SOL     OW27052   6.984   2.767   4.760
 8718SOL    HW127053   6.911   2.788   4.695
 8718SOL    HW227054   0.045   2.813   4.731
 8719SOL     OW27055   1.049   0.610   5.456
 8719SOL    HW127056   1.084   0.527   5.500
 8719SOL    HW227057   1.014   0.588   5.365
 8720SOL     OW27058   5.847   4.530   5.356
 8720SOL    HW127059   5.902   4.490   5.282
 8720SOL    HW227060   5.898   4.603   5.400
 8721SOL     OW27061   6.992   2.285   4.539
 8721SOL    HW127062   6.932   2.209   4.563
 8721SOL    HW227063   0.003   2.328   4.622
 8722SOL     OW27064   3.856   2.340   0.848
 8722SOL    HW127065   3.871   2.288   0.764
 8722SOL    HW227066   3.941   2.343   0.901
 8723SOL     OW27067   0.017   5.393   0.750
 8723SOL    HW127068   0.115   5.412   0.740
 8723SOL    HW227069   7.001   5.373   0.661
 8724SOL     OW27070   5.414   0.605   5.730
 8724SOL    HW127071   5.464   0.543   5.791
 8724SOL    HW227072   5.359   0.668   5.784
 8725SOL     OW27073   2.004   0.050   0.313
 8725SOL    HW127074   2.027   6.977   0.314
 8725SOL    HW227075   1.910   0.062   0.282
 8726SOL     OW27076   6.057   0.336   1.576
 8726SOL    HW127077   6.072   0.238   1.565
 8726SOL    HW227078   6.023   0.355   1.668
 8727SOL     OW27079   6.715   6.550   1.551
 8727SOL    HW127080   6.780   6.478   1.576
 8727SOL    HW227081   6.683   6.596   1.633
 8728SOL     OW27082   2.961   6.521   4.832
 8728SOL    HW127083   3.037   6.579   4.863
 8728SOL    HW227084   2.929   6.553   4.743
 8729SOL     OW27085   3.886   5.509   3.599
 8729SOL    HW127086   3.923   5.417   3.613
 8729SOL    HW227087   3.961   5.576   3.598
 8730SOL     OW27088   0.571   6.153   2.077
 8730SOL    HW127089   0.559   6.233   2.136
 8730SOL    HW227090   0.484   6.133   2.030
 8731SOL     OW27091   1.259   1.940   3.208
 8731SOL    HW127092   1.228   1.877   3.279
 8731SOL    HW227093   1.208   2.025   3.214
 8732SOL     OW27094   5.460   3.650   1.393
 8732SOL    HW127095   5.386   3.586   1.373
 8732SOL    HW227096   5.510   3.670   1.309
 8733SOL     OW27097   1.501   6.551   1.949
 8733SOL    HW127098   1.541   6.633   1.989
 8733SOL    HW227099   1.494   6.480   2.018
 8734SOL     OW27100   0.095   5.951   0.897
 8734SOL    HW127101   0.188   5.944   0.933
 8734SOL    HW227102   0.065   5.861   0.864
 8735SOL     OW27103   6.933   1.394   6.666
 8735SOL    HW127104   6.872   1.472   6.654
 8735SOL    HW227105   6.995   1.411   6.742
 8736SOL     OW27106   0.606   4.619   0.113
 8736SOL    HW127107   0.584   4.567   0.196
 8736SOL    HW227108   0.539   4.598   0.042
 8737SOL     OW27109   3.547   6.290   6.257
 8737SOL    HW127110   3.635   6.338   6.253
 8737SOL    HW227111   3.554   6.204   6.207
 8738SOL     OW27112   1.522   3.810   3.844
 8738SOL    HW127113   1.477   3.728   3.808
 8738SOL    HW227114   1.480   3.834   3.931
 8739SOL     OW27115   0.067   3.411   5.520
 8739SOL    HW127116   6.992   3.399   5.518
 8739SOL    HW227117   0.094   3.454   5.606
 8740SOL     OW27118   2.803   0.085   6.892
 8740SOL    HW127119   2.779   7.013   6.909
 8740SOL    HW227120   2.902   0.097   6.900
 8741SOL     OW27121   1.367   3.189   2.575
 8741SOL    HW127122   1.371   3.091   2.555
 8741SOL    HW227123   1.299   3.232   2.517
 8742SOL     OW27124   4.488   6.967   1.544
 8742SOL    HW127125   4.420   6.992   1.612
 8742SOL    HW227126   4.560   6.911   1.587
 8743SOL     OW27127   2.193   5.603   2.232
 8743SOL    HW127128   2.208   5.651   2.145
 8743SOL    HW227129   2.243   5.650   2.305
 8744SOL     OW27130   4.197   2.536   6.652
 8744SOL    HW127131   4.256   2.514   6.574
 8744SOL    HW227132   4.254   2.552   6.733
 8745SOL     OW27133   6.327   2.420   5.554
 8745SOL    HW127134   6.242   2.407   5.502
 8745SOL    HW227135   6.381   2.492   5.512
 8746SOL     OW27136   5.062   5.162   5.074
 8746SOL    HW127137   4.989   5.229   5.089
 8746SOL    HW227138   5.079   5.113   5.160
 8747SOL     OW27139   1.682   2.618   4.102
 8747SOL    HW127140   1.593   2.649   4.069
 8747SOL    HW227141   1.685   2.518   4.100
 8748SOL     OW27142   1.223   0.774   6.795
 8748SOL    HW127143   1.268   0.744   6.879
 8748SOL    HW227144   1.292   0.801   6.728
 8749SOL     OW27145   4.008   0.396   3.363
 8749SOL    HW127146   3.985   0.370   3.269
 8749SOL    HW227147   3.960   0.334   3.427
 8750SOL     OW27148   2.012   1.687   5.115
 8750SOL    HW127149   1.953   1.703   5.194
 8750SOL    HW227150   2.025   1.589   5.102
 8751SOL     OW27151   1.364   0.320   2.433
 8751SOL    HW127152   1.350   0.418   2.445
 8751SOL    HW227153   1.405   0.282   2.516
 8752SOL     OW27154   1.780   3.445   6.235
 8752SOL    HW127155   1.872   3.417   6.206
 8752SOL    HW227156   1.725   3.364   6.253
 8753SOL     OW27157   5.449   1.435   4.846
 8753SOL    HW127158   5.409   1.478   4.765
 8753SOL    HW227159   5.546   1.415   4.830
 8754SOL     OW27160   1.622   1.969   6.033
 8754SOL    HW127161   1.546   1.904   6.037
 8754SOL    HW227162   1.677   1.951   5.951
 8755SOL     OW27163   2.511   1.034   0.129
 8755SOL    HW127164   2.581   0.966   0.109
 8755SOL    HW227165   2.477   1.073   0.043
 8756SOL     OW27166   2.217   2.969   4.142
 8756SOL    HW127167   2.262   3.006   4.061
 8756SOL    HW227168   2.122   2.948   4.121
 8757SOL     OW27169   4.340   6.256   4.924
 8757SOL    HW127170   4.357   6.158   4.914
 8757SOL    HW227171   4.247   6.277   4.893
 8758SOL     OW27172   6.581   6.632   1.884
 8758SOL    HW127173   6.547   6.685   1.806
 8758SOL    HW227174   6.660   6.578   1.855
 8759SOL     OW27175   4.847   0.453   5.825
 8759SOL    HW127176   4.846   0.377   5.890
 8759SOL    HW227177   4.765   0.449   5.768
 8760SOL     OW27178   2.033   1.589   4.038
 8760SOL    HW127179   2.027   1.649   3.958
 8760SOL    HW227180   1.970   1.512   4.027
 8761SOL     OW27181   4.675   6.949   6.668
 8761SOL    HW127182   4.633   0.016   6.663
 8761SOL    HW227183   4.774   6.958   6.674
 8762SOL     OW27184   1.143   3.995   1.295
 8762SOL    HW127185   1.064   3.950   1.335
 8762SOL    HW227186   1.140   3.986   1.195
 8763SOL     OW27187   0.357   6.208   5.765
 8763SOL    HW127188   0.335   6.113   5.742
 8763SOL    HW227189   0.358   6.219   5.864
 8764SOL     OW27190   4.427   1.705   4.392
 8764SOL    HW127191   4.503   1.640   4.394
 8764SOL    HW227192   4.411   1.734   4.297
 8765SOL     OW27193   6.181   6.798   4.257
 8765SOL    HW127194   6.094   6.759   4.227
 8765SOL    HW227195   6.165   6.885   4.303
 8766SOL     OW27196   2.255   4.913   2.776
 8766SOL    HW127197   2.211   4.826   2.798
 8766SOL    HW227198   2.222   4.946   2.687
 8767SOL     OW27199   4.558   0.855   3.322
 8767SOL    HW127200   4.512   0.828   3.407
 8767SOL    HW227201   4.505   0.926   3.276
 8768SOL     OW27202   1.842   3.211   6.975
 8768SOL    HW127203   1.909   3.277   6.941
 8768SOL    HW227204   1.820   3.146   6.903
 8769SOL     OW27205   1.681   6.990   6.011
 8769SOL    HW127206   1.724   0.042   5.962
 8769SOL    HW227207   1.641   6.926   5.945
 8770SOL     OW27208   5.295   2.946   1.467
 8770SOL    HW127209   5.276   2.864   1.520
 8770SOL    HW227210   5.305   3.024   1.529
 8771SOL     OW27211   1.305   1.543   6.602
 8771SOL    HW127212   1.338   1.546   6.508
 8771SOL    HW227213   1.250   1.460   6.615
 8772SOL     OW27214   5.619   1.468   6.341
 8772SOL    HW127215   5.631   1.415   6.257
 8772SOL    HW227216   5.659   1.419   6.418
 8773SOL     OW27217   2.743   2.306   3.305
 8773SOL    HW127218   2.799   2.359   3.369
 8773SOL    HW227219   2.779   2.213   3.299
 8774SOL     OW27220   0.897   1.539   1.038
 8774SOL    HW127221   0.988   1.529   0.997
 8774SOL    HW227222   0.903   1.600   1.117
 8775SOL     OW27223   6.279   0.182   3.561
 8775SOL    HW127224   6.224   0.121   3.618
 8775SOL    HW227225   6.376   0.165   3.577
 8776SOL     OW27226   3.594   3.164   5.005
 8776SOL    HW127227   3.588   3.248   4.951
 8776SOL    HW227228   3.505   3.118   5.004
 8777SOL     OW27229   6.427   6.433   2.007
 8777SOL    HW127230   6.498   6.498   1.982
 8777SOL    HW227231   6.337   6.474   1.995
 8778SOL     OW27232   0.117   1.899   3.655
 8778SOL    HW127233   0.080   1.958   3.727
 8778SOL    HW227234   0.212   1.926   3.636
 8779SOL     OW27235   1.468   4.723   1.034
 8779SOL    HW127236   1.432   4.691   1.121
 8779SOL    HW227237   1.400   4.783   0.990
 8780SOL     OW27238   0.949   5.555   4.446
 8780SOL    HW127239   0.969   5.522   4.538
 8780SOL    HW227240   0.963   5.654   4.443
 8781SOL     OW27241   0.769   2.226   3.552
 8781SOL    HW127242   0.768   2.321   3.519
 8781SOL    HW227243   0.714   2.220   3.635
 8782SOL     OW27244   4.107   1.351   3.099
 8782SOL    HW127245   4.072   1.279   3.039
 8782SOL    HW227246   4.140   1.310   3.184
 8783SOL     OW27247   6.169   4.217   4.556
 8783SOL    HW127248   6.075   4.229   4.589
 8783SOL    HW227249   6.169   4.208   4.457
 8784SOL     OW27250   5.498   4.960   5.766
 8784SOL    HW127251   5.470   4.988   5.675
 8784SOL    HW227252   5.466   4.867   5.784
 8785SOL     OW27253   5.924   4.259   6.941
 8785SOL    HW127254   5.942   4.337   6.881
 8785SOL    HW227255   5.856   4.285   7.009
 8786SOL     OW27256   1.726   6.933   0.314
 8786SOL    HW127257   1.667   7.006   0.281
 8786SOL    HW227258   1.709   6.917   0.411
 8787SOL     OW27259   1.326   3.872   1.570
 8787SOL    HW127260   1.298   3.905   1.660
 8787SOL    HW227261   1.417   3.907   1.549
 8788SOL     OW27262   0.729   1.876   5.325
 8788SOL    HW127263   0.749   1.974   5.320
 8788SOL    HW227264   0.790   1.833   5.392
 8789SOL     OW27265   6.499   0.469   6.287
 8789SOL    HW127266   6.497   0.557   6.333
 8789SOL    HW227267   6.488   0.482   6.189
 8790SOL     OW27268   6.118   1.853   6.741
 8790SOL    HW127269   6.018   1.856   6.752
 8790SOL    HW227270   6.155   1.780   6.798
 8791SOL     OW27271   4.500   6.544   5.895
 8791SOL    HW127272   4.510   6.467   5.833
 8791SOL    HW227273   4.416   6.534   5.949
 8792SOL     OW27274   4.755   7.016   2.949
 8792SOL    HW127275   4.789   6.991   3.040
 8792SOL    HW227276   4.692   6.946   2.917
 8793SOL     OW27277   1.624   6.007   3.844
 8793SOL    HW127278   1.585   5.962   3.764
 8793SOL    HW227279   1.721   6.025   3.827
 8794SOL     OW27280   2.016   0.187   2.493
 8794SOL    HW127281   1.965   0.232   2.421
 8794SOL    HW227282   2.029   0.090   2.470
 8795SOL     OW27283   1.683   6.511   5.458
 8795SOL    HW127284   1.687   6.599   5.411
 8795SOL    HW227285   1.767   6.460   5.441
 8796SOL     OW27286   4.571   2.320   5.617
 8796SOL    HW127287   4.520   2.402   5.645
 8796SOL    HW227288   4.611   2.335   5.527
 8797SOL     OW27289   6.963   6.721   6.797
 8797SOL    HW127290   0.019   6.778   6.810
 8797SOL    HW227291   6.975   6.665   6.715
 8798SOL     OW27292   5.269   3.699   5.288
 8798SOL    HW127293   5.308   3.790   5.294
 8798SOL    HW227294   5.218   3.690   5.202
 8799SOL     OW27295   3.135   5.168   3.117
 8799SOL    HW127296   3.228   5.198   3.137
 8799SOL    HW227297   3.138   5.076   3.078
 8800SOL     OW27298   4.400   4.775   6.741
 8800SOL    HW127299   4.319   4.754   6.686
 8800SOL    HW227300   4.482   4.751   6.689
 8801SOL     OW27301   2.503   1.423   4.743
 8801SOL    HW127302   2.563   1.401   4.820
 8801SOL    HW227303   2.486   1.522   4.741
 8802SOL     OW27304   2.787   6.306   2.046
 8802SOL    HW127305   2.749   6.394   2.019
 8802SOL    HW227306   2.782   6.243   1.969
 8803SOL     OW27307   3.185   5.215   6.909
 8803SOL    HW127308   3.093   5.244   6.883
 8803SOL    HW227309   3.210   5.133   6.858
 8804SOL     OW27310   4.941   0.854   1.112
 8804SOL    HW127311   4.999   0.896   1.182
 8804SOL    HW227312   4.909   0.765   1.145
 8805SOL     OW27313   0.569   0.146   3.034
 8805SOL    HW127314   0.528   0.059   3.009
 8805SOL    HW227315   0.667   0.143   3.018
 8806SOL     OW27316   1.561   5.150   6.902
 8806SOL    HW127317   1.606   5.061   6.894
 8806SOL    HW227318   1.572   5.201   6.817
 8807SOL     OW27319   0.371   5.994   6.431
 8807SOL    HW127320   0.291   6.014   6.374
 8807SOL    HW227321   0.423   5.919   6.391
 8808SOL     OW27322   4.974   1.234   0.283
 8808SOL    HW127323   4.978   1.334   0.284
 8808SOL    HW227324   5.063   1.197   0.308
 8809SOL     OW27325   5.553   3.808   1.182
 8809SOL    HW127326   5.622   3.762   1.126
 8809SOL    HW227327   5.475   3.833   1.125
 8810SOL     OW27328   4.162   1.340   3.884
 8810SOL    HW127329   4.193   1.300   3.797
 8810SOL    HW227330   4.241   1.376   3.933
 8811SOL     OW27331   1.297   1.856   2.482
 8811SOL    HW127332   1.393   1.851   2.511
 8811SOL    HW227333   1.282   1.795   2.404
 8812SOL     OW27334   1.476   0.955   0.541
 8812SOL    HW127335   1.377   0.964   0.549
 8812SOL    HW227336   1.521   1.037   0.576
 8813SOL     OW27337   1.935   6.503   2.003
 8813SOL    HW127338   1.901   6.559   2.079
 8813SOL    HW227339   1.981   6.422   2.038
 8814SOL     OW27340   5.849   0.756   6.279
 8814SOL    HW127341   5.929   0.764   6.339
 8814SOL    HW227342   5.794   0.840   6.285
 8815SOL     OW27343   0.119   5.886   2.448
 8815SOL    HW127344   0.212   5.919   2.463
 8815SOL    HW227345   0.092   5.904   2.354
 8816SOL     OW27346   1.412   5.904   0.969
 8816SOL    HW127347   1.468   5.928   1.048
 8816SOL    HW227348   1.386   5.986   0.920
 8817SOL     OW27349   1.594   5.269   5.144
 8817SOL    HW127350   1.646   5.304   5.222
 8817SOL    HW227351   1.500   5.249   5.172
 8818SOL     OW27352   0.318   5.005   4.296
 8818SOL    HW127353   0.365   4.995   4.208
 8818SOL    HW227354   0.379   4.977   4.370
 8819SOL     OW27355   4.551   6.561   4.416
 8819SOL    HW127356   4.612   6.613   4.355
 8819SOL    HW227357   4.553   6.465   4.390
 8820SOL     OW27358   1.639   2.304   4.204
 8820SOL    HW127359   1.576   2.229   4.182
 8820SOL    HW227360   1.733   2.277   4.180
 8821SOL     OW27361   2.687   0.643   6.524
 8821SOL    HW127362   2.605   0.610   6.477
 8821SOL    HW227363   2.669   0.649   6.623
 8822SOL     OW27364   0.680   1.900   3.892
 8822SOL    HW127365   0.649   1.946   3.975
 8822SOL    HW227366   0.748   1.956   3.846
 8823SOL     OW27367   1.775   6.559   0.863
 8823SOL    HW127368   1.680   6.537   0.839
 8823SOL    HW227369   1.785   6.556   0.963
 8824SOL     OW27370   3.526   3.769   0.805
 8824SOL    HW127371   3.617   3.797   0.776
 8824SOL    HW227372   3.509   3.675   0.778
 8825SOL     OW27373   0.905   1.486   2.267
 8825SOL    HW127374   0.871   1.392   2.269
 8825SOL    HW227375   0.935   1.509   2.175
 8826SOL     OW27376   5.158   1.427   6.682
 8826SOL    HW127377   5.153   1.380   6.770
 8826SOL    HW227378   5.219   1.377   6.620
 8827SOL     OW27379   1.355   1.417   3.386
 8827SOL    HW127380   1.339   1.450   3.479
 8827SOL    HW227381   1.338   1.491   3.321
 8828SOL     OW27382   3.223   6.959   2.578
 8828SOL    HW127383   3.281   0.017   2.574
 8828SOL    HW227384   3.131   6.985   2.607
 8829SOL     OW27385   0.295   2.098   0.096
 8829SOL    HW127386   0.248   2.178   0.058
 8829SOL    HW227387   0.312   2.112   0.194
 8830SOL     OW27388   0.809   1.841   0.780
 8830SOL    HW127389   0.792   1.757   0.831
 8830SOL    HW227390   0.795   1.920   0.839
 8831SOL     OW27391   6.601   0.957   2.909
 8831SOL    HW127392   6.623   0.923   3.000
 8831SOL    HW227393   6.676   0.933   2.846
 8832SOL     OW27394   6.067   0.663   2.400
 8832SOL    HW127395   6.136   0.735   2.397
 8832SOL    HW227396   6.010   0.667   2.318
 8833SOL     OW27397   2.142   4.859   4.022
 8833SOL    HW127398   2.071   4.863   3.951
 8833SOL    HW227399   2.232   4.855   3.980
 8834SOL     OW27400   6.018   3.251   4.933
 8834SOL    HW127401   5.946   3.268   5.000
 8834SOL    HW227402   6.098   3.307   4.954
 8835SOL     OW27403   6.631   6.819   5.625
 8835SOL    HW127404   6.707   6.883   5.612
 8835SOL    HW227405   6.649   6.761   5.704
 8836SOL     OW27406   4.282   1.154   6.875
 8836SOL    HW127407   4.325   1.080   6.928
 8836SOL    HW227408   4.318   1.153   6.782
 8837SOL     OW27409   0.479   1.140   1.914
 8837SOL    HW127410   0.565   1.106   1.954
 8837SOL    HW227411   0.409   1.144   1.986
 8838SOL     OW27412   2.317   5.153   3.113
 8838SOL    HW127413   2.287   5.067   3.153
 8838SOL    HW227414   2.254   5.226   3.140
 8839SOL     OW27415   6.357   6.306   3.466
 8839SOL    HW127416   6.294   6.345   3.533
 8839SOL    HW227417   6.427   6.374   3.442
 8840SOL     OW27418   5.872   2.230   1.739
 8840SOL    HW127419   5.849   2.283   1.821
 8840SOL    HW227420   5.925   2.149   1.764
 8841SOL     OW27421   1.287   1.340   5.525
 8841SOL    HW127422   1.349   1.306   5.454
 8841SOL    HW227423   1.202   1.372   5.483
 8842SOL     OW27424   2.173   3.013   1.796
 8842SOL    HW127425   2.187   2.992   1.893
 8842SOL    HW227426   2.095   3.075   1.786
 8843SOL     OW27427   1.056   2.772   5.355
 8843SOL    HW127428   1.009   2.783   5.443
 8843SOL    HW227429   1.090   2.860   5.324
 8844SOL     OW27430   6.730   0.879   6.060
 8844SOL    HW127431   6.657   0.904   6.123
 8844SOL    HW227432   6.761   0.960   6.010
 8845SOL     OW27433   5.690   4.404   0.127
 8845SOL    HW127434   5.590   4.404   0.136
 8845SOL    HW227435   5.731   4.432   0.214
 8846SOL     OW27436   1.810   4.724   4.182
 8846SOL    HW127437   1.716   4.691   4.196
 8846SOL    HW227438   1.873   4.647   4.180
 8847SOL     OW27439   3.177   0.072   2.073
 8847SOL    HW127440   3.252   0.047   2.012
 8847SOL    HW227441   3.099   0.012   2.055
 8848SOL     OW27442   1.409   0.742   2.767
 8848SOL    HW127443   1.363   0.774   2.685
 8848SOL    HW227444   1.491   0.799   2.783
 8849SOL     OW27445   2.826   6.798   1.239
 8849SOL    HW127446   2.727   6.786   1.243
 8849SOL    HW227447   2.864   6.734   1.172
 8850SOL     OW27448   3.507   2.269   6.486
 8850SOL    HW127449   3.451   2.348   6.512
 8850SOL    HW227450   3.586   2.264   6.547
 8851SOL     OW27451   1.475   4.259   2.920
 8851SOL    HW127452   1.547   4.239   2.986
 8851SOL    HW227453   1.391   4.211   2.946
 8852SOL     OW27454   1.184   1.663   6.295
 8852SOL    HW127455   1.260   1.729   6.291
 8852SOL    HW227456   1.204   1.585   6.236
 8853SOL     OW27457   3.927   0.808   0.419
 8853SOL    HW127458   3.932   0.865   0.501
 8853SOL    HW227459   4.008   0.823   0.363
 8854SOL     OW27460   1.096   3.610   4.808
 8854SOL    HW127461   1.105   3.575   4.715
 8854SOL    HW227462   1.114   3.708   4.808
 8855SOL     OW27463   6.046   5.566   0.886
 8855SOL    HW127464   5.965   5.623   0.872
 8855SOL    HW227465   6.118   5.593   0.822
 8856SOL     OW27466   0.155   5.350   6.491
 8856SOL    HW127467   0.138   5.448   6.480
 8856SOL    HW227468   0.215   5.336   6.570
 8857SOL     OW27469   6.305   1.427   5.819
 8857SOL    HW127470   6.341   1.370   5.745
 8857SOL    HW227471   6.209   1.403   5.835
 8858SOL     OW27472   6.285   5.223   4.608
 8858SOL    HW127473   6.320   5.178   4.526
 8858SOL    HW227474   6.289   5.322   4.597
 8859SOL     OW27475   0.689   0.496   3.577
 8859SOL    HW127476   0.624   0.423   3.554
 8859SOL    HW227477   0.756   0.461   3.643
 8860SOL     OW27478   6.630   2.888   2.382
 8860SOL    HW127479   6.662   2.975   2.418
 8860SOL    HW227480   6.634   2.890   2.282
 8861SOL     OW27481   4.868   2.078   1.749
 8861SOL    HW127482   4.825   1.988   1.758
 8861SOL    HW227483   4.864   2.126   1.837
 8862SOL     OW27484   4.556   5.231   5.342
 8862SOL    HW127485   4.609   5.155   5.305
 8862SOL    HW227486   4.603   5.317   5.321
 8863SOL     OW27487   2.255   4.053   3.403
 8863SOL    HW127488   2.302   3.978   3.450
 8863SOL    HW227489   2.157   4.036   3.403
 8864SOL     OW27490   5.961   1.912   5.132
 8864SOL    HW127491   5.932   1.839   5.193
 8864SOL    HW227492   5.980   1.875   5.041
 8865SOL     OW27493   2.183   1.104   6.292
 8865SOL    HW127494   2.153   1.036   6.359
 8865SOL    HW227495   2.282   1.115   6.299
 8866SOL     OW27496   5.967   6.067   2.299
 8866SOL    HW127497   5.975   6.165   2.317
 8866SOL    HW227498   5.972   6.017   2.386
 8867SOL     OW27499   6.304   4.081   2.684
 8867SOL    HW127500   6.262   4.105   2.771
 8867SOL    HW227501   6.297   4.158   2.621
 8868SOL     OW27502   0.014   3.678   3.462
 8868SOL    HW127503   0.015   3.773   3.430
 8868SOL    HW227504   0.063   3.672   3.549
 8869SOL     OW27505   3.147   6.626   3.220
 8869SOL    HW127506   3.062   6.587   3.254
 8869SOL    HW227507   3.207   6.647   3.296
 8870SOL     OW27508   1.567   0.640   3.073
 8870SOL    HW127509   1.554   0.731   3.033
 8870SOL    HW227510   1.521   0.572   3.015
 8871SOL     OW27511   0.438   0.444   2.444
 8871SOL    HW127512   0.413   0.484   2.532
 8871SOL    HW227513   0.439   0.516   2.374
 8872SOL     OW27514   0.289   5.151   5.095
 8872SOL    HW127515   0.254   5.143   5.002
 8872SOL    HW227516   0.289   5.061   5.138
 8873SOL     OW27517   1.705   1.226   2.102
 8873SOL    HW127518   1.795   1.185   2.115
 8873SOL    HW227519   1.653   1.219   2.187
 8874SOL     OW27520   3.342   6.121   0.454
 8874SOL    HW127521   3.267   6.056   0.448
 8874SOL    HW227522   3.426   6.079   0.418
 8875SOL     OW27523   0.142   3.276   3.869
 8875SOL    HW127524   0.107   3.335   3.797
 8875SOL    HW227525   0.076   3.204   3.889
 8876SOL     OW27526   3.422   0.738   6.534
 8876SOL    HW127527   3.518   0.757   6.550
 8876SOL    HW227528   3.407   0.639   6.531
 8877SOL     OW27529   1.841   4.558   1.191
 8877SOL    HW127530   1.861   4.498   1.268
 8877SOL    HW227531   1.752   4.534   1.152
 8878SOL     OW27532   4.901   3.802   0.967
 8878SOL    HW127533   4.965   3.864   1.012
 8878SOL    HW227534   4.808   3.823   0.997
 8879SOL     OW27535   5.749   5.085   2.738
 8879SOL    HW127536   5.827   5.126   2.692
 8879SOL    HW227537   5.766   4.988   2.753
 8880SOL     OW27538   4.257   0.386   4.103
 8880SOL    HW127539   4.323   0.424   4.038
 8880SOL    HW227540   4.291   0.399   4.196
 8881SOL     OW27541   4.590   4.793   4.429
 8881SOL    HW127542   4.633   4.710   4.396
 8881SOL    HW227543   4.563   4.850   4.351
 8882SOL     OW27544   4.725   0.562   0.844
 8882SOL    HW127545   4.791   0.526   0.778
 8882SOL    HW227546   4.743   0.660   0.859
 8883SOL     OW27547   6.764   6.282   4.476
 8883SOL    HW127548   6.710   6.297   4.559
 8883SOL    HW227549   6.861   6.279   4.501
 8884SOL     OW27550   5.377   3.386   4.878
 8884SOL    HW127551   5.426   3.345   4.955
 8884SOL    HW227552   5.284   3.348   4.874
 8885SOL     OW27553   6.576   5.728   0.343
 8885SOL    HW127554   6.484   5.731   0.303
 8885SOL    HW227555   6.571   5.753   0.440
 8886SOL     OW27556   3.800   5.509   6.142
 8886SOL    HW127557   3.895   5.483   6.156
 8886SOL    HW227558   3.749   5.496   6.227
 8887SOL     OW27559   5.160   1.200   1.626
 8887SOL    HW127560   5.140   1.108   1.591
 8887SOL    HW227561   5.074   1.246   1.648
 8888SOL     OW27562   2.398   2.224   3.040
 8888SOL    HW127563   2.482   2.244   2.989
 8888SOL    HW227564   2.354   2.310   3.066
 8889SOL     OW27565   0.159   6.008   6.255
 8889SOL    HW127566   0.185   6.099   6.222
 8889SOL    HW227567   0.071   5.982   6.216
 8890SOL     OW27568   0.493   6.494   0.581
 8890SOL    HW127569   0.429   6.567   0.604
 8890SOL    HW227570   0.551   6.474   0.660
 8891SOL     OW27571   6.053   3.830   0.118
 8891SOL    HW127572   6.036   3.853   0.214
 8891SOL    HW227573   6.127   3.764   0.112
 8892SOL     OW27574   3.199   5.093   3.425
 8892SOL    HW127575   3.254   5.115   3.344
 8892SOL    HW227576   3.125   5.031   3.399
 8893SOL     OW27577   1.545   5.196   4.702
 8893SOL    HW127578   1.591   5.246   4.775
 8893SOL    HW227579   1.517   5.260   4.630
 8894SOL     OW27580   4.629   1.312   0.211
 8894SOL    HW127581   4.558   1.263   0.160
 8894SOL    HW227582   4.712   1.317   0.157
 8895SOL     OW27583   6.885   3.805   1.124
 8895SOL    HW127584   6.906   3.864   1.202
 8895SOL    HW227585   6.848   3.718   1.156
 8896SOL     OW27586   0.351   2.263   4.620
 8896SOL    HW127587   0.349   2.296   4.526
 8896SOL    HW227588   0.273   2.301   4.671
 8897SOL     OW27589   2.091   3.958   3.707
 8897SOL    HW127590   2.017   4.025   3.715
 8897SOL    HW227591   2.095   3.924   3.613
 8898SOL     OW27592   4.940   4.355   2.914
 8898SOL    HW127593   4.874   4.295   2.870
 8898SOL    HW227594   4.895   4.440   2.942
 8899SOL     OW27595   0.293   3.711   5.935
 8899SOL    HW127596   0.291   3.801   5.891
 8899SOL    HW227597   0.377   3.663   5.910
 8900SOL     OW27598   5.131   3.007   4.029
 8900SOL    HW127599   5.229   3.008   4.011
 8900SOL    HW227600   5.114   2.965   4.118
 8901SOL     OW27601   1.414   3.067   3.958
 8901SOL    HW127602   1.331   3.123   3.960
 8901SOL    HW227603   1.494   3.124   3.977
 8902SOL     OW27604   0.622   4.602   0.616
 8902SOL    HW127605   0.625   4.562   0.524
 8902SOL    HW227606   0.639   4.531   0.684
 8903SOL     OW27607   1.588   6.951   5.564
 8903SOL    HW127608   1.673   6.985   5.522
 8903SOL    HW227609   1.517   6.944   5.493
 8904SOL     OW27610   0.467   0.697   3.190
 8904SOL    HW127611   0.423   0.609   3.204
 8904SOL    HW227612   0.562   0.683   3.160
 8905SOL     OW27613   1.304   3.709   2.299
 8905SOL    HW127614   1.227   3.698   2.362
 8905SOL    HW227615   1.369   3.634   2.312
 8906SOL     OW27616   6.518   6.978   0.396
 8906SOL    HW127617   6.563   6.894   0.364
 8906SOL    HW227618   6.486   6.965   0.490
 8907SOL     OW27619   3.577   2.856   4.704
 8907SOL    HW127620   3.634   2.868   4.785
 8907SOL    HW227621   3.490   2.815   4.731
 8908SOL     OW27622   1.072   5.582   0.179
 8908SOL    HW127623   1.063   5.486   0.152
 8908SOL    HW227624   0.989   5.632   0.153
 8909SOL     OW27625   2.782   0.552   0.074
 8909SOL    HW127626   2.872   0.569   0.034
 8909SOL    HW227627   2.734   0.484   0.019
 8910SOL     OW27628   2.287   1.883   3.721
 8910SOL    HW127629   2.355   1.866   3.650
 8910SOL    HW227630   2.299   1.817   3.795
 8911SOL     OW27631   4.611   1.885   3.914
 8911SOL    HW127632   4.652   1.926   3.995
 8911SOL    HW227633   4.679   1.830   3.866
 8912SOL     OW27634   3.202   3.773   4.854
 8912SOL    HW127635   3.245   3.832   4.923
 8912SOL    HW227636   3.120   3.731   4.893
 8913SOL     OW27637   5.400   6.142   6.841
 8913SOL    HW127638   5.442   6.194   6.766
 8913SOL    HW227639   5.461   6.067   6.867
 8914SOL     OW27640   4.575   5.913   6.480
 8914SOL    HW127641   4.571   5.886   6.576
 8914SOL    HW227642   4.482   5.920   6.443
 8915SOL     OW27643   1.275   1.231   3.725
 8915SOL    HW127644   1.187   1.188   3.706
 8915SOL    HW227645   1.303   1.210   3.818
 8916SOL     OW27646   4.600   0.852   6.979
 8916SOL    HW127647   4.694   0.818   6.972
 8916SOL    HW227648   4.572   0.889   6.891
 8917SOL     OW27649   5.563   1.827   0.335
 8917SOL    HW127650   5.485   1.876   0.297
 8917SOL    HW227651   5.536   1.779   0.418
 8918SOL     OW27652   1.004   4.140   2.353
 8918SOL    HW127653   1.018   4.229   2.397
 8918SOL    HW227654   1.041   4.068   2.412
 8919SOL     OW27655   5.642   3.580   0.578
 8919SOL    HW127656   5.557   3.530   0.561
 8919SOL    HW227657   5.628   3.648   0.650
 8920SOL     OW27658   6.580   1.402   0.694
 8920SOL    HW127659   6.605   1.385   0.599
 8920SOL    HW227660   6.641   1.472   0.732
 8921SOL     OW27661   1.555   2.951   1.407
 8921SOL    HW127662   1.599   3.021   1.352
 8921SOL    HW227663   1.470   2.922   1.363
 8922SOL     OW27664   3.924   0.091   3.291
 8922SOL    HW127665   3.915   0.151   3.211
 8922SOL    HW227666   3.839   0.095   3.345
 8923SOL     OW27667   1.715   2.141   5.055
 8923SOL    HW127668   1.615   2.139   5.060
 8923SOL    HW227669   1.753   2.130   5.147
 8924SOL     OW27670   4.727   5.505   5.023
 8924SOL    HW127671   4.660   5.471   4.957
 8924SOL    HW227672   4.819   5.481   4.992
 8925SOL     OW27673   1.256   0.624   3.242
 8925SOL    HW127674   1.351   0.597   3.257
 8925SOL    HW227675   1.198   0.579   3.309
 8926SOL     OW27676   6.103   2.870   5.602
 8926SOL    HW127677   6.062   2.865   5.693
 8926SOL    HW227678   6.178   2.936   5.603
 8927SOL     OW27679   0.433   1.123   6.284
 8927SOL    HW127680   0.388   1.212   6.292
 8927SOL    HW227681   0.521   1.135   6.237
 8928SOL     OW27682   2.159   6.731   5.079
 8928SOL    HW127683   2.237   6.668   5.075
 8928SOL    HW227684   2.190   6.824   5.062
 8929SOL     OW27685   6.989   2.649   4.431
 8929SOL    HW127686   6.963   2.571   4.375
 8929SOL    HW227687   0.061   2.639   4.458
 8930SOL     OW27688   1.519   4.483   3.658
 8930SOL    HW127689   1.586   4.525   3.720
 8930SOL    HW227690   1.432   4.472   3.706
 8931SOL     OW27691   4.071   2.403   1.372
 8931SOL    HW127692   4.029   2.464   1.305
 8931SOL    HW227693   4.005   2.333   1.400
 8932SOL     OW27694   0.129   3.223   3.378
 8932SOL    HW127695   0.223   3.211   3.410
 8932SOL    HW227696   0.079   3.138   3.391
 8933SOL     OW27697   3.526   1.527   5.906
 8933SOL    HW127698   3.458   1.566   5.968
 8933SOL    HW227699   3.495   1.537   5.811
 8934SOL     OW27700   2.675   5.932   3.665
 8934SOL    HW127701   2.722   6.019   3.678
 8934SOL    HW227702   2.739   5.857   3.683
 8935SOL     OW27703   0.294   5.137   1.497
 8935SOL    HW127704   0.281   5.214   1.434
 8935SOL    HW227705   0.286   5.051   1.446
 8936SOL     OW27706   2.243   2.799   0.201
 8936SOL    HW127707   2.271   2.866   0.132
 8936SOL    HW227708   2.180   2.733   0.160
 8937SOL     OW27709   0.755   5.844   5.752
 8937SOL    HW127710   0.669   5.842   5.803
 8937SOL    HW227711   0.826   5.887   5.808
 8938SOL     OW27712   6.318   5.370   0.732
 8938SOL    HW127713   6.327   5.361   0.831
 8938SOL    HW227714   6.240   5.317   0.701
 8939SOL     OW27715   5.578   2.021   4.536
 8939SOL    HW127716   5.609   2.103   4.488
 8939SOL    HW227717   5.640   1.945   4.517
 8940SOL     OW27718   6.153   0.716   3.483
 8940SOL    HW127719   6.173   0.807   3.447
 8940SOL    HW227720   6.238   0.670   3.508
 8941SOL     OW27721   4.913   2.709   6.222
 8941SOL    HW127722   4.859   2.632   6.255
 8941SOL    HW227723   4.882   2.793   6.267
 8942SOL     OW27724   0.485   2.245   4.960
 8942SOL    HW127725   0.499   2.184   4.882
 8942SOL    HW227726   0.395   2.228   5.000
 8943SOL     OW27727   5.052   3.117   1.361
 8943SOL    HW127728   5.130   3.054   1.354
 8943SOL    HW227729   4.972   3.067   1.393
 8944SOL     OW27730   4.393   5.619   0.903
 8944SOL    HW127731   4.396   5.676   0.985
 8944SOL    HW227732   4.300   5.587   0.887
 8945SOL     OW27733   2.702   0.914   4.071
 8945SOL    HW127734   2.680   1.002   4.030
 8945SOL    HW227735   2.671   0.914   4.167
 8946SOL     OW27736   3.217   1.822   4.748
 8946SOL    HW127737   3.152   1.845   4.676
 8946SOL    HW227738   3.190   1.737   4.792
 8947SOL     OW27739   4.233   4.018   5.379
 8947SOL    HW127740   4.208   4.113   5.358
 8947SOL    HW227741   4.183   3.956   5.318
 8948SOL     OW27742   5.653   4.890   3.529
 8948SOL    HW127743   5.574   4.916   3.472
 8948SOL    HW227744   5.722   4.963   3.524
 8949SOL     OW27745   2.414   6.119   0.219
 8949SOL    HW127746   2.458   6.042   0.173
 8949SOL    HW227747   2.452   6.205   0.186
 8950SOL     OW27748   4.685   2.569   4.285
 8950SOL    HW127749   4.656   2.624   4.207
 8950SOL    HW227750   4.755   2.619   4.337
 8951SOL     OW27751   1.727   2.797   5.595
 8951SOL    HW127752   1.630   2.771   5.600
 8951SOL    HW227753   1.778   2.724   5.550
 8952SOL     OW27754   0.463   1.397   2.555
 8952SOL    HW127755   0.493   1.488   2.525
 8952SOL    HW227756   0.363   1.390   2.546
 8953SOL     OW27757   1.475   3.305   6.973
 8953SOL    HW127758   1.569   3.324   7.000
 8953SOL    HW227759   1.428   3.258   0.023
 8954SOL     OW27760   1.794   5.836   6.493
 8954SOL    HW127761   1.825   5.764   6.555
 8954SOL    HW227762   1.799   5.802   6.399
 8955SOL     OW27763   6.498   4.062   3.218
 8955SOL    HW127764   6.492   4.019   3.308
 8955SOL    HW227765   6.529   4.156   3.227
 8956SOL     OW27766   0.679   0.654   5.897
 8956SOL    HW127767   0.739   0.580   5.865
 8956SOL    HW227768   0.584   0.623   5.893
 8957SOL     OW27769   2.566   4.767   2.378
 8957SOL    HW127770   2.663   4.767   2.353
 8957SOL    HW227771   2.510   4.754   2.296
 8958SOL     OW27772   1.841   6.520   4.401
 8958SOL    HW127773   1.847   6.613   4.365
 8958SOL    HW227774   1.748   6.485   4.388
 8959SOL     OW27775   1.652   4.688   0.334
 8959SOL    HW127776   1.573   4.689   0.396
 8959SOL    HW227777   1.713   4.613   0.360
 8960SOL     OW27778   3.780   5.587   1.516
 8960SOL    HW127779   3.700   5.564   1.570
 8960SOL    HW227780   3.854   5.523   1.536
 8961SOL     OW27781   1.814   2.182   3.764
 8961SOL    HW127782   1.840   2.274   3.734
 8961SOL    HW227783   1.855   2.163   3.853
 8962SOL     OW27784   6.026   0.495   3.287
 8962SOL    HW127785   6.063   0.444   3.208
 8962SOL    HW227786   6.100   0.545   3.331
 8963SOL     OW27787   6.042   0.755   4.580
 8963SOL    HW127788   6.072   0.840   4.624
 8963SOL    HW227789   6.097   0.739   4.498
 8964SOL     OW27790   5.492   4.540   2.178
 8964SOL    HW127791   5.406   4.488   2.180
 8964SOL    HW227792   5.472   4.637   2.191
 8965SOL     OW27793   1.572   5.013   1.840
 8965SOL    HW127794   1.669   4.990   1.825
 8965SOL    HW227795   1.516   4.964   1.773
 8966SOL     OW27796   1.807   2.596   6.450
 8966SOL    HW127797   1.754   2.657   6.392
 8966SOL    HW227798   1.773   2.502   6.441
 8967SOL     OW27799   4.555   0.358   0.197
 8967SOL    HW127800   4.469   0.410   0.199
 8967SOL    HW227801   4.547   0.279   0.258
 8968SOL     OW27802   4.977   6.258   1.670
 8968SOL    HW127803   5.007   6.163   1.668
 8968SOL    HW227804   4.977   6.295   1.577
 8969SOL     OW27805   6.430   0.771   4.080
 8969SOL    HW127806   6.444   0.715   3.999
 8969SOL    HW227807   6.449   0.717   4.162
 8970SOL     OW27808   3.832   1.860   1.543
 8970SOL    HW127809   3.899   1.922   1.503
 8970SOL    HW227810   3.757   1.913   1.583
 8971SOL     OW27811   4.050   5.235   2.117
 8971SOL    HW127812   4.109   5.202   2.043
 8971SOL    HW227813   3.954   5.218   2.093
 8972SOL     OW27814   5.239   6.492   5.295
 8972SOL    HW127815   5.318   6.521   5.240
 8972SOL    HW227816   5.237   6.392   5.298
 8973SOL     OW27817   1.253   4.655   6.963
 8973SOL    HW127818   1.338   4.604   6.953
 8973SOL    HW227819   1.238   4.676   0.036
 8974SOL     OW27820   0.523   3.678   5.720
 8974SOL    HW127821   0.509   3.775   5.703
 8974SOL    HW227822   0.557   3.633   5.637
 8975SOL     OW27823   3.108   0.358   0.526
 8975SOL    HW127824   3.105   0.457   0.513
 8975SOL    HW227825   3.168   0.317   0.458
 8976SOL     OW27826   1.687   5.494   4.224
 8976SOL    HW127827   1.654   5.412   4.271
 8976SOL    HW227828   1.787   5.488   4.214
 8977SOL     OW27829   6.531   1.248   6.184
 8977SOL    HW127830   6.575   1.223   6.271
 8977SOL    HW227831   6.479   1.170   6.150
 8978SOL     OW27832   5.672   6.792   0.720
 8978SOL    HW127833   5.690   6.754   0.630
 8978SOL    HW227834   5.686   6.891   0.719
 8979SOL     OW27835   1.888   3.833   5.015
 8979SOL    HW127836   1.985   3.817   5.030
 8979SOL    HW227837   1.834   3.776   5.078
 8980SOL     OW27838   4.005   3.065   4.426
 8980SOL    HW127839   3.936   3.003   4.464
 8980SOL    HW227840   4.042   3.122   4.499
 8981SOL     OW27841   3.602   1.247   5.222
 8981SOL    HW127842   3.514   1.256   5.270
 8981SOL    HW227843   3.634   1.337   5.194
 8982SOL     OW27844   3.155   3.977   0.660
 8982SOL    HW127845   3.115   4.068   0.670
 8982SOL    HW227846   3.172   3.958   0.563
 8983SOL     OW27847   4.512   5.490   0.695
 8983SOL    HW127848   4.455   5.507   0.615
 8983SOL    HW227849   4.468   5.530   0.776
 8984SOL     OW27850   1.850   6.091   2.940
 8984SOL    HW127851   1.784   6.126   3.006
 8984SOL    HW227852   1.913   6.028   2.985
 8985SOL     OW27853   4.041   2.735   6.839
 8985SOL    HW127854   4.101   2.658   6.819
 8985SOL    HW227855   3.969   2.705   6.902
 8986SOL     OW27856   3.963   4.974   2.826
 8986SOL    HW127857   3.881   4.918   2.816
 8986SOL    HW227858   3.950   5.061   2.781
 8987SOL     OW27859   5.464   6.193   2.033
 8987SOL    HW127860   5.443   6.137   2.113
 8987SOL    HW227861   5.562   6.192   2.016
 8988SOL     OW27862   0.552   5.363   4.602
 8988SOL    HW127863   0.595   5.363   4.692
 8988SOL    HW227864   0.453   5.354   4.611
 8989SOL     OW27865   4.121   2.882   6.604
 8989SOL    HW127866   4.158   2.827   6.679
 8989SOL    HW227867   4.185   2.881   6.527
 8990SOL     OW27868   0.063   5.231   3.775
 8990SOL    HW127869   0.025   5.251   3.685
 8990SOL    HW227870   7.016   5.242   3.845
 8991SOL     OW27871   1.481   2.444   5.374
 8991SOL    HW127872   1.450   2.417   5.283
 8991SOL    HW227873   1.467   2.368   5.438
 8992SOL     OW27874   6.215   2.032   0.080
 8992SOL    HW127875   6.256   1.947   0.046
 8992SOL    HW227876   6.126   2.047   0.038
 8993SOL     OW27877   4.329   2.884   6.302
 8993SOL    HW127878   4.371   2.942   6.372
 8993SOL    HW227879   4.399   2.824   6.263
 8994SOL     OW27880   2.127   4.482   4.375
 8994SOL    HW127881   2.130   4.514   4.470
 8994SOL    HW227882   2.215   4.441   4.350
 8995SOL     OW27883   0.160   1.749   1.454
 8995SOL    HW127884   0.238   1.743   1.516
 8995SOL    HW227885   0.158   1.839   1.411
 8996SOL     OW27886   5.824   3.943   6.573
 8996SOL    HW127887   5.871   4.008   6.633
 8996SOL    HW227888   5.891   3.897   6.514
 8997SOL     OW27889   5.379   1.260   5.063
 8997SOL    HW127890   5.418   1.314   4.988
 8997SOL    HW227891   5.376   1.164   5.036
 8998SOL     OW27892   6.024   4.513   4.341
 8998SOL    HW127893   6.001   4.610   4.350
 8998SOL    HW227894   6.121   4.504   4.318
 8999SOL     OW27895   5.126   6.643   5.852
 8999SOL    HW127896   5.061   6.607   5.919
 8999SOL    HW227897   5.162   6.568   5.796
 9000SOL     OW27898   1.781   4.825   1.530
 9000SOL    HW127899   1.819   4.738   1.563
 9000SOL    HW227900   1.700   4.806   1.475
 9001SOL     OW27901   0.248   5.218   1.962
 9001SOL    HW127902   0.189   5.272   1.902
 9001SOL    HW227903   0.256   5.264   2.051
 9002SOL     OW27904   1.379   4.534   5.795
 9002SOL    HW127905   1.463   4.573   5.756
 9002SOL    HW227906   1.379   4.549   5.894
 9003SOL     OW27907   5.620   1.782   1.036
 9003SOL    HW127908   5.655   1.867   0.997
 9003SOL    HW227909   5.622   1.788   1.136
 9004SOL     OW27910   4.078   5.048   0.826
 9004SOL    HW127911   4.152   5.082   0.768
 9004SOL    HW227912   3.994   5.041   0.771
 9005SOL     OW27913   5.396   1.172   6.146
 9005SOL    HW127914   5.326   1.242   6.161
 9005SOL    HW227915   5.484   1.217   6.130
 9006SOL     OW27916   3.657   0.079   0.561
 9006SOL    HW127917   3.583   0.097   0.625
 9006SOL    HW227918   3.738   0.049   0.611
 9007SOL     OW27919   2.386   1.816   2.926
 9007SOL    HW127920   2.479   1.852   2.922
 9007SOL    HW227921   2.365   1.789   3.021
 9008SOL     OW27922   0.392   5.596   3.143
 9008SOL    HW127923   0.431   5.594   3.051
 9008SOL    HW227924   0.318   5.529   3.149
 9009SOL     OW27925   3.947   5.696   0.383
 9009SOL    HW127926   3.905   5.755   0.453
 9009SOL    HW227927   4.026   5.743   0.344
 9010SOL     OW27928   2.188   6.812   3.912
 9010SOL    HW127929   2.224   6.740   3.972
 9010SOL    HW227930   2.216   6.794   3.818
 9011SOL     OW27931   4.632   0.569   2.903
 9011SOL    HW127932   4.593   0.588   2.993
 9011SOL    HW227933   4.675   0.652   2.867
 9012SOL     OW27934   2.563   5.767   0.331
 9012SOL    HW127935   2.570   5.788   0.429
 9012SOL    HW227936   2.652   5.776   0.288
 9013SOL     OW27937   1.942   6.516   4.676
 9013SOL    HW127938   1.906   6.440   4.731
 9013SOL    HW227939   1.899   6.515   4.586
 9014SOL     OW27940   6.159   2.366   2.491
 9014SOL    HW127941   6.131   2.435   2.423
 9014SOL    HW227942   6.249   2.331   2.467
 9015SOL     OW27943   5.453   2.380   0.643
 9015SOL    HW127944   5.354   2.378   0.660
 9015SOL    HW227945   5.474   2.324   0.563
 9016SOL     OW27946   5.656   5.525   5.649
 9016SOL    HW127947   5.672   5.442   5.596
 9016SOL    HW227948   5.564   5.523   5.689
 9017SOL     OW27949   3.486   0.883   4.897
 9017SOL    HW127950   3.554   0.838   4.838
 9017SOL    HW227951   3.395   0.849   4.875
 9018SOL     OW27952   3.856   3.107   6.752
 9018SOL    HW127953   3.936   3.089   6.809
 9018SOL    HW227954   3.780   3.136   6.810
 9019SOL     OW27955   1.077   2.894   3.284
 9019SOL    HW127956   1.068   2.854   3.193
 9019SOL    HW227957   1.174   2.902   3.308
 9020SOL     OW27958   6.629   5.848   1.899
 9020SOL    HW127959   6.580   5.935   1.903
 9020SOL    HW227960   6.614   5.797   1.983
 9021SOL     OW27961   0.072   0.167   4.072
 9021SOL    HW127962   7.015   0.109   4.085
 9021SOL    HW227963   0.055   0.230   3.995
 9022SOL     OW27964   4.307   2.538   6.912
 9022SOL    HW127965   4.235   2.546   6.981
 9022SOL    HW227966   4.382   2.599   6.934
 9023SOL     OW27967   4.437   3.070   1.411
 9023SOL    HW127968   4.393   3.020   1.336
 9023SOL    HW227969   4.459   3.163   1.382
 9024SOL     OW27970   1.482   4.982   6.122
 9024SOL    HW127971   1.441   4.992   6.031
 9024SOL    HW227972   1.548   5.056   6.136
 9025SOL     OW27973   0.565   5.506   0.759
 9025SOL    HW127974   0.568   5.406   0.760
 9025SOL    HW227975   0.606   5.540   0.674
 9026SOL     OW27976   4.284   1.930   6.948
 9026SOL    HW127977   4.217   1.909   6.876
 9026SOL    HW227978   4.322   2.021   6.931
 9027SOL     OW27979   0.899   4.086   3.799
 9027SOL    HW127980   0.850   4.039   3.725
 9027SOL    HW227981   0.987   4.040   3.815
 9028SOL     OW27982   3.677   3.851   5.599
 9028SOL    HW127983   3.686   3.763   5.647
 9028SOL    HW227984   3.766   3.880   5.565
 9029SOL     OW27985   4.116   0.309   4.723
 9029SOL    HW127986   4.153   0.227   4.766
 9029SOL    HW227987   4.170   0.388   4.753
 9030SOL     OW27988   2.495   2.551   4.063
 9030SOL    HW127989   2.492   2.633   4.121
 9030SOL    HW227990   2.559   2.485   4.102
 9031SOL     OW27991   4.414   0.132   4.654
 9031SOL    HW127992   4.473   0.212   4.642
 9031SOL    HW227993   4.424   0.072   4.575
 9032SOL     OW27994   5.131   3.352   1.455
 9032SOL    HW127995   5.109   3.264   1.413
 9032SOL    HW227996   5.085   3.359   1.543
 9033SOL     OW27997   0.797   5.554   2.672
 9033SOL    HW127998   0.848   5.493   2.732
 9033SOL    HW227999   0.841   5.555   2.582
 9034SOL     OW28000   2.979   6.280   4.599
 9034SOL    HW128001   2.904   6.282   4.533
 9034SOL    HW228002   3.000   6.374   4.628
 9035SOL     OW28003   2.043   5.479   0.582
 9035SOL    HW128004   2.068   5.539   0.658
 9035SOL    HW228005   1.945   5.484   0.566
 9036SOL     OW28006   1.255   3.752   5.669
 9036SOL    HW128007   1.198   3.834   5.673
 9036SOL    HW228008   1.317   3.758   5.591
 9037SOL     OW28009   0.964   2.308   3.794
 9037SOL    HW128010   1.044   2.315   3.735
 9037SOL    HW228011   0.914   2.395   3.792
 9038SOL     OW28012   4.944   3.220   6.493
 9038SOL    HW128013   4.945   3.137   6.547
 9038SOL    HW228014   5.026   3.275   6.514
 9039SOL     OW28015   3.415   5.078   0.122
 9039SOL    HW128016   3.382   5.171   0.138
 9039SOL    HW228017   3.480   5.079   0.046
 9040SOL     OW28018   2.133   2.172   1.461
 9040SOL    HW128019   2.123   2.268   1.435
 9040SOL    HW228020   2.199   2.128   1.401
 9041SOL     OW28021   0.017   2.139   0.823
 9041SOL    HW128022   6.963   2.079   0.839
 9041SOL    HW228023   7.021   2.200   0.746
 9042SOL     OW28024   3.532   6.082   6.090
 9042SOL    HW128025   3.540   6.054   5.995
 9042SOL    HW228026   3.504   6.004   6.146
 9043SOL     OW28027   2.692   1.265   7.013
 9043SOL    HW128028   2.600   1.235   0.013
 9043SOL    HW228029   2.702   1.266   6.913
 9044SOL     OW28030   0.503   0.139   6.621
 9044SOL    HW128031   0.486   0.238   6.616
 9044SOL    HW228032   0.562   0.112   6.545
 9045SOL     OW28033   4.236   0.188   3.332
 9045SOL    HW128034   4.323   0.234   3.348
 9045SOL    HW228035   4.162   0.255   3.332
 9046SOL     OW28036   2.942   3.259   3.142
 9046SOL    HW128037   2.888   3.335   3.178
 9046SOL    HW228038   2.965   3.276   3.047
 9047SOL     OW28039   1.272   4.287   5.955
 9047SOL    HW128040   1.214   4.318   6.031
 9047SOL    HW228041   1.268   4.354   5.881
 9048SOL     OW28042   5.951   2.350   6.086
 9048SOL    HW128043   5.873   2.371   6.145
 9048SOL    HW228044   5.974   2.253   6.093
 9049SOL     OW28045   2.790   6.754   6.621
 9049SOL    HW128046   2.884   6.753   6.655
 9049SOL    HW228047   2.788   6.797   6.530
 9050SOL     OW28048   0.768   4.336   1.572
 9050SOL    HW128049   0.683   4.325   1.625
 9050SOL    HW228050   0.810   4.424   1.596
 9051SOL     OW28051   2.768   1.716   1.260
 9051SOL    HW128052   2.678   1.697   1.220
 9051SOL    HW228053   2.838   1.710   1.190
 9052SOL     OW28054   1.703   3.107   4.778
 9052SOL    HW128055   1.739   3.132   4.868
 9052SOL    HW228056   1.604   3.121   4.777
 9053SOL     OW28057   1.866   1.344   1.441
 9053SOL    HW128058   1.894   1.351   1.536
 9053SOL    HW228059   1.865   1.435   1.399
 9054SOL     OW28060   2.942   5.462   3.587
 9054SOL    HW128061   3.038   5.433   3.584
 9054SOL    HW228062   2.890   5.413   3.517
 9055SOL     OW28063   0.306   3.906   4.818
 9055SOL    HW128064   0.341   3.957   4.739
 9055SOL    HW228065   0.208   3.891   4.806
 9056SOL     OW28066   6.404   2.095   3.030
 9056SOL    HW128067   6.336   2.024   3.049
 9056SOL    HW228068   6.489   2.073   3.079
 9057SOL     OW28069   4.491   1.031   4.254
 9057SOL    HW128070   4.394   1.011   4.267
 9057SOL    HW228071   4.512   1.122   4.290
 9058SOL     OW28072   1.380   0.830   6.580
 9058SOL    HW128073   1.413   0.922   6.558
 9058SOL    HW228074   1.421   0.764   6.516
 9059SOL     OW28075   1.310   2.126   2.476
 9059SOL    HW128076   1.286   2.030   2.482
 9059SOL    HW228077   1.410   2.136   2.473
 9060SOL     OW28078   4.830   2.935   4.357
 9060SOL    HW128079   4.802   2.892   4.443
 9060SOL    HW228080   4.750   2.978   4.314
 9061SOL     OW28081   4.739   5.458   2.181
 9061SOL    HW128082   4.789   5.498   2.258
 9061SOL    HW228083   4.804   5.418   2.117
 9062SOL     OW28084   1.267   5.285   1.603
 9062SOL    HW128085   1.323   5.349   1.655
 9062SOL    HW228086   1.321   5.246   1.528
 9063SOL     OW28087   2.887   2.187   2.951
 9063SOL    HW128088   2.897   2.103   3.005
 9063SOL    HW228089   2.860   2.164   2.858
 9064SOL     OW28090   6.506   3.351   6.764
 9064SOL    HW128091   6.461   3.268   6.731
 9064SOL    HW228092   6.555   3.395   6.689
 9065SOL     OW28093   2.390   1.049   0.572
 9065SOL    HW128094   2.369   1.147   0.573
 9065SOL    HW228095   2.489   1.036   0.575
 9066SOL     OW28096   4.909   6.724   6.804
 9066SOL    HW128097   4.834   6.759   6.861
 9066SOL    HW228098   4.995   6.766   6.833
 9067SOL     OW28099   1.616   0.102   2.975
 9067SOL    HW128100   1.552   0.035   2.939
 9067SOL    HW228101   1.641   0.167   2.903
 9068SOL     OW28102   1.643   5.549   6.469
 9068SOL    HW128103   1.619   5.568   6.564
 9068SOL    HW228104   1.593   5.611   6.409
 9069SOL     OW28105   1.626   2.793   6.329
 9069SOL    HW128106   1.550   2.825   6.385
 9069SOL    HW228107   1.667   2.870   6.282
 9070SOL     OW28108   1.332   4.546   4.529
 9070SOL    HW128109   1.280   4.519   4.610
 9070SOL    HW228110   1.418   4.589   4.557
 9071SOL     OW28111   6.258   6.796   0.346
 9071SOL    HW128112   6.292   6.821   0.255
 9071SOL    HW228113   6.196   6.718   0.337
 9072SOL     OW28114   6.450   3.942   0.192
 9072SOL    HW128115   6.405   3.997   0.262
 9072SOL    HW228116   6.393   3.863   0.170
 9073SOL     OW28117   1.944   1.098   1.922
 9073SOL    HW128118   1.861   1.042   1.923
 9073SOL    HW228119   2.020   1.045   1.883
 9074SOL     OW28120   1.469   6.985   2.793
 9074SOL    HW128121   1.372   6.962   2.802
 9074SOL    HW228122   1.518   6.907   2.754
 9075SOL     OW28123   6.559   0.892   2.217
 9075SOL    HW128124   6.521   0.934   2.134
 9075SOL    HW228125   6.653   0.923   2.230
 9076SOL     OW28126   6.632   0.889   5.722
 9076SOL    HW128127   6.590   0.799   5.718
 9076SOL    HW228128   6.729   0.880   5.745
 9077SOL     OW28129   5.748   6.573   2.255
 9077SOL    HW128130   5.845   6.547   2.257
 9077SOL    HW228131   5.706   6.551   2.342
 9078SOL     OW28132   3.789   3.201   4.728
 9078SOL    HW128133   3.742   3.170   4.811
 9078SOL    HW228134   3.885   3.220   4.749
 9079SOL     OW28135   3.336   6.910   5.912
 9079SOL    HW128136   3.382   6.908   6.001
 9079SOL    HW228137   3.245   6.950   5.922
 9080SOL     OW28138   5.242   1.599   0.844
 9080SOL    HW128139   5.170   1.570   0.907
 9080SOL    HW228140   5.252   1.532   0.771
 9081SOL     OW28141   5.221   6.243   1.949
 9081SOL    HW128142   5.161   6.181   1.999
 9081SOL    HW228143   5.315   6.233   1.984
 9082SOL     OW28144   2.932   1.545   4.047
 9082SOL    HW128145   2.913   1.450   4.072
 9082SOL    HW228146   2.975   1.592   4.123
 9083SOL     OW28147   4.775   4.547   4.567
 9083SOL    HW128148   4.831   4.533   4.649
 9083SOL    HW228149   4.829   4.521   4.486
 9084SOL     OW28150   3.430   3.911   3.154
 9084SOL    HW128151   3.429   3.844   3.080
 9084SOL    HW228152   3.512   3.898   3.209
 9085SOL     OW28153   1.815   1.954   0.783
 9085SOL    HW128154   1.862   2.042   0.782
 9085SOL    HW228155   1.717   1.969   0.795
 9086SOL     OW28156   0.779   4.276   1.303
 9086SOL    HW128157   0.684   4.296   1.278
 9086SOL    HW228158   0.784   4.251   1.400
 9087SOL     OW28159   4.836   3.485   1.924
 9087SOL    HW128160   4.774   3.497   1.846
 9087SOL    HW228161   4.872   3.391   1.923
 9088SOL     OW28162   5.170   0.521   6.873
 9088SOL    HW128163   5.176   0.478   6.964
 9088SOL    HW228164   5.082   0.498   6.831
 9089SOL     OW28165   4.340   0.125   5.561
 9089SOL    HW128166   4.430   0.122   5.606
 9089SOL    HW228167   4.322   0.218   5.528
 9090SOL     OW28168   5.671   1.620   4.720
 9090SOL    HW128169   5.739   1.546   4.721
 9090SOL    HW228170   5.678   1.674   4.803
 9091SOL     OW28171   3.172   3.750   7.008
 9091SOL    HW128172   3.073   3.737   6.994
 9091SOL    HW228173   3.200   3.701   0.067
 9092SOL     OW28174   0.157   2.653   0.381
 9092SOL    HW128175   0.180   2.747   0.409
 9092SOL    HW228176   0.228   2.619   0.319
 9093SOL     OW28177   1.581   6.384   5.863
 9093SOL    HW128178   1.530   6.348   5.785
 9093SOL    HW228179   1.523   6.448   5.914
 9094SOL     OW28180   0.385   3.735   2.052
 9094SOL    HW128181   0.476   3.777   2.050
 9094SOL    HW228182   0.380   3.669   2.127
 9095SOL     OW28183   5.548   6.125   5.421
 9095SOL    HW128184   5.502   6.064   5.356
 9095SOL    HW228185   5.555   6.079   5.509
 9096SOL     OW28186   6.229   5.817   2.776
 9096SOL    HW128187   6.251   5.766   2.859
 9096SOL    HW228188   6.276   5.905   2.777
 9097SOL     OW28189   0.950   2.755   6.233
 9097SOL    HW128190   0.996   2.831   6.278
 9097SOL    HW228191   0.937   2.680   6.298
 9098SOL     OW28192   1.645   3.563   4.228
 9098SOL    HW128193   1.662   3.660   4.211
 9098SOL    HW228194   1.725   3.522   4.272
 9099SOL     OW28195   2.473   2.867   6.991
 9099SOL    HW128196   2.544   2.867   6.920
 9099SOL    HW228197   2.385   2.889   6.950
 9100SOL     OW28198   1.074   4.686   3.084
 9100SOL    HW128199   1.091   4.689   2.985
 9100SOL    HW228200   1.035   4.773   3.114
 9101SOL     OW28201   0.940   2.417   2.105
 9101SOL    HW128202   0.962   2.474   2.026
 9101SOL    HW228203   0.935   2.321   2.077
 9102SOL     OW28204   4.117   6.560   3.025
 9102SOL    HW128205   4.061   6.510   2.959
 9102SOL    HW228206   4.062   6.585   3.104
 9103SOL     OW28207   6.281   1.557   0.571
 9103SOL    HW128208   6.204   1.610   0.606
 9103SOL    HW228209   6.312   1.492   0.640
 9104SOL     OW28210   5.995   1.035   6.700
 9104SOL    HW128211   6.031   0.943   6.683
 9104SOL    HW228212   5.974   1.045   6.798
 9105SOL     OW28213   1.957   0.052   6.243
 9105SOL    HW128214   2.009   0.075   6.325
 9105SOL    HW228215   2.019   0.047   6.164
 9106SOL     OW28216   1.841   4.084   0.575
 9106SOL    HW128217   1.926   4.137   0.578
 9106SOL    HW228218   1.796   4.099   0.487
 9107SOL     OW28219   2.382   0.985   6.752
 9107SOL    HW128220   2.293   1.023   6.728
 9107SOL    HW228221   2.428   0.953   6.669
 9108SOL     OW28222   5.949   4.889   5.957
 9108SOL    HW128223   5.868   4.840   5.926
 9108SOL    HW228224   5.972   4.860   6.050
 9109SOL     OW28225   5.113   3.025   2.576
 9109SOL    HW128226   5.116   3.124   2.564
 9109SOL    HW228227   5.184   2.997   2.640
 9110SOL     OW28228   1.440   6.043   4.859
 9110SOL    HW128229   1.369   6.092   4.809
 9110SOL    HW228230   1.460   5.957   4.811
 9111SOL     OW28231   4.075   2.917   5.631
 9111SOL    HW128232   3.979   2.905   5.602
 9111SOL    HW228233   4.094   3.014   5.644
 9112SOL     OW28234   1.063   5.256   2.190
 9112SOL    HW128235   1.131   5.199   2.144
 9112SOL    HW228236   1.015   5.312   2.122
 9113SOL     OW28237   5.668   1.436   3.706
 9113SOL    HW128238   5.610   1.508   3.743
 9113SOL    HW228239   5.621   1.348   3.714
 9114SOL     OW28240   1.535   5.922   5.219
 9114SOL    HW128241   1.634   5.928   5.204
 9114SOL    HW228242   1.498   6.013   5.238
 9115SOL     OW28243   5.284   4.044   4.419
 9115SOL    HW128244   5.200   3.992   4.405
 9115SOL    HW228245   5.363   3.986   4.398
 9116SOL     OW28246   1.157   0.201   2.937
 9116SOL    HW128247   1.073   0.245   2.906
 9116SOL    HW228248   1.167   0.113   2.892
 9117SOL     OW28249   3.662   0.399   0.283
 9117SOL    HW128250   3.565   0.402   0.262
 9117SOL    HW228251   3.693   0.304   0.291
 9118SOL     OW28252   5.999   4.584   1.424
 9118SOL    HW128253   6.061   4.657   1.395
 9118SOL    HW228254   5.983   4.590   1.523
 9119SOL     OW28255   3.812   0.697   0.890
 9119SOL    HW128256   3.809   0.604   0.854
 9119SOL    HW228257   3.759   0.702   0.974
 9120SOL     OW28258   6.288   3.378   4.967
 9120SOL    HW128259   6.348   3.359   4.890
 9120SOL    HW228260   6.341   3.383   5.051
 9121SOL     OW28261   3.247   0.780   4.837
 9121SOL    HW128262   3.186   0.761   4.914
 9121SOL    HW228263   3.202   0.754   4.751
 9122SOL     OW28264   1.981   4.033   2.062
 9122SOL    HW128265   2.080   4.023   2.059
 9122SOL    HW228266   1.939   3.963   2.004
 9123SOL     OW28267   0.854   0.004   3.742
 9123SOL    HW128268   0.769   0.044   3.777
 9123SOL    HW228269   0.927   0.015   3.810
 9124SOL     OW28270   2.818   5.585   1.360
 9124SOL    HW128271   2.904   5.595   1.309
 9124SOL    HW228272   2.775   5.499   1.335
 9125SOL     OW28273   4.487   6.290   1.221
 9125SOL    HW128274   4.504   6.241   1.135
 9125SOL    HW228275   4.567   6.345   1.244
 9126SOL     OW28276   4.073   4.537   0.576
 9126SOL    HW128277   4.044   4.490   0.492
 9126SOL    HW228278   4.125   4.473   0.633
 9127SOL     OW28279   0.467   4.365   4.958
 9127SOL    HW128280   0.469   4.318   5.046
 9127SOL    HW228281   0.463   4.464   4.974
 9128SOL     OW28282   6.019   3.477   5.659
 9128SOL    HW128283   6.007   3.404   5.592
 9128SOL    HW228284   5.930   3.516   5.683
 9129SOL     OW28285   1.776   2.379   1.076
 9129SOL    HW128286   1.835   2.460   1.073
 9129SOL    HW228287   1.762   2.351   1.170
 9130SOL     OW28288   2.772   3.788   5.181
 9130SOL    HW128289   2.764   3.832   5.091
 9130SOL    HW228290   2.793   3.691   5.169
 9131SOL     OW28291   5.059   2.275   0.938
 9131SOL    HW128292   5.033   2.178   0.940
 9131SOL    HW228293   5.115   2.296   1.018
 9132SOL     OW28294   6.609   4.351   3.235
 9132SOL    HW128295   6.708   4.351   3.252
 9132SOL    HW228296   6.560   4.366   3.321
 9133SOL     OW28297   4.715   1.378   1.019
 9133SOL    HW128298   4.697   1.416   1.110
 9133SOL    HW228299   4.783   1.305   1.026
 9134SOL     OW28300   4.395   4.657   0.603
 9134SOL    HW128301   4.345   4.730   0.557
 9134SOL    HW228302   4.335   4.609   0.666
 9135SOL     OW28303   6.954   6.478   2.325
 9135SOL    HW128304   6.876   6.506   2.381
 9135SOL    HW228305   6.987   6.389   2.356
 9136SOL     OW28306   6.209   4.156   6.631
 9136SOL    HW128307   6.213   4.215   6.550
 9136SOL    HW228308   6.297   4.159   6.678
 9137SOL     OW28309   5.487   5.983   6.260
 9137SOL    HW128310   5.555   5.911   6.250
 9137SOL    HW228311   5.403   5.957   6.213
 9138SOL     OW28312   3.525   3.193   0.842
 9138SOL    HW128313   3.615   3.229   0.865
 9138SOL    HW228314   3.455   3.258   0.871
 9139SOL     OW28315   6.767   0.373   0.871
 9139SOL    HW128316   6.680   0.421   0.862
 9139SOL    HW228317   6.837   0.421   0.818
 9140SOL     OW28318   1.297   4.063   3.189
 9140SOL    HW128319   1.244   4.125   3.247
 9140SOL    HW228320   1.392   4.093   3.186
 9141SOL     OW28321   6.716   5.726   5.448
 9141SOL    HW128322   6.679   5.672   5.372
 9141SOL    HW228323   6.640   5.759   5.505
 9142SOL     OW28324   1.428   3.969   4.843
 9142SOL    HW128325   1.465   3.884   4.807
 9142SOL    HW228326   1.493   4.008   4.908
 9143SOL     OW28327   6.988   4.483   3.030
 9143SOL    HW128328   6.964   4.575   3.000
 9143SOL    HW228329   6.910   4.441   3.076
 9144SOL     OW28330   2.663   4.439   5.344
 9144SOL    HW128331   2.750   4.459   5.298
 9144SOL    HW228332   2.603   4.518   5.339
 9145SOL     OW28333   1.690   6.045   5.807
 9145SOL    HW128334   1.743   5.999   5.736
 9145SOL    HW228335   1.735   6.032   5.896
 9146SOL     OW28336   5.977   2.836   3.156
 9146SOL    HW128337   5.955   2.933   3.151
 9146SOL    HW228338   6.009   2.813   3.248
 9147SOL     OW28339   4.146   6.641   4.795
 9147SOL    HW128340   4.237   6.650   4.835
 9147SOL    HW228341   4.109   6.732   4.775
 9148SOL     OW28342   6.024   6.061   1.650
 9148SOL    HW128343   5.996   5.965   1.651
 9148SOL    HW228344   6.105   6.073   1.707
 9149SOL     OW28345   0.398   3.471   1.628
 9149SOL    HW128346   0.305   3.468   1.592
 9149SOL    HW228347   0.462   3.497   1.556
 9150SOL     OW28348   2.017   2.696   0.463
 9150SOL    HW128349   2.010   2.796   0.457
 9150SOL    HW228350   2.093   2.664   0.406
 9151SOL     OW28351   1.972   3.281   4.081
 9151SOL    HW128352   2.015   3.323   4.001
 9151SOL    HW228353   2.043   3.245   4.142
 9152SOL     OW28354   1.375   4.245   2.342
 9152SOL    HW128355   1.296   4.259   2.403
 9152SOL    HW228356   1.386   4.148   2.323
 9153SOL     OW28357   0.463   3.898   6.383
 9153SOL    HW128358   0.449   3.947   6.297
 9153SOL    HW228359   0.382   3.845   6.405
 9154SOL     OW28360   5.373   5.020   2.722
 9154SOL    HW128361   5.298   5.086   2.721
 9154SOL    HW228362   5.445   5.052   2.783
 9155SOL     OW28363   1.354   6.495   2.926
 9155SOL    HW128364   1.371   6.561   2.854
 9155SOL    HW228365   1.260   6.506   2.961
 9156SOL     OW28366   6.830   3.858   6.317
 9156SOL    HW128367   6.875   3.941   6.349
 9156SOL    HW228368   6.897   3.798   6.273
 9157SOL     OW28369   1.597   4.252   6.544
 9157SOL    HW128370   1.521   4.233   6.606
 9157SOL    HW228371   1.660   4.175   6.543
 9158SOL     OW28372   0.038   3.897   4.966
 9158SOL    HW128373   6.999   3.887   5.043
 9158SOL    HW228374   0.020   3.826   4.898
 9159SOL     OW28375   3.125   1.511   4.250
 9159SOL    HW128376   3.199   1.537   4.188
 9159SOL    HW228377   3.159   1.505   4.343
 9160SOL     OW28378   0.535   4.328   1.721
 9160SOL    HW128379   0.445   4.370   1.732
 9160SOL    HW228380   0.574   4.309   1.811
 9161SOL     OW28381   6.893   4.505   2.138
 9161SOL    HW128382   6.805   4.543   2.166
 9161SOL    HW228383   6.904   4.413   2.176
 9162SOL     OW28384   4.128   1.875   1.901
 9162SOL    HW128385   4.132   1.960   1.848
 9162SOL    HW228386   4.032   1.849   1.915
 9163SOL     OW28387   1.882   2.436   3.694
 9163SOL    HW128388   1.923   2.427   3.603
 9163SOL    HW228389   1.955   2.446   3.762
 9164SOL     OW28390   2.611   6.707   0.417
 9164SOL    HW128391   2.620   6.664   0.507
 9164SOL    HW228392   2.697   6.750   0.391
 9165SOL     OW28393   5.299   1.701   6.196
 9165SOL    HW128394   5.337   1.654   6.275
 9165SOL    HW228395   5.200   1.688   6.193
 9166SOL     OW28396   5.568   5.908   1.235
 9166SOL    HW128397   5.484   5.860   1.262
 9166SOL    HW228398   5.623   5.925   1.317
 9167SOL     OW28399   1.570   0.866   4.516
 9167SOL    HW128400   1.537   0.827   4.430
 9167SOL    HW228401   1.499   0.924   4.556
 9168SOL     OW28402   6.728   5.984   4.513
 9168SOL    HW128403   6.793   5.977   4.589
 9168SOL    HW228404   6.750   6.064   4.458
 9169SOL     OW28405   6.929   6.430   1.359
 9169SOL    HW128406   6.871   6.511   1.360
 9169SOL    HW228407   6.980   6.426   1.273
 9170SOL     OW28408   1.086   0.860   6.489
 9170SOL    HW128409   1.076   0.789   6.419
 9170SOL    HW228410   1.177   0.854   6.530
 9171SOL     OW28411   3.607   5.114   6.521
 9171SOL    HW128412   3.652   5.153   6.601
 9171SOL    HW228413   3.523   5.163   6.501
 9172SOL     OW28414   4.677   1.457   4.152
 9172SOL    HW128415   4.768   1.478   4.116
 9172SOL    HW228416   4.672   1.482   4.249
 9173SOL     OW28417   5.515   3.270   5.093
 9173SOL    HW128418   5.607   3.262   5.055
 9173SOL    HW228419   5.467   3.183   5.083
 9174SOL     OW28420   0.002   4.752   0.883
 9174SOL    HW128421   6.969   4.779   0.805
 9174SOL    HW228422   0.071   4.686   0.852
 9175SOL     OW28423   1.877   0.418   6.895
 9175SOL    HW128424   1.778   0.431   6.893
 9175SOL    HW228425   1.902   0.370   6.979
 9176SOL     OW28426   1.840   1.480   2.105
 9176SOL    HW128427   1.824   1.385   2.079
 9176SOL    HW228428   1.765   1.512   2.163
 9177SOL     OW28429   0.202   4.996   3.870
 9177SOL    HW128430   0.157   5.079   3.837
 9177SOL    HW228431   0.253   4.954   3.796
 9178SOL     OW28432   2.282   5.476   0.902
 9178SOL    HW128433   2.197   5.494   0.854
 9178SOL    HW228434   2.312   5.382   0.883
 9179SOL     OW28435   3.212   5.403   4.299
 9179SOL    HW128436   3.127   5.359   4.272
 9179SOL    HW228437   3.269   5.338   4.350
 9180SOL     OW28438   0.094   0.864   4.865
 9180SOL    HW128439   0.041   0.948   4.881
 9180SOL    HW228440   0.119   0.823   4.953
 9181SOL     OW28441   2.354   2.319   3.352
 9181SOL    HW128442   2.418   2.317   3.429
 9181SOL    HW228443   2.328   2.225   3.328
 9182SOL     OW28444   1.065   1.715   3.119
 9182SOL    HW128445   1.032   1.780   3.187
 9182SOL    HW228446   0.987   1.674   3.071
 9183SOL     OW28447   1.151   1.976   6.019
 9183SOL    HW128448   1.076   1.913   5.998
 9183SOL    HW228449   1.150   2.052   5.953
 9184SOL     OW28450   4.090   2.798   0.511
 9184SOL    HW128451   4.033   2.726   0.552
 9184SOL    HW228452   4.079   2.882   0.563
 9185SOL     OW28453   0.644   0.888   6.819
 9185SOL    HW128454   0.618   0.816   6.884
 9185SOL    HW228455   0.722   0.858   6.765
 9186SOL     OW28456   5.320   0.926   6.116
 9186SOL    HW128457   5.371   0.889   6.193
 9186SOL    HW228458   5.336   1.025   6.109
 9187SOL     OW28459   5.919   2.089   0.616
 9187SOL    HW128460   5.892   2.175   0.574
 9187SOL    HW228461   6.005   2.101   0.666
 9188SOL     OW28462   1.749   0.913   2.407
 9188SOL    HW128463   1.656   0.949   2.409
 9188SOL    HW228464   1.765   0.868   2.319
 9189SOL     OW28465   4.044   1.254   5.246
 9189SOL    HW128466   3.963   1.271   5.303
 9189SOL    HW228467   4.126   1.278   5.297
 9190SOL     OW28468   6.169   1.561   5.547
 9190SOL    HW128469   6.128   1.651   5.542
 9190SOL    HW228470   6.241   1.561   5.616
 9191SOL     OW28471   5.795   0.371   1.043
 9191SOL    HW128472   5.840   0.415   0.966
 9191SOL    HW228473   5.832   0.279   1.056
 9192SOL     OW28474   4.940   4.278   4.099
 9192SOL    HW128475   4.932   4.179   4.113
 9192SOL    HW228476   5.018   4.297   4.039
 9193SOL     OW28477   2.883   3.377   3.627
 9193SOL    HW128478   2.846   3.291   3.592
 9193SOL    HW228479   2.878   3.447   3.555
 9194SOL     OW28480   4.182   5.590   2.571
 9194SOL    HW128481   4.122   5.574   2.650
 9194SOL    HW228482   4.196   5.688   2.560
 9195SOL     OW28483   0.197   3.073   2.314
 9195SOL    HW128484   0.275   3.064   2.377
 9195SOL    HW228485   0.112   3.071   2.365
 9196SOL     OW28486   4.825   6.560   3.672
 9196SOL    HW128487   4.907   6.533   3.620
 9196SOL    HW228488   4.780   6.636   3.626
 9197SOL     OW28489   3.716   2.840   5.156
 9197SOL    HW128490   3.625   2.801   5.143
 9197SOL    HW228491   3.709   2.925   5.208
 9198SOL     OW28492   5.368   1.996   5.607
 9198SOL    HW128493   5.405   2.083   5.575
 9198SOL    HW228494   5.355   1.999   5.706
 9199SOL     OW28495   1.626   3.631   6.349
 9199SOL    HW128496   1.548   3.679   6.307
 9199SOL    HW228497   1.669   3.572   6.280
 9200SOL     OW28498   5.693   6.409   0.865
 9200SOL    HW128499   5.773   6.377   0.916
 9200SOL    HW228500   5.663   6.497   0.902
 9201SOL     OW28501   1.562   4.123   3.180
 9201SOL    HW128502   1.614   4.058   3.124
 9201SOL    HW228503   1.621   4.201   3.203
 9202SOL     OW28504   3.147   5.858   3.501
 9202SOL    HW128505   3.088   5.867   3.421
 9202SOL    HW228506   3.239   5.831   3.472
 9203SOL     OW28507   5.126   0.725   6.071
 9203SOL    HW128508   5.184   0.806   6.084
 9203SOL    HW228509   5.031   0.748   6.090
 9204SOL     OW28510   4.949   4.193   1.810
 9204SOL    HW128511   5.024   4.233   1.758
 9204SOL    HW228512   4.900   4.266   1.859
 9205SOL     OW28513   4.927   3.008   2.229
 9205SOL    HW128514   4.942   2.916   2.267
 9205SOL    HW228515   4.848   3.007   2.168
 9206SOL     OW28516   0.400   6.615   3.187
 9206SOL    HW128517   0.382   6.672   3.107
 9206SOL    HW228518   0.325   6.549   3.198
 9207SOL     OW28519   3.920   6.512   6.675
 9207SOL    HW128520   4.016   6.494   6.656
 9207SOL    HW228521   3.904   6.611   6.674
 9208SOL     OW28522   5.167   4.694   2.083
 9208SOL    HW128523   5.161   4.642   2.168
 9208SOL    HW228524   5.120   4.644   2.010
 9209SOL     OW28525   3.673   0.447   3.007
 9209SOL    HW128526   3.692   0.413   2.915
 9209SOL    HW228527   3.624   0.377   3.059
 9210SOL     OW28528   1.260   6.844   0.563
 9210SOL    HW128529   1.346   6.850   0.613
 9210SOL    HW228530   1.184   6.869   0.623
 9211SOL     OW28531   4.674   1.239   5.732
 9211SOL    HW128532   4.769   1.226   5.703
 9211SOL    HW228533   4.669   1.314   5.797
 9212SOL     OW28534   5.949   3.860   4.882
 9212SOL    HW128535   6.015   3.894   4.949
 9212SOL    HW228536   5.910   3.774   4.915
 9213SOL     OW28537   6.582   0.071   2.642
 9213SOL    HW128538   6.530   0.071   2.727
 9213SOL    HW228539   6.678   0.056   2.662
 9214SOL     OW28540   2.484   2.590   5.639
 9214SOL    HW128541   2.433   2.538   5.571
 9214SOL    HW228542   2.421   2.640   5.698
 9215SOL     OW28543   0.326   3.176   2.809
 9215SOL    HW128544   0.266   3.209   2.735
 9215SOL    HW228545   0.285   3.199   2.897
 9216SOL     OW28546   2.947   5.350   3.831
 9216SOL    HW128547   2.965   5.252   3.828
 9216SOL    HW228548   2.923   5.382   3.739
 9217SOL     OW28549   4.319   0.692   6.256
 9217SOL    HW128550   4.336   0.694   6.157
 9217SOL    HW228551   4.326   0.785   6.293
 9218SOL     OW28552   5.652   5.322   6.000
 9218SOL    HW128553   5.606   5.355   6.083
 9218SOL    HW228554   5.647   5.222   5.997
 9219SOL     OW28555   3.458   2.639   5.713
 9219SOL    HW128556   3.365   2.657   5.744
 9219SOL    HW228557   3.465   2.663   5.616
 9220SOL     OW28558   0.330   6.794   3.400
 9220SOL    HW128559   0.336   6.730   3.323
 9220SOL    HW228560   0.234   6.819   3.415
 9221SOL     OW28561   2.023   1.537   0.128
 9221SOL    HW128562   1.927   1.518   0.107
 9221SOL    HW228563   2.061   1.599   0.059
 9222SOL     OW28564   1.775   3.072   4.272
 9222SOL    HW128565   1.784   3.112   4.363
 9222SOL    HW228566   1.802   2.976   4.275
 9223SOL     OW28567   0.308   2.956   4.971
 9223SOL    HW128568   0.251   2.886   4.927
 9223SOL    HW228569   0.284   3.045   4.934
 9224SOL     OW28570   2.442   4.612   3.615
 9224SOL    HW128571   2.447   4.605   3.515
 9224SOL    HW228572   2.414   4.704   3.641
 9225SOL     OW28573   5.577   5.722   6.207
 9225SOL    HW128574   5.489   5.691   6.172
 9225SOL    HW228575   5.637   5.746   6.131
 9226SOL     OW28576   0.847   0.909   0.979
 9226SOL    HW128577   0.921   0.842   0.970
 9226SOL    HW228578   0.806   0.901   1.070
 9227SOL     OW28579   2.415   4.285   0.379
 9227SOL    HW128580   2.358   4.229   0.320
 9227SOL    HW228581   2.510   4.256   0.372
 9228SOL     OW28582   3.527   3.227   5.451
 9228SOL    HW128583   3.468   3.223   5.371
 9228SOL    HW228584   3.591   3.303   5.442
 9229SOL     OW28585   0.292   4.586   0.233
 9229SOL    HW128586   0.310   4.572   0.136
 9229SOL    HW228587   0.257   4.679   0.246
 9230SOL     OW28588   4.775   1.461   4.796
 9230SOL    HW128589   4.776   1.522   4.875
 9230SOL    HW228590   4.820   1.505   4.719
 9231SOL     OW28591   6.505   6.057   3.224
 9231SOL    HW128592   6.514   6.154   3.248
 9231SOL    HW228593   6.584   6.028   3.171
 9232SOL     OW28594   1.049   5.026   2.422
 9232SOL    HW128595   1.059   5.046   2.520
 9232SOL    HW228596   1.114   4.955   2.396
 9233SOL     OW28597   0.344   6.594   6.725
 9233SOL    HW128598   0.304   6.674   6.768
 9233SOL    HW228599   0.430   6.619   6.679
 9234SOL     OW28600   2.389   3.992   0.112
 9234SOL    HW128601   2.379   4.000   0.211
 9234SOL    HW228602   2.302   3.962   0.072
 9235SOL     OW28603   1.628   2.182   2.800
 9235SOL    HW128604   1.591   2.253   2.860
 9235SOL    HW228605   1.722   2.161   2.827
 9236SOL     OW28606   2.110   3.195   6.652
 9236SOL    HW128607   2.089   3.180   6.556
 9236SOL    HW228608   2.081   3.287   6.678
 9237SOL     OW28609   4.963   5.274   3.109
 9237SOL    HW128610   4.874   5.284   3.063
 9237SOL    HW228611   5.000   5.183   3.089
 9238SOL     OW28612   1.191   2.696   4.819
 9238SOL    HW128613   1.164   2.687   4.724
 9238SOL    HW228614   1.127   2.646   4.877
 9239SOL     OW28615   1.398   4.873   6.753
 9239SOL    HW128616   1.483   4.886   6.804
 9239SOL    HW228617   1.329   4.834   6.813
 9240SOL     OW28618   4.161   1.710   3.258
 9240SOL    HW128619   4.253   1.706   3.297
 9240SOL    HW228620   4.163   1.768   3.176
 9241SOL     OW28621   5.347   0.002   0.988
 9241SOL    HW128622   5.263   6.996   0.942
 9241SOL    HW228623   5.374   0.091   0.951
 9242SOL     OW28624   1.814   2.400   0.053
 9242SOL    HW128625   1.777   2.446   6.996
 9242SOL    HW228626   1.785   2.449   0.135
 9243SOL     OW28627   1.434   0.783   0.004
 9243SOL    HW128628   1.454   0.855   6.961
 9243SOL    HW228629   1.400   0.825   0.088
 9244SOL     OW28630   3.478   6.662   5.863
 9244SOL    HW128631   3.461   6.632   5.769
 9244SOL    HW228632   3.456   6.759   5.872
 9245SOL     OW28633   1.300   4.983   3.363
 9245SOL    HW128634   1.241   4.917   3.409
 9245SOL    HW228635   1.274   5.076   3.390
 9246SOL     OW28636   5.525   6.938   6.573
 9246SOL    HW128637   5.448   6.875   6.580
 9246SOL    HW228638   5.519   6.989   6.487
 9247SOL     OW28639   4.053   5.788   3.269
 9247SOL    HW128640   4.134   5.781   3.211
 9247SOL    HW228641   3.992   5.710   3.251
 9248SOL     OW28642   2.524   0.302   6.366
 9248SOL    HW128643   2.429   0.306   6.399
 9248SOL    HW228644   2.527   0.332   6.270
 9249SOL     OW28645   3.253   6.323   0.943
 9249SOL    HW128646   3.245   6.414   0.984
 9249SOL    HW228647   3.310   6.329   0.861
 9250SOL     OW28648   0.345   2.829   4.353
 9250SOL    HW128649   0.411   2.863   4.420
 9250SOL    HW228650   0.336   2.896   4.279
 9251SOL     OW28651   3.046   2.653   0.374
 9251SOL    HW128652   2.970   2.588   0.369
 9251SOL    HW228653   3.080   2.658   0.468
 9252SOL     OW28654   5.424   1.906   5.159
 9252SOL    HW128655   5.335   1.941   5.187
 9252SOL    HW228656   5.462   1.848   5.232
 9253SOL     OW28657   1.019   5.815   5.340
 9253SOL    HW128658   1.054   5.812   5.246
 9253SOL    HW228659   0.951   5.887   5.348
 9254SOL     OW28660   6.994   4.773   2.693
 9254SOL    HW128661   0.062   4.762   2.655
 9254SOL    HW228662   6.928   4.726   2.635
 9255SOL     OW28663   6.778   4.312   0.647
 9255SOL    HW128664   6.699   4.250   0.642
 9255SOL    HW228665   6.754   4.393   0.701
 9256SOL     OW28666   2.838   6.432   1.066
 9256SOL    HW128667   2.772   6.452   1.138
 9256SOL    HW228668   2.906   6.505   1.061
 9257SOL     OW28669   6.373   5.855   4.144
 9257SOL    HW128670   6.458   5.829   4.190
 9257SOL    HW228671   6.300   5.864   4.212
 9258SOL     OW28672   3.124   4.862   1.034
 9258SOL    HW128673   3.116   4.886   1.131
 9258SOL    HW228674   3.065   4.783   1.015
 9259SOL     OW28675   1.401   1.963   6.895
 9259SOL    HW128676   1.456   1.943   6.813
 9259SOL    HW228677   1.319   1.907   6.894
 9260SOL     OW28678   5.443   3.663   4.974
 9260SOL    HW128679   5.440   3.564   4.967
 9260SOL    HW228680   5.497   3.689   5.054
 9261SOL     OW28681   3.431   2.149   1.808
 9261SOL    HW128682   3.510   2.209   1.821
 9261SOL    HW228683   3.392   2.164   1.717
 9262SOL     OW28684   6.660   6.264   5.093
 9262SOL    HW128685   6.630   6.185   5.040
 9262SOL    HW228686   6.599   6.277   5.171
 9263SOL     OW28687   2.030   4.560   3.583
 9263SOL    HW128688   2.084   4.538   3.502
 9263SOL    HW228689   2.036   4.658   3.602
 9264SOL     OW28690   5.531   4.283   6.640
 9264SOL    HW128691   5.437   4.260   6.666
 9264SOL    HW228692   5.540   4.280   6.540
 9265SOL     OW28693   5.953   1.618   1.265
 9265SOL    HW128694   5.881   1.676   1.227
 9265SOL    HW228695   5.994   1.565   1.192
 9266SOL     OW28696   1.539   4.739   1.416
 9266SOL    HW128697   1.566   4.644   1.399
 9266SOL    HW228698   1.444   4.752   1.391
 9267SOL     OW28699   0.017   0.558   4.148
 9267SOL    HW128700   7.024   0.654   4.127
 9267SOL    HW228701   6.954   0.509   4.155
 9268SOL     OW28702   0.744   0.319   1.396
 9268SOL    HW128703   0.717   0.396   1.339
 9268SOL    HW228704   0.803   0.350   1.470
 9269SOL     OW28705   3.275   1.245   0.150
 9269SOL    HW128706   3.337   1.259   0.227
 9269SOL    HW228707   3.212   1.323   0.143
 9270SOL     OW28708   1.830   0.198   5.869
 9270SOL    HW128709   1.911   0.195   5.927
 9270SOL    HW228710   1.757   0.246   5.916
 9271SOL     OW28711   1.201   5.758   4.862
 9271SOL    HW128712   1.184   5.682   4.799
 9271SOL    HW228713   1.231   5.838   4.811
 9272SOL     OW28714   6.755   6.251   6.387
 9272SOL    HW128715   6.825   6.296   6.443
 9272SOL    HW228716   6.781   6.254   6.291
 9273SOL     OW28717   4.605   4.395   3.450
 9273SOL    HW128718   4.623   4.350   3.363
 9273SOL    HW228719   4.690   4.434   3.486
 9274SOL     OW28720   0.232   3.051   0.785
 9274SOL    HW128721   0.220   3.111   0.706
 9274SOL    HW228722   0.329   3.027   0.795
 9275SOL     OW28723   6.980   0.854   0.837
 9275SOL    HW128724   6.992   0.815   0.928
 9275SOL    HW228725   0.039   0.841   0.784
 9276SOL     OW28726   2.592   5.475   0.210
 9276SOL    HW128727   2.603   5.408   0.283
 9276SOL    HW228728   2.551   5.558   0.247
 9277SOL     OW28729   5.287   5.408   1.869
 9277SOL    HW128730   5.357   5.474   1.894
 9277SOL    HW228731   5.296   5.326   1.927
 9278SOL     OW28732   0.888   0.327   5.333
 9278SOL    HW128733   0.927   0.404   5.281
 9278SOL    HW228734   0.941   0.244   5.313
 9279SOL     OW28735   3.749   6.046   1.451
 9279SOL    HW128736   3.732   6.093   1.364
 9279SOL    HW228737   3.805   6.104   1.510
 9280SOL     OW28738   1.514   6.530   2.586
 9280SOL    HW128739   1.612   6.540   2.599
 9280SOL    HW228740   1.490   6.554   2.491
 9281SOL     OW28741   2.222   5.291   6.974
 9281SOL    HW128742   2.315   5.315   7.001
 9281SOL    HW228743   2.217   5.281   6.875
 9282SOL     OW28744   3.295   0.327   5.140
 9282SOL    HW128745   3.376   0.374   5.106
 9282SOL    HW228746   3.321   0.263   5.212
 9283SOL     OW28747   4.285   6.681   0.974
 9283SOL    HW128748   4.317   6.599   0.926
 9283SOL    HW228749   4.294   6.760   0.913
 9284SOL     OW28750   4.503   4.068   5.385
 9284SOL    HW128751   4.562   3.995   5.351
 9284SOL    HW228752   4.408   4.047   5.363
 9285SOL     OW28753   0.612   5.050   2.750
 9285SOL    HW128754   0.518   5.081   2.767
 9285SOL    HW228755   0.645   5.089   2.664
 9286SOL     OW28756   4.833   6.570   1.552
 9286SOL    HW128757   4.735   6.576   1.532
 9286SOL    HW228758   4.865   6.658   1.587
 9287SOL     OW28759   3.865   3.659   5.700
 9287SOL    HW128760   3.956   3.701   5.708
 9287SOL    HW228761   3.875   3.562   5.677
 9288SOL     OW28762   3.900   1.841   2.593
 9288SOL    HW128763   3.922   1.871   2.500
 9288SOL    HW228764   3.801   1.838   2.605
 9289SOL     OW28765   5.069   6.337   0.548
 9289SOL    HW128766   5.094   6.401   0.475
 9289SOL    HW228767   5.148   6.280   0.571
 9290SOL     OW28768   4.858   1.272   4.321
 9290SOL    HW128769   4.805   1.226   4.391
 9290SOL    HW228770   4.800   1.292   4.242
 9291SOL     OW28771   0.970   4.297   6.339
 9291SOL    HW128772   0.916   4.289   6.423
 9291SOL    HW228773   1.068   4.294   6.362
 9292SOL     OW28774   0.701   1.417   6.822
 9292SOL    HW128775   0.760   1.346   6.860
 9292SOL    HW228776   0.736   1.507   6.849
 9293SOL     OW28777   5.103   2.856   4.249
 9293SOL    HW128778   5.014   2.883   4.284
 9293SOL    HW228779   5.167   2.843   4.325
 9294SOL     OW28780   4.620   0.177   6.555
 9294SOL    HW128781   4.533   0.212   6.519
 9294SOL    HW228782   4.669   0.130   6.481
 9295SOL     OW28783   0.683   0.835   4.760
 9295SOL    HW128784   0.683   0.920   4.709
 9295SOL    HW228785   0.614   0.773   4.722
 9296SOL     OW28786   2.365   4.613   6.282
 9296SOL    HW128787   2.370   4.710   6.255
 9296SOL    HW228788   2.280   4.596   6.332
 9297SOL     OW28789   6.290   6.288   2.216
 9297SOL    HW128790   6.315   6.192   2.233
 9297SOL    HW228791   6.338   6.321   2.135
 9298SOL     OW28792   1.280   5.029   6.525
 9298SOL    HW128793   1.329   5.011   6.610
 9298SOL    HW228794   1.185   4.998   6.534
 9299SOL     OW28795   2.433   2.715   4.646
 9299SOL    HW128796   2.411   2.794   4.589
 9299SOL    HW228797   2.433   2.744   4.742
 9300SOL     OW28798   1.935   5.687   4.771
 9300SOL    HW128799   1.850   5.681   4.823
 9300SOL    HW228800   2.012   5.700   4.834
 9301SOL     OW28801   0.240   4.485   4.673
 9301SOL    HW128802   0.323   4.449   4.629
 9301SOL    HW228803   0.163   4.478   4.610
 9302SOL     OW28804   2.092   3.416   5.030
 9302SOL    HW128805   1.993   3.417   5.012
 9302SOL    HW228806   2.127   3.323   5.018
 9303SOL     OW28807   2.409   4.389   0.095
 9303SOL    HW128808   2.506   4.370   0.113
 9303SOL    HW228809   2.396   4.399   7.020
 9304SOL     OW28810   4.826   4.841   6.772
 9304SOL    HW128811   4.845   4.781   6.694
 9304SOL    HW228812   4.747   4.806   6.823
 9305SOL     OW28813   2.238   1.679   1.317
 9305SOL    HW128814   2.259   1.776   1.321
 9305SOL    HW228815   2.191   1.651   1.401
 9306SOL     OW28816   7.002   6.260   5.268
 9306SOL    HW128817   0.073   6.278   5.293
 9306SOL    HW228818   6.941   6.301   5.336
 9307SOL     OW28819   1.534   3.443   1.670
 9307SOL    HW128820   1.605   3.383   1.632
 9307SOL    HW228821   1.464   3.459   1.600
 9308SOL     OW28822   1.833   3.393   1.963
 9308SOL    HW128823   1.779   3.477   1.955
 9308SOL    HW228824   1.899   3.403   2.037
 9309SOL     OW28825   4.601   4.776   6.536
 9309SOL    HW128826   4.572   4.867   6.566
 9309SOL    HW228827   4.656   4.784   6.453
 9310SOL     OW28828   5.990   6.474   6.635
 9310SOL    HW128829   6.052   6.456   6.559
 9310SOL    HW228830   5.925   6.398   6.643
 9311SOL     OW28831   4.428   3.740   1.339
 9311SOL    HW128832   4.520   3.722   1.306
 9311SOL    HW228833   4.369   3.662   1.317
 9312SOL     OW28834   0.612   3.193   3.399
 9312SOL    HW128835   0.677   3.181   3.324
 9312SOL    HW228836   0.642   3.269   3.456
 9313SOL     OW28837   0.643   0.994   2.071
 9313SOL    HW128838   0.619   0.938   2.150
 9313SOL    HW228839   0.701   0.941   2.009
 9314SOL     OW28840   5.209   3.987   0.686
 9314SOL    HW128841   5.219   3.889   0.703
 9314SOL    HW228842   5.214   4.004   0.587
 9315SOL     OW28843   4.732   6.758   6.141
 9315SOL    HW128844   4.698   6.796   6.055
 9315SOL    HW228845   4.714   6.822   6.215
 9316SOL     OW28846   5.208   0.819   5.566
 9316SOL    HW128847   5.204   0.738   5.624
 9316SOL    HW228848   5.116   0.847   5.541
 9317SOL     OW28849   3.709   5.973   2.610
 9317SOL    HW128850   3.632   5.921   2.572
 9317SOL    HW228851   3.779   5.984   2.540
 9318SOL     OW28852   3.829   6.626   1.598
 9318SOL    HW128853   3.806   6.675   1.514
 9318SOL    HW228854   3.895   6.553   1.578
 9319SOL     OW28855   3.461   2.742   6.543
 9319SOL    HW128856   3.389   2.722   6.610
 9319SOL    HW228857   3.540   2.782   6.589
 9320SOL     OW28858   6.218   6.445   0.020
 9320SOL    HW128859   6.230   6.395   6.958
 9320SOL    HW228860   6.303   6.491   0.044
 9321SOL     OW28861   0.281   3.248   5.050
 9321SOL    HW128862   0.194   3.244   5.099
 9321SOL    HW228863   0.349   3.294   5.107
 9322SOL     OW28864   5.973   3.072   6.742
 9322SOL    HW128865   5.972   3.171   6.734
 9322SOL    HW228866   5.881   3.039   6.762
 9323SOL     OW28867   0.351   1.954   5.999
 9323SOL    HW128868   0.399   1.866   6.005
 9323SOL    HW228869   0.406   2.017   5.944
 9324SOL     OW28870   0.762   4.382   2.161
 9324SOL    HW128871   0.709   4.328   2.096
 9324SOL    HW228872   0.845   4.416   2.117
 9325SOL     OW28873   0.968   4.422   3.309
 9325SOL    HW128874   0.923   4.445   3.396
 9325SOL    HW228875   0.916   4.461   3.234
 9326SOL     OW28876   4.613   4.310   1.676
 9326SOL    HW128877   4.634   4.382   1.742
 9326SOL    HW228878   4.533   4.259   1.707
 9327SOL     OW28879   3.743   0.806   3.196
 9327SOL    HW128880   3.767   0.902   3.207
 9327SOL    HW228881   3.645   0.799   3.175
 9328SOL     OW28882   2.313   0.213   3.946
 9328SOL    HW128883   2.222   0.256   3.942
 9328SOL    HW228884   2.317   0.154   4.027
 9329SOL     OW28885   0.217   5.643   6.449
 9329SOL    HW128886   0.307   5.601   6.459
 9329SOL    HW228887   0.206   5.716   6.517
 9330SOL     OW28888   6.531   6.221   0.114
 9330SOL    HW128889   6.526   6.156   0.038
 9330SOL    HW228890   6.465   6.195   0.184
 9331SOL     OW28891   2.200   3.189   3.640
 9331SOL    HW128892   2.235   3.183   3.546
 9331SOL    HW228893   2.168   3.099   3.669
 9332SOL     OW28894   5.092   5.830   0.673
 9332SOL    HW128895   5.026   5.898   0.641
 9332SOL    HW228896   5.125   5.857   0.764
 9333SOL     OW28897   4.098   3.668   0.740
 9333SOL    HW128898   4.159   3.743   0.713
 9333SOL    HW228899   4.118   3.641   0.835
 9334SOL     OW28900   6.026   6.075   5.800
 9334SOL    HW128901   6.047   6.010   5.873
 9334SOL    HW228902   5.935   6.113   5.814
 9335SOL     OW28903   0.848   3.671   2.220
 9335SOL    HW128904   0.800   3.682   2.133
 9335SOL    HW228905   0.946   3.669   2.204
 9336SOL     OW28906   5.801   6.776   5.670
 9336SOL    HW128907   5.718   6.773   5.725
 9336SOL    HW228908   5.879   6.799   5.729
 9337SOL     OW28909   2.506   0.303   6.086
 9337SOL    HW128910   2.518   0.354   6.001
 9337SOL    HW228911   2.433   0.236   6.074
 9338SOL     OW28912   5.537   6.637   0.097
 9338SOL    HW128913   5.597   6.661   0.173
 9338SOL    HW228914   5.443   6.661   0.120
 9339SOL     OW28915   6.373   3.961   5.459
 9339SOL    HW128916   6.299   3.911   5.505
 9339SOL    HW228917   6.333   4.026   5.394
 9340SOL     OW28918   3.560   4.963   0.848
 9340SOL    HW128919   3.530   5.030   0.781
 9340SOL    HW228920   3.482   4.934   0.904
 9341SOL     OW28921   5.192   4.399   6.449
 9341SOL    HW128922   5.186   4.327   6.519
 9341SOL    HW228923   5.184   4.358   6.358
 9342SOL     OW28924   3.464   0.413   3.940
 9342SOL    HW128925   3.498   0.495   3.894
 9342SOL    HW228926   3.397   0.439   4.010
 9343SOL     OW28927   4.593   4.241   1.274
 9343SOL    HW128928   4.581   4.170   1.205
 9343SOL    HW228929   4.680   4.288   1.260
 9344SOL     OW28930   6.136   6.975   5.238
 9344SOL    HW128931   6.225   6.999   5.198
 9344SOL    HW228932   6.070   0.023   5.219
 9345SOL     OW28933   0.980   5.333   0.177
 9345SOL    HW128934   0.955   5.258   0.238
 9345SOL    HW228935   0.986   5.298   0.083
 9346SOL     OW28936   5.972   6.409   1.128
 9346SOL    HW128937   6.060   6.398   1.174
 9346SOL    HW228938   5.955   6.329   1.071
 9347SOL     OW28939   3.414   5.456   0.755
 9347SOL    HW128940   3.362   5.540   0.737
 9347SOL    HW228941   3.381   5.413   0.838
 9348SOL     OW28942   2.452   5.868   1.450
 9348SOL    HW128943   2.459   5.962   1.484
 9348SOL    HW228944   2.543   5.833   1.429
 9349SOL     OW28945   6.861   5.968   1.936
 9349SOL    HW128946   6.869   5.960   2.036
 9349SOL    HW228947   6.791   5.905   1.904
 9350SOL     OW28948   6.690   0.609   5.967
 9350SOL    HW128949   6.777   0.566   5.995
 9350SOL    HW228950   6.689   0.704   5.998
 9351SOL     OW28951   3.450   2.807   6.121
 9351SOL    HW128952   3.405   2.867   6.188
 9351SOL    HW228953   3.381   2.764   6.064
 9352SOL     OW28954   3.462   2.386   5.823
 9352SOL    HW128955   3.364   2.388   5.804
 9352SOL    HW228956   3.498   2.479   5.819
 9353SOL     OW28957   0.697   3.602   1.677
 9353SOL    HW128958   0.604   3.625   1.649
 9353SOL    HW228959   0.704   3.504   1.694
 9354SOL     OW28960   5.029   1.899   1.534
 9354SOL    HW128961   4.966   1.840   1.585
 9354SOL    HW228962   5.035   1.988   1.579
 9355SOL     OW28963   6.124   0.880   2.732
 9355SOL    HW128964   6.085   0.891   2.640
 9355SOL    HW228965   6.088   0.796   2.774
 9356SOL     OW28966   4.387   4.576   2.322
 9356SOL    HW128967   4.335   4.596   2.239
 9356SOL    HW228968   4.439   4.492   2.311
 9357SOL     OW28969   3.228   3.049   0.663
 9357SOL    HW128970   3.309   3.047   0.721
 9357SOL    HW228971   3.236   3.124   0.597
 9358SOL     OW28972   5.906   4.768   2.308
 9358SOL    HW128973   5.984   4.762   2.246
 9358SOL    HW228974   5.928   4.829   2.384
 9359SOL     OW28975   6.353   4.042   6.334
 9359SOL    HW128976   6.265   4.060   6.290
 9359SOL    HW228977   6.338   3.992   6.419
 9360SOL     OW28978   1.716   0.540   6.356
 9360SOL    HW128979   1.725   0.452   6.311
 9360SOL    HW228980   1.788   0.601   6.324
 9361SOL     OW28981   2.945   0.173   2.295
 9361SOL    HW128982   3.027   0.134   2.254
 9361SOL    HW228983   2.937   0.269   2.267
 9362SOL     OW28984   2.336   2.045   3.257
 9362SOL    HW128985   2.375   2.098   3.183
 9362SOL    HW228986   2.259   1.990   3.222
 9363SOL     OW28987   3.132   6.002   2.056
 9363SOL    HW128988   3.187   5.939   2.110
 9363SOL    HW228989   3.050   5.954   2.023
 9364SOL     OW28990   5.239   4.822   0.266
 9364SOL    HW128991   5.176   4.798   0.193
 9364SOL    HW228992   5.200   4.896   0.321
 9365SOL     OW28993   2.321   1.281   4.941
 9365SOL    HW128994   2.402   1.246   4.894
 9365SOL    HW228995   2.346   1.361   4.995
 9366SOL     OW28996   2.920   1.801   0.511
 9366SOL    HW128997   2.999   1.856   0.539
 9366SOL    HW228998   2.919   1.715   0.563
 9367SOL     OW28999   6.571   5.566   3.237
 9367SOL    HW129000   6.569   5.484   3.181
 9367SOL    HW229001   6.619   5.547   3.322
 9368SOL     OW29002   3.170   2.504   1.084
 9368SOL    HW129003   3.201   2.587   1.129
 9368SOL    HW229004   3.107   2.455   1.144
 9369SOL     OW29005   0.092   2.461   4.737
 9369SOL    HW129006   0.021   2.520   4.775
 9369SOL    HW229007   0.179   2.479   4.783
 9370SOL     OW29008   6.393   1.261   3.161
 9370SOL    HW129009   6.426   1.182   3.212
 9370SOL    HW229010   6.462   1.288   3.093
 9371SOL     OW29011   0.364   6.698   0.697
 9371SOL    HW129012   0.295   6.745   0.753
 9371SOL    HW229013   0.438   6.762   0.674
 9372SOL     OW29014   5.962   0.154   5.166
 9372SOL    HW129015   5.970   0.191   5.074
 9372SOL    HW229016   5.927   0.225   5.228
 9373SOL     OW29017   3.993   1.799   3.442
 9373SOL    HW129018   4.049   1.770   3.364
 9373SOL    HW229019   4.046   1.788   3.526
 9374SOL     OW29020   5.304   3.693   0.696
 9374SOL    HW129021   5.327   3.668   0.602
 9374SOL    HW229022   5.281   3.611   0.748
 9375SOL     OW29023   0.740   0.898   3.206
 9375SOL    HW129024   0.757   0.815   3.259
 9375SOL    HW229025   0.814   0.964   3.221
 9376SOL     OW29026   1.859   3.814   1.954
 9376SOL    HW129027   1.810   3.729   1.974
 9376SOL    HW229028   1.918   3.801   1.875
 9377SOL     OW29029   6.052   5.756   4.063
 9377SOL    HW129030   6.041   5.657   4.053
 9377SOL    HW229031   6.146   5.782   4.038
 9378SOL     OW29032   2.712   7.019   0.483
 9378SOL    HW129033   2.665   0.078   0.453
 9378SOL    HW229034   2.688   6.999   0.578
 9379SOL     OW29035   5.140   4.595   4.256
 9379SOL    HW129036   5.065   4.656   4.279
 9379SOL    HW229037   5.133   4.511   4.310
 9380SOL     OW29038   5.589   6.908   5.888
 9380SOL    HW129039   5.540   6.916   5.801
 9380SOL    HW229040   5.596   6.812   5.914
 9381SOL     OW29041   2.425   1.619   5.939
 9381SOL    HW129042   2.424   1.715   5.912
 9381SOL    HW229043   2.493   1.605   6.011
 9382SOL     OW29044   5.227   2.179   3.183
 9382SOL    HW129045   5.183   2.268   3.169
 9382SOL    HW229046   5.260   2.145   3.095
 9383SOL     OW29047   3.902   5.966   4.194
 9383SOL    HW129048   3.974   5.897   4.189
 9383SOL    HW229049   3.823   5.928   4.243
 9384SOL     OW29050   4.662   5.568   1.355
 9384SOL    HW129051   4.644   5.482   1.307
 9384SOL    HW229052   4.743   5.558   1.413
 9385SOL     OW29053   3.313   1.126   3.529
 9385SOL    HW129054   3.337   1.199   3.466
 9385SOL    HW229055   3.219   1.137   3.561
 9386SOL     OW29056   2.852   6.953   5.096
 9386SOL    HW129057   2.899   7.000   5.171
 9386SOL    HW229058   2.811   6.868   5.131
 9387SOL     OW29059   3.757   6.998   6.917
 9387SOL    HW129060   3.810   6.913   6.921
 9387SOL    HW229061   3.674   6.983   6.864
 9388SOL     OW29062   6.471   0.353   3.115
 9388SOL    HW129063   6.400   0.371   3.183
 9388SOL    HW229064   6.503   0.259   3.124
 9389SOL     OW29065   2.538   0.672   5.701
 9389SOL    HW129066   2.630   0.663   5.663
 9389SOL    HW229067   2.543   0.720   5.788
 9390SOL     OW29068   2.931   5.133   2.443
 9390SOL    HW129069   3.008   5.196   2.449
 9390SOL    HW229070   2.877   5.153   2.361
 9391SOL     OW29071   0.964   1.120   5.972
 9391SOL    HW129072   0.991   1.151   5.880
 9391SOL    HW229073   0.988   1.024   5.982
 9392SOL     OW29074   1.335   5.893   4.151
 9392SOL    HW129075   1.293   5.881   4.061
 9392SOL    HW229076   1.415   5.834   4.158
 9393SOL     OW29077   3.679   2.187   5.218
 9393SOL    HW129078   3.579   2.192   5.217
 9393SOL    HW229079   3.711   2.146   5.133
 9394SOL     OW29080   6.200   2.540   2.708
 9394SOL    HW129081   6.209   2.451   2.663
 9394SOL    HW229082   6.210   2.613   2.640
 9395SOL     OW29083   2.420   3.239   0.547
 9395SOL    HW129084   2.349   3.201   0.605
 9395SOL    HW229085   2.404   3.210   0.452
 9396SOL     OW29086   6.367   0.274   6.109
 9396SOL    HW129087   6.305   0.330   6.054
 9396SOL    HW229088   6.319   0.243   6.191
 9397SOL     OW29089   2.667   0.793   1.008
 9397SOL    HW129090   2.675   0.807   0.909
 9397SOL    HW229091   2.646   0.697   1.026
 9398SOL     OW29092   2.838   1.306   6.348
 9398SOL    HW129093   2.936   1.304   6.329
 9398SOL    HW229094   2.793   1.232   6.300
 9399SOL     OW29095   6.998   0.636   5.593
 9399SOL    HW129096   6.960   0.650   5.501
 9399SOL    HW229097   6.942   0.571   5.643
 9400SOL     OW29098   5.992   2.809   2.570
 9400SOL    HW129099   5.912   2.782   2.516
 9400SOL    HW229100   6.030   2.893   2.531
 9401SOL     OW29101   3.268   6.955   2.866
 9401SOL    HW129102   3.336   6.889   2.898
 9401SOL    HW229103   3.257   6.946   2.767
 9402SOL     OW29104   2.112   4.912   6.146
 9402SOL    HW129105   2.165   4.871   6.072
 9402SOL    HW229106   2.095   4.842   6.216
 9403SOL     OW29107   5.178   1.514   4.103
 9403SOL    HW129108   5.165   1.427   4.151
 9403SOL    HW229109   5.252   1.565   4.146
 9404SOL     OW29110   1.389   4.171   6.722
 9404SOL    HW129111   1.387   4.076   6.691
 9404SOL    HW229112   1.323   4.183   6.797
 9405SOL     OW29113   6.383   0.093   1.268
 9405SOL    HW129114   6.394   0.025   1.195
 9405SOL    HW229115   6.365   0.047   1.355
 9406SOL     OW29116   0.250   1.704   5.283
 9406SOL    HW129117   0.191   1.701   5.364
 9406SOL    HW229118   0.215   1.774   5.220
 9407SOL     OW29119   3.158   6.053   2.961
 9407SOL    HW129120   3.253   6.049   2.993
 9407SOL    HW229121   3.105   6.111   3.024
 9408SOL     OW29122   3.689   1.780   6.078
 9408SOL    HW129123   3.680   1.858   6.140
 9408SOL    HW229124   3.681   1.695   6.129
 9409SOL     OW29125   5.721   4.290   3.877
 9409SOL    HW129126   5.816   4.310   3.903
 9409SOL    HW229127   5.660   4.351   3.927
 9410SOL     OW29128   4.299   6.159   2.550
 9410SOL    HW129129   4.385   6.133   2.596
 9410SOL    HW229130   4.304   6.134   2.454
 9411SOL     OW29131   4.595   4.885   0.559
 9411SOL    HW129132   4.661   4.953   0.592
 9411SOL    HW229133   4.626   4.793   0.583
 9412SOL     OW29134   6.899   2.576   1.198
 9412SOL    HW129135   6.953   2.642   1.250
 9412SOL    HW229136   6.841   2.625   1.132
 9413SOL     OW29137   3.595   6.044   5.826
 9413SOL    HW129138   3.574   5.984   5.748
 9413SOL    HW229139   3.616   6.136   5.792
 9414SOL     OW29140   2.820   1.625   1.862
 9414SOL    HW129141   2.774   1.537   1.871
 9414SOL    HW229142   2.884   1.622   1.785
 9415SOL     OW29143   3.105   6.757   2.141
 9415SOL    HW129144   3.044   6.817   2.089
 9415SOL    HW229145   3.057   6.672   2.163
 9416SOL     OW29146   0.972   2.242   1.806
 9416SOL    HW129147   1.058   2.197   1.781
 9416SOL    HW229148   0.903   2.173   1.826
 9417SOL     OW29149   2.763   5.672   5.399
 9417SOL    HW129150   2.815   5.588   5.414
 9417SOL    HW229151   2.766   5.696   5.302
 9418SOL     OW29152   2.996   5.276   0.759
 9418SOL    HW129153   2.918   5.337   0.774
 9418SOL    HW229154   3.040   5.256   0.847
 9419SOL     OW29155   2.625   6.877   5.268
 9419SOL    HW129156   2.643   6.920   5.357
 9419SOL    HW229157   2.547   6.923   5.225
 9420SOL     OW29158   0.101   1.337   4.611
 9420SOL    HW129159   0.164   1.373   4.679
 9420SOL    HW229160   0.136   1.250   4.576
 9421SOL     OW29161   1.185   4.709   5.624
 9421SOL    HW129162   1.208   4.647   5.698
 9421SOL    HW229163   1.119   4.665   5.563
 9422SOL     OW29164   4.836   1.027   2.302
 9422SOL    HW129165   4.799   1.108   2.346
 9422SOL    HW229166   4.790   0.945   2.337
 9423SOL     OW29167   4.017   0.775   4.560
 9423SOL    HW129168   3.934   0.816   4.599
 9423SOL    HW229169   3.991   0.706   4.493
 9424SOL     OW29170   3.146   6.190   4.382
 9424SOL    HW129171   3.080   6.154   4.316
 9424SOL    HW229172   3.098   6.249   4.447
 9425SOL     OW29173   1.384   3.189   4.366
 9425SOL    HW129174   1.447   3.228   4.299
 9425SOL    HW229175   1.436   3.147   4.441
 9426SOL     OW29176   3.590   0.063   0.110
 9426SOL    HW129177   3.627   0.058   0.202
 9426SOL    HW229178   3.664   0.075   0.044
 9427SOL     OW29179   2.961   5.350   4.742
 9427SOL    HW129180   3.005   5.378   4.828
 9427SOL    HW229181   2.942   5.431   4.686
 9428SOL     OW29182   5.359   0.118   2.994
 9428SOL    HW129183   5.271   0.114   2.947
 9428SOL    HW229184   5.343   0.112   3.093
 9429SOL     OW29185   0.391   4.084   2.588
 9429SOL    HW129186   0.485   4.090   2.556
 9429SOL    HW229187   0.385   4.018   2.663
 9430SOL     OW29188   6.441   6.943   1.833
 9430SOL    HW129189   6.517   6.927   1.771
 9430SOL    HW229190   6.466   6.910   1.925
 9431SOL     OW29191   6.843   4.295   1.526
 9431SOL    HW129192   6.889   4.258   1.606
 9431SOL    HW229193   6.875   4.247   1.444
 9432SOL     OW29194   6.580   6.849   3.277
 9432SOL    HW129195   6.527   6.788   3.219
 9432SOL    HW229196   6.524   6.878   3.355
 9433SOL     OW29197   3.504   5.011   5.393
 9433SOL    HW129198   3.435   5.001   5.322
 9433SOL    HW229199   3.592   4.979   5.359
 9434SOL     OW29200   5.135   5.134   2.617
 9434SOL    HW129201   5.127   5.035   2.602
 9434SOL    HW229202   5.191   5.174   2.544
 9435SOL     OW29203   1.587   0.714   4.214
 9435SOL    HW129204   1.636   0.797   4.240
 9435SOL    HW229205   1.489   0.729   4.223
 9436SOL     OW29206   2.091   3.474   0.212
 9436SOL    HW129207   2.175   3.518   0.245
 9436SOL    HW229208   2.114   3.406   0.143
 9437SOL     OW29209   1.544   5.045   3.902
 9437SOL    HW129210   1.628   5.014   3.946
 9437SOL    HW229211   1.503   4.969   3.852
 9438SOL     OW29212   0.983   6.602   2.099
 9438SOL    HW129213   1.016   6.626   2.190
 9438SOL    HW229214   0.969   6.686   2.046
 9439SOL     OW29215   0.382   2.491   2.037
 9439SOL    HW129216   0.394   2.583   2.002
 9439SOL    HW229217   0.469   2.458   2.074
 9440SOL     OW29218   5.161   6.211   6.243
 9440SOL    HW129219   5.192   6.122   6.211
 9440SOL    HW229220   5.240   6.269   6.262
 9441SOL     OW29221   1.736   5.081   5.452
 9441SOL    HW129222   1.690   5.008   5.401
 9441SOL    HW229223   1.707   5.077   5.548
 9442SOL     OW29224   6.803   3.189   1.430
 9442SOL    HW129225   6.742   3.222   1.357
 9442SOL    HW229226   6.831   3.095   1.410
 9443SOL     OW29227   1.947   4.024   1.693
 9443SOL    HW129228   1.870   3.996   1.749
 9443SOL    HW229229   1.945   3.976   1.605
 9444SOL     OW29230   0.528   3.655   0.207
 9444SOL    HW129231   0.465   3.584   0.238
 9444SOL    HW229232   0.577   3.623   0.126
 9445SOL     OW29233   5.517   3.623   1.666
 9445SOL    HW129234   5.547   3.626   1.571
 9445SOL    HW229235   5.576   3.561   1.718
 9446SOL     OW29236   6.506   6.168   1.581
 9446SOL    HW129237   6.588   6.180   1.526
 9446SOL    HW229238   6.496   6.071   1.604
 9447SOL     OW29239   6.082   3.339   2.258
 9447SOL    HW129240   6.151   3.277   2.222
 9447SOL    HW229241   6.057   3.406   2.188
 9448SOL     OW29242   5.734   6.625   0.479
 9448SOL    HW129243   5.667   6.570   0.428
 9448SOL    HW229244   5.799   6.564   0.524
 9449SOL     OW29245   6.012   4.933   5.677
 9449SOL    HW129246   6.069   4.856   5.649
 9449SOL    HW229247   6.006   4.936   5.777
 9450SOL     OW29248   3.070   4.861   4.674
 9450SOL    HW129249   3.036   4.842   4.766
 9450SOL    HW229250   3.004   4.828   4.607
 9451SOL     OW29251   4.675   5.076   6.137
 9451SOL    HW129252   4.594   5.079   6.077
 9451SOL    HW229253   4.687   5.165   6.180
 9452SOL     OW29254   2.685   4.872   1.722
 9452SOL    HW129255   2.713   4.918   1.637
 9452SOL    HW229256   2.761   4.817   1.756
 9453SOL     OW29257   2.483   5.452   2.658
 9453SOL    HW129258   2.571   5.412   2.629
 9453SOL    HW229259   2.479   5.547   2.630
 9454SOL     OW29260   1.765   3.369   5.599
 9454SOL    HW129261   1.708   3.306   5.546
 9454SOL    HW229262   1.846   3.392   5.545
 9455SOL     OW29263   3.570   1.632   2.268
 9455SOL    HW129264   3.651   1.668   2.222
 9455SOL    HW229265   3.524   1.707   2.316
 9456SOL     OW29266   1.220   3.610   1.191
 9456SOL    HW129267   1.138   3.553   1.199
 9456SOL    HW229268   1.198   3.692   1.138
 9457SOL     OW29269   0.891   3.147   0.639
 9457SOL    HW129270   0.801   3.110   0.664
 9457SOL    HW229271   0.880   3.240   0.605
 9458SOL     OW29272   6.660   5.309   5.047
 9458SOL    HW129273   6.569   5.268   5.037
 9458SOL    HW229274   6.691   5.299   5.142
 9459SOL     OW29275   6.482   5.871   1.663
 9459SOL    HW129276   6.463   5.781   1.625
 9459SOL    HW229277   6.533   5.863   1.748
 9460SOL     OW29278   0.784   2.000   4.937
 9460SOL    HW129279   0.877   2.010   4.901
 9460SOL    HW229280   0.719   2.036   4.870
 9461SOL     OW29281   1.144   0.736   4.010
 9461SOL    HW129282   1.090   0.792   3.947
 9461SOL    HW229283   1.083   0.690   4.074
 9462SOL     OW29284   0.852   2.616   2.368
 9462SOL    HW129285   0.876   2.662   2.283
 9462SOL    HW229286   0.935   2.586   2.415
 9463SOL     OW29287   5.540   1.579   0.178
 9463SOL    HW129288   5.537   1.675   0.208
 9463SOL    HW229289   5.615   1.532   0.224
 9464SOL     OW29290   5.853   0.261   6.016
 9464SOL    HW129291   5.851   0.348   5.966
 9464SOL    HW229292   5.762   0.242   6.053
 9465SOL     OW29293   6.198   0.706   4.349
 9465SOL    HW129294   6.296   0.692   4.359
 9465SOL    HW229295   6.175   0.715   4.252
 9466SOL     OW29296   2.876   2.654   6.298
 9466SOL    HW129297   2.961   2.697   6.267
 9466SOL    HW229298   2.815   2.639   6.221
 9467SOL     OW29299   2.033   3.358   2.175
 9467SOL    HW129300   2.103   3.411   2.128
 9467SOL    HW229301   1.995   3.412   2.250
 9468SOL     OW29302   0.155   3.151   5.521
 9468SOL    HW129303   0.222   3.148   5.447
 9468SOL    HW229304   0.111   3.240   5.523
 9469SOL     OW29305   6.184   5.255   2.237
 9469SOL    HW129306   6.241   5.284   2.160
 9469SOL    HW229307   6.178   5.329   2.304
 9470SOL     OW29308   4.623   3.816   0.990
 9470SOL    HW129309   4.638   3.827   0.891
 9470SOL    HW229310   4.636   3.720   1.015
 9471SOL     OW29311   0.308   2.151   5.749
 9471SOL    HW129312   0.407   2.167   5.739
 9471SOL    HW229313   0.260   2.239   5.746
 9472SOL     OW29314   5.918   4.569   4.077
 9472SOL    HW129315   5.914   4.524   4.166
 9472SOL    HW229316   5.989   4.639   4.077
 9473SOL     OW29317   2.833   5.478   6.203
 9473SOL    HW129318   2.741   5.449   6.178
 9473SOL    HW229319   2.841   5.577   6.190
 9474SOL     OW29320   4.199   4.951   1.877
 9474SOL    HW129321   4.104   4.967   1.849
 9474SOL    HW229322   4.202   4.930   1.974
 9475SOL     OW29323   2.530   3.462   1.436
 9475SOL    HW129324   2.508   3.559   1.442
 9475SOL    HW229325   2.445   3.409   1.429
 9476SOL     OW29326   3.783   3.304   5.177
 9476SOL    HW129327   3.730   3.372   5.228
 9476SOL    HW229328   3.721   3.239   5.133
 9477SOL     OW29329   1.171   2.784   1.425
 9477SOL    HW129330   1.239   2.831   1.370
 9477SOL    HW229331   1.184   2.685   1.417
 9478SOL     OW29332   5.643   4.637   5.527
 9478SOL    HW129333   5.705   4.578   5.475
 9478SOL    HW229334   5.643   4.609   5.623
 9479SOL     OW29335   6.148   5.650   6.707
 9479SOL    HW129336   6.179   5.575   6.767
 9479SOL    HW229337   6.228   5.695   6.668
 9480SOL     OW29338   5.785   4.934   6.988
 9480SOL    HW129339   5.767   5.032   6.983
 9480SOL    HW229340   5.711   4.889   0.013
 9481SOL     OW29341   6.981   3.435   2.110
 9481SOL    HW129342   6.902   3.415   2.168
 9481SOL    HW229343   7.017   3.525   2.133
 9482SOL     OW29344   4.654   1.198   2.053
 9482SOL    HW129345   4.733   1.249   2.084
 9482SOL    HW229346   4.683   1.125   1.991
 9483SOL     OW29347   1.392   1.466   6.860
 9483SOL    HW129348   1.417   1.372   6.836
 9483SOL    HW229349   1.326   1.502   6.794
 9484SOL     OW29350   6.824   1.285   4.107
 9484SOL    HW129351   6.738   1.318   4.146
 9484SOL    HW229352   6.897   1.349   4.128
 9485SOL     OW29353   1.079   0.867   2.477
 9485SOL    HW129354   1.060   0.825   2.566
 9485SOL    HW229355   0.997   0.915   2.445
 9486SOL     OW29356   2.879   6.212   1.495
 9486SOL    HW129357   2.955   6.246   1.439
 9486SOL    HW229358   2.913   6.182   1.584
 9487SOL     OW29359   3.471   3.562   3.921
 9487SOL    HW129360   3.570   3.550   3.925
 9487SOL    HW229361   3.438   3.531   3.832
 9488SOL     OW29362   1.160   6.501   1.348
 9488SOL    HW129363   1.163   6.420   1.289
 9488SOL    HW229364   1.107   6.480   1.430
 9489SOL     OW29365   3.841   4.933   1.061
 9489SOL    HW129366   3.764   4.931   0.997
 9489SOL    HW229367   3.891   5.019   1.050
 9490SOL     OW29368   5.073   0.960   1.348
 9490SOL    HW129369   5.129   1.039   1.326
 9490SOL    HW229370   5.084   0.935   1.444
 9491SOL     OW29371   5.659   4.904   5.460
 9491SOL    HW129372   5.561   4.921   5.472
 9491SOL    HW229373   5.679   4.808   5.479
 9492SOL     OW29374   3.573   4.258   1.525
 9492SOL    HW129375   3.560   4.292   1.618
 9492SOL    HW229376   3.593   4.160   1.527
 9493SOL     OW29377   4.669   6.169   2.780
 9493SOL    HW129378   4.705   6.262   2.773
 9493SOL    HW229379   4.672   6.139   2.875
 9494SOL     OW29380   4.643   3.014   5.471
 9494SOL    HW129381   4.671   3.108   5.452
 9494SOL    HW229382   4.591   3.011   5.557
 9495SOL     OW29383   5.931   2.235   4.994
 9495SOL    HW129384   5.921   2.332   4.973
 9495SOL    HW229385   5.940   2.222   5.092
 9496SOL     OW29386   5.628   4.137   6.899
 9496SOL    HW129387   5.588   4.147   6.808
 9496SOL    HW229388   5.702   4.070   6.896
 9497SOL     OW29389   5.469   5.618   6.726
 9497SOL    HW129390   5.394   5.638   6.790
 9497SOL    HW229391   5.553   5.602   6.777
 9498SOL     OW29392   3.786   6.990   6.269
 9498SOL    HW129393   3.797   0.065   6.269
 9498SOL    HW229394   3.813   6.952   6.180
 9499SOL     OW29395   2.884   3.797   5.618
 9499SOL    HW129396   2.914   3.703   5.635
 9499SOL    HW229397   2.784   3.801   5.617
 9500SOL     OW29398   4.267   5.823   1.862
 9500SOL    HW129399   4.350   5.771   1.842
 9500SOL    HW229400   4.255   5.831   1.961
 9501SOL     OW29401   3.389   1.444   4.368
 9501SOL    HW129402   3.365   1.458   4.464
 9501SOL    HW229403   3.475   1.393   4.362
 9502SOL     OW29404   6.100   2.673   4.945
 9502SOL    HW129405   6.183   2.678   5.000
 9502SOL    HW229406   6.115   2.614   4.866
 9503SOL     OW29407   1.104   6.995   1.884
 9503SOL    HW129408   1.195   6.955   1.882
 9503SOL    HW229409   1.103   0.047   1.949
 9504SOL     OW29410   0.777   2.944   0.394
 9504SOL    HW129411   0.873   2.942   0.364
 9504SOL    HW229412   0.773   2.970   0.490
 9505SOL     OW29413   6.058   2.867   3.423
 9505SOL    HW129414   6.157   2.869   3.437
 9505SOL    HW229415   6.015   2.940   3.476
 9506SOL     OW29416   0.271   3.853   0.478
 9506SOL    HW129417   0.320   3.903   0.407
 9506SOL    HW229418   0.176   3.884   0.481
 9507SOL     OW29419   0.764   1.546   3.372
 9507SOL    HW129420   0.742   1.549   3.470
 9507SOL    HW229421   0.864   1.549   3.361
 9508SOL     OW29422   5.679   1.612   0.831
 9508SOL    HW129423   5.657   1.665   0.913
 9508SOL    HW229424   5.692   1.674   0.754
 9509SOL     OW29425   2.204   6.283   5.594
 9509SOL    HW129426   2.110   6.319   5.603
 9509SOL    HW229427   2.203   6.184   5.607
 9510SOL     OW29428   6.019   4.528   3.037
 9510SOL    HW129429   5.994   4.614   3.081
 9510SOL    HW229430   6.103   4.540   2.984
 9511SOL     OW29431   0.668   2.040   0.487
 9511SOL    HW129432   0.596   2.102   0.518
 9511SOL    HW229433   0.748   2.049   0.547
 9512SOL     OW29434   0.964   2.031   4.130
 9512SOL    HW129435   1.030   2.005   4.200
 9512SOL    HW229436   0.930   2.123   4.147
 9513SOL     OW29437   2.082   3.936   4.433
 9513SOL    HW129438   2.132   4.022   4.440
 9513SOL    HW229439   2.114   3.885   4.353
 9514SOL     OW29440   1.793   3.298   0.210
 9514SOL    HW129441   1.811   3.248   0.125
 9514SOL    HW229442   1.861   3.274   0.278
 9515SOL     OW29443   2.025   5.973   6.536
 9515SOL    HW129444   1.985   6.000   6.624
 9515SOL    HW229445   1.956   5.924   6.483
 9516SOL     OW29446   5.487   3.926   3.954
 9516SOL    HW129447   5.404   3.981   3.961
 9516SOL    HW229448   5.493   3.886   3.863
 9517SOL     OW29449   0.425   5.692   1.448
 9517SOL    HW129450   0.401   5.630   1.373
 9517SOL    HW229451   0.467   5.641   1.522
 9518SOL     OW29452   0.657   2.550   6.328
 9518SOL    HW129453   0.649   2.455   6.296
 9518SOL    HW229454   0.616   2.557   6.419
 9519SOL     OW29455   3.447   3.735   2.907
 9519SOL    HW129456   3.443   3.639   2.935
 9519SOL    HW229457   3.541   3.759   2.883
 9520SOL     OW29458   7.017   0.259   5.302
 9520SOL    HW129459   6.952   0.186   5.283
 9520SOL    HW229460   6.969   0.347   5.302
 9521SOL     OW29461   3.253   0.646   0.551
 9521SOL    HW129462   3.318   0.696   0.494
 9521SOL    HW229463   3.159   0.666   0.521
 9522SOL     OW29464   3.717   6.165   1.199
 9522SOL    HW129465   3.796   6.223   1.178
 9522SOL    HW229466   3.651   6.169   1.123
 9523SOL     OW29467   2.255   5.128   4.019
 9523SOL    HW129468   2.337   5.183   4.009
 9523SOL    HW229469   2.249   5.092   4.112
 9524SOL     OW29470   1.841   4.328   1.409
 9524SOL    HW129471   1.808   4.240   1.443
 9524SOL    HW229472   1.941   4.332   1.418
 9525SOL     OW29473   1.986   2.849   5.432
 9525SOL    HW129474   1.920   2.924   5.431
 9525SOL    HW229475   1.950   2.772   5.380
 9526SOL     OW29476   5.119   5.117   0.070
 9526SOL    HW129477   5.123   5.076   7.002
 9526SOL    HW229478   5.030   5.099   0.111
 9527SOL     OW29479   3.479   6.783   3.258
 9527SOL    HW129480   3.456   6.759   3.352
 9527SOL    HW229481   3.577   6.804   3.252
 9528SOL     OW29482   5.815   1.372   0.888
 9528SOL    HW129483   5.741   1.430   0.850
 9528SOL    HW229484   5.775   1.294   0.935
 9529SOL     OW29485   6.248   2.150   1.792
 9529SOL    HW129486   6.283   2.117   1.704
 9529SOL    HW229487   6.267   2.247   1.801
 9530SOL     OW29488   0.588   5.606   3.879
 9530SOL    HW129489   0.634   5.609   3.790
 9530SOL    HW229490   0.631   5.535   3.936
 9531SOL     OW29491   3.743   4.867   2.961
 9531SOL    HW129492   3.774   4.858   3.055
 9531SOL    HW229493   3.713   4.778   2.926
 9532SOL     OW29494   5.889   5.430   2.440
 9532SOL    HW129495   5.827   5.444   2.363
 9532SOL    HW229496   5.837   5.425   2.525
 9533SOL     OW29497   2.314   5.254   3.523
 9533SOL    HW129498   2.355   5.203   3.599
 9533SOL    HW229499   2.248   5.320   3.560
 9534SOL     OW29500   5.507   4.604   4.990
 9534SOL    HW129501   5.584   4.667   4.997
 9534SOL    HW229502   5.535   4.514   5.023
 9535SOL     OW29503   1.096   1.205   5.756
 9535SOL    HW129504   1.045   1.256   5.686
 9535SOL    HW229505   1.189   1.242   5.763
 9536SOL     OW29506   3.580   3.940   4.492
 9536SOL    HW129507   3.608   3.904   4.404
 9536SOL    HW229508   3.554   3.865   4.553
 9537SOL     OW29509   1.361   0.650   3.816
 9537SOL    HW129510   1.349   0.700   3.730
 9537SOL    HW229511   1.275   0.652   3.868
 9538SOL     OW29512   3.460   0.439   4.362
 9538SOL    HW129513   3.439   0.536   4.349
 9538SOL    HW229514   3.394   0.398   4.425
 9539SOL     OW29515   3.477   2.868   2.980
 9539SOL    HW129516   3.444   2.778   3.006
 9539SOL    HW229517   3.542   2.901   3.049
 9540SOL     OW29518   5.033   5.172   3.906
 9540SOL    HW129519   5.058   5.134   3.817
 9540SOL    HW229520   5.070   5.114   3.978
 9541SOL     OW29521   1.667   5.621   4.904
 9541SOL    HW129522   1.573   5.620   4.937
 9541SOL    HW229523   1.711   5.533   4.925
 9542SOL     OW29524   5.563   4.741   4.436
 9542SOL    HW129525   5.479   4.794   4.434
 9542SOL    HW229526   5.634   4.793   4.483
 9543SOL     OW29527   2.522   0.981   6.010
 9543SOL    HW129528   2.587   0.910   5.982
 9543SOL    HW229529   2.485   1.026   5.929
 9544SOL     OW29530   5.642   3.828   3.450
 9544SOL    HW129531   5.632   3.913   3.398
 9544SOL    HW229532   5.583   3.758   3.410
 9545SOL     OW29533   1.143   4.540   1.818
 9545SOL    HW129534   1.178   4.632   1.805
 9545SOL    HW229535   1.182   4.479   1.748
 9546SOL     OW29536   2.838   1.573   6.345
 9546SOL    HW129537   2.841   1.481   6.385
 9546SOL    HW229538   2.789   1.635   6.407
 9547SOL     OW29539   3.439   6.163   3.838
 9547SOL    HW129540   3.434   6.262   3.830
 9547SOL    HW229541   3.448   6.138   3.935
 9548SOL     OW29542   1.000   4.907   6.604
 9548SOL    HW129543   0.906   4.934   6.627
 9548SOL    HW229544   1.035   4.845   6.674
 9549SOL     OW29545   4.239   1.771   2.148
 9549SOL    HW129546   4.287   1.850   2.185
 9549SOL    HW229547   4.171   1.801   2.081
 9550SOL     OW29548   5.189   2.592   1.520
 9550SOL    HW129549   5.276   2.637   1.500
 9550SOL    HW229550   5.204   2.520   1.588
 9551SOL     OW29551   6.422   2.363   6.547
 9551SOL    HW129552   6.470   2.362   6.635
 9551SOL    HW229553   6.465   2.431   6.487
 9552SOL     OW29554   2.203   0.715   6.259
 9552SOL    HW129555   2.237   0.777   6.188
 9552SOL    HW229556   2.246   0.737   6.346
 9553SOL     OW29557   5.319   2.384   6.843
 9553SOL    HW129558   5.263   2.430   6.912
 9553SOL    HW229559   5.334   2.446   6.766
 9554SOL     OW29560   1.958   6.749   4.041
 9554SOL    HW129561   2.027   6.775   3.973
 9554SOL    HW229562   2.004   6.715   4.123
 9555SOL     OW29563   6.468   1.053   4.021
 9555SOL    HW129564   6.475   0.961   4.059
 9555SOL    HW229565   6.554   1.077   3.975
 9556SOL     OW29566   2.240   4.070   0.869
 9556SOL    HW129567   2.223   4.167   0.880
 9556SOL    HW229568   2.268   4.030   0.957
 9557SOL     OW29569   5.095   0.636   1.604
 9557SOL    HW129570   5.003   0.666   1.578
 9557SOL    HW229571   5.116   0.669   1.696
 9558SOL     OW29572   5.673   6.448   6.086
 9558SOL    HW129573   5.769   6.452   6.114
 9558SOL    HW229574   5.643   6.353   6.087
 9559SOL     OW29575   1.414   3.983   6.963
 9559SOL    HW129576   1.492   4.022   7.012
 9559SOL    HW229577   1.334   3.982   7.023
 9560SOL     OW29578   3.382   0.292   1.743
 9560SOL    HW129579   3.436   0.350   1.804
 9560SOL    HW229580   3.288   0.325   1.741
 9561SOL     OW29581   1.068   0.878   1.237
 9561SOL    HW129582   1.146   0.837   1.284
 9561SOL    HW229583   1.097   0.961   1.189
 9562SOL     OW29584   2.735   5.409   3.344
 9562SOL    HW129585   2.692   5.492   3.311
 9562SOL    HW229586   2.826   5.399   3.303
 9563SOL     OW29587   0.705   6.548   0.376
 9563SOL    HW129588   0.775   6.485   0.410
 9563SOL    HW229589   0.618   6.527   0.419
 9564SOL     OW29590   1.615   0.457   0.647
 9564SOL    HW129591   1.651   0.494   0.733
 9564SOL    HW229592   1.624   0.525   0.575
 9565SOL     OW29593   3.658   1.261   3.860
 9565SOL    HW129594   3.660   1.333   3.929
 9565SOL    HW229595   3.566   1.255   3.820
 9566SOL     OW29596   2.248   6.814   0.500
 9566SOL    HW129597   2.298   6.846   0.420
 9566SOL    HW229598   2.293   6.734   0.538
 9567SOL     OW29599   6.497   4.729   0.602
 9567SOL    HW129600   6.404   4.694   0.613
 9567SOL    HW229601   6.506   4.773   0.512
 9568SOL     OW29602   4.303   1.668   7.009
 9568SOL    HW129603   4.268   1.641   0.075
 9568SOL    HW229604   4.301   1.768   7.002
 9569SOL     OW29605   5.865   0.416   1.774
 9569SOL    HW129606   5.855   0.463   1.686
 9569SOL    HW229607   5.799   0.453   1.839
 9570SOL     OW29608   0.017   3.320   1.045
 9570SOL    HW129609   6.958   3.278   1.009
 9570SOL    HW229610   0.065   3.368   0.972
 9571SOL     OW29611   2.351   2.629   6.857
 9571SOL    HW129612   2.409   2.682   6.918
 9571SOL    HW229613   2.394   2.622   6.767
 9572SOL     OW29614   2.274   4.300   3.499
 9572SOL    HW129615   2.344   4.318   3.568
 9572SOL    HW229616   2.281   4.205   3.468
 9573SOL     OW29617   7.008   1.186   5.243
 9573SOL    HW129618   0.005   1.092   5.272
 9573SOL    HW229619   6.911   1.205   5.256
 9574SOL     OW29620   4.112   2.753   1.363
 9574SOL    HW129621   4.171   2.728   1.440
 9574SOL    HW229622   4.168   2.792   1.290
 9575SOL     OW29623   5.635   6.610   2.020
 9575SOL    HW129624   5.657   6.605   2.117
 9575SOL    HW229625   5.540   6.581   2.006
 9576SOL     OW29626   1.172   1.347   7.017
 9576SOL    HW129627   1.227   1.426   6.992
 9576SOL    HW229628   1.086   1.377   0.034
 9577SOL     OW29629   0.200   6.257   1.277
 9577SOL    HW129630   0.154   6.317   1.212
 9577SOL    HW229631   0.176   6.162   1.257
 9578SOL     OW29632   1.210   2.517   3.120
 9578SOL    HW129633   1.295   2.559   3.087
 9578SOL    HW229634   1.224   2.420   3.134
 9579SOL     OW29635   5.776   6.877   2.182
 9579SOL    HW129636   5.780   6.807   2.254
 9579SOL    HW229637   5.839   6.852   2.108
 9580SOL     OW29638   5.153   4.743   1.133
 9580SOL    HW129639   5.198   4.825   1.098
 9580SOL    HW229640   5.221   4.677   1.163
 9581SOL     OW29641   6.329   0.398   0.001
 9581SOL    HW129642   6.283   0.451   0.072
 9581SOL    HW229643   6.419   0.370   0.034
 9582SOL     OW29644   3.641   5.479   4.059
 9582SOL    HW129645   3.647   5.389   4.017
 9582SOL    HW229646   3.696   5.480   4.143
 9583SOL     OW29647   3.223   4.694   1.735
 9583SOL    HW129648   3.319   4.714   1.715
 9583SOL    HW229649   3.202   4.601   1.705
 9584SOL     OW29650   1.791   4.002   4.531
 9584SOL    HW129651   1.874   3.962   4.493
 9584SOL    HW229652   1.776   3.964   4.623
 9585SOL     OW29653   5.071   6.040   1.578
 9585SOL    HW129654   5.060   5.989   1.492
 9585SOL    HW229655   5.095   5.977   1.651
 9586SOL     OW29656   4.418   5.292   1.421
 9586SOL    HW129657   4.354   5.218   1.444
 9586SOL    HW229658   4.511   5.258   1.425
 9587SOL     OW29659   2.261   6.195   1.683
 9587SOL    HW129660   2.195   6.120   1.673
 9587SOL    HW229661   2.350   6.167   1.647
 9588SOL     OW29662   6.295   6.218   0.592
 9588SOL    HW129663   6.349   6.150   0.642
 9588SOL    HW229664   6.244   6.274   0.657
 9589SOL     OW29665   1.245   3.357   6.439
 9589SOL    HW129666   1.310   3.415   6.391
 9589SOL    HW229667   1.174   3.413   6.482
 9590SOL     OW29668   5.483   1.587   1.925
 9590SOL    HW129669   5.577   1.560   1.905
 9590SOL    HW229670   5.428   1.580   1.842
 9591SOL     OW29671   3.514   6.937   6.819
 9591SOL    HW129672   3.477   7.001   6.752
 9591SOL    HW229673   3.460   6.852   6.817
 9592SOL     OW29674   2.777   4.295   6.589
 9592SOL    HW129675   2.820   4.370   6.640
 9592SOL    HW229676   2.679   4.292   6.610
 9593SOL     OW29677   1.911   1.413   5.373
 9593SOL    HW129678   1.971   1.470   5.428
 9593SOL    HW229679   1.958   1.328   5.348
 9594SOL     OW29680   1.651   6.244   4.029
 9594SOL    HW129681   1.670   6.161   3.976
 9594SOL    HW229682   1.650   6.222   4.126
 9595SOL     OW29683   0.388   3.257   3.958
 9595SOL    HW129684   0.378   3.221   4.051
 9595SOL    HW229685   0.299   3.285   3.923
 9596SOL     OW29686   0.436   5.491   1.238
 9596SOL    HW129687   0.449   5.393   1.223
 9596SOL    HW229688   0.350   5.520   1.196
 9597SOL     OW29689   1.149   4.202   2.107
 9597SOL    HW129690   1.113   4.137   2.174
 9597SOL    HW229691   1.081   4.273   2.090
 9598SOL     OW29692   1.660   3.758   2.925
 9598SOL    HW129693   1.745   3.745   2.873
 9598SOL    HW229694   1.634   3.854   2.923
 9599SOL     OW29695   3.418   6.883   3.754
 9599SOL    HW129696   3.360   6.815   3.800
 9599SOL    HW229697   3.468   6.935   3.823
 9600SOL     OW29698   2.745   0.477   0.770
 9600SOL    HW129699   2.766   0.409   0.700
 9600SOL    HW229700   2.801   0.460   0.852
 9601SOL     OW29701   6.450   4.654   1.017
 9601SOL    HW129702   6.531   4.685   0.969
 9601SOL    HW229703   6.473   4.575   1.074
 9602SOL     OW29704   4.770   4.655   5.444
 9602SOL    HW129705   4.838   4.703   5.500
 9602SOL    HW229706   4.813   4.575   5.402
 9603SOL     OW29707   5.557   6.626   5.933
 9603SOL    HW129708   5.485   6.670   5.986
 9603SOL    HW229709   5.586   6.542   5.979
 9604SOL     OW29710   4.998   0.732   0.838
 9604SOL    HW129711   5.030   0.639   0.857
 9604SOL    HW229712   4.942   0.764   0.914
 9605SOL     OW29713   6.961   5.071   3.205
 9605SOL    HW129714   6.887   5.004   3.206
 9605SOL    HW229715   6.923   5.163   3.195
 9606SOL     OW29716   1.147   1.346   6.706
 9606SOL    HW129717   1.068   1.348   6.767
 9606SOL    HW229718   1.162   1.253   6.672
 9607SOL     OW29719   3.234   1.671   6.489
 9607SOL    HW129720   3.289   1.591   6.513
 9607SOL    HW229721   3.261   1.748   6.546
 9608SOL     OW29722   6.687   4.264   2.805
 9608SOL    HW129723   6.679   4.340   2.870
 9608SOL    HW229724   6.748   4.291   2.730
 9609SOL     OW29725   3.917   2.636   6.561
 9609SOL    HW129726   3.842   2.701   6.571
 9609SOL    HW229727   3.992   2.662   6.621
 9610SOL     OW29728   2.243   5.029   2.519
 9610SOL    HW129729   2.205   5.120   2.534
 9610SOL    HW229730   2.342   5.032   2.534
 9611SOL     OW29731   1.776   6.832   0.765
 9611SOL    HW129732   1.866   6.868   0.740
 9611SOL    HW229733   1.788   6.754   0.827
 9612SOL     OW29734   0.803   3.404   2.298
 9612SOL    HW129735   0.815   3.501   2.280
 9612SOL    HW229736   0.710   3.377   2.275
 9613SOL     OW29737   5.791   6.291   3.431
 9613SOL    HW129738   5.805   6.353   3.353
 9613SOL    HW229739   5.869   6.229   3.438
 9614SOL     OW29740   4.149   2.246   2.742
 9614SOL    HW129741   4.116   2.235   2.648
 9614SOL    HW229742   4.105   2.178   2.801
 9615SOL     OW29743   2.416   2.073   0.801
 9615SOL    HW129744   2.499   2.022   0.823
 9615SOL    HW229745   2.390   2.057   0.706
 9616SOL     OW29746   3.424   2.731   0.747
 9616SOL    HW129747   3.388   2.793   0.817
 9616SOL    HW229748   3.486   2.665   0.790
 9617SOL     OW29749   2.010   2.678   3.438
 9617SOL    HW129750   1.992   2.762   3.489
 9617SOL    HW229751   2.086   2.629   3.480
 9618SOL     OW29752   3.166   1.040   0.874
 9618SOL    HW129753   3.152   1.136   0.898
 9618SOL    HW229754   3.219   1.034   0.789
 9619SOL     OW29755   1.629   0.562   5.342
 9619SOL    HW129756   1.532   0.540   5.344
 9619SOL    HW229757   1.682   0.483   5.374
 9620SOL     OW29758   4.748   0.378   4.743
 9620SOL    HW129759   4.728   0.304   4.807
 9620SOL    HW229760   4.676   0.382   4.674
 9621SOL     OW29761   1.477   2.616   2.181
 9621SOL    HW129762   1.439   2.532   2.142
 9621SOL    HW229763   1.458   2.692   2.119
 9622SOL     OW29764   5.988   1.167   0.759
 9622SOL    HW129765   5.921   1.215   0.816
 9622SOL    HW229766   5.949   1.150   0.669
 9623SOL     OW29767   2.920   2.814   6.789
 9623SOL    HW129768   2.993   2.759   6.831
 9623SOL    HW229769   2.959   2.897   6.750
 9624SOL     OW29770   5.856   3.466   2.974
 9624SOL    HW129771   5.789   3.406   2.931
 9624SOL    HW229772   5.941   3.416   2.988
 9625SOL     OW29773   5.419   5.848   0.066
 9625SOL    HW129774   5.360   5.773   0.036
 9625SOL    HW229775   5.462   5.891   7.011
 9626SOL     OW29776   3.837   4.985   0.687
 9626SOL    HW129777   3.758   4.987   0.749
 9626SOL    HW229778   3.811   5.026   0.599
 9627SOL     OW29779   0.806   6.458   6.382
 9627SOL    HW129780   0.879   6.408   6.429
 9627SOL    HW229781   0.766   6.399   6.311
 9628SOL     OW29782   5.035   5.975   1.050
 9628SOL    HW129783   4.973   5.963   0.972
 9628SOL    HW229784   5.032   6.071   1.080
 9629SOL     OW29785   2.514   0.584   1.425
 9629SOL    HW129786   2.492   0.494   1.461
 9629SOL    HW229787   2.561   0.637   1.495
 9630SOL     OW29788   6.302   0.583   5.730
 9630SOL    HW129789   6.244   0.650   5.774
 9630SOL    HW229790   6.245   0.520   5.676
 9631SOL     OW29791   6.276   0.455   6.444
 9631SOL    HW129792   6.204   0.477   6.377
 9631SOL    HW229793   6.361   0.436   6.396
 9632SOL     OW29794   1.812   6.112   2.197
 9632SOL    HW129795   1.815   6.023   2.242
 9632SOL    HW229796   1.766   6.102   2.109
 9633SOL     OW29797   5.900   5.539   6.702
 9633SOL    HW129798   5.918   5.471   6.773
 9633SOL    HW229799   5.984   5.589   6.680
 9634SOL     OW29800   1.706   6.120   4.867
 9634SOL    HW129801   1.611   6.090   4.871
 9634SOL    HW229802   1.752   6.075   4.791
 9635SOL     OW29803   2.650   5.553   5.004
 9635SOL    HW129804   2.720   5.481   5.009
 9635SOL    HW229805   2.600   5.543   4.919
 9636SOL     OW29806   3.820   1.307   5.444
 9636SOL    HW129807   3.812   1.396   5.489
 9636SOL    HW229808   3.731   1.280   5.408
 9637SOL     OW29809   2.352   2.152   6.710
 9637SOL    HW129810   2.326   2.217   6.639
 9637SOL    HW229811   2.446   2.120   6.693
 9638SOL     OW29812   6.716   3.352   4.988
 9638SOL    HW129813   6.658   3.407   4.927
 9638SOL    HW229814   6.805   3.395   4.998
 9639SOL     OW29815   4.554   1.685   2.772
 9639SOL    HW129816   4.622   1.752   2.804
 9639SOL    HW229817   4.531   1.705   2.677
 9640SOL     OW29818   2.372   2.706   2.822
 9640SOL    HW129819   2.411   2.674   2.908
 9640SOL    HW229820   2.374   2.632   2.755
 9641SOL     OW29821   4.768   7.006   0.540
 9641SOL    HW129822   4.819   6.994   0.625
 9641SOL    HW229823   4.756   0.080   0.522
 9642SOL     OW29824   3.479   0.151   4.847
 9642SOL    HW129825   3.544   0.195   4.910
 9642SOL    HW229826   3.514   0.158   4.754
 9643SOL     OW29827   5.035   4.588   3.731
 9643SOL    HW129828   4.946   4.583   3.775
 9643SOL    HW229829   5.106   4.557   3.795
 9644SOL     OW29830   0.760   3.169   6.650
 9644SOL    HW129831   0.811   3.091   6.687
 9644SOL    HW229832   0.666   3.166   6.684
 9645SOL     OW29833   3.235   5.080   5.275
 9645SOL    HW129834   3.139   5.057   5.293
 9645SOL    HW229835   3.261   5.158   5.332
 9646SOL     OW29836   4.127   4.855   2.317
 9646SOL    HW129837   4.104   4.951   2.329
 9646SOL    HW229838   4.070   4.816   2.244
 9647SOL     OW29839   6.211   3.289   1.123
 9647SOL    HW129840   6.287   3.252   1.069
 9647SOL    HW229841   6.164   3.360   1.070
 9648SOL     OW29842   4.482   2.167   1.309
 9648SOL    HW129843   4.539   2.236   1.352
 9648SOL    HW229844   4.534   2.121   1.237
 9649SOL     OW29845   2.635   5.961   0.104
 9649SOL    HW129846   2.642   6.044   0.048
 9649SOL    HW229847   2.665   5.981   0.197
 9650SOL     OW29848   6.630   5.672   2.126
 9650SOL    HW129849   6.696   5.710   2.190
 9650SOL    HW229850   6.567   5.612   2.175
 9651SOL     OW29851   1.097   1.114   6.334
 9651SOL    HW129852   1.019   1.177   6.325
 9651SOL    HW229853   1.063   1.022   6.351
 9652SOL     OW29854   0.677   4.616   2.769
 9652SOL    HW129855   0.698   4.683   2.698
 9652SOL    HW229856   0.625   4.540   2.728
 9653SOL     OW29857   4.934   4.816   4.264
 9653SOL    HW129858   4.900   4.894   4.316
 9653SOL    HW229859   4.995   4.849   4.192
 9654SOL     OW29860   2.296   2.737   2.124
 9654SOL    HW129861   2.317   2.788   2.208
 9654SOL    HW229862   2.367   2.669   2.107
 9655SOL     OW29863   6.875   1.346   6.397
 9655SOL    HW129864   6.873   1.442   6.372
 9655SOL    HW229865   6.907   1.336   6.491
 9656SOL     OW29866   3.343   0.212   2.518
 9656SOL    HW129867   3.384   0.195   2.607
 9656SOL    HW229868   3.251   0.250   2.529
 9657SOL     OW29869   6.107   1.247   5.088
 9657SOL    HW129870   6.027   1.264   5.031
 9657SOL    HW229871   6.083   1.262   5.184
 9658SOL     OW29872   6.076   2.970   1.938
 9658SOL    HW129873   6.122   2.892   1.982
 9658SOL    HW229874   6.047   2.943   1.846
 9659SOL     OW29875   0.867   4.614   0.217
 9659SOL    HW129876   0.885   4.545   0.288
 9659SOL    HW229877   0.783   4.589   0.168
 9660SOL     OW29878   0.964   5.108   0.344
 9660SOL    HW129879   0.921   5.023   0.374
 9660SOL    HW229880   1.012   5.151   0.421
 9661SOL     OW29881   4.621   6.776   0.558
 9661SOL    HW129882   4.614   6.764   0.656
 9661SOL    HW229883   4.688   6.848   0.538
 9662SOL     OW29884   6.072   1.568   4.661
 9662SOL    HW129885   6.125   1.653   4.657
 9662SOL    HW229886   6.114   1.501   4.600
 9663SOL     OW29887   1.978   5.577   2.904
 9663SOL    HW129888   2.057   5.570   2.964
 9663SOL    HW229889   2.006   5.620   2.817
 9664SOL     OW29890   3.889   6.633   2.031
 9664SOL    HW129891   3.964   6.583   2.074
 9664SOL    HW229892   3.812   6.572   2.015
 9665SOL     OW29893   5.157   4.376   5.164
 9665SOL    HW129894   5.170   4.308   5.236
 9665SOL    HW229895   5.117   4.333   5.084
 9666SOL     OW29896   5.321   4.259   2.567
 9666SOL    HW129897   5.282   4.167   2.571
 9666SOL    HW229898   5.379   4.267   2.486
 9667SOL     OW29899   4.124   3.628   4.190
 9667SOL    HW129900   4.162   3.684   4.117
 9667SOL    HW229901   4.052   3.569   4.153
 9668SOL     OW29902   0.467   1.216   5.651
 9668SOL    HW129903   0.387   1.228   5.592
 9668SOL    HW229904   0.454   1.134   5.707
 9669SOL     OW29905   0.512   6.944   0.185
 9669SOL    HW129906   0.437   6.984   0.133
 9669SOL    HW229907   0.481   6.923   0.278
 9670SOL     OW29908   5.089   4.782   6.802
 9670SOL    HW129909   5.005   4.824   6.769
 9670SOL    HW229910   5.159   4.853   6.816
 9671SOL     OW29911   6.977   5.375   5.439
 9671SOL    HW129912   0.039   5.415   5.408
 9671SOL    HW229913   6.992   5.279   5.463
 9672SOL     OW29914   0.794   5.776   4.742
 9672SOL    HW129915   0.755   5.735   4.824
 9672SOL    HW229916   0.721   5.815   4.686
 9673SOL     OW29917   3.492   4.392   6.758
 9673SOL    HW129918   3.486   4.326   6.683
 9673SOL    HW229919   3.582   4.436   6.756
 9674SOL     OW29920   3.132   6.199   1.873
 9674SOL    HW129921   3.173   6.159   1.792
 9674SOL    HW229922   3.133   6.133   1.948
 9675SOL     OW29923   6.688   2.031   2.441
 9675SOL    HW129924   6.657   1.978   2.363
 9675SOL    HW229925   6.778   2.070   2.421
 9676SOL     OW29926   0.861   3.817   4.708
 9676SOL    HW129927   0.785   3.783   4.763
 9676SOL    HW229928   0.888   3.748   4.641
 9677SOL     OW29929   2.306   3.525   6.100
 9677SOL    HW129930   2.306   3.616   6.141
 9677SOL    HW229931   2.311   3.534   6.000
 9678SOL     OW29932   3.975   3.839   3.308
 9678SOL    HW129933   3.958   3.802   3.400
 9678SOL    HW229934   3.951   3.935   3.306
 9679SOL     OW29935   1.419   2.399   2.038
 9679SOL    HW129936   1.375   2.318   2.078
 9679SOL    HW229937   1.505   2.372   1.995
 9680SOL     OW29938   5.868   5.971   3.324
 9680SOL    HW129939   5.963   5.980   3.293
 9680SOL    HW229940   5.828   5.887   3.287
 9681SOL     OW29941   2.171   0.916   2.395
 9681SOL    HW129942   2.103   0.929   2.467
 9681SOL    HW229943   2.125   0.909   2.307
 9682SOL     OW29944   5.386   4.367   3.437
 9682SOL    HW129945   5.332   4.304   3.493
 9682SOL    HW229946   5.375   4.344   3.341
 9683SOL     OW29947   3.942   6.398   6.920
 9683SOL    HW129948   3.935   6.428   6.825
 9683SOL    HW229949   4.000   6.462   6.971
 9684SOL     OW29950   0.523   4.022   5.320
 9684SOL    HW129951   0.592   3.958   5.284
 9684SOL    HW229952   0.447   4.028   5.256
 9685SOL     OW29953   1.165   2.609   0.790
 9685SOL    HW129954   1.166   2.556   0.874
 9685SOL    HW229955   1.195   2.551   0.714
 9686SOL     OW29956   6.437   0.617   1.906
 9686SOL    HW129957   6.356   0.637   1.962
 9686SOL    HW229958   6.516   0.606   1.966
 9687SOL     OW29959   2.561   6.922   3.676
 9687SOL    HW129960   2.659   6.937   3.659
 9687SOL    HW229961   2.523   7.002   3.723
 9688SOL     OW29962   0.093   1.280   3.248
 9688SOL    HW129963   0.117   1.322   3.160
 9688SOL    HW229964   0.176   1.249   3.294
 9689SOL     OW29965   2.965   6.199   6.560
 9689SOL    HW129966   2.942   6.271   6.625
 9689SOL    HW229967   2.895   6.128   6.564
 9690SOL     OW29968   6.369   5.088   0.639
 9690SOL    HW129969   6.402   5.016   0.699
 9690SOL    HW229970   6.286   5.128   0.677
 9691SOL     OW29971   1.462   5.054   2.246
 9691SOL    HW129972   1.507   5.128   2.197
 9691SOL    HW229973   1.430   4.985   2.180
 9692SOL     OW29974   2.923   5.325   1.424
 9692SOL    HW129975   2.905   5.402   1.486
 9692SOL    HW229976   2.964   5.360   1.339
 9693SOL     OW29977   6.525   6.106   1.899
 9693SOL    HW129978   6.554   6.122   1.805
 9693SOL    HW229979   6.513   6.194   1.945
 9694SOL     OW29980   1.475   2.622   6.962
 9694SOL    HW129981   1.401   2.554   6.967
 9694SOL    HW229982   1.437   2.713   6.978
 9695SOL     OW29983   6.768   4.522   1.389
 9695SOL    HW129984   6.842   4.549   1.327
 9695SOL    HW229985   6.791   4.436   1.434
 9696SOL     OW29986   3.975   2.854   1.789
 9696SOL    HW129987   3.928   2.872   1.875
 9696SOL    HW229988   3.910   2.861   1.713
 9697SOL     OW29989   0.530   5.005   6.962
 9697SOL    HW129990   0.492   5.093   6.933
 9697SOL    HW229991   0.543   4.947   6.882
 9698SOL     OW29992   5.692   1.965   5.070
 9698SOL    HW129993   5.768   2.008   5.118
 9698SOL    HW229994   5.607   1.982   5.121
 9699SOL     OW29995   1.540   3.677   6.951
 9699SOL    HW129996   1.441   3.666   6.961
 9699SOL    HW229997   1.568   3.765   6.988
 9700SOL     OW29998   3.772   4.503   5.464
 9700SOL    HW129999   3.771   4.469   5.558
 9700SOL    HW230000   3.729   4.593   5.461
 9701SOL     OW30001   4.556   4.885   4.678
 9701SOL    HW130002   4.570   4.829   4.596
 9701SOL    HW230003   4.481   4.847   4.732
 9702SOL     OW30004   4.857   1.136   1.002
 9702SOL    HW130005   4.954   1.159   1.003
 9702SOL    HW230006   4.846   1.041   1.033
 9703SOL     OW30007   2.979   6.072   4.206
 9703SOL    HW130008   2.902   6.126   4.172
 9703SOL    HW230009   2.996   5.996   4.143
 9704SOL     OW30010   3.925   6.456   2.894
 9704SOL    HW130011   3.916   6.535   2.833
 9704SOL    HW230012   3.834   6.422   2.918
 9705SOL     OW30013   3.188   4.606   0.525
 9705SOL    HW130014   3.270   4.643   0.568
 9705SOL    HW230015   3.192   4.506   0.525
 9706SOL     OW30016   6.111   3.019   2.419
 9706SOL    HW130017   6.188   3.003   2.358
 9706SOL    HW230018   6.138   3.082   2.492
 9707SOL     OW30019   2.423   4.952   2.054
 9707SOL    HW130020   2.374   4.875   2.095
 9707SOL    HW230021   2.422   5.030   2.117
 9708SOL     OW30022   2.103   1.914   3.169
 9708SOL    HW130023   2.054   1.936   3.085
 9708SOL    HW230024   2.037   1.900   3.244
 9709SOL     OW30025   1.598   6.382   2.904
 9709SOL    HW130026   1.645   6.361   2.989
 9709SOL    HW230027   1.507   6.420   2.924
 9710SOL     OW30028   0.322   1.195   3.346
 9710SOL    HW130029   0.401   1.254   3.330
 9710SOL    HW230030   0.354   1.101   3.361
 9711SOL     OW30031   1.238   4.041   5.639
 9711SOL    HW130032   1.198   4.132   5.627
 9711SOL    HW230033   1.298   4.041   5.719
 9712SOL     OW30034   5.490   1.881   4.076
 9712SOL    HW130035   5.503   1.870   3.977
 9712SOL    HW230036   5.571   1.923   4.116
 9713SOL     OW30037   6.832   5.294   3.128
 9713SOL    HW130038   6.733   5.281   3.131
 9713SOL    HW230039   6.860   5.356   3.201
 9714SOL     OW30040   2.237   2.425   1.600
 9714SOL    HW130041   2.256   2.329   1.582
 9714SOL    HW230042   2.264   2.447   1.694
 9715SOL     OW30043   5.067   5.693   5.283
 9715SOL    HW130044   4.970   5.717   5.288
 9715SOL    HW230045   5.088   5.627   5.355
 9716SOL     OW30046   4.458   1.776   6.397
 9716SOL    HW130047   4.548   1.745   6.368
 9716SOL    HW230048   4.421   1.840   6.328
 9717SOL     OW30049   5.914   5.811   4.311
 9717SOL    HW130050   5.819   5.828   4.336
 9717SOL    HW230051   5.920   5.727   4.259
 9718SOL     OW30052   3.725   3.213   1.177
 9718SOL    HW130053   3.774   3.281   1.233
 9718SOL    HW230054   3.756   3.220   1.082
 9719SOL     OW30055   0.570   2.411   0.307
 9719SOL    HW130056   0.496   2.467   0.272
 9719SOL    HW230057   0.567   2.321   0.263
 9720SOL     OW30058   0.504   6.823   2.315
 9720SOL    HW130059   0.444   6.745   2.300
 9720SOL    HW230060   0.473   6.900   2.260
 9721SOL     OW30061   6.577   4.208   2.399
 9721SOL    HW130062   6.544   4.134   2.457
 9721SOL    HW230063   6.531   4.204   2.310
 9722SOL     OW30064   0.608   0.746   3.743
 9722SOL    HW130065   0.538   0.687   3.782
 9722SOL    HW230066   0.567   0.810   3.678
 9723SOL     OW30067   6.983   0.783   3.430
 9723SOL    HW130068   0.059   0.783   3.436
 9723SOL    HW230069   6.956   0.796   3.335
 9724SOL     OW30070   3.010   2.096   1.347
 9724SOL    HW130071   2.993   2.002   1.317
 9724SOL    HW230072   3.067   2.096   1.428
 9725SOL     OW30073   5.044   3.070   5.236
 9725SOL    HW130074   5.038   3.163   5.272
 9725SOL    HW230075   5.090   3.071   5.148
 9726SOL     OW30076   4.714   6.647   4.788
 9726SOL    HW130077   4.720   6.556   4.747
 9726SOL    HW230078   4.719   6.640   4.887
 9727SOL     OW30079   0.931   3.436   5.872
 9727SOL    HW130080   0.998   3.412   5.802
 9727SOL    HW230081   0.923   3.361   5.938
 9728SOL     OW30082   2.542   5.970   6.346
 9728SOL    HW130083   2.480   6.018   6.407
 9728SOL    HW230084   2.490   5.923   6.274
 9729SOL     OW30085   1.676   4.646   3.450
 9729SOL    HW130086   1.615   4.618   3.524
 9729SOL    HW230087   1.652   4.595   3.367
 9730SOL     OW30088   6.613   3.318   2.636
 9730SOL    HW130089   6.638   3.333   2.732
 9730SOL    HW230090   6.557   3.236   2.628
 9731SOL     OW30091   3.655   5.350   0.639
 9731SOL    HW130092   3.577   5.398   0.678
 9731SOL    HW230093   3.630   5.255   0.620
 9732SOL     OW30094   6.721   6.115   2.460
 9732SOL    HW130095   6.820   6.116   2.442
 9732SOL    HW230096   6.683   6.028   2.429
 9733SOL     OW30097   4.862   4.904   5.061
 9733SOL    HW130098   4.888   4.819   5.015
 9733SOL    HW230099   4.887   4.982   5.003
 9734SOL     OW30100   5.497   2.217   3.892
 9734SOL    HW130101   5.436   2.239   3.816
 9734SOL    HW230102   5.472   2.273   3.971
 9735SOL     OW30103   2.321   5.093   1.654
 9735SOL    HW130104   2.388   5.082   1.727
 9735SOL    HW230105   2.296   5.190   1.647
 9736SOL     OW30106   4.391   1.178   6.616
 9736SOL    HW130107   4.443   1.249   6.569
 9736SOL    HW230108   4.317   1.146   6.557
 9737SOL     OW30109   4.259   2.127   5.070
 9737SOL    HW130110   4.244   2.223   5.046
 9737SOL    HW230111   4.222   2.069   4.997
 9738SOL     OW30112   1.784   1.056   3.160
 9738SOL    HW130113   1.781   0.972   3.105
 9738SOL    HW230114   1.749   1.132   3.105
 9739SOL     OW30115   5.997   4.868   1.717
 9739SOL    HW130116   6.062   4.903   1.785
 9739SOL    HW230117   5.960   4.944   1.664
 9740SOL     OW30118   6.204   5.004   3.143
 9740SOL    HW130119   6.144   4.975   3.069
 9740SOL    HW230120   6.255   4.925   3.177
 9741SOL     OW30121   4.340   2.012   2.258
 9741SOL    HW130122   4.287   2.096   2.245
 9741SOL    HW230123   4.320   1.974   2.348
 9742SOL     OW30124   5.306   0.952   3.415
 9742SOL    HW130125   5.320   0.884   3.486
 9742SOL    HW230126   5.386   0.955   3.355
 9743SOL     OW30127   1.643   3.224   6.273
 9743SOL    HW130128   1.672   3.150   6.212
 9743SOL    HW230129   1.575   3.189   6.338
 9744SOL     OW30130   1.880   1.421   1.692
 9744SOL    HW130131   1.943   1.482   1.740
 9744SOL    HW230132   1.786   1.452   1.704
 9745SOL     OW30133   0.892   2.344   4.942
 9745SOL    HW130134   0.837   2.299   5.012
 9745SOL    HW230135   0.855   2.323   4.852
 9746SOL     OW30136   6.096   0.913   5.044
 9746SOL    HW130137   6.131   0.972   5.116
 9746SOL    HW230138   5.998   0.931   5.030
 9747SOL     OW30139   0.761   0.321   6.122
 9747SOL    HW130140   0.798   0.413   6.129
 9747SOL    HW230141   0.815   0.267   6.057
 9748SOL     OW30142   1.225   6.207   3.949
 9748SOL    HW130143   1.143   6.187   4.003
 9748SOL    HW230144   1.216   6.163   3.859
 9749SOL     OW30145   0.685   3.775   4.445
 9749SOL    HW130146   0.763   3.718   4.470
 9749SOL    HW230147   0.711   3.837   4.371
 9750SOL     OW30148   4.486   4.923   3.454
 9750SOL    HW130149   4.547   4.863   3.506
 9750SOL    HW230150   4.535   4.961   3.376
 9751SOL     OW30151   1.958   1.798   0.607
 9751SOL    HW130152   1.907   1.849   0.676
 9751SOL    HW230153   2.003   1.862   0.544
 9752SOL     OW30154   4.188   0.704   5.471
 9752SOL    HW130155   4.159   0.766   5.398
 9752SOL    HW230156   4.226   0.756   5.547
 9753SOL     OW30157   6.702   5.980   5.655
 9753SOL    HW130158   6.763   5.935   5.590
 9753SOL    HW230159   6.734   6.073   5.673
 9754SOL     OW30160   1.136   1.853   6.857
 9754SOL    HW130161   1.077   1.773   6.847
 9754SOL    HW230162   1.088   1.924   6.908
 9755SOL     OW30163   3.809   3.666   5.113
 9755SOL    HW130164   3.767   3.754   5.090
 9755SOL    HW230165   3.836   3.666   5.209
 9756SOL     OW30166   5.792   2.601   6.760
 9756SOL    HW130167   5.866   2.652   6.717
 9756SOL    HW230168   5.817   2.576   6.854
 9757SOL     OW30169   6.070   2.452   4.075
 9757SOL    HW130170   6.044   2.497   4.161
 9757SOL    HW230171   6.056   2.353   4.083
 9758SOL     OW30172   2.830   0.399   6.480
 9758SOL    HW130173   2.784   0.322   6.525
 9758SOL    HW230174   2.787   0.485   6.507
 9759SOL     OW30175   2.968   6.681   1.030
 9759SOL    HW130176   2.899   6.690   0.958
 9759SOL    HW230177   3.022   6.765   1.034
 9760SOL     OW30178   5.886   4.531   5.927
 9760SOL    HW130179   5.912   4.439   5.898
 9760SOL    HW230180   5.930   4.552   6.014
 9761SOL     OW30181   5.600   5.312   1.895
 9761SOL    HW130182   5.600   5.218   1.863
 9761SOL    HW230183   5.582   5.315   1.993
 9762SOL     OW30184   2.456   2.107   5.030
 9762SOL    HW130185   2.435   2.049   5.109
 9762SOL    HW230186   2.437   2.202   5.052
 9763SOL     OW30187   3.099   1.801   1.301
 9763SOL    HW130188   3.186   1.832   1.263
 9763SOL    HW230189   3.047   1.754   1.229
 9764SOL     OW30190   0.757   2.089   3.067
 9764SOL    HW130191   0.829   2.026   3.095
 9764SOL    HW230192   0.717   2.132   3.149
 9765SOL     OW30193   0.642   2.464   5.609
 9765SOL    HW130194   0.659   2.553   5.652
 9765SOL    HW230195   0.727   2.430   5.568
 9766SOL     OW30196   2.953   0.344   2.864
 9766SOL    HW130197   2.950   0.431   2.815
 9766SOL    HW230198   2.894   0.278   2.817
 9767SOL     OW30199   5.103   0.877   5.071
 9767SOL    HW130200   5.096   0.849   5.167
 9767SOL    HW230201   5.109   0.796   5.013
 9768SOL     OW30202   4.495   1.993   3.012
 9768SOL    HW130203   4.567   1.951   2.957
 9768SOL    HW230204   4.487   2.090   2.990
 9769SOL     OW30205   1.283   1.986   1.138
 9769SOL    HW130206   1.368   1.951   1.100
 9769SOL    HW230207   1.251   1.925   1.211
 9770SOL     OW30208   5.602   4.499   5.760
 9770SOL    HW130209   5.627   4.505   5.856
 9770SOL    HW230210   5.666   4.438   5.713
 9771SOL     OW30211   4.063   5.395   6.142
 9771SOL    HW130212   4.095   5.389   6.237
 9771SOL    HW230213   4.133   5.439   6.086
 9772SOL     OW30214   6.895   0.610   1.943
 9772SOL    HW130215   6.874   0.512   1.947
 9772SOL    HW230216   6.985   0.626   1.983
 9773SOL     OW30217   6.213   5.557   3.832
 9773SOL    HW130218   6.168   5.581   3.746
 9773SOL    HW230219   6.145   5.521   3.896
 9774SOL     OW30220   6.042   4.946   3.802
 9774SOL    HW130221   5.947   4.965   3.827
 9774SOL    HW230222   6.103   4.990   3.868
 9775SOL     OW30223   1.882   2.565   4.817
 9775SOL    HW130224   1.845   2.516   4.896
 9775SOL    HW230225   1.825   2.546   4.737
 9776SOL     OW30226   0.304   6.127   5.273
 9776SOL    HW130227   0.214   6.084   5.273
 9776SOL    HW230228   0.365   6.075   5.333
 9777SOL     OW30229   5.496   4.264   6.348
 9777SOL    HW130230   5.452   4.316   6.274
 9777SOL    HW230231   5.518   4.172   6.315
 9778SOL     OW30232   4.787   6.948   2.622
 9778SOL    HW130233   4.812   6.925   2.529
 9778SOL    HW230234   4.770   6.864   2.674
 9779SOL     OW30235   2.650   1.990   5.510
 9779SOL    HW130236   2.550   1.996   5.510
 9779SOL    HW230237   2.688   2.065   5.457
 9780SOL     OW30238   2.806   4.512   0.479
 9780SOL    HW130239   2.872   4.536   0.408
 9780SOL    HW230240   2.719   4.559   0.461
 9781SOL     OW30241   2.108   5.098   4.841
 9781SOL    HW130242   2.080   5.003   4.855
 9781SOL    HW230243   2.087   5.152   4.922
 9782SOL     OW30244   6.471   0.225   2.015
 9782SOL    HW130245   6.429   0.223   1.924
 9782SOL    HW230246   6.407   0.265   2.080
 9783SOL     OW30247   5.429   1.446   1.479
 9783SOL    HW130248   5.352   1.505   1.457
 9783SOL    HW230249   5.451   1.390   1.399
 9784SOL     OW30250   4.403   0.431   3.374
 9784SOL    HW130251   4.366   0.480   3.294
 9784SOL    HW230252   4.356   0.463   3.457
 9785SOL     OW30253   0.942   2.736   2.123
 9785SOL    HW130254   0.999   2.707   2.047
 9785SOL    HW230255   0.978   2.821   2.162
 9786SOL     OW30256   2.937   5.866   5.238
 9786SOL    HW130257   3.014   5.922   5.266
 9786SOL    HW230258   2.925   5.873   5.139
 9787SOL     OW30259   5.060   4.516   1.888
 9787SOL    HW130260   4.963   4.495   1.879
 9787SOL    HW230261   5.111   4.469   1.816
 9788SOL     OW30262   6.187   0.844   5.503
 9788SOL    HW130263   6.121   0.918   5.514
 9788SOL    HW230264   6.193   0.792   5.588
 9789SOL     OW30265   2.378   5.341   4.880
 9789SOL    HW130266   2.280   5.361   4.877
 9789SOL    HW230267   2.392   5.244   4.897
 9790SOL     OW30268   6.006   2.174   4.029
 9790SOL    HW130269   5.991   2.082   4.064
 9790SOL    HW230270   5.942   2.192   3.953
 9791SOL     OW30271   0.496   2.242   1.462
 9791SOL    HW130272   0.499   2.340   1.483
 9791SOL    HW230273   0.567   2.195   1.513
 9792SOL     OW30274   4.120   5.336   0.933
 9792SOL    HW130275   4.132   5.351   1.032
 9792SOL    HW230276   4.156   5.246   0.909
 9793SOL     OW30277   5.363   5.726   1.963
 9793SOL    HW130278   5.279   5.696   2.007
 9793SOL    HW230279   5.423   5.770   2.031
 9794SOL     OW30280   4.881   2.947   6.354
 9794SOL    HW130281   4.897   3.016   6.283
 9794SOL    HW230282   4.783   2.944   6.375
 9795SOL     OW30283   1.818   3.441   3.914
 9795SOL    HW130284   1.872   3.383   3.854
 9795SOL    HW230285   1.848   3.536   3.905
 9796SOL     OW30286   2.810   4.971   6.732
 9796SOL    HW130287   2.782   5.041   6.797
 9796SOL    HW230288   2.769   4.990   6.642
 9797SOL     OW30289   4.521   3.061   5.720
 9797SOL    HW130290   4.549   3.156   5.734
 9797SOL    HW230291   4.423   3.053   5.736
 9798SOL     OW30292   2.433   1.703   1.112
 9798SOL    HW130293   2.469   1.794   1.132
 9798SOL    HW230294   2.344   1.692   1.156
 9799SOL     OW30295   3.050   3.561   2.167
 9799SOL    HW130296   3.067   3.485   2.230
 9799SOL    HW230297   2.952   3.581   2.164
 9800SOL     OW30298   4.338   4.626   6.481
 9800SOL    HW130299   4.427   4.671   6.492
 9800SOL    HW230300   4.265   4.694   6.485
 9801SOL     OW30301   4.457   5.927   0.193
 9801SOL    HW130302   4.455   5.827   0.194
 9801SOL    HW230303   4.413   5.961   0.110
 9802SOL     OW30304   6.951   3.471   0.721
 9802SOL    HW130305   6.902   3.503   0.639
 9802SOL    HW230306   6.886   3.463   0.797
 9803SOL     OW30307   6.180   0.534   6.684
 9803SOL    HW130308   6.241   0.583   6.747
 9803SOL    HW230309   6.229   0.515   6.599
 9804SOL     OW30310   6.094   6.004   4.353
 9804SOL    HW130311   6.174   5.949   4.375
 9804SOL    HW230312   6.021   5.944   4.321
 9805SOL     OW30313   1.674   5.364   0.041
 9805SOL    HW130314   1.738   5.348   0.116
 9805SOL    HW230315   1.657   5.278   7.016
 9806SOL     OW30316   0.166   1.799   2.831
 9806SOL    HW130317   0.173   1.891   2.872
 9806SOL    HW230318   0.132   1.735   2.900
 9807SOL     OW30319   4.152   2.348   0.926
 9807SOL    HW130320   4.214   2.355   0.848
 9807SOL    HW230321   4.197   2.301   1.001
 9808SOL     OW30322   0.663   1.470   4.978
 9808SOL    HW130323   0.619   1.463   5.067
 9808SOL    HW230324   0.697   1.564   4.964
 9809SOL     OW30325   0.594   1.119   4.666
 9809SOL    HW130326   0.502   1.154   4.679
 9809SOL    HW230327   0.660   1.182   4.707
 9810SOL     OW30328   3.705   1.094   3.565
 9810SOL    HW130329   3.633   1.027   3.583
 9810SOL    HW230330   3.689   1.135   3.475
 9811SOL     OW30331   0.478   6.931   2.594
 9811SOL    HW130332   0.559   6.947   2.649
 9811SOL    HW230333   0.504   6.884   2.509
 9812SOL     OW30334   4.870   2.535   5.969
 9812SOL    HW130335   4.909   2.603   6.032
 9812SOL    HW230336   4.891   2.443   6.002
 9813SOL     OW30337   0.053   4.477   0.309
 9813SOL    HW130338   0.025   4.438   0.221
 9813SOL    HW230339   0.147   4.512   0.302
 9814SOL     OW30340   6.789   0.087   5.274
 9814SOL    HW130341   6.716   0.150   5.300
 9814SOL    HW230342   6.749   7.021   5.254
 9815SOL     OW30343   6.116   3.485   2.516
 9815SOL    HW130344   6.112   3.415   2.445
 9815SOL    HW230345   6.023   3.508   2.547
 9816SOL     OW30346   0.014   6.382   0.025
 9816SOL    HW130347   6.952   6.353   0.067
 9816SOL    HW230348   0.089   6.372   0.091
 9817SOL     OW30349   2.400   6.664   0.002
 9817SOL    HW130350   2.338   6.720   0.058
 9817SOL    HW230351   2.484   6.716   7.008
 9818SOL     OW30352   0.929   6.603   3.433
 9818SOL    HW130353   0.906   6.672   3.501
 9818SOL    HW230354   0.880   6.519   3.452
 9819SOL     OW30355   0.299   3.705   5.006
 9819SOL    HW130356   0.242   3.641   4.956
 9819SOL    HW230357   0.311   3.789   4.953
 9820SOL     OW30358   3.573   1.802   5.494
 9820SOL    HW130359   3.656   1.785   5.547
 9820SOL    HW230360   3.500   1.832   5.555
 9821SOL     OW30361   4.598   2.362   1.709
 9821SOL    HW130362   4.514   2.410   1.734
 9821SOL    HW230363   4.674   2.397   1.765
 9822SOL     OW30364   3.454   6.361   5.565
 9822SOL    HW130365   3.508   6.347   5.482
 9822SOL    HW230366   3.364   6.319   5.553
 9823SOL     OW30367   1.938   0.294   3.124
 9823SOL    HW130368   1.879   0.365   3.086
 9823SOL    HW230369   1.929   0.291   3.223
 9824SOL     OW30370   1.099   6.225   5.173
 9824SOL    HW130371   1.127   6.309   5.220
 9824SOL    HW230372   1.175   6.191   5.119
 9825SOL     OW30373   5.057   6.338   5.676
 9825SOL    HW130374   5.006   6.307   5.756
 9825SOL    HW230375   5.116   6.414   5.702
 9826SOL     OW30376   2.000   5.885   5.116
 9826SOL    HW130377   1.927   5.952   5.102
 9826SOL    HW230378   1.963   5.793   5.110
 9827SOL     OW30379   1.439   5.416   1.765
 9827SOL    HW130380   1.537   5.418   1.746
 9827SOL    HW230381   1.417   5.484   1.834
 9828SOL     OW30382   4.318   2.151   4.526
 9828SOL    HW130383   4.305   2.226   4.592
 9828SOL    HW230384   4.323   2.189   4.433
 9829SOL     OW30385   4.401   5.553   5.423
 9829SOL    HW130386   4.361   5.465   5.398
 9829SOL    HW230387   4.484   5.538   5.476
 9830SOL     OW30388   5.946   2.457   2.817
 9830SOL    HW130389   5.933   2.484   2.912
 9830SOL    HW230390   6.031   2.497   2.783
 9831SOL     OW30391   0.713   3.734   2.954
 9831SOL    HW130392   0.745   3.795   2.881
 9831SOL    HW230393   0.773   3.654   2.958
 9832SOL     OW30394   4.757   5.078   4.756
 9832SOL    HW130395   4.840   5.058   4.703
 9832SOL    HW230396   4.685   5.013   4.731
 9833SOL     OW30397   3.757   4.040   4.070
 9833SOL    HW130398   3.741   3.947   4.103
 9833SOL    HW230399   3.670   4.090   4.070
 9834SOL     OW30400   2.581   6.251   6.265
 9834SOL    HW130401   2.597   6.332   6.322
 9834SOL    HW230402   2.582   6.169   6.322
 9835SOL     OW30403   4.041   3.765   4.409
 9835SOL    HW130404   4.065   3.710   4.329
 9835SOL    HW230405   4.006   3.854   4.378
 9836SOL     OW30406   0.166   3.878   6.252
 9836SOL    HW130407   0.218   3.963   6.259
 9836SOL    HW230408   0.143   3.861   6.156
 9837SOL     OW30409   5.277   1.965   3.368
 9837SOL    HW130410   5.323   1.880   3.342
 9837SOL    HW230411   5.262   2.020   3.286
 9838SOL     OW30412   1.438   6.563   1.278
 9838SOL    HW130413   1.450   6.607   1.189
 9838SOL    HW230414   1.351   6.590   1.318
 9839SOL     OW30415   4.854   6.752   3.946
 9839SOL    HW130416   4.861   6.769   3.848
 9839SOL    HW230417   4.758   6.760   3.975
 9840SOL     OW30418   6.251   0.934   6.922
 9840SOL    HW130419   6.241   0.929   7.021
 9840SOL    HW230420   6.277   1.026   6.895
 9841SOL     OW30421   0.367   6.705   3.733
 9841SOL    HW130422   0.438   6.775   3.733
 9841SOL    HW230423   0.386   6.637   3.803
 9842SOL     OW30424   2.980   1.783   6.666
 9842SOL    HW130425   2.974   1.685   6.647
 9842SOL    HW230426   2.979   1.798   6.765
 9843SOL     OW30427   1.061   0.675   1.445
 9843SOL    HW130428   1.093   0.630   1.362
 9843SOL    HW230429   1.087   0.771   1.443
 9844SOL     OW30430   4.688   6.767   4.295
 9844SOL    HW130431   4.747   6.743   4.372
 9844SOL    HW230432   4.719   6.852   4.253
 9845SOL     OW30433   1.685   3.618   2.003
 9845SOL    HW130434   1.594   3.593   1.969
 9845SOL    HW230435   1.677   3.651   2.097
 9846SOL     OW30436   6.131   2.327   1.246
 9846SOL    HW130437   6.075   2.343   1.327
 9846SOL    HW230438   6.216   2.282   1.272
 9847SOL     OW30439   4.513   3.553   0.186
 9847SOL    HW130440   4.525   3.469   0.134
 9847SOL    HW230441   4.435   3.604   0.149
 9848SOL     OW30442   3.126   4.034   6.072
 9848SOL    HW130443   3.101   4.042   6.169
 9848SOL    HW230444   3.095   4.116   6.023
 9849SOL     OW30445   0.735   2.283   4.717
 9849SOL    HW130446   0.673   2.209   4.742
 9849SOL    HW230447   0.694   2.339   4.645
 9850SOL     OW30448   1.334   0.144   4.225
 9850SOL    HW130449   1.329   0.072   4.294
 9850SOL    HW230450   1.325   0.104   4.134
 9851SOL     OW30451   3.484   5.029   4.491
 9851SOL    HW130452   3.575   5.068   4.502
 9851SOL    HW230453   3.482   4.972   4.409
 9852SOL     OW30454   2.096   0.529   6.592
 9852SOL    HW130455   2.029   0.587   6.639
 9852SOL    HW230456   2.072   0.433   6.604
 9853SOL     OW30457   6.444   4.358   3.483
 9853SOL    HW130458   6.382   4.393   3.553
 9853SOL    HW230459   6.531   4.331   3.525
 9854SOL     OW30460   0.734   4.310   6.147
 9854SOL    HW130461   0.777   4.394   6.178
 9854SOL    HW230462   0.779   4.232   6.189
 9855SOL     OW30463   1.418   5.076   1.444
 9855SOL    HW130464   1.342   5.017   1.419
 9855SOL    HW230465   1.443   5.059   1.539
 9856SOL     OW30466   5.889   4.333   3.187
 9856SOL    HW130467   5.796   4.345   3.153
 9856SOL    HW230468   5.949   4.401   3.145
 9857SOL     OW30469   3.943   0.502   5.686
 9857SOL    HW130470   3.914   0.520   5.593
 9857SOL    HW230471   3.872   0.452   5.735
 9858SOL     OW30472   5.885   6.430   2.677
 9858SOL    HW130473   5.872   6.444   2.775
 9858SOL    HW230474   5.835   6.501   2.627
 9859SOL     OW30475   7.021   5.995   3.183
 9859SOL    HW130476   6.976   5.980   3.095
 9859SOL    HW230477   0.009   5.907   3.230
 9860SOL     OW30478   1.129   3.273   4.413
 9860SOL    HW130479   1.212   3.222   4.389
 9860SOL    HW230480   1.090   3.315   4.331
 9861SOL     OW30481   3.043   1.762   3.354
 9861SOL    HW130482   3.107   1.835   3.331
 9861SOL    HW230483   3.043   1.693   3.281
 9862SOL     OW30484   1.191   4.673   0.208
 9862SOL    HW130485   1.220   4.647   0.300
 9862SOL    HW230486   1.098   4.708   0.210
 9863SOL     OW30487   3.557   5.516   0.411
 9863SOL    HW130488   3.582   5.460   0.490
 9863SOL    HW230489   3.516   5.602   0.443
 9864SOL     OW30490   2.949   5.423   5.435
 9864SOL    HW130491   2.959   5.469   5.524
 9864SOL    HW230492   2.936   5.325   5.449
 9865SOL     OW30493   0.163   5.939   5.392
 9865SOL    HW130494   0.089   5.877   5.368
 9865SOL    HW230495   0.197   5.917   5.483
 9866SOL     OW30496   5.995   4.439   5.117
 9866SOL    HW130497   6.012   4.477   5.026
 9866SOL    HW230498   6.066   4.471   5.180
 9867SOL     OW30499   4.538   1.483   2.004
 9867SOL    HW130500   4.512   1.515   1.912
 9867SOL    HW230501   4.638   1.488   2.013
 9868SOL     OW30502   2.160   3.646   3.784
 9868SOL    HW130503   2.190   3.664   3.690
 9868SOL    HW230504   2.076   3.697   3.802
 9869SOL     OW30505   6.043   2.771   1.090
 9869SOL    HW130506   6.117   2.786   1.024
 9869SOL    HW230507   6.072   2.802   1.180
 9870SOL     OW30508   2.643   1.862   2.567
 9870SOL    HW130509   2.595   1.775   2.559
 9870SOL    HW230510   2.688   1.883   2.481
 9871SOL     OW30511   6.635   5.049   4.671
 9871SOL    HW130512   6.682   5.005   4.595
 9871SOL    HW230513   6.661   5.005   4.757
 9872SOL     OW30514   0.588   4.741   6.173
 9872SOL    HW130515   0.548   4.799   6.101
 9872SOL    HW230516   0.523   4.670   6.198
 9873SOL     OW30517   1.400   1.835   6.047
 9873SOL    HW130518   1.387   1.761   5.980
 9873SOL    HW230519   1.319   1.841   6.106
 9874SOL     OW30520   0.156   2.507   5.119
 9874SOL    HW130521   0.095   2.580   5.088
 9874SOL    HW230522   0.243   2.513   5.071
 9875SOL     OW30523   6.638   5.676   0.831
 9875SOL    HW130524   6.637   5.587   0.786
 9875SOL    HW230525   6.716   5.681   0.894
 9876SOL     OW30526   1.300   6.460   3.675
 9876SOL    HW130527   1.379   6.490   3.623
 9876SOL    HW230528   1.329   6.404   3.753
 9877SOL     OW30529   1.017   4.776   5.105
 9877SOL    HW130530   1.047   4.754   5.012
 9877SOL    HW230531   1.096   4.805   5.160
 9878SOL     OW30532   2.768   2.708   6.576
 9878SOL    HW130533   2.822   2.683   6.496
 9878SOL    HW230534   2.830   2.734   6.650
 9879SOL     OW30535   6.898   5.380   6.480
 9879SOL    HW130536   6.992   5.346   6.472
 9879SOL    HW230537   6.841   5.336   6.410
 9880SOL     OW30538   3.090   1.269   0.414
 9880SOL    HW130539   3.072   1.279   0.316
 9880SOL    HW230540   3.065   1.177   0.444
 9881SOL     OW30541   5.837   0.953   4.144
 9881SOL    HW130542   5.891   0.869   4.135
 9881SOL    HW230543   5.745   0.937   4.109
 9882SOL     OW30544   3.246   2.920   4.755
 9882SOL    HW130545   3.158   2.934   4.799
 9882SOL    HW230546   3.233   2.910   4.656
 9883SOL     OW30547   2.698   6.946   1.939
 9883SOL    HW130548   2.638   6.881   1.986
 9883SOL    HW230549   2.683   0.014   1.976
 9884SOL     OW30550   2.862   2.980   5.781
 9884SOL    HW130551   2.812   2.987   5.867
 9884SOL    HW230552   2.823   3.044   5.715
 9885SOL     OW30553   5.453   3.001   5.087
 9885SOL    HW130554   5.478   2.924   5.145
 9885SOL    HW230555   5.505   2.996   5.001
 9886SOL     OW30556   3.890   5.857   1.086
 9886SOL    HW130557   3.962   5.924   1.106
 9886SOL    HW230558   3.841   5.834   1.170
 9887SOL     OW30559   3.310   0.231   6.159
 9887SOL    HW130560   3.231   0.207   6.215
 9887SOL    HW230561   3.302   0.327   6.129
 9888SOL     OW30562   6.530   6.352   3.223
 9888SOL    HW130563   6.628   6.362   3.205
 9888SOL    HW230564   6.495   6.437   3.263
 9889SOL     OW30565   6.589   5.909   3.435
 9889SOL    HW130566   6.687   5.931   3.429
 9889SOL    HW230567   6.538   5.964   3.370
 9890SOL     OW30568   0.284   3.577   1.860
 9890SOL    HW130569   0.324   3.622   1.940
 9890SOL    HW230570   0.357   3.537   1.805
 9891SOL     OW30571   5.756   5.763   1.098
 9891SOL    HW130572   5.697   5.807   1.167
 9891SOL    HW230573   5.808   5.834   1.049
 9892SOL     OW30574   1.782   4.955   4.041
 9892SOL    HW130575   1.835   4.927   3.961
 9892SOL    HW230576   1.784   4.881   4.109
 9893SOL     OW30577   5.021   5.399   3.700
 9893SOL    HW130578   5.046   5.331   3.769
 9893SOL    HW230579   5.100   5.420   3.643
 9894SOL     OW30580   4.338   3.112   6.136
 9894SOL    HW130581   4.266   3.045   6.118
 9894SOL    HW230582   4.421   3.085   6.086
 9895SOL     OW30583   5.831   1.846   6.469
 9895SOL    HW130584   5.923   1.884   6.460
 9895SOL    HW230585   5.797   1.818   6.379
 9896SOL     OW30586   4.417   3.279   0.341
 9896SOL    HW130587   4.478   3.359   0.335
 9896SOL    HW230588   4.384   3.270   0.434
 9897SOL     OW30589   6.761   1.898   3.709
 9897SOL    HW130590   6.745   1.916   3.806
 9897SOL    HW230591   6.843   1.946   3.679
 9898SOL     OW30592   1.334   5.274   5.617
 9898SOL    HW130593   1.371   5.343   5.679
 9898SOL    HW230594   1.234   5.274   5.622
 9899SOL     OW30595   5.725   4.829   1.754
 9899SOL    HW130596   5.731   4.744   1.806
 9899SOL    HW230597   5.813   4.877   1.757
 9900SOL     OW30598   0.821   3.608   3.288
 9900SOL    HW130599   0.840   3.558   3.204
 9900SOL    HW230600   0.843   3.550   3.367
 9901SOL     OW30601   3.147   1.623   5.306
 9901SOL    HW130602   3.140   1.560   5.383
 9901SOL    HW230603   3.055   1.644   5.271
 9902SOL     OW30604   4.414   3.745   7.003
 9902SOL    HW130605   4.438   3.837   6.973
 9902SOL    HW230606   4.411   3.684   6.924
 9903SOL     OW30607   4.079   1.217   1.280
 9903SOL    HW130608   4.027   1.247   1.360
 9903SOL    HW230609   4.127   1.295   1.239
 9904SOL     OW30610   6.274   0.315   2.180
 9904SOL    HW130611   6.332   0.394   2.197
 9904SOL    HW230612   6.188   0.345   2.138
 9905SOL     OW30613   1.459   6.386   5.550
 9905SOL    HW130614   1.461   6.292   5.585
 9905SOL    HW230615   1.547   6.407   5.507
 9906SOL     OW30616   3.307   3.142   5.901
 9906SOL    HW130617   3.403   3.159   5.878
 9906SOL    HW230618   3.283   3.048   5.875
 9907SOL     OW30619   1.957   6.449   2.414
 9907SOL    HW130620   1.886   6.423   2.349
 9907SOL    HW230621   1.917   6.460   2.505
 9908SOL     OW30622   0.726   3.560   5.555
 9908SOL    HW130623   0.819   3.594   5.571
 9908SOL    HW230624   0.709   3.481   5.614
 9909SOL     OW30625   4.060   6.598   2.582
 9909SOL    HW130626   4.122   6.520   2.571
 9909SOL    HW230627   4.109   6.683   2.559
 9910SOL     OW30628   0.290   4.109   1.756
 9910SOL    HW130629   0.344   4.093   1.673
 9910SOL    HW230630   0.282   4.024   1.808
 9911SOL     OW30631   2.875   4.893   3.659
 9911SOL    HW130632   2.880   4.859   3.565
 9911SOL    HW230633   2.962   4.878   3.705
 9912SOL     OW30634   4.829   0.388   1.284
 9912SOL    HW130635   4.737   0.424   1.270
 9912SOL    HW230636   4.824   0.299   1.329
 9913SOL     OW30637   4.722   1.872   2.940
 9913SOL    HW130638   4.752   1.896   2.848
 9913SOL    HW230639   4.791   1.901   3.006
 9914SOL     OW30640   1.795   6.177   5.355
 9914SOL    HW130641   1.808   6.120   5.436
 9914SOL    HW230642   1.698   6.200   5.346
 9915SOL     OW30643   5.480   3.732   4.717
 9915SOL    HW130644   5.474   3.711   4.815
 9915SOL    HW230645   5.499   3.830   4.706
 9916SOL     OW30646   2.238   3.113   1.154
 9916SOL    HW130647   2.309   3.105   1.225
 9916SOL    HW230648   2.273   3.170   1.079
 9917SOL     OW30649   2.140   3.504   5.643
 9917SOL    HW130650   2.149   3.413   5.603
 9917SOL    HW230651   2.217   3.561   5.614
 9918SOL     OW30652   1.695   1.253   4.735
 9918SOL    HW130653   1.736   1.169   4.700
 9918SOL    HW230654   1.615   1.230   4.791
 9919SOL     OW30655   6.995   5.614   3.054
 9919SOL    HW130656   0.005   5.640   3.145
 9919SOL    HW230657   6.899   5.588   3.061
 9920SOL     OW30658   4.452   6.613   1.669
 9920SOL    HW130659   4.518   6.682   1.699
 9920SOL    HW230660   4.447   6.614   1.569
 9921SOL     OW30661   5.177   0.227   2.786
 9921SOL    HW130662   5.098   0.183   2.744
 9921SOL    HW230663   5.157   0.323   2.805
 9922SOL     OW30664   4.744   3.264   1.496
 9922SOL    HW130665   4.647   3.277   1.518
 9922SOL    HW230666   4.757   3.173   1.456
 9923SOL     OW30667   6.497   1.325   6.571
 9923SOL    HW130668   6.566   1.383   6.528
 9923SOL    HW230669   6.430   1.383   6.619
 9924SOL     OW30670   5.790   0.587   3.318
 9924SOL    HW130671   5.879   0.542   3.324
 9924SOL    HW230672   5.792   0.656   3.246
 9925SOL     OW30673   2.393   2.742   4.914
 9925SOL    HW130674   2.365   2.827   4.960
 9925SOL    HW230675   2.316   2.679   4.912
 9926SOL     OW30676   1.269   1.477   0.490
 9926SOL    HW130677   1.177   1.453   0.457
 9926SOL    HW230678   1.288   1.428   0.575
 9927SOL     OW30679   0.816   2.641   2.868
 9927SOL    HW130680   0.731   2.694   2.859
 9927SOL    HW230681   0.794   2.546   2.886
 9928SOL     OW30682   0.202   3.260   3.037
 9928SOL    HW130683   0.190   3.295   3.130
 9928SOL    HW230684   0.113   3.237   2.998
 9929SOL     OW30685   1.950   4.013   6.041
 9929SOL    HW130686   1.893   4.033   5.961
 9929SOL    HW230687   2.039   3.980   6.011
 9930SOL     OW30688   0.382   5.835   0.207
 9930SOL    HW130689   0.417   5.742   0.217
 9930SOL    HW230690   0.305   5.836   0.142
 9931SOL     OW30691   2.497   5.550   6.417
 9931SOL    HW130692   2.487   5.505   6.328
 9931SOL    HW230693   2.573   5.615   6.413
 9932SOL     OW30694   2.054   2.132   0.189
 9932SOL    HW130695   2.045   2.162   0.094
 9932SOL    HW230696   2.002   2.048   0.202
 9933SOL     OW30697   1.223   2.136   3.982
 9933SOL    HW130698   1.124   2.126   3.990
 9933SOL    HW230699   1.245   2.185   3.898
 9934SOL     OW30700   3.992   1.037   6.182
 9934SOL    HW130701   3.983   0.999   6.090
 9934SOL    HW230702   3.989   0.964   6.249
 9935SOL     OW30703   2.749   2.158   0.620
 9935SOL    HW130704   2.799   2.157   0.707
 9935SOL    HW230705   2.736   2.065   0.588
 9936SOL     OW30706   5.966   6.536   6.112
 9936SOL    HW130707   5.941   6.631   6.090
 9936SOL    HW230708   6.021   6.535   6.196
 9937SOL     OW30709   0.489   0.317   3.248
 9937SOL    HW130710   0.511   0.266   3.165
 9937SOL    HW230711   0.464   0.254   3.321
 9938SOL     OW30712   0.060   1.692   3.836
 9938SOL    HW130713   0.134   1.723   3.896
 9938SOL    HW230714   0.048   1.757   3.762
 9939SOL     OW30715   3.034   4.143   1.077
 9939SOL    HW130716   3.081   4.198   1.146
 9939SOL    HW230717   3.101   4.096   1.020
 9940SOL     OW30718   0.072   1.191   3.650
 9940SOL    HW130719   0.159   1.238   3.639
 9940SOL    HW230720   0.046   1.192   3.746
 9941SOL     OW30721   5.511   4.986   0.144
 9941SOL    HW130722   5.483   4.984   0.048
 9941SOL    HW230723   5.518   4.892   0.179
 9942SOL     OW30724   4.933   5.008   2.950
 9942SOL    HW130725   5.000   4.944   2.913
 9942SOL    HW230726   4.875   5.043   2.876
 9943SOL     OW30727   2.266   3.915   6.112
 9943SOL    HW130728   2.244   3.919   6.015
 9943SOL    HW230729   2.364   3.932   6.125
 9944SOL     OW30730   0.595   4.530   6.497
 9944SOL    HW130731   0.596   4.613   6.553
 9944SOL    HW230732   0.628   4.551   6.406
 9945SOL     OW30733   6.349   3.386   6.060
 9945SOL    HW130734   6.324   3.411   5.966
 9945SOL    HW230735   6.427   3.440   6.089
 9946SOL     OW30736   5.547   1.724   1.535
 9946SOL    HW130737   5.635   1.730   1.582
 9946SOL    HW230738   5.517   1.628   1.533
 9947SOL     OW30739   1.220   1.572   4.081
 9947SOL    HW130740   1.153   1.646   4.086
 9947SOL    HW230741   1.306   1.608   4.046
 9948SOL     OW30742   5.508   0.060   4.512
 9948SOL    HW130743   5.568   0.139   4.520
 9948SOL    HW230744   5.488   0.024   4.603
 9949SOL     OW30745   6.073   5.249   3.888
 9949SOL    HW130746   6.148   5.218   3.829
 9949SOL    HW230747   5.988   5.206   3.857
 9950SOL     OW30748   5.510   4.239   5.403
 9950SOL    HW130749   5.527   4.144   5.379
 9950SOL    HW230750   5.526   4.297   5.324
 9951SOL     OW30751   0.617   1.959   3.577
 9951SOL    HW130752   0.712   1.984   3.560
 9951SOL    HW230753   0.612   1.896   3.655
 9952SOL     OW30754   0.850   4.776   1.931
 9952SOL    HW130755   0.899   4.802   2.015
 9952SOL    HW230756   0.914   4.773   1.855
 9953SOL     OW30757   5.903   2.624   3.765
 9953SOL    HW130758   5.924   2.635   3.668
 9953SOL    HW230759   5.899   2.526   3.787
 9954SOL     OW30760   3.394   1.459   6.212
 9954SOL    HW130761   3.372   1.452   6.309
 9954SOL    HW230762   3.328   1.518   6.167
 9955SOL     OW30763   5.663   4.287   0.788
 9955SOL    HW130764   5.646   4.382   0.817
 9955SOL    HW230765   5.585   4.230   0.815
 9956SOL     OW30766   2.163   3.276   3.261
 9956SOL    HW130767   2.205   3.295   3.172
 9956SOL    HW230768   2.182   3.182   3.288
 9957SOL     OW30769   5.368   0.255   0.816
 9957SOL    HW130770   5.305   0.310   0.870
 9957SOL    HW230771   5.331   0.244   0.723
 9958SOL     OW30772   5.279   5.974   0.318
 9958SOL    HW130773   5.368   6.016   0.298
 9958SOL    HW230774   5.282   5.930   0.408
 9959SOL     OW30775   4.955   4.833   0.747
 9959SOL    HW130776   4.992   4.803   0.659
 9959SOL    HW230777   4.880   4.772   0.775
 9960SOL     OW30778   0.266   0.388   0.192
 9960SOL    HW130779   0.316   0.302   0.201
 9960SOL    HW230780   0.268   0.418   0.096
 9961SOL     OW30781   3.003   5.473   1.185
 9961SOL    HW130782   2.987   5.419   1.103
 9961SOL    HW230783   3.073   5.542   1.167
 9962SOL     OW30784   3.146   0.338   1.519
 9962SOL    HW130785   3.051   0.362   1.501
 9962SOL    HW230786   3.154   0.239   1.528
 9963SOL     OW30787   0.781   1.131   6.207
 9963SOL    HW130788   0.741   1.043   6.183
 9963SOL    HW230789   0.872   1.139   6.166
 9964SOL     OW30790   4.751   4.204   6.060
 9964SOL    HW130791   4.729   4.170   6.151
 9964SOL    HW230792   4.827   4.151   6.022
 9965SOL     OW30793   2.458   5.370   3.772
 9965SOL    HW130794   2.534   5.331   3.823
 9965SOL    HW230795   2.478   5.466   3.749
 9966SOL     OW30796   3.497   4.885   2.261
 9966SOL    HW130797   3.466   4.803   2.309
 9966SOL    HW230798   3.535   4.860   2.173
 9967SOL     OW30799   6.528   0.399   2.770
 9967SOL    HW130800   6.519   0.482   2.825
 9967SOL    HW230801   6.618   0.398   2.727
 9968SOL     OW30802   3.431   6.343   0.022
 9968SOL    HW130803   3.495   6.331   0.098
 9968SOL    HW230804   3.391   6.435   0.025
 9969SOL     OW30805   1.047   6.388   3.631
 9969SOL    HW130806   1.147   6.381   3.627
 9969SOL    HW230807   1.016   6.459   3.567
 9970SOL     OW30808   6.374   3.804   1.406
 9970SOL    HW130809   6.308   3.736   1.436
 9970SOL    HW230810   6.347   3.840   1.316
 9971SOL     OW30811   0.555   5.438   3.622
 9971SOL    HW130812   0.455   5.443   3.632
 9971SOL    HW230813   0.580   5.460   3.528
 9972SOL     OW30814   2.864   3.847   6.523
 9972SOL    HW130815   2.925   3.922   6.549
 9972SOL    HW230816   2.861   3.840   6.424
 9973SOL     OW30817   2.808   2.310   3.654
 9973SOL    HW130818   2.783   2.371   3.729
 9973SOL    HW230819   2.905   2.285   3.663
 9974SOL     OW30820   1.324   2.923   2.569
 9974SOL    HW130821   1.284   2.887   2.654
 9974SOL    HW230822   1.417   2.888   2.559
 9975SOL     OW30823   2.027   4.972   6.904
 9975SOL    HW130824   1.950   4.997   6.963
 9975SOL    HW230825   2.112   5.008   6.944
 9976SOL     OW30826   3.593   4.595   6.548
 9976SOL    HW130827   3.649   4.538   6.489
 9976SOL    HW230828   3.629   4.688   6.550
 9977SOL     OW30829   4.796   6.504   5.632
 9977SOL    HW130830   4.815   6.491   5.729
 9977SOL    HW230831   4.771   6.599   5.615
 9978SOL     OW30832   0.805   3.435   6.689
 9978SOL    HW130833   0.739   3.488   6.635
 9978SOL    HW230834   0.796   3.338   6.666
 9979SOL     OW30835   3.750   3.529   4.861
 9979SOL    HW130836   3.781   3.535   4.956
 9979SOL    HW230837   3.818   3.570   4.800
 9980SOL     OW30838   2.369   1.311   0.539
 9980SOL    HW130839   2.280   1.309   0.584
 9980SOL    HW230840   2.417   1.395   0.563
 9981SOL     OW30841   6.830   2.724   1.564
 9981SOL    HW130842   6.752   2.754   1.509
 9981SOL    HW230843   6.893   2.801   1.578
 9982SOL     OW30844   1.995   2.271   4.728
 9982SOL    HW130845   1.977   2.322   4.644
 9982SOL    HW230846   1.927   2.199   4.739
 9983SOL     OW30847   1.060   2.697   2.767
 9983SOL    HW130848   1.079   2.793   2.746
 9983SOL    HW230849   0.964   2.687   2.793
 9984SOL     OW30850   0.634   5.658   1.205
 9984SOL    HW130851   0.562   5.589   1.216
 9984SOL    HW230852   0.674   5.678   1.294
 9985SOL     OW30853   4.639   4.301   0.472
 9985SOL    HW130854   4.709   4.231   0.489
 9985SOL    HW230855   4.556   4.277   0.523
 9986SOL     OW30856   5.427   5.006   6.924
 9986SOL    HW130857   5.398   5.101   6.928
 9986SOL    HW230858   5.485   4.992   6.843
 9987SOL     OW30859   5.190   2.586   1.239
 9987SOL    HW130860   5.145   2.611   1.325
 9987SOL    HW230861   5.279   2.631   1.235
 9988SOL     OW30862   5.392   6.243   4.093
 9988SOL    HW130863   5.431   6.300   4.021
 9988SOL    HW230864   5.298   6.270   4.110
 9989SOL     OW30865   6.557   5.218   2.468
 9989SOL    HW130866   6.593   5.309   2.447
 9989SOL    HW230867   6.554   5.205   2.567
 9990SOL     OW30868   0.618   6.693   3.928
 9990SOL    HW130869   0.666   6.774   3.896
 9990SOL    HW230870   0.541   6.720   3.985
 9991SOL     OW30871   1.762   4.878   3.245
 9991SOL    HW130872   1.691   4.823   3.290
 9991SOL    HW230873   1.814   4.928   3.313
 9992SOL     OW30874   3.379   4.765   0.612
 9992SOL    HW130875   3.377   4.751   0.711
 9992SOL    HW230876   3.471   4.747   0.578
 9993SOL     OW30877   3.380   6.310   4.523
 9993SOL    HW130878   3.297   6.275   4.480
 9993SOL    HW230879   3.436   6.234   4.555
 9994SOL     OW30880   6.038   5.357   4.984
 9994SOL    HW130881   5.975   5.423   4.943
 9994SOL    HW230882   6.132   5.387   4.969
 9995SOL     OW30883   3.068   0.313   4.726
 9995SOL    HW130884   3.158   0.351   4.745
 9995SOL    HW230885   3.065   0.217   4.752
 9996SOL     OW30886   2.730   2.813   1.009
 9996SOL    HW130887   2.669   2.750   0.962
 9996SOL    HW230888   2.676   2.878   1.063
 9997SOL     OW30889   5.924   2.629   3.492
 9997SOL    HW130890   5.947   2.722   3.463
 9997SOL    HW230891   5.998   2.567   3.465
 9998SOL     OW30892   4.938   4.731   2.523
 9998SOL    HW130893   4.855   4.678   2.545
 9998SOL    HW230894   4.974   4.701   2.434
 9999SOL     OW30895   1.196   6.565   3.338
 9999SOL    HW130896   1.103   6.576   3.372
 9999SOL    HW230897   1.234   6.654   3.315
10000SOL     OW30898   5.279   2.072   1.470
10000SOL    HW130899   5.341   2.119   1.533
10000SOL    HW230900   5.211   2.137   1.436
10001SOL     OW30901   4.273   6.317   2.023
10001SOL    HW130902   4.233   6.408   2.015
10001SOL    HW230903   4.225   6.255   1.961
10002SOL     OW30904   2.957   0.837   1.672
10002SOL    HW130905   3.024   0.785   1.726
10002SOL    HW230906   3.004   0.887   1.600
10003SOL     OW30907   1.785   0.386   3.924
10003SOL    HW130908   1.717   0.414   3.991
10003SOL    HW230909   1.740   0.364   3.838
10004SOL     OW30910   6.193   3.872   5.074
10004SOL    HW130911   6.265   3.939   5.092
10004SOL    HW230912   6.225   3.807   5.005
10005SOL     OW30913   2.162   5.333   3.255
10005SOL    HW130914   2.241   5.393   3.266
10005SOL    HW230915   2.081   5.388   3.232
10006SOL     OW30916   5.137   0.277   4.813
10006SOL    HW130917   5.072   0.303   4.884
10006SOL    HW230918   5.101   0.304   4.723
10007SOL     OW30919   1.573   4.983   4.314
10007SOL    HW130920   1.476   5.007   4.316
10007SOL    HW230921   1.620   5.041   4.247
10008SOL     OW30922   4.463   1.413   5.981
10008SOL    HW130923   4.488   1.509   5.968
10008SOL    HW230924   4.530   1.369   6.041
10009SOL     OW30925   1.460   3.289   2.159
10009SOL    HW130926   1.443   3.194   2.184
10009SOL    HW230927   1.476   3.295   2.060
10010SOL     OW30928   2.308   3.644   0.292
10010SOL    HW130929   2.398   3.640   0.335
10010SOL    HW230930   2.246   3.699   0.348
10011SOL     OW30931   1.556   3.638   0.506
10011SOL    HW130932   1.576   3.736   0.498
10011SOL    HW230933   1.614   3.587   0.441
10012SOL     OW30934   5.217   1.844   2.770
10012SOL    HW130935   5.313   1.850   2.742
10012SOL    HW230936   5.209   1.777   2.845
10013SOL     OW30937   0.519   5.897   5.203
10013SOL    HW130938   0.436   5.849   5.179
10013SOL    HW230939   0.549   5.954   5.127
10014SOL     OW30940   0.740   6.906   3.024
10014SOL    HW130941   0.774   6.837   3.088
10014SOL    HW230942   0.796   6.989   3.031
10015SOL     OW30943   4.437   4.554   5.799
10015SOL    HW130944   4.445   4.544   5.699
10015SOL    HW230945   4.516   4.605   5.833
10016SOL     OW30946   2.309   0.128   2.766
10016SOL    HW130947   2.288   0.210   2.819
10016SOL    HW230948   2.313   0.152   2.669
10017SOL     OW30949   2.489   2.086   2.639
10017SOL    HW130950   2.425   2.124   2.705
10017SOL    HW230951   2.500   1.988   2.656
10018SOL     OW30952   6.337   2.928   6.129
10018SOL    HW130953   6.356   2.912   6.032
10018SOL    HW230954   6.421   2.953   6.176
10019SOL     OW30955   0.443   2.057   2.770
10019SOL    HW130956   0.433   2.157   2.770
10019SOL    HW230957   0.539   2.032   2.764
10020SOL     OW30958   5.912   0.816   2.147
10020SOL    HW130959   5.943   0.909   2.127
10020SOL    HW230960   5.927   0.758   2.067
10021SOL     OW30961   1.329   3.970   2.312
10021SOL    HW130962   1.328   3.871   2.294
10021SOL    HW230963   1.272   3.990   2.391
10022SOL     OW30964   2.647   5.747   6.984
10022SOL    HW130965   2.551   5.719   6.978
10022SOL    HW230966   2.655   5.830   0.015
10023SOL     OW30967   1.567   6.800   5.845
10023SOL    HW130968   1.625   6.764   5.772
10023SOL    HW230969   1.472   6.805   5.814
10024SOL     OW30970   1.729   4.851   2.779
10024SOL    HW130971   1.801   4.861   2.848
10024SOL    HW230972   1.716   4.754   2.758
10025SOL     OW30973   1.007   4.224   1.790
10025SOL    HW130974   1.014   4.152   1.858
10025SOL    HW230975   1.074   4.207   1.718
10026SOL     OW30976   5.424   1.629   4.201
10026SOL    HW130977   5.382   1.640   4.291
10026SOL    HW230978   5.432   1.719   4.157
10027SOL     OW30979   2.295   1.724   5.577
10027SOL    HW130980   2.210   1.679   5.607
10027SOL    HW230981   2.371   1.659   5.585
10028SOL     OW30982   4.802   0.657   1.246
10028SOL    HW130983   4.824   0.560   1.260
10028SOL    HW230984   4.707   0.666   1.217
10029SOL     OW30985   6.988   3.397   5.024
10029SOL    HW130986   7.005   3.399   5.122
10029SOL    HW230987   0.043   3.436   4.976
10030SOL     OW30988   2.610   0.179   4.637
10030SOL    HW130989   2.515   0.149   4.625
10030SOL    HW230990   2.667   0.101   4.664
10031SOL     OW30991   3.061   4.972   4.119
10031SOL    HW130992   3.158   4.952   4.103
10031SOL    HW230993   3.046   4.991   4.216
10032SOL     OW30994   2.792   6.034   4.693
10032SOL    HW130995   2.728   6.043   4.770
10032SOL    HW230996   2.881   6.070   4.720
10033SOL     OW30997   3.580   1.265   3.004
10033SOL    HW130998   3.571   1.228   2.911
10033SOL    HW230999   3.611   1.360   2.999
10034SOL     OW31000   2.794   0.673   3.590
10034SOL    HW131001   2.730   0.714   3.655
10034SOL    HW231002   2.787   0.719   3.502
10035SOL     OW31003   5.920   2.922   2.215
10035SOL    HW131004   5.932   2.963   2.125
10035SOL    HW231005   5.998   2.945   2.273
10036SOL     OW31006   6.798   0.479   6.558
10036SOL    HW131007   6.712   0.471   6.608
10036SOL    HW231008   6.866   0.525   6.615
10037SOL     OW31009   6.596   0.287   0.096
10037SOL    HW131010   6.545   0.229   0.161
10037SOL    HW231011   6.638   0.229   0.026
10038SOL     OW31012   4.277   0.203   0.204
10038SOL    HW131013   4.244   0.270   0.138
10038SOL    HW231014   4.326   0.130   0.155
10039SOL     OW31015   6.044   5.346   3.338
10039SOL    HW131016   6.061   5.250   3.362
10039SOL    HW231017   6.066   5.360   3.242
10040SOL     OW31018   3.748   0.148   0.308
10040SOL    HW131019   3.726   0.123   0.402
10040SOL    HW231020   3.840   0.187   0.304
10041SOL     OW31021   6.850   5.099   4.977
10041SOL    HW131022   6.902   5.119   4.893
10041SOL    HW231023   6.833   5.183   5.027
10042SOL     OW31024   0.391   0.666   4.787
10042SOL    HW131025   0.304   0.617   4.790
10042SOL    HW231026   0.461   0.614   4.835
10043SOL     OW31027   0.736   0.514   3.090
10043SOL    HW131028   0.725   0.516   3.189
10043SOL    HW231029   0.783   0.597   3.060
10044SOL     OW31030   2.552   1.566   5.705
10044SOL    HW131031   2.515   1.598   5.792
10044SOL    HW231032   2.607   1.638   5.663
10045SOL     OW31033   3.800   6.178   4.922
10045SOL    HW131034   3.786   6.264   4.972
10045SOL    HW231035   3.720   6.119   4.936
10046SOL     OW31036   6.825   2.629   2.073
10046SOL    HW131037   6.899   2.561   2.074
10046SOL    HW231038   6.840   2.694   2.147
10047SOL     OW31039   6.708   1.776   5.183
10047SOL    HW131040   6.626   1.723   5.159
10047SOL    HW231041   6.684   1.847   5.250
10048SOL     OW31042   3.460   1.713   1.333
10048SOL    HW131043   3.421   1.802   1.311
10048SOL    HW231044   3.439   1.690   1.428
10049SOL     OW31045   2.089   0.549   5.915
10049SOL    HW131046   2.056   0.480   5.980
10049SOL    HW231047   2.011   0.587   5.865
10050SOL     OW31048   5.305   2.751   4.449
10050SOL    HW131049   5.304   2.659   4.488
10050SOL    HW231050   5.322   2.818   4.522
10051SOL     OW31051   5.885   3.610   4.605
10051SOL    HW131052   5.825   3.582   4.529
10051SOL    HW231053   5.910   3.706   4.593
10052SOL     OW31054   1.138   3.534   1.812
10052SOL    HW131055   1.126   3.597   1.736
10052SOL    HW231056   1.067   3.463   1.808
10053SOL     OW31057   3.568   5.365   3.097
10053SOL    HW131058   3.638   5.436   3.084
10053SOL    HW231059   3.610   5.275   3.087
10054SOL     OW31060   3.847   5.683   4.898
10054SOL    HW131061   3.839   5.590   4.863
10054SOL    HW231062   3.779   5.699   4.969
10055SOL     OW31063   6.554   2.499   5.127
10055SOL    HW131064   6.558   2.431   5.199
10055SOL    HW231065   6.622   2.478   5.057
10056SOL     OW31066   6.395   4.752   1.652
10056SOL    HW131067   6.453   4.704   1.586
10056SOL    HW231068   6.318   4.794   1.604
10057SOL     OW31069   3.798   2.045   4.571
10057SOL    HW131070   3.897   2.039   4.570
10057SOL    HW231071   3.760   1.963   4.613
10058SOL     OW31072   0.134   5.425   4.133
10058SOL    HW131073   0.114   5.518   4.102
10058SOL    HW231074   0.194   5.380   4.068
10059SOL     OW31075   5.707   0.772   0.920
10059SOL    HW131076   5.622   0.795   0.968
10059SOL    HW231077   5.766   0.853   0.918
10060SOL     OW31078   2.844   2.133   1.825
10060SOL    HW131079   2.906   2.138   1.747
10060SOL    HW231080   2.862   2.209   1.887
10061SOL     OW31081   6.198   1.655   4.308
10061SOL    HW131082   6.246   1.593   4.370
10061SOL    HW231083   6.263   1.720   4.268
10062SOL     OW31084   6.287   5.734   3.494
10062SOL    HW131085   6.380   5.739   3.530
10062SOL    HW231086   6.240   5.654   3.532
10063SOL     OW31087   1.012   3.680   3.709
10063SOL    HW131088   1.041   3.771   3.681
10063SOL    HW231089   0.922   3.685   3.751
10064SOL     OW31090   5.373   5.880   4.356
10064SOL    HW131091   5.364   5.954   4.290
10064SOL    HW231092   5.303   5.890   4.426
10065SOL     OW31093   1.174   6.534   2.521
10065SOL    HW131094   1.081   6.524   2.557
10065SOL    HW231095   1.237   6.480   2.577
10066SOL     OW31096   0.637   6.721   4.260
10066SOL    HW131097   0.543   6.689   4.271
10066SOL    HW231098   0.662   6.779   4.338
10067SOL     OW31099   4.518   4.716   3.919
10067SOL    HW131100   4.530   4.624   3.882
10067SOL    HW231101   4.450   4.765   3.864
10068SOL     OW31102   5.238   3.305   4.642
10068SOL    HW131103   5.307   3.352   4.697
10068SOL    HW231104   5.147   3.331   4.674
10069SOL     OW31105   3.099   1.628   3.628
10069SOL    HW131106   3.117   1.681   3.711
10069SOL    HW231107   3.058   1.687   3.559
10070SOL     OW31108   1.144   6.363   4.899
10070SOL    HW131109   1.136   6.395   4.805
10070SOL    HW231110   1.069   6.400   4.954
10071SOL     OW31111   5.145   5.445   4.159
10071SOL    HW131112   5.107   5.497   4.082
10071SOL    HW231113   5.138   5.347   4.140
10072SOL     OW31114   0.372   6.429   3.492
10072SOL    HW131115   0.288   6.470   3.527
10072SOL    HW231116   0.445   6.497   3.492
10073SOL     OW31117   6.707   5.171   5.517
10073SOL    HW131118   6.744   5.180   5.425
10073SOL    HW231119   6.627   5.230   5.527
10074SOL     OW31120   1.214   0.097   6.184
10074SOL    HW131121   1.250   0.062   6.097
10074SOL    HW231122   1.289   0.135   6.238
10075SOL     OW31123   1.506   2.545   3.812
10075SOL    HW131124   1.535   2.449   3.816
10075SOL    HW231125   1.560   2.592   3.742
10076SOL     OW31126   4.893   6.689   4.534
10076SOL    HW131127   4.885   6.592   4.511
10076SOL    HW231128   4.856   6.705   4.625
10077SOL     OW31129   3.970   2.160   6.240
10077SOL    HW131130   4.059   2.204   6.253
10077SOL    HW231131   3.947   2.161   6.143
10078SOL     OW31132   5.581   0.210   5.144
10078SOL    HW131133   5.578   0.197   5.045
10078SOL    HW231134   5.627   0.296   5.166
10079SOL     OW31135   1.377   3.207   1.498
10079SOL    HW131136   1.386   3.304   1.476
10079SOL    HW231137   1.317   3.163   1.431
10080SOL     OW31138   2.167   2.543   0.038
10080SOL    HW131139   2.149   2.529   0.135
10080SOL    HW231140   2.248   2.490   0.012
10081SOL     OW31141   0.660   0.411   6.348
10081SOL    HW131142   0.718   0.364   6.281
10081SOL    HW231143   0.713   0.430   6.430
10082SOL     OW31144   6.294   2.624   1.673
10082SOL    HW131145   6.205   2.634   1.630
10082SOL    HW231146   6.289   2.556   1.746
10083SOL     OW31147   4.089   0.069   3.724
10083SOL    HW131148   4.025   0.135   3.764
10083SOL    HW231149   4.141   0.025   3.797
10084SOL     OW31150   2.425   1.344   5.630
10084SOL    HW131151   2.467   1.427   5.665
10084SOL    HW231152   2.494   1.272   5.620
10085SOL     OW31153   0.784   5.868   3.045
10085SOL    HW131154   0.761   5.965   3.049
10085SOL    HW231155   0.717   5.820   2.988
10086SOL     OW31156   6.309   4.695   2.023
10086SOL    HW131157   6.372   4.771   2.008
10086SOL    HW231158   6.322   4.626   1.952
10087SOL     OW31159   1.091   0.295   3.935
10087SOL    HW131160   1.074   0.365   3.867
10087SOL    HW231161   1.176   0.316   3.984
10088SOL     OW31162   0.769   6.624   4.752
10088SOL    HW131163   0.809   6.587   4.668
10088SOL    HW231164   0.671   6.640   4.738
10089SOL     OW31165   2.334   2.010   2.304
10089SOL    HW131166   2.260   1.948   2.278
10089SOL    HW231167   2.296   2.090   2.350
10090SOL     OW31168   1.445   4.249   0.734
10090SOL    HW131169   1.478   4.342   0.752
10090SOL    HW231170   1.518   4.184   0.756
10091SOL     OW31171   0.989   3.827   4.178
10091SOL    HW131172   0.980   3.728   4.178
10091SOL    HW231173   1.053   3.855   4.107
10092SOL     OW31174   1.553   3.443   5.072
10092SOL    HW131175   1.525   3.347   5.071
10092SOL    HW231176   1.494   3.496   5.011
10093SOL     OW31177   6.766   5.327   5.295
10093SOL    HW131178   6.701   5.399   5.320
10093SOL    HW231179   6.857   5.353   5.326
10094SOL     OW31180   2.306   1.129   2.617
10094SOL    HW131181   2.357   1.152   2.534
10094SOL    HW231182   2.253   1.045   2.601
10095SOL     OW31183   6.969   1.096   6.165
10095SOL    HW131184   6.906   1.078   6.089
10095SOL    HW231185   0.037   1.065   6.140
10096SOL     OW31186   0.255   5.283   2.425
10096SOL    HW131187   0.179   5.243   2.373
10096SOL    HW231188   0.340   5.269   2.376
10097SOL     OW31189   1.704   1.250   0.902
10097SOL    HW131190   1.658   1.322   0.954
10097SOL    HW231191   1.654   1.164   0.912
10098SOL     OW31192   2.213   5.838   6.337
10098SOL    HW131193   2.221   5.912   6.404
10098SOL    HW231194   2.302   5.823   6.293
10099SOL     OW31195   6.941   4.162   5.247
10099SOL    HW131196   6.929   4.239   5.184
10099SOL    HW231197   6.861   4.102   5.242
10100SOL     OW31198   4.566   0.855   4.696
10100SOL    HW131199   4.492   0.909   4.737
10100SOL    HW231200   4.634   0.833   4.765
10101SOL     OW31201   6.892   4.629   2.485
10101SOL    HW131202   6.906   4.700   2.416
10101SOL    HW231203   6.808   4.579   2.465
10102SOL     OW31204   3.658   1.362   2.201
10102SOL    HW131205   3.634   1.292   2.268
10102SOL    HW231206   3.620   1.450   2.229
10103SOL     OW31207   2.687   1.222   5.263
10103SOL    HW131208   2.665   1.319   5.253
10103SOL    HW231209   2.699   1.181   5.173
10104SOL     OW31210   1.170   4.872   5.305
10104SOL    HW131211   1.108   4.854   5.381
10104SOL    HW231212   1.194   4.969   5.303
10105SOL     OW31213   1.787   0.577   6.076
10105SOL    HW131214   1.848   0.618   6.143
10105SOL    HW231215   1.756   0.647   6.011
10106SOL     OW31216   5.321   5.691   1.079
10106SOL    HW131217   5.333   5.741   1.165
10106SOL    HW231218   5.402   5.636   1.061
10107SOL     OW31219   5.883   1.461   5.836
10107SOL    HW131220   5.849   1.550   5.807
10107SOL    HW231221   5.899   1.403   5.756
10108SOL     OW31222   6.370   6.877   0.598
10108SOL    HW131223   6.330   6.879   0.689
10108SOL    HW231224   6.312   6.825   0.536
10109SOL     OW31225   5.075   5.768   3.611
10109SOL    HW131226   5.103   5.676   3.586
10109SOL    HW231227   5.154   5.829   3.607
10110SOL     OW31228   3.484   6.900   6.173
10110SOL    HW131229   3.521   6.993   6.177
10110SOL    HW231230   3.559   6.834   6.185
10111SOL     OW31231   6.642   3.261   3.457
10111SOL    HW131232   6.637   3.173   3.504
10111SOL    HW231233   6.642   3.335   3.524
10112SOL     OW31234   5.160   4.190   5.442
10112SOL    HW131235   5.144   4.266   5.505
10112SOL    HW231236   5.153   4.103   5.492
10113SOL     OW31237   4.320   0.505   0.177
10113SOL    HW131238   4.282   0.472   0.090
10113SOL    HW231239   4.351   0.600   0.165
10114SOL     OW31240   5.130   1.324   6.945
10114SOL    HW131241   5.037   1.307   6.979
10114SOL    HW231242   5.170   1.401   6.993
10115SOL     OW31243   2.078   2.283   3.930
10115SOL    HW131244   2.128   2.227   3.864
10115SOL    HW231245   2.066   2.376   3.893
10116SOL     OW31246   0.386   0.404   1.214
10116SOL    HW131247   0.465   0.436   1.266
10116SOL    HW231248   0.323   0.480   1.198
10117SOL     OW31249   6.181   0.368   5.600
10117SOL    HW131250   6.252   0.297   5.600
10117SOL    HW231251   6.118   0.352   5.523
10118SOL     OW31252   7.021   5.289   2.601
10118SOL    HW131253   6.949   5.336   2.652
10118SOL    HW231254   0.006   5.195   2.634
10119SOL     OW31255   2.794   0.631   5.288
10119SOL    HW131256   2.782   0.608   5.192
10119SOL    HW231257   2.721   0.693   5.318
10120SOL     OW31258   0.620   3.373   4.038
10120SOL    HW131259   0.555   3.315   3.989
10120SOL    HW231260   0.695   3.316   4.073
10121SOL     OW31261   5.963   4.798   5.388
10121SOL    HW131262   6.014   4.807   5.473
10121SOL    HW231263   5.950   4.889   5.347
10122SOL     OW31264   5.006   3.058   0.131
10122SOL    HW131265   5.023   2.978   0.074
10122SOL    HW231266   5.056   3.136   0.094
10123SOL     OW31267   0.407   6.049   0.702
10123SOL    HW131268   0.374   6.096   0.784
10123SOL    HW231269   0.406   6.113   0.625
10124SOL     OW31270   3.360   4.102   0.231
10124SOL    HW131271   3.366   4.201   0.245
10124SOL    HW231272   3.273   4.081   0.186
10125SOL     OW31273   1.864   0.918   2.921
10125SOL    HW131274   1.925   0.986   2.881
10125SOL    HW231275   1.911   0.830   2.926
10126SOL     OW31276   6.785   5.175   0.036
10126SOL    HW131277   6.757   5.105   6.994
10126SOL    HW231278   6.830   5.249   7.011
10127SOL     OW31279   3.329   5.309   5.385
10127SOL    HW131280   3.295   5.374   5.452
10127SOL    HW231281   3.429   5.310   5.385
10128SOL     OW31282   7.005   1.811   0.618
10128SOL    HW131283   6.943   1.848   0.687
10128SOL    HW231284   0.075   1.836   0.641
10129SOL     OW31285   4.991   2.661   3.639
10129SOL    HW131286   5.028   2.664   3.731
10129SOL    HW231287   4.892   2.648   3.643
10130SOL     OW31288   0.650   5.689   2.869
10130SOL    HW131289   0.570   5.740   2.840
10130SOL    HW231290   0.698   5.653   2.789
10131SOL     OW31291   0.733   1.696   2.224
10131SOL    HW131292   0.780   1.611   2.249
10131SOL    HW231293   0.798   1.772   2.226
10132SOL     OW31294   3.484   6.414   2.966
10132SOL    HW131295   3.540   6.493   2.938
10132SOL    HW231296   3.488   6.344   2.895
10133SOL     OW31297   4.447   6.165   3.556
10133SOL    HW131298   4.358   6.121   3.567
10133SOL    HW231299   4.435   6.258   3.522
10134SOL     OW31300   6.508   1.357   3.607
10134SOL    HW131301   6.436   1.330   3.671
10134SOL    HW231302   6.551   1.276   3.568
10135SOL     OW31303   4.509   5.023   2.948
10135SOL    HW131304   4.445   4.995   3.020
10135SOL    HW231305   4.460   5.076   2.879
10136SOL     OW31306   6.095   7.004   3.691
10136SOL    HW131307   6.154   6.925   3.673
10136SOL    HW231308   6.062   7.001   3.785
10137SOL     OW31309   6.613   5.823   4.338
10137SOL    HW131310   6.628   5.908   4.388
10137SOL    HW231311   6.701   5.787   4.307
10138SOL     OW31312   5.551   2.299   0.395
10138SOL    HW131313   5.564   2.227   0.326
10138SOL    HW231314   5.546   2.388   0.350
10139SOL     OW31315   3.253   2.972   3.391
10139SOL    HW131316   3.216   2.934   3.476
10139SOL    HW231317   3.324   3.039   3.413
10140SOL     OW31318   5.976   5.319   0.128
10140SOL    HW131319   5.901   5.285   0.071
10140SOL    HW231320   6.062   5.279   0.096
10141SOL     OW31321   2.447   1.518   5.062
10141SOL    HW131322   2.410   1.593   5.006
10141SOL    HW231323   2.547   1.521   5.059
10142SOL     OW31324   4.429   6.413   5.118
10142SOL    HW131325   4.525   6.413   5.144
10142SOL    HW231326   4.415   6.348   5.043
10143SOL     OW31327   4.867   0.129   1.430
10143SOL    HW131328   4.837   0.053   1.373
10143SOL    HW231329   4.795   0.153   1.495
10144SOL     OW31330   3.421   5.508   5.875
10144SOL    HW131331   3.401   5.594   5.827
10144SOL    HW231332   3.344   5.445   5.864
10145SOL     OW31333   2.843   5.744   6.153
10145SOL    HW131334   2.916   5.801   6.190
10145SOL    HW231335   2.814   5.781   6.064
10146SOL     OW31336   3.511   5.346   4.342
10146SOL    HW131337   3.480   5.417   4.406
10146SOL    HW231338   3.610   5.341   4.342
10147SOL     OW31339   4.780   4.577   3.862
10147SOL    HW131340   4.778   4.612   3.956
10147SOL    HW231341   4.748   4.483   3.860
10148SOL     OW31342   6.267   5.949   0.365
10148SOL    HW131343   6.211   6.013   0.313
10148SOL    HW231344   6.357   5.988   0.383
10149SOL     OW31345   4.796   1.493   0.730
10149SOL    HW131346   4.799   1.409   0.784
10149SOL    HW231347   4.732   1.557   0.772
10150SOL     OW31348   4.741   4.703   0.849
10150SOL    HW131349   4.745   4.668   0.942
10150SOL    HW231350   4.687   4.788   0.847
10151SOL     OW31351   0.874   0.182   6.511
10151SOL    HW131352   0.779   0.154   6.498
10151SOL    HW231353   0.887   0.209   6.607
10152SOL     OW31354   1.589   5.275   3.768
10152SOL    HW131355   1.537   5.349   3.808
10152SOL    HW231356   1.558   5.187   3.805
10153SOL     OW31357   4.332   5.795   3.642
10153SOL    HW131358   4.429   5.775   3.657
10153SOL    HW231359   4.323   5.884   3.597
10154SOL     OW31360   6.524   6.263   5.792
10154SOL    HW131361   6.452   6.287   5.727
10154SOL    HW231362   6.611   6.252   5.744
10155SOL     OW31363   3.740   0.351   6.220
10155SOL    HW131364   3.686   0.386   6.297
10155SOL    HW231365   3.686   0.284   6.170
10156SOL     OW31366   5.403   0.106   2.640
10156SOL    HW131367   5.395   0.174   2.714
10156SOL    HW231368   5.373   0.017   2.673
10157SOL     OW31369   5.901   1.476   6.183
10157SOL    HW131370   5.823   1.439   6.234
10157SOL    HW231371   5.872   1.504   6.092
10158SOL     OW31372   4.701   3.774   0.192
10158SOL    HW131373   4.759   3.786   0.111
10158SOL    HW231374   4.655   3.686   0.187
10159SOL     OW31375   2.932   3.024   6.189
10159SOL    HW131376   2.890   3.054   6.275
10159SOL    HW231377   2.860   3.006   6.122
10160SOL     OW31378   0.800   4.544   3.007
10160SOL    HW131379   0.786   4.586   2.917
10160SOL    HW231380   0.746   4.460   3.013
10161SOL     OW31381   3.008   4.567   0.284
10161SOL    HW131382   3.084   4.596   0.342
10161SOL    HW231383   3.005   4.625   0.202
10162SOL     OW31384   2.375   3.365   6.992
10162SOL    HW131385   2.381   3.464   7.004
10162SOL    HW231386   2.465   3.324   7.005
10163SOL     OW31387   5.989   3.723   6.420
10163SOL    HW131388   6.072   3.699   6.370
10163SOL    HW231389   5.996   3.689   6.514
10164SOL     OW31390   6.697   3.238   4.394
10164SOL    HW131391   6.713   3.331   4.361
10164SOL    HW231392   6.701   3.237   4.494
10165SOL     OW31393   0.889   2.247   4.403
10165SOL    HW131394   0.869   2.163   4.454
10165SOL    HW231395   0.814   2.312   4.414
10166SOL     OW31396   3.525   0.961   1.399
10166SOL    HW131397   3.543   1.010   1.313
10166SOL    HW231398   3.536   1.024   1.476
10167SOL     OW31399   5.352   1.360   6.522
10167SOL    HW131400   5.351   1.460   6.514
10167SOL    HW231401   5.437   1.331   6.566
10168SOL     OW31402   0.229   4.226   4.752
10168SOL    HW131403   0.282   4.181   4.681
10168SOL    HW231404   0.247   4.325   4.749
10169SOL     OW31405   6.075   5.051   3.364
10169SOL    HW131406   6.128   5.019   3.442
10169SOL    HW231407   6.125   5.031   3.280
10170SOL     OW31408   0.649   4.345   5.537
10170SOL    HW131409   0.676   4.249   5.533
10170SOL    HW231410   0.549   4.352   5.537
10171SOL     OW31411   6.618   3.515   6.038
10171SOL    HW131412   6.709   3.477   6.024
10171SOL    HW231413   6.619   3.581   6.113
10172SOL     OW31414   5.472   0.312   2.854
10172SOL    HW131415   5.422   0.397   2.869
10172SOL    HW231416   5.428   0.238   2.906
10173SOL     OW31417   2.245   1.645   0.634
10173SOL    HW131418   2.230   1.551   0.665
10173SOL    HW231419   2.162   1.699   0.649
10174SOL     OW31420   5.748   4.586   2.886
10174SOL    HW131421   5.776   4.513   2.948
10174SOL    HW231422   5.678   4.552   2.823
10175SOL     OW31423   6.371   2.797   4.237
10175SOL    HW131424   6.398   2.890   4.263
10175SOL    HW231425   6.274   2.797   4.212
10176SOL     OW31426   1.552   3.364   6.005
10176SOL    HW131427   1.596   3.315   6.080
10176SOL    HW231428   1.523   3.298   5.935
10177SOL     OW31429   2.813   0.329   0.517
10177SOL    HW131430   2.773   0.304   0.429
10177SOL    HW231431   2.897   0.278   0.532
10178SOL     OW31432   5.972   3.045   4.236
10178SOL    HW131433   5.912   2.965   4.230
10178SOL    HW231434   6.043   3.028   4.304
10179SOL     OW31435   0.577   2.293   6.284
10179SOL    HW131436   0.586   2.212   6.226
10179SOL    HW231437   0.586   2.265   6.380
10180SOL     OW31438   3.064   5.375   6.109
10180SOL    HW131439   3.079   5.277   6.123
10180SOL    HW231440   2.978   5.402   6.152
10181SOL     OW31441   5.405   3.567   1.989
10181SOL    HW131442   5.364   3.637   1.931
10181SOL    HW231443   5.468   3.610   2.054
10182SOL     OW31444   5.786   1.431   1.355
10182SOL    HW131445   5.842   1.354   1.386
10182SOL    HW231446   5.834   1.517   1.373
10183SOL     OW31447   1.319   2.170   6.595
10183SOL    HW131448   1.278   2.220   6.671
10183SOL    HW231449   1.311   2.071   6.612
10184SOL     OW31450   4.538   1.696   5.939
10184SOL    HW131451   4.472   1.738   5.877
10184SOL    HW231452   4.561   1.761   6.012
10185SOL     OW31453   4.799   6.808   0.873
10185SOL    HW131454   4.838   6.771   0.788
10185SOL    HW231455   4.860   6.879   0.909
10186SOL     OW31456   5.646   3.151   3.282
10186SOL    HW131457   5.557   3.189   3.307
10186SOL    HW231458   5.677   3.089   3.354
10187SOL     OW31459   0.452   2.201   1.809
10187SOL    HW131460   0.426   2.118   1.760
10187SOL    HW231461   0.379   2.227   1.872
10188SOL     OW31462   3.765   6.291   0.263
10188SOL    HW131463   3.731   6.335   0.180
10188SOL    HW231464   3.820   6.211   0.238
10189SOL     OW31465   2.295   6.886   5.352
10189SOL    HW131466   2.341   6.900   5.439
10189SOL    HW231467   2.335   6.947   5.283
10190SOL     OW31468   4.959   2.013   0.895
10190SOL    HW131469   4.873   2.047   0.934
10190SOL    HW231470   4.938   1.947   0.822
10191SOL     OW31471   5.100   4.271   6.888
10191SOL    HW131472   5.002   4.254   6.885
10191SOL    HW231473   5.116   4.370   6.889
10192SOL     OW31474   4.125   0.730   4.867
10192SOL    HW131475   4.140   0.632   4.879
10192SOL    HW231476   4.128   0.752   4.770
10193SOL     OW31477   4.173   4.007   1.532
10193SOL    HW131478   4.108   3.941   1.495
10193SOL    HW231479   4.245   4.024   1.464
10194SOL     OW31480   5.954   4.286   4.722
10194SOL    HW131481   5.901   4.327   4.647
10194SOL    HW231482   6.031   4.345   4.745
10195SOL     OW31483   5.572   4.703   1.517
10195SOL    HW131484   5.607   4.758   1.592
10195SOL    HW231485   5.642   4.695   1.446
10196SOL     OW31486   6.292   1.675   4.892
10196SOL    HW131487   6.297   1.576   4.901
10196SOL    HW231488   6.302   1.701   4.796
10197SOL     OW31489   6.706   0.972   5.114
10197SOL    HW131490   6.760   0.890   5.099
10197SOL    HW231491   6.714   1.032   5.034
10198SOL     OW31492   3.945   0.663   2.382
10198SOL    HW131493   3.861   0.637   2.334
10198SOL    HW231494   4.024   0.648   2.322
10199SOL     OW31495   0.959   2.748   5.610
10199SOL    HW131496   0.877   2.736   5.666
10199SOL    HW231497   1.002   2.835   5.632
10200SOL     OW31498   4.939   2.590   0.998
10200SOL    HW131499   5.031   2.600   1.035
10200SOL    HW231500   4.883   2.538   1.063
10201SOL     OW31501   1.669   4.075   0.793
10201SOL    HW131502   1.736   4.062   0.720
10201SOL    HW231503   1.705   4.141   0.859
10202SOL     OW31504   3.901   1.535   5.583
10202SOL    HW131505   3.961   1.473   5.634
10202SOL    HW231506   3.840   1.582   5.647
10203SOL     OW31507   5.365   2.588   4.876
10203SOL    HW131508   5.409   2.619   4.792
10203SOL    HW231509   5.433   2.579   4.949
10204SOL     OW31510   4.907   6.470   6.634
10204SOL    HW131511   4.905   6.503   6.539
10204SOL    HW231512   4.881   6.544   6.696
10205SOL     OW31513   0.651   1.363   0.055
10205SOL    HW131514   0.607   1.378   6.991
10205SOL    HW231515   0.605   1.418   0.125
10206SOL     OW31516   1.013   0.644   5.865
10206SOL    HW131517   0.962   0.568   5.824
10206SOL    HW231518   1.056   0.614   5.950
10207SOL     OW31519   1.538   2.236   5.926
10207SOL    HW131520   1.552   2.170   6.000
10207SOL    HW231521   1.598   2.315   5.939
10208SOL     OW31522   5.160   5.515   5.063
10208SOL    HW131523   5.096   5.474   4.998
10208SOL    HW231524   5.113   5.587   5.115
10209SOL     OW31525   0.099   0.112   6.013
10209SOL    HW131526   0.102   0.139   6.109
10209SOL    HW231527   0.131   0.188   5.956
10210SOL     OW31528   4.450   6.362   1.808
10210SOL    HW131529   4.404   6.362   1.896
10210SOL    HW231530   4.410   6.432   1.749
10211SOL     OW31531   3.978   6.647   5.310
10211SOL    HW131532   3.964   6.664   5.407
10211SOL    HW231533   4.032   6.563   5.298
10212SOL     OW31534   0.933   0.070   5.668
10212SOL    HW131535   0.998   0.131   5.622
10212SOL    HW231536   0.873   0.028   5.600
10213SOL     OW31537   5.274   2.343   0.230
10213SOL    HW131538   5.343   2.410   0.258
10213SOL    HW231539   5.255   2.281   0.306
10214SOL     OW31540   1.313   2.726   1.731
10214SOL    HW131541   1.277   2.782   1.657
10214SOL    HW231542   1.256   2.737   1.813
10215SOL     OW31543   4.175   3.659   2.547
10215SOL    HW131544   4.159   3.666   2.645
10215SOL    HW231545   4.193   3.563   2.523
10216SOL     OW31546   6.025   0.419   2.091
10216SOL    HW131547   5.947   0.360   2.110
10216SOL    HW231548   5.992   0.506   2.055
10217SOL     OW31549   2.973   1.377   3.627
10217SOL    HW131550   2.906   1.386   3.700
10217SOL    HW231551   3.033   1.458   3.627
10218SOL     OW31552   1.279   2.782   2.344
10218SOL    HW131553   1.254   2.813   2.435
10218SOL    HW231554   1.244   2.690   2.328
10219SOL     OW31555   0.777   1.224   2.186
10219SOL    HW131556   0.687   1.263   2.207
10219SOL    HW231557   0.766   1.129   2.158
10220SOL     OW31558   3.772   2.565   1.677
10220SOL    HW131559   3.771   2.480   1.624
10220SOL    HW231560   3.815   2.548   1.766
10221SOL     OW31561   0.699   6.593   2.711
10221SOL    HW131562   0.759   6.555   2.640
10221SOL    HW231563   0.636   6.522   2.742
10222SOL     OW31564   2.961   3.674   4.941
10222SOL    HW131565   2.937   3.771   4.945
10222SOL    HW231566   2.882   3.619   4.966
10223SOL     OW31567   0.727   5.664   0.919
10223SOL    HW131568   0.658   5.607   0.875
10223SOL    HW231569   0.701   5.680   1.015
10224SOL     OW31570   6.120   4.095   3.161
10224SOL    HW131571   6.143   4.001   3.188
10224SOL    HW231572   6.198   4.155   3.176
10225SOL     OW31573   1.626   3.541   5.811
10225SOL    HW131574   1.671   3.504   5.730
10225SOL    HW231575   1.609   3.466   5.876
10226SOL     OW31576   4.666   2.511   7.007
10226SOL    HW131577   4.729   2.587   0.003
10226SOL    HW231578   4.639   2.514   6.911
10227SOL     OW31579   5.640   3.785   0.756
10227SOL    HW131580   5.694   3.868   0.774
10227SOL    HW231581   5.570   3.775   0.826
10228SOL     OW31582   5.398   1.055   0.532
10228SOL    HW131583   5.344   0.987   0.582
10228SOL    HW231584   5.474   1.086   0.589
10229SOL     OW31585   0.348   3.547   5.234
10229SOL    HW131586   0.337   3.602   5.152
10229SOL    HW231587   0.438   3.564   5.274
10230SOL     OW31588   6.489   5.669   2.530
10230SOL    HW131589   6.495   5.723   2.614
10230SOL    HW231590   6.394   5.639   2.516
10231SOL     OW31591   1.565   6.339   3.178
10231SOL    HW131592   1.551   6.416   3.240
10231SOL    HW231593   1.477   6.297   3.156
10232SOL     OW31594   4.286   6.708   2.838
10232SOL    HW131595   4.239   6.748   2.759
10232SOL    HW231596   4.225   6.644   2.885
10233SOL     OW31597   4.031   3.946   6.347
10233SOL    HW131598   4.085   3.868   6.378
10233SOL    HW231599   3.979   3.983   6.423
10234SOL     OW31600   6.827   1.159   1.456
10234SOL    HW131601   6.799   1.084   1.396
10234SOL    HW231602   6.923   1.148   1.481
10235SOL     OW31603   0.905   1.151   3.165
10235SOL    HW131604   0.966   1.095   3.109
10235SOL    HW231605   0.838   1.195   3.106
10236SOL     OW31606   1.971   0.151   0.895
10236SOL    HW131607   2.040   0.142   0.824
10236SOL    HW231608   1.953   0.061   0.935
10237SOL     OW31609   0.403   3.688   6.662
10237SOL    HW131610   0.338   3.740   6.606
10237SOL    HW231611   0.375   3.692   6.758
10238SOL     OW31612   4.112   5.549   0.775
10238SOL    HW131613   4.031   5.523   0.722
10238SOL    HW231614   4.133   5.476   0.840
10239SOL     OW31615   1.707   2.519   4.588
10239SOL    HW131616   1.749   2.585   4.526
10239SOL    HW231617   1.657   2.450   4.536
10240SOL     OW31618   2.639   0.218   0.899
10240SOL    HW131619   2.583   0.279   0.843
10240SOL    HW231620   2.582   0.174   0.969
10241SOL     OW31621   4.652   2.344   1.451
10241SOL    HW131622   4.723   2.413   1.435
10241SOL    HW231623   4.618   2.352   1.544
10242SOL     OW31624   6.822   2.131   0.539
10242SOL    HW131625   6.843   2.217   0.586
10242SOL    HW231626   6.747   2.085   0.586
10243SOL     OW31627   2.631   4.769   0.800
10243SOL    HW131628   2.562   4.840   0.788
10243SOL    HW231629   2.722   4.811   0.805
10244SOL     OW31630   2.352   3.998   1.849
10244SOL    HW131631   2.301   3.919   1.817
10244SOL    HW231632   2.355   3.997   1.949
10245SOL     OW31633   3.992   4.105   0.555
10245SOL    HW131634   4.019   4.094   0.650
10245SOL    HW231635   3.893   4.098   0.546
10246SOL     OW31636   3.756   2.885   4.201
10246SOL    HW131637   3.830   2.827   4.235
10246SOL    HW231638   3.677   2.877   4.262
10247SOL     OW31639   1.210   3.993   4.698
10247SOL    HW131640   1.280   3.979   4.769
10247SOL    HW231641   1.241   4.064   4.634
10248SOL     OW31642   1.298   0.350   3.348
10248SOL    HW131643   1.202   0.321   3.341
10248SOL    HW231644   1.350   0.310   3.273
10249SOL     OW31645   2.222   4.499   6.607
10249SOL    HW131646   2.192   4.571   6.545
10249SOL    HW231647   2.171   4.415   6.588
10250SOL     OW31648   5.060   2.720   6.714
10250SOL    HW131649   5.060   2.785   6.638
10250SOL    HW231650   5.150   2.676   6.719
10251SOL     OW31651   2.030   0.264   3.974
10251SOL    HW131652   2.022   0.172   4.014
10251SOL    HW231653   1.939   0.301   3.957
10252SOL     OW31654   5.160   4.159   5.830
10252SOL    HW131655   5.228   4.097   5.791
10252SOL    HW231656   5.129   4.223   5.759
10253SOL     OW31657   4.130   6.579   6.989
10253SOL    HW131658   4.202   6.567   6.922
10253SOL    HW231659   4.160   6.641   0.037
10254SOL     OW31660   5.895   1.676   4.476
10254SOL    HW131661   5.936   1.628   4.553
10254SOL    HW231662   5.882   1.772   4.499
10255SOL     OW31663   3.493   5.514   1.589
10255SOL    HW131664   3.473   5.468   1.675
10255SOL    HW231665   3.475   5.612   1.598
10256SOL     OW31666   5.121   0.988   2.855
10256SOL    HW131667   5.030   1.028   2.844
10256SOL    HW231668   5.118   0.921   2.929
10257SOL     OW31669   2.938   4.823   2.545
10257SOL    HW131670   2.946   4.911   2.500
10257SOL    HW231671   2.902   4.755   2.480
10258SOL     OW31672   1.945   1.999   2.128
10258SOL    HW131673   1.984   1.968   2.042
10258SOL    HW231674   1.911   2.092   2.119
10259SOL     OW31675   0.737   4.178   4.016
10259SOL    HW131676   0.683   4.245   3.967
10259SOL    HW231677   0.807   4.140   3.955
10260SOL     OW31678   1.535   1.256   3.619
10260SOL    HW131679   1.536   1.170   3.568
10260SOL    HW231680   1.440   1.284   3.635
10261SOL     OW31681   6.590   3.949   0.498
10261SOL    HW131682   6.560   4.018   0.564
10261SOL    HW231683   6.646   3.880   0.545
10262SOL     OW31684   3.717   1.058   6.909
10262SOL    HW131685   3.701   1.120   6.986
10262SOL    HW231686   3.813   1.062   6.882
10263SOL     OW31687   5.748   1.174   1.880
10263SOL    HW131688   5.719   1.187   1.975
10263SOL    HW231689   5.702   1.240   1.822
10264SOL     OW31690   5.841   5.232   6.716
10264SOL    HW131691   5.914   5.202   6.778
10264SOL    HW231692   5.839   5.173   6.635
10265SOL     OW31693   2.294   1.985   6.973
10265SOL    HW131694   2.248   1.976   6.885
10265SOL    HW231695   2.304   2.083   6.995
10266SOL     OW31696   3.033   3.330   2.335
10266SOL    HW131697   3.043   3.231   2.346
10266SOL    HW231698   3.112   3.376   2.375
10267SOL     OW31699   5.612   1.092   0.713
10267SOL    HW131700   5.660   1.110   0.799
10267SOL    HW231701   5.582   0.997   0.711
10268SOL     OW31702   5.000   6.827   1.276
10268SOL    HW131703   4.909   6.864   1.258
10268SOL    HW231704   5.023   6.758   1.208
10269SOL     OW31705   2.228   2.063   6.038
10269SOL    HW131706   2.191   2.102   6.122
10269SOL    HW231707   2.328   2.072   6.038
10270SOL     OW31708   3.247   6.057   1.683
10270SOL    HW131709   3.341   6.023   1.686
10270SOL    HW231710   3.196   6.008   1.612
10271SOL     OW31711   1.910   1.900   0.276
10271SOL    HW131712   1.847   1.835   0.233
10271SOL    HW231713   1.983   1.849   0.322
10272SOL     OW31714   6.658   0.685   4.388
10272SOL    HW131715   6.733   0.656   4.448
10272SOL    HW231716   6.633   0.779   4.409
10273SOL     OW31717   2.740   4.945   3.926
10273SOL    HW131718   2.816   5.009   3.941
10273SOL    HW231719   2.744   4.911   3.832
10274SOL     OW31720   0.365   5.342   5.270
10274SOL    HW131721   0.331   5.282   5.198
10274SOL    HW231722   0.373   5.291   5.356
10275SOL     OW31723   0.267   0.598   2.867
10275SOL    HW131724   0.291   0.502   2.885
10275SOL    HW231725   0.341   0.642   2.817
10276SOL     OW31726   4.318   5.836   5.904
10276SOL    HW131727   4.364   5.913   5.948
10276SOL    HW231728   4.232   5.817   5.951
10277SOL     OW31729   1.261   6.370   4.419
10277SOL    HW131730   1.185   6.409   4.367
10277SOL    HW231731   1.281   6.278   4.384
10278SOL     OW31732   0.239   0.581   5.189
10278SOL    HW131733   0.281   0.545   5.272
10278SOL    HW231734   0.309   0.597   5.120
10279SOL     OW31735   1.828   5.142   4.256
10279SOL    HW131736   1.857   5.101   4.343
10279SOL    HW231737   1.838   5.075   4.182
10280SOL     OW31738   5.374   4.398   0.651
10280SOL    HW131739   5.426   4.328   0.700
10280SOL    HW231740   5.376   4.483   0.703
10281SOL     OW31741   6.369   2.368   3.363
10281SOL    HW131742   6.358   2.272   3.338
10281SOL    HW231743   6.458   2.400   3.331
10282SOL     OW31744   5.044   3.536   2.785
10282SOL    HW131745   5.063   3.620   2.734
10282SOL    HW231746   4.948   3.512   2.775
10283SOL     OW31747   0.481   4.296   1.231
10283SOL    HW131748   0.401   4.316   1.286
10283SOL    HW231749   0.470   4.206   1.187
10284SOL     OW31750   0.332   2.521   3.830
10284SOL    HW131751   0.232   2.523   3.832
10284SOL    HW231752   0.367   2.508   3.922
10285SOL     OW31753   4.624   6.051   3.829
10285SOL    HW131754   4.540   6.079   3.781
10285SOL    HW231755   4.700   6.107   3.798
10286SOL     OW31756   3.149   1.552   4.521
10286SOL    HW131757   3.052   1.526   4.523
10286SOL    HW231758   3.157   1.650   4.539
10287SOL     OW31759   1.929   5.484   2.100
10287SOL    HW131760   2.025   5.507   2.112
10287SOL    HW231761   1.891   5.454   2.187
10288SOL     OW31762   3.892   6.995   5.039
10288SOL    HW131763   3.884   0.044   5.107
10288SOL    HW231764   3.911   0.011   4.949
10289SOL     OW31765   2.769   6.380   0.203
10289SOL    HW131766   2.681   6.395   0.247
10289SOL    HW231767   2.755   6.349   0.109
10290SOL     OW31768   3.076   2.992   2.449
10290SOL    HW131769   3.125   3.034   2.526
10290SOL    HW231770   3.036   2.906   2.479
10291SOL     OW31771   3.087   1.234   2.487
10291SOL    HW131772   3.127   1.283   2.409
10291SOL    HW231773   3.058   1.143   2.456
10292SOL     OW31774   6.750   0.331   6.293
10292SOL    HW131775   6.832   0.342   6.350
10292SOL    HW231776   6.681   0.397   6.321
10293SOL     OW31777   0.635   4.335   3.729
10293SOL    HW131778   0.733   4.347   3.714
10293SOL    HW231779   0.585   4.395   3.667
10294SOL     OW31780   3.406   2.058   2.748
10294SOL    HW131781   3.380   2.142   2.701
10294SOL    HW231782   3.380   1.979   2.693
10295SOL     OW31783   0.960   2.453   6.937
10295SOL    HW131784   1.036   2.487   6.992
10295SOL    HW231785   0.904   2.530   6.907
10296SOL     OW31786   5.908   0.895   5.874
10296SOL    HW131787   5.822   0.945   5.881
10296SOL    HW231788   5.947   0.882   5.965
10297SOL     OW31789   2.935   1.966   6.419
10297SOL    HW131790   2.990   1.913   6.356
10297SOL    HW231791   2.965   1.949   6.513
10298SOL     OW31792   0.614   3.229   2.502
10298SOL    HW131793   0.700   3.252   2.455
10298SOL    HW231794   0.569   3.313   2.530
10299SOL     OW31795   4.762   6.246   2.158
10299SOL    HW131796   4.687   6.185   2.183
10299SOL    HW231797   4.819   6.202   2.089
10300SOL     OW31798   0.683   3.549   2.012
10300SOL    HW131799   0.667   3.648   2.008
10300SOL    HW231800   0.739   3.521   1.934
10301SOL     OW31801   3.969   1.217   6.454
10301SOL    HW131802   4.026   1.229   6.536
10301SOL    HW231803   4.009   1.269   6.378
10302SOL     OW31804   2.416   5.816   4.478
10302SOL    HW131805   2.382   5.743   4.537
10302SOL    HW231806   2.346   5.840   4.411
10303SOL     OW31807   0.989   6.139   4.412
10303SOL    HW131808   1.011   6.217   4.352
10303SOL    HW231809   1.072   6.089   4.434
10304SOL     OW31810   6.394   0.141   0.254
10304SOL    HW131811   6.442   0.069   0.305
10304SOL    HW231812   6.308   0.104   0.220
10305SOL     OW31813   2.639   3.519   5.922
10305SOL    HW131814   2.654   3.618   5.931
10305SOL    HW231815   2.679   3.488   5.835
10306SOL     OW31816   6.010   0.634   1.172
10306SOL    HW131817   6.091   0.575   1.179
10306SOL    HW231818   5.929   0.585   1.204
10307SOL     OW31819   3.117   0.700   4.605
10307SOL    HW131820   3.053   0.630   4.574
10307SOL    HW231821   3.146   0.756   4.528
10308SOL     OW31822   2.420   4.687   2.161
10308SOL    HW131823   2.357   4.670   2.085
10308SOL    HW231824   2.412   4.612   2.227
10309SOL     OW31825   6.183   0.847   5.770
10309SOL    HW131826   6.086   0.872   5.772
10309SOL    HW231827   6.237   0.918   5.814
10310SOL     OW31828   2.509   3.214   6.507
10310SOL    HW131829   2.512   3.307   6.469
10310SOL    HW231830   2.466   3.217   6.598
10311SOL     OW31831   5.691   5.786   6.603
10311SOL    HW131832   5.638   5.703   6.584
10311SOL    HW231833   5.634   5.867   6.590
10312SOL     OW31834   4.591   0.332   2.078
10312SOL    HW131835   4.604   0.304   2.173
10312SOL    HW231836   4.563   0.253   2.024
10313SOL     OW31837   4.498   5.997   2.665
10313SOL    HW131838   4.500   5.915   2.722
10313SOL    HW231839   4.576   6.056   2.689
10314SOL     OW31840   0.666   6.866   6.939
10314SOL    HW131841   0.762   6.891   6.954
10314SOL    HW231842   0.632   6.816   7.018
10315SOL     OW31843   5.046   6.492   3.562
10315SOL    HW131844   5.102   6.554   3.507
10315SOL    HW231845   5.105   6.429   3.612
10316SOL     OW31846   6.619   2.080   6.314
10316SOL    HW131847   6.703   2.128   6.289
10316SOL    HW231848   6.556   2.079   6.237
10317SOL     OW31849   3.307   5.988   6.298
10317SOL    HW131850   3.279   6.014   6.391
10317SOL    HW231851   3.243   6.027   6.232
10318SOL     OW31852   5.509   7.018   0.019
10318SOL    HW131853   5.580   0.009   6.975
10318SOL    HW231854   5.482   0.082   0.059
10319SOL     OW31855   0.303   4.698   4.822
10319SOL    HW131856   0.259   4.623   4.772
10319SOL    HW231857   0.304   4.780   4.764
10320SOL     OW31858   0.030   0.427   3.556
10320SOL    HW131859   7.019   0.349   3.608
10320SOL    HW231860   7.005   0.434   3.469
10321SOL     OW31861   5.756   2.071   2.013
10321SOL    HW131862   5.736   2.122   2.096
10321SOL    HW231863   5.697   1.989   2.009
10322SOL     OW31864   4.332   4.742   4.234
10322SOL    HW131865   4.302   4.741   4.330
10322SOL    HW231866   4.372   4.654   4.211
10323SOL     OW31867   6.647   4.574   5.615
10323SOL    HW131868   6.694   4.488   5.595
10323SOL    HW231869   6.714   4.648   5.623
10324SOL     OW31870   3.219   3.523   2.452
10324SOL    HW131871   3.181   3.616   2.449
10324SOL    HW231872   3.319   3.528   2.443
10325SOL     OW31873   0.489   5.850   1.989
10325SOL    HW131874   0.434   5.892   1.916
10325SOL    HW231875   0.431   5.835   2.069
10326SOL     OW31876   5.368   3.795   6.965
10326SOL    HW131877   5.367   3.821   6.869
10326SOL    HW231878   5.274   3.776   6.996
10327SOL     OW31879   2.770   3.785   1.264
10327SOL    HW131880   2.708   3.707   1.269
10327SOL    HW231881   2.828   3.788   1.346
10328SOL     OW31882   6.478   3.459   1.985
10328SOL    HW131883   6.527   3.384   1.941
10328SOL    HW231884   6.454   3.528   1.916
10329SOL     OW31885   3.161   1.182   2.984
10329SOL    HW131886   3.131   1.086   2.986
10329SOL    HW231887   3.105   1.236   3.047
10330SOL     OW31888   4.820   0.083   0.793
10330SOL    HW131889   4.782   0.153   0.854
10330SOL    HW231890   4.895   0.035   0.840
10331SOL     OW31891   5.979   6.233   6.807
10331SOL    HW131892   6.050   6.200   6.746
10331SOL    HW231893   5.983   6.332   6.813
10332SOL     OW31894   0.880   1.177   0.368
10332SOL    HW131895   0.926   1.129   0.294
10332SOL    HW231896   0.839   1.111   0.431
10333SOL     OW31897   0.695   5.837   4.320
10333SOL    HW131898   0.693   5.818   4.222
10333SOL    HW231899   0.619   5.790   4.364
10334SOL     OW31900   2.882   6.931   3.948
10334SOL    HW131901   2.803   6.986   3.974
10334SOL    HW231902   2.966   6.978   3.976
10335SOL     OW31903   0.220   4.529   6.445
10335SOL    HW131904   0.205   4.624   6.469
10335SOL    HW231905   0.289   4.490   6.506
10336SOL     OW31906   5.949   0.029   2.836
10336SOL    HW131907   6.021   0.077   2.886
10336SOL    HW231908   5.923   0.083   2.756
10337SOL     OW31909   6.186   5.443   6.860
10337SOL    HW131910   6.284   5.440   6.877
10337SOL    HW231911   6.154   5.352   6.832
10338SOL     OW31912   1.964   6.193   1.821
10338SOL    HW131913   2.013   6.251   1.755
10338SOL    HW231914   2.025   6.121   1.854
10339SOL     OW31915   6.845   3.035   5.825
10339SOL    HW131916   6.945   3.033   5.815
10339SOL    HW231917   6.810   2.941   5.821
10340SOL     OW31918   1.181   3.164   6.270
10340SOL    HW131919   1.144   3.234   6.208
10340SOL    HW231920   1.212   3.208   6.354
10341SOL     OW31921   2.121   3.283   2.486
10341SOL    HW131922   2.130   3.191   2.447
10341SOL    HW231923   2.132   3.351   2.414
10342SOL     OW31924   1.871   0.442   3.526
10342SOL    HW131925   1.853   0.528   3.478
10342SOL    HW231926   1.791   0.416   3.580
10343SOL     OW31927   2.402   5.717   0.934
10343SOL    HW131928   2.370   5.805   0.899
10343SOL    HW231929   2.330   5.649   0.924
10344SOL     OW31930   3.489   3.906   6.787
10344SOL    HW131931   3.407   3.850   6.776
10344SOL    HW231932   3.487   3.950   6.877
10345SOL     OW31933   1.489   2.826   5.220
10345SOL    HW131934   1.407   2.871   5.185
10345SOL    HW231935   1.487   2.729   5.195
10346SOL     OW31936   6.889   5.750   1.488
10346SOL    HW131937   6.889   5.850   1.494
10346SOL    HW231938   6.866   5.711   1.577
10347SOL     OW31939   4.471   0.941   3.921
10347SOL    HW131940   4.393   0.879   3.908
10347SOL    HW231941   4.516   0.920   4.008
10348SOL     OW31942   5.816   3.178   0.159
10348SOL    HW131943   5.814   3.278   0.152
10348SOL    HW231944   5.849   3.152   0.250
10349SOL     OW31945   0.735   6.833   6.022
10349SOL    HW131946   0.723   6.922   6.066
10349SOL    HW231947   0.650   6.780   6.030
10350SOL     OW31948   3.026   6.556   5.370
10350SOL    HW131949   3.018   6.457   5.357
10350SOL    HW231950   2.942   6.601   5.338
10351SOL     OW31951   4.431   5.060   5.783
10351SOL    HW131952   4.373   4.982   5.756
10351SOL    HW231953   4.394   5.101   5.866
10352SOL     OW31954   3.607   1.295   6.168
10352SOL    HW131955   3.536   1.354   6.207
10352SOL    HW231956   3.683   1.352   6.134
10353SOL     OW31957   6.459   3.039   4.381
10353SOL    HW131958   6.489   3.086   4.464
10353SOL    HW231959   6.454   3.105   4.306
10354SOL     OW31960   5.140   0.943   1.602
10354SOL    HW131961   5.078   0.874   1.638
10354SOL    HW231962   5.209   0.966   1.671
10355SOL     OW31963   2.539   6.027   2.196
10355SOL    HW131964   2.545   6.122   2.165
10355SOL    HW231965   2.564   6.022   2.293
10356SOL     OW31966   6.785   4.339   5.601
10356SOL    HW131967   6.728   4.268   5.559
10356SOL    HW231968   6.872   4.343   5.552
10357SOL     OW31969   2.098   2.257   6.497
10357SOL    HW131970   2.037   2.201   6.553
10357SOL    HW231971   2.101   2.350   6.532
10358SOL     OW31972   0.435   2.960   2.939
10358SOL    HW131973   0.508   2.998   2.996
10358SOL    HW231974   0.408   3.027   2.870
10359SOL     OW31975   0.325   1.391   1.669
10359SOL    HW131976   0.253   1.337   1.714
10359SOL    HW231977   0.405   1.334   1.655
10360SOL     OW31978   5.195   6.261   3.293
10360SOL    HW131979   5.250   6.344   3.308
10360SOL    HW231980   5.180   6.215   3.380
10361SOL     OW31981   2.867   5.902   2.360
10361SOL    HW131982   2.935   5.925   2.291
10361SOL    HW231983   2.791   5.852   2.318
10362SOL     OW31984   1.973   4.505   4.728
10362SOL    HW131985   1.999   4.425   4.782
10362SOL    HW231986   2.055   4.554   4.700
10363SOL     OW31987   5.157   0.174   3.794
10363SOL    HW131988   5.130   0.265   3.763
10363SOL    HW231989   5.231   0.140   3.736
10364SOL     OW31990   2.187   4.336   1.096
10364SOL    HW131991   2.220   4.429   1.108
10364SOL    HW231992   2.135   4.329   1.011
10365SOL     OW31993   4.799   4.935   0.139
10365SOL    HW131994   4.828   5.030   0.153
10365SOL    HW231995   4.699   4.931   0.130
10366SOL     OW31996   2.776   7.008   3.518
10366SOL    HW131997   2.718   7.017   3.437
10366SOL    HW231998   2.871   0.003   3.493
10367SOL     OW31999   5.910   2.561   3.064
10367SOL    HW132000   5.819   2.532   3.093
10367SOL    HW232001   5.945   2.630   3.128
10368SOL     OW32002   2.253   1.494   1.929
10368SOL    HW132003   2.287   1.506   2.022
10368SOL    HW232004   2.279   1.403   1.895
10369SOL     OW32005   4.082   2.193   0.402
10369SOL    HW132006   4.069   2.195   0.303
10369SOL    HW232007   4.135   2.273   0.431
10370SOL     OW32008   4.402   1.023   5.413
10370SOL    HW132009   4.304   1.010   5.428
10370SOL    HW232010   4.417   1.075   5.329
10371SOL     OW32011   4.582   5.921   5.175
10371SOL    HW132012   4.677   5.898   5.192
10371SOL    HW232013   4.557   6.002   5.228
10372SOL     OW32014   2.292   0.963   3.757
10372SOL    HW132015   2.241   0.969   3.843
10372SOL    HW232016   2.381   1.007   3.768
10373SOL     OW32017   1.088   6.632   4.178
10373SOL    HW132018   0.995   6.613   4.146
10373SOL    HW232019   1.152   6.571   4.132
10374SOL     OW32020   2.985   1.949   3.082
10374SOL    HW132021   3.076   1.986   3.066
10374SOL    HW232022   2.987   1.849   3.074
10375SOL     OW32023   5.935   1.805   0.995
10375SOL    HW132024   5.875   1.859   1.053
10375SOL    HW232025   5.896   1.799   0.903
10376SOL     OW32026   0.315   0.907   3.865
10376SOL    HW132027   0.337   0.810   3.873
10376SOL    HW232028   0.306   0.931   3.769
10377SOL     OW32029   0.352   0.637   3.775
10377SOL    HW132030   0.327   0.560   3.834
10377SOL    HW232031   0.330   0.613   3.680
10378SOL     OW32032   6.909   0.486   6.135
10378SOL    HW132033   7.008   0.477   6.147
10378SOL    HW232034   6.865   0.397   6.151
10379SOL     OW32035   5.205   0.749   4.591
10379SOL    HW132036   5.236   0.662   4.629
10379SOL    HW232037   5.285   0.804   4.565
10380SOL     OW32038   5.157   0.571   1.937
10380SOL    HW132039   5.091   0.521   1.993
10380SOL    HW232040   5.139   0.669   1.944
10381SOL     OW32041   4.647   4.712   5.831
10381SOL    HW132042   4.657   4.805   5.795
10381SOL    HW232043   4.727   4.658   5.808
10382SOL     OW32044   2.247   5.310   6.706
10382SOL    HW132045   2.315   5.253   6.659
10382SOL    HW232046   2.170   5.328   6.644
10383SOL     OW32047   0.557   2.508   1.423
10383SOL    HW132048   0.483   2.518   1.356
10383SOL    HW232049   0.640   2.479   1.377
10384SOL     OW32050   6.318   0.099   0.661
10384SOL    HW132051   6.298   0.031   0.591
10384SOL    HW232052   6.284   0.068   0.750
10385SOL     OW32053   6.309   1.199   6.895
10385SOL    HW132054   6.271   1.235   6.810
10385SOL    HW232055   6.336   1.276   6.954
10386SOL     OW32056   6.302   3.157   5.264
10386SOL    HW132057   6.386   3.211   5.260
10386SOL    HW232058   6.312   3.074   5.209
10387SOL     OW32059   1.853   2.336   3.220
10387SOL    HW132060   1.859   2.434   3.198
10387SOL    HW232061   1.931   2.310   3.277
10388SOL     OW32062   1.509   5.077   2.890
10388SOL    HW132063   1.494   5.166   2.847
10388SOL    HW232064   1.500   5.086   2.989
10389SOL     OW32065   0.623   4.719   3.453
10389SOL    HW132066   0.678   4.714   3.370
10389SOL    HW232067   0.553   4.790   3.443
10390SOL     OW32068   0.986   3.503   3.509
10390SOL    HW132069   0.999   3.557   3.593
10390SOL    HW232070   1.059   3.436   3.502
10391SOL     OW32071   2.598   6.607   5.998
10391SOL    HW132072   2.631   6.513   6.000
10391SOL    HW232073   2.632   6.656   6.078
10392SOL     OW32074   0.014   5.212   0.277
10392SOL    HW132075   7.003   5.262   0.198
10392SOL    HW232076   6.980   5.133   0.295
10393SOL     OW32077   1.431   1.363   4.094
10393SOL    HW132078   1.402   1.313   4.012
10393SOL    HW232079   1.356   1.361   4.161
10394SOL     OW32080   2.346   6.432   0.136
10394SOL    HW132081   2.361   6.515   0.082
10394SOL    HW232082   2.414   6.426   0.209
10395SOL     OW32083   0.300   0.943   4.666
10395SOL    HW132084   0.391   0.901   4.672
10395SOL    HW232085   0.248   0.922   4.749
10396SOL     OW32086   1.234   6.922   4.933
10396SOL    HW132087   1.308   6.985   4.956
10396SOL    HW232088   1.246   6.889   4.840
10397SOL     OW32089   3.336   1.597   2.881
10397SOL    HW132090   3.405   1.659   2.919
10397SOL    HW232091   3.248   1.645   2.876
10398SOL     OW32092   6.331   2.687   2.464
10398SOL    HW132093   6.427   2.666   2.446
10398SOL    HW232094   6.274   2.645   2.393
10399SOL     OW32095   5.459   2.175   5.021
10399SOL    HW132096   5.500   2.214   4.939
10399SOL    HW232097   5.455   2.076   5.012
10400SOL     OW32098   2.490   5.479   1.764
10400SOL    HW132099   2.397   5.465   1.799
10400SOL    HW232100   2.499   5.572   1.730
10401SOL     OW32101   0.814   6.090   1.939
10401SOL    HW132102   0.833   6.163   1.873
10401SOL    HW232103   0.728   6.110   1.987
10402SOL     OW32104   0.460   3.464   4.409
10402SOL    HW132105   0.526   3.390   4.423
10402SOL    HW232106   0.492   3.524   4.336
10403SOL     OW32107   5.661   1.194   2.178
10403SOL    HW132108   5.585   1.247   2.142
10403SOL    HW232109   5.629   1.135   2.252
10404SOL     OW32110   0.762   6.402   3.467
10404SOL    HW132111   0.709   6.336   3.521
10404SOL    HW232112   0.714   6.490   3.466
10405SOL     OW32113   1.691   6.262   6.130
10405SOL    HW132114   1.638   6.284   6.048
10405SOL    HW232115   1.649   6.304   6.210
10406SOL     OW32116   2.266   4.494   5.974
10406SOL    HW132117   2.290   4.424   5.906
10406SOL    HW232118   2.311   4.473   6.061
10407SOL     OW32119   0.542   2.172   0.194
10407SOL    HW132120   0.615   2.131   0.249
10407SOL    HW232121   0.481   2.099   0.161
10408SOL     OW32122   4.566   5.777   2.839
10408SOL    HW132123   4.591   5.681   2.850
10408SOL    HW232124   4.567   5.823   2.928
10409SOL     OW32125   6.212   4.995   2.807
10409SOL    HW132126   6.143   4.963   2.872
10409SOL    HW232127   6.205   5.095   2.797
10410SOL     OW32128   5.174   0.444   0.943
10410SOL    HW132129   5.080   0.414   0.926
10410SOL    HW232130   5.180   0.488   1.033
10411SOL     OW32131   2.338   4.832   3.073
10411SOL    HW132132   2.415   4.768   3.068
10411SOL    HW232133   2.325   4.875   2.983
10412SOL     OW32134   0.506   2.218   0.608
10412SOL    HW132135   0.462   2.198   0.695
10412SOL    HW232136   0.462   2.296   0.565
10413SOL     OW32137   0.178   1.894   6.984
10413SOL    HW132138   0.079   1.901   6.997
10413SOL    HW232139   0.223   1.962   0.017
10414SOL     OW32140   6.049   6.456   5.360
10414SOL    HW132141   6.030   6.357   5.355
10414SOL    HW232142   6.043   6.485   5.455
10415SOL     OW32143   0.485   6.041   3.707
10415SOL    HW132144   0.539   6.116   3.671
10415SOL    HW232145   0.391   6.072   3.722
10416SOL     OW32146   5.652   1.239   5.793
10416SOL    HW132147   5.638   1.335   5.819
10416SOL    HW232148   5.612   1.223   5.702
10417SOL     OW32149   3.685   4.945   4.123
10417SOL    HW132150   3.780   4.941   4.153
10417SOL    HW232151   3.644   5.030   4.156
10418SOL     OW32152   5.951   3.637   6.680
10418SOL    HW132153   5.996   3.552   6.707
10418SOL    HW232154   5.863   3.645   6.727
10419SOL     OW32155   2.481   1.515   4.469
10419SOL    HW132156   2.489   1.547   4.563
10419SOL    HW232157   2.435   1.426   4.468
10420SOL     OW32158   6.222   3.606   3.137
10420SOL    HW132159   6.273   3.617   3.052
10420SOL    HW232160   6.286   3.605   3.214
10421SOL     OW32161   1.161   4.431   4.720
10421SOL    HW132162   1.071   4.464   4.689
10421SOL    HW232163   1.149   4.347   4.772
10422SOL     OW32164   6.531   3.774   4.974
10422SOL    HW132165   6.596   3.783   4.899
10422SOL    HW232166   6.577   3.792   5.061
10423SOL     OW32167   2.964   5.093   3.882
10423SOL    HW132168   3.009   5.070   3.968
10423SOL    HW232169   2.990   5.028   3.811
10424SOL     OW32170   3.876   1.008   0.625
10424SOL    HW132171   3.898   1.018   0.722
10424SOL    HW232172   3.890   1.096   0.579
10425SOL     OW32173   1.429   2.226   0.752
10425SOL    HW132174   1.494   2.254   0.681
10425SOL    HW232175   1.341   2.270   0.735
10426SOL     OW32176   6.210   2.133   6.281
10426SOL    HW132177   6.190   2.221   6.323
10426SOL    HW232178   6.295   2.138   6.230
10427SOL     OW32179   5.340   6.497   4.533
10427SOL    HW132180   5.305   6.452   4.451
10427SOL    HW232181   5.397   6.575   4.506
10428SOL     OW32182   2.746   0.493   3.864
10428SOL    HW132183   2.768   0.526   3.773
10428SOL    HW232184   2.807   0.417   3.888
10429SOL     OW32185   1.175   2.531   2.240
10429SOL    HW132186   1.219   2.571   2.159
10429SOL    HW232187   1.092   2.484   2.212
10430SOL     OW32188   3.506   0.012   3.534
10430SOL    HW132189   3.441   0.002   3.459
10430SOL    HW232190   3.479   6.976   3.610
10431SOL     OW32191   3.550   0.462   2.589
10431SOL    HW132192   3.484   0.462   2.514
10431SOL    HW232193   3.566   0.555   2.620
10432SOL     OW32194   1.231   5.709   6.076
10432SOL    HW132195   1.183   5.742   6.157
10432SOL    HW232196   1.304   5.773   6.053
10433SOL     OW32197   2.508   0.135   2.488
10433SOL    HW132198   2.586   0.107   2.545
10433SOL    HW232199   2.438   0.064   2.489
10434SOL     OW32200   4.845   0.278   5.426
10434SOL    HW132201   4.809   0.232   5.506
10434SOL    HW232202   4.919   0.223   5.386
10435SOL     OW32203   2.268   1.891   6.674
10435SOL    HW132204   2.175   1.856   6.681
10435SOL    HW232205   2.265   1.990   6.660
10436SOL     OW32206   6.700   3.506   5.334
10436SOL    HW132207   6.753   3.571   5.280
10436SOL    HW232208   6.608   3.541   5.348
10437SOL     OW32209   5.424   6.608   5.105
10437SOL    HW132210   5.519   6.630   5.129
10437SOL    HW232211   5.422   6.566   5.014
10438SOL     OW32212   6.478   6.079   6.789
10438SOL    HW132213   6.430   6.026   6.859
10438SOL    HW232214   6.436   6.169   6.781
10439SOL     OW32215   6.730   6.484   4.947
10439SOL    HW132216   6.737   6.392   4.984
10439SOL    HW232217   6.634   6.513   4.945
10440SOL     OW32218   6.664   2.634   0.794
10440SOL    HW132219   6.760   2.607   0.800
10440SOL    HW232220   6.625   2.601   0.708
10441SOL     OW32221   4.352   1.595   0.622
10441SOL    HW132222   4.331   1.675   0.565
10441SOL    HW232223   4.338   1.618   0.718
10442SOL     OW32224   2.282   2.270   5.867
10442SOL    HW132225   2.249   2.361   5.891
10442SOL    HW232226   2.241   2.203   5.929
10443SOL     OW32227   0.460   1.448   2.854
10443SOL    HW132228   0.444   1.412   2.762
10443SOL    HW232229   0.461   1.372   2.920
10444SOL     OW32230   3.805   5.298   4.225
10444SOL    HW132231   3.886   5.241   4.239
10444SOL    HW232232   3.726   5.240   4.204
10445SOL     OW32233   0.850   3.369   3.153
10445SOL    HW132234   0.753   3.345   3.156
10445SOL    HW232235   0.872   3.412   3.066
10446SOL     OW32236   1.919   4.438   5.760
10446SOL    HW132237   1.841   4.388   5.722
10446SOL    HW232238   1.986   4.374   5.797
10447SOL     OW32239   0.372   1.756   3.210
10447SOL    HW132240   0.432   1.714   3.142
10447SOL    HW232241   0.373   1.855   3.199
10448SOL     OW32242   2.448   6.477   2.335
10448SOL    HW132243   2.475   6.530   2.415
10448SOL    HW232244   2.401   6.537   2.270
10449SOL     OW32245   3.465   4.907   4.737
10449SOL    HW132246   3.479   4.970   4.661
10449SOL    HW232247   3.420   4.824   4.704
10450SOL     OW32248   0.112   0.957   6.015
10450SOL    HW132249   0.191   0.911   6.056
10450SOL    HW232250   0.076   0.900   5.941
10451SOL     OW32251   3.096   0.968   3.321
10451SOL    HW132252   3.055   1.006   3.404
10451SOL    HW232253   3.039   0.992   3.242
10452SOL     OW32254   6.669   3.753   4.705
10452SOL    HW132255   6.728   3.730   4.627
10452SOL    HW232256   6.718   3.816   4.766
10453SOL     OW32257   3.993   6.073   3.366
10453SOL    HW132258   3.911   6.130   3.364
10453SOL    HW232259   3.975   5.986   3.320
10454SOL     OW32260   6.790   1.090   5.894
10454SOL    HW132261   6.785   1.180   5.851
10454SOL    HW232262   6.857   1.033   5.846
10455SOL     OW32263   6.521   5.754   3.647
10455SOL    HW132264   6.562   5.827   3.592
10455SOL    HW232265   6.539   5.770   3.744
10456SOL     OW32266   1.007   5.193   6.675
10456SOL    HW132267   1.032   5.097   6.665
10456SOL    HW232268   0.917   5.208   6.635
10457SOL     OW32269   3.631   2.548   6.719
10457SOL    HW132270   3.689   2.625   6.693
10457SOL    HW232271   3.687   2.466   6.733
10458SOL     OW32272   0.449   5.899   6.680
10458SOL    HW132273   0.410   5.903   6.588
10458SOL    HW232274   0.480   5.990   6.708
10459SOL     OW32275   0.189   5.085   0.687
10459SOL    HW132276   0.271   5.133   0.719
10459SOL    HW232277   0.187   5.085   0.587
10460SOL     OW32278   0.181   1.586   0.919
10460SOL    HW132279   0.125   1.534   0.853
10460SOL    HW232280   0.122   1.645   0.973
10461SOL     OW32281   6.726   5.233   6.200
10461SOL    HW132282   6.754   5.215   6.106
10461SOL    HW232283   6.683   5.323   6.206
10462SOL     OW32284   4.731   2.088   0.688
10462SOL    HW132285   4.818   2.060   0.647
10462SOL    HW232286   4.656   2.037   0.646
10463SOL     OW32287   4.490   2.652   6.270
10463SOL    HW132288   4.519   2.642   6.175
10463SOL    HW232289   4.570   2.666   6.329
10464SOL     OW32290   6.656   4.971   2.337
10464SOL    HW132291   6.631   5.059   2.376
10464SOL    HW232292   6.714   4.921   2.402
10465SOL     OW32293   5.302   4.298   1.064
10465SOL    HW132294   5.294   4.397   1.074
10465SOL    HW232295   5.269   4.253   1.147
10466SOL     OW32296   6.371   4.925   6.545
10466SOL    HW132297   6.320   4.883   6.620
10466SOL    HW232298   6.363   4.868   6.463
10467SOL     OW32299   0.852   3.486   0.606
10467SOL    HW132300   0.766   3.525   0.637
10467SOL    HW232301   0.863   3.503   0.508
10468SOL     OW32302   2.216   4.606   4.077
10468SOL    HW132303   2.159   4.565   4.148
10468SOL    HW232304   2.173   4.691   4.046
10469SOL     OW32305   0.032   1.453   4.197
10469SOL    HW132306   0.076   1.508   4.268
10469SOL    HW232307   0.092   1.449   4.117
10470SOL     OW32308   1.857   2.586   3.122
10470SOL    HW132309   1.927   2.656   3.117
10470SOL    HW232310   1.797   2.593   3.043
10471SOL     OW32311   2.766   6.838   6.895
10471SOL    HW132312   2.748   6.801   6.804
10471SOL    HW232313   2.787   6.764   6.958
10472SOL     OW32314   3.954   4.635   6.619
10472SOL    HW132315   4.025   4.678   6.563
10472SOL    HW232316   3.922   4.552   6.574
10473SOL     OW32317   5.523   5.308   0.513
10473SOL    HW132318   5.481   5.278   0.428
10473SOL    HW232319   5.477   5.266   0.590
10474SOL     OW32320   5.414   0.855   4.432
10474SOL    HW132321   5.375   0.912   4.360
10474SOL    HW232322   5.492   0.804   4.395
10475SOL     OW32323   1.520   6.483   0.730
10475SOL    HW132324   1.514   6.481   0.631
10475SOL    HW232325   1.432   6.514   0.768
10476SOL     OW32326   4.415   5.654   0.163
10476SOL    HW132327   4.317   5.636   0.163
10476SOL    HW232328   4.458   5.606   0.087
10477SOL     OW32329   6.587   5.302   3.719
10477SOL    HW132330   6.682   5.330   3.713
10477SOL    HW232331   6.531   5.380   3.748
10478SOL     OW32332   5.914   1.054   0.225
10478SOL    HW132333   5.926   1.112   0.306
10478SOL    HW232334   5.904   0.959   0.255
10479SOL     OW32335   1.311   2.202   2.166
10479SOL    HW132336   1.214   2.187   2.187
10479SOL    HW232337   1.363   2.120   2.190
10480SOL     OW32338   1.986   0.252   2.150
10480SOL    HW132339   1.996   0.156   2.176
10480SOL    HW232340   2.048   0.272   2.074
10481SOL     OW32341   6.820   0.930   2.269
10481SOL    HW132342   6.823   0.955   2.366
10481SOL    HW232343   6.910   0.940   2.229
10482SOL     OW32344   4.839   3.982   4.635
10482SOL    HW132345   4.799   4.011   4.722
10482SOL    HW232346   4.865   3.886   4.640
10483SOL     OW32347   6.080   6.587   0.334
10483SOL    HW132348   6.042   6.581   0.242
10483SOL    HW232349   6.027   6.529   0.396
10484SOL     OW32350   6.110   1.249   2.601
10484SOL    HW132351   6.107   1.204   2.690
10484SOL    HW232352   6.024   1.298   2.586
10485SOL     OW32353   5.982   3.970   5.460
10485SOL    HW132354   5.906   3.932   5.406
10485SOL    HW232355   6.035   3.895   5.499
10486SOL     OW32356   5.473   2.788   1.845
10486SOL    HW132357   5.476   2.862   1.912
10486SOL    HW232358   5.388   2.793   1.793
10487SOL     OW32359   5.917   6.773   1.683
10487SOL    HW132360   5.993   6.812   1.734
10487SOL    HW232361   5.941   6.680   1.653
10488SOL     OW32362   2.355   2.675   6.231
10488SOL    HW132363   2.377   2.579   6.250
10488SOL    HW232364   2.258   2.691   6.246
10489SOL     OW32365   0.941   5.993   6.181
10489SOL    HW132366   0.900   5.907   6.208
10489SOL    HW232367   0.871   6.065   6.180
10490SOL     OW32368   6.756   1.014   3.844
10490SOL    HW132369   6.775   0.958   3.924
10490SOL    HW232370   6.827   1.000   3.775
10491SOL     OW32371   1.547   4.197   5.807
10491SOL    HW132372   1.548   4.249   5.893
10491SOL    HW232373   1.477   4.125   5.813
10492SOL     OW32374   4.795   3.320   5.163
10492SOL    HW132375   4.779   3.398   5.102
10492SOL    HW232376   4.893   3.311   5.181
10493SOL     OW32377   2.872   1.087   1.799
10493SOL    HW132378   2.911   1.004   1.759
10493SOL    HW232379   2.936   1.163   1.788
10494SOL     OW32380   6.182   2.438   4.399
10494SOL    HW132381   6.277   2.464   4.381
10494SOL    HW232382   6.179   2.343   4.431
10495SOL     OW32383   0.981   6.746   0.429
10495SOL    HW132384   1.060   6.741   0.367
10495SOL    HW232385   0.975   6.661   0.481
10496SOL     OW32386   6.925   6.838   5.465
10496SOL    HW132387   6.893   6.932   5.476
10496SOL    HW232388   6.995   6.818   5.534
10497SOL     OW32389   1.514   1.069   1.020
10497SOL    HW132390   1.485   1.110   1.106
10497SOL    HW232391   1.451   0.994   0.997
10498SOL     OW32392   2.415   5.845   6.121
10498SOL    HW132393   2.478   5.911   6.078
10498SOL    HW232394   2.376   5.786   6.051
10499SOL     OW32395   3.455   5.801   3.113
10499SOL    HW132396   3.420   5.808   3.206
10499SOL    HW232397   3.388   5.753   3.055
10500SOL     OW32398   1.221   2.031   6.286
10500SOL    HW132399   1.148   2.054   6.349
10500SOL    HW232400   1.185   2.029   6.192
10501SOL     OW32401   1.419   3.235   2.822
10501SOL    HW132402   1.349   3.219   2.892
10501SOL    HW232403   1.384   3.209   2.732
10502SOL     OW32404   3.179   5.841   6.746
10502SOL    HW132405   3.273   5.875   6.734
10502SOL    HW232406   3.179   5.766   6.812
10503SOL     OW32407   2.923   3.318   6.702
10503SOL    HW132408   2.845   3.334   6.762
10503SOL    HW232409   2.940   3.399   6.647
10504SOL     OW32410   2.976   2.946   0.930
10504SOL    HW132411   2.893   2.901   0.965
10504SOL    HW232412   2.972   2.951   0.830
10505SOL     OW32413   6.944   6.009   1.376
10505SOL    HW132414   7.016   6.049   1.434
10505SOL    HW232415   6.987   5.959   1.300
10506SOL     OW32416   0.355   3.984   5.830
10506SOL    HW132417   0.351   3.964   5.732
10506SOL    HW232418   0.449   4.005   5.856
10507SOL     OW32419   0.900   0.193   5.931
10507SOL    HW132420   0.983   0.185   5.987
10507SOL    HW232421   0.916   0.150   5.842
10508SOL     OW32422   5.331   4.182   3.207
10508SOL    HW132423   5.322   4.087   3.177
10508SOL    HW232424   5.350   4.240   3.128
10509SOL     OW32425   1.392   0.360   6.489
10509SOL    HW132426   1.470   0.386   6.547
10509SOL    HW232427   1.422   0.293   6.422
10510SOL     OW32428   6.738   5.641   6.936
10510SOL    HW132429   6.696   5.707   6.874
10510SOL    HW232430   6.739   5.551   6.893
10511SOL     OW32431   4.359   2.665   0.768
10511SOL    HW132432   4.312   2.751   0.787
10511SOL    HW232433   4.295   2.602   0.723
10512SOL     OW32434   3.990   6.545   6.354
10512SOL    HW132435   3.973   6.638   6.321
10512SOL    HW232436   4.088   6.526   6.352
10513SOL     OW32437   0.578   2.592   6.996
10513SOL    HW132438   0.594   2.494   7.006
10513SOL    HW232439   0.665   2.638   6.978
10514SOL     OW32440   0.321   5.108   0.937
10514SOL    HW132441   0.333   5.024   0.989
10514SOL    HW232442   0.226   5.138   0.942
10515SOL     OW32443   6.897   2.176   3.474
10515SOL    HW132444   6.929   2.203   3.565
10515SOL    HW232445   6.962   2.110   3.434
10516SOL     OW32446   4.127   0.453   5.967
10516SOL    HW132447   4.028   0.452   5.958
10516SOL    HW232448   4.161   0.358   5.968
10517SOL     OW32449   6.912   2.093   2.741
10517SOL    HW132450   6.888   2.129   2.652
10517SOL    HW232451   6.846   2.124   2.809
10518SOL     OW32452   1.145   6.265   1.190
10518SOL    HW132453   1.045   6.259   1.184
10518SOL    HW232454   1.180   6.184   1.236
10519SOL     OW32455   2.876   3.529   5.246
10519SOL    HW132456   2.879   3.433   5.220
10519SOL    HW232457   2.966   3.571   5.229
10520SOL     OW32458   4.620   2.238   7.020
10520SOL    HW132459   4.635   2.337   7.017
10520SOL    HW232460   4.675   2.199   0.070
10521SOL     OW32461   6.441   5.728   1.275
10521SOL    HW132462   6.535   5.756   1.294
10521SOL    HW232463   6.431   5.706   1.178
10522SOL     OW32464   6.341   0.955   2.019
10522SOL    HW132465   6.286   1.036   2.041
10522SOL    HW232466   6.293   0.873   2.050
10523SOL     OW32467   6.807   5.667   6.284
10523SOL    HW132468   6.901   5.634   6.281
10523SOL    HW232469   6.805   5.760   6.319
10524SOL     OW32470   2.984   0.706   3.764
10524SOL    HW132471   2.940   0.688   3.852
10524SOL    HW232472   2.915   0.734   3.698
10525SOL     OW32473   2.334   6.253   4.961
10525SOL    HW132474   2.280   6.323   5.008
10525SOL    HW232475   2.298   6.162   4.983
10526SOL     OW32476   6.718   0.666   2.607
10526SOL    HW132477   6.757   0.622   2.526
10526SOL    HW232478   6.624   0.692   2.587
10527SOL     OW32479   0.957   2.585   4.333
10527SOL    HW132480   0.872   2.547   4.299
10527SOL    HW232481   1.025   2.586   4.260
10528SOL     OW32482   0.540   5.012   4.950
10528SOL    HW132483   0.603   5.065   5.007
10528SOL    HW232484   0.448   5.017   4.989
10529SOL     OW32485   6.915   0.238   3.681
10529SOL    HW132486   6.854   0.298   3.734
10529SOL    HW232487   6.894   0.143   3.704
10530SOL     OW32488   2.756   1.952   6.095
10530SOL    HW132489   2.708   1.869   6.065
10530SOL    HW232490   2.854   1.940   6.081
10531SOL     OW32491   1.745   2.933   5.169
10531SOL    HW132492   1.763   2.969   5.261
10531SOL    HW232493   1.662   2.876   5.171
10532SOL     OW32494   3.983   2.388   5.516
10532SOL    HW132495   4.029   2.404   5.429
10532SOL    HW232496   3.939   2.473   5.546
10533SOL     OW32497   2.625   1.167   5.556
10533SOL    HW132498   2.673   1.191   5.472
10533SOL    HW232499   2.550   1.104   5.536
10534SOL     OW32500   0.096   5.682   0.893
10534SOL    HW132501   0.187   5.641   0.892
10534SOL    HW232502   0.057   5.678   0.801
10535SOL     OW32503   0.553   1.376   2.247
10535SOL    HW132504   0.535   1.395   2.151
10535SOL    HW232505   0.546   1.460   2.300
10536SOL     OW32506   4.651   0.250   2.890
10536SOL    HW132507   4.699   0.167   2.916
10536SOL    HW232508   4.679   0.325   2.950
10537SOL     OW32509   1.237   4.850   2.365
10537SOL    HW132510   1.317   4.857   2.426
10537SOL    HW232511   1.227   4.756   2.334
10538SOL     OW32512   4.463   3.639   0.659
10538SOL    HW132513   4.515   3.596   0.585
10538SOL    HW232514   4.396   3.702   0.621
10539SOL     OW32515   0.318   3.605   6.176
10539SOL    HW132516   0.285   3.648   6.092
10539SOL    HW232517   0.377   3.669   6.225
10540SOL     OW32518   2.117   0.170   6.429
10540SOL    HW132519   2.150   0.263   6.415
10540SOL    HW232520   2.159   0.132   6.511
10541SOL     OW32521   3.624   3.095   7.010
10541SOL    HW132522   3.712   3.136   6.988
10541SOL    HW232523   3.550   3.148   6.969
10542SOL     OW32524   6.947   2.545   0.423
10542SOL    HW132525   6.887   2.536   0.343
10542SOL    HW232526   0.015   2.569   0.394
10543SOL     OW32527   1.143   0.971   5.652
10543SOL    HW132528   1.134   1.067   5.678
10543SOL    HW232529   1.063   0.920   5.683
10544SOL     OW32530   1.724   2.501   2.039
10544SOL    HW132531   1.748   2.547   2.125
10544SOL    HW232532   1.724   2.568   1.965
10545SOL     OW32533   6.435   0.714   2.550
10545SOL    HW132534   6.439   0.616   2.533
10545SOL    HW232535   6.387   0.731   2.637
10546SOL     OW32536   2.843   0.708   4.008
10546SOL    HW132537   2.805   0.617   3.992
10546SOL    HW232538   2.769   0.773   4.025
10547SOL     OW32539   4.416   1.460   1.447
10547SOL    HW132540   4.448   1.366   1.434
10547SOL    HW232541   4.330   1.459   1.497
10548SOL     OW32542   5.049   4.158   4.976
10548SOL    HW132543   4.968   4.196   4.931
10548SOL    HW232544   5.085   4.083   4.921
10549SOL     OW32545   1.051   1.426   1.605
10549SOL    HW132546   1.069   1.327   1.611
10549SOL    HW232547   0.990   1.453   1.679
10550SOL     OW32548   4.899   6.948   4.251
10550SOL    HW132549   4.990   6.906   4.245
10550SOL    HW232550   4.900   7.018   4.323
10551SOL     OW32551   1.224   2.678   6.130
10551SOL    HW132552   1.138   2.704   6.175
10551SOL    HW232553   1.255   2.590   6.167
10552SOL     OW32554   3.419   2.193   5.243
10552SOL    HW132555   3.415   2.179   5.342
10552SOL    HW232556   3.366   2.275   5.219
10553SOL     OW32557   1.368   5.102   0.050
10553SOL    HW132558   1.447   5.118   7.014
10553SOL    HW232559   1.393   5.037   0.122
10554SOL     OW32560   6.869   4.722   6.887
10554SOL    HW132561   6.799   4.711   6.957
10554SOL    HW232562   6.949   4.766   6.928
10555SOL     OW32563   3.457   1.437   1.783
10555SOL    HW132564   3.491   1.530   1.769
10555SOL    HW232565   3.392   1.414   1.710
10556SOL     OW32566   1.805   3.311   5.221
10556SOL    HW132567   1.774   3.406   5.226
10556SOL    HW232568   1.883   3.297   5.281
10557SOL     OW32569   6.944   2.725   3.400
10557SOL    HW132570   6.987   2.652   3.346
10557SOL    HW232571   6.872   2.768   3.345
10558SOL     OW32572   4.842   6.166   5.427
10558SOL    HW132573   4.745   6.191   5.439
10558SOL    HW232574   4.896   6.248   5.412
10559SOL     OW32575   4.263   1.955   0.790
10559SOL    HW132576   4.307   2.022   0.851
10559SOL    HW232577   4.167   1.981   0.777
10560SOL     OW32578   0.939   3.368   4.222
10560SOL    HW132579   0.882   3.448   4.205
10560SOL    HW232580   0.936   3.307   4.143
10561SOL     OW32581   2.454   4.137   6.870
10561SOL    HW132582   2.529   4.186   6.914
10561SOL    HW232583   2.417   4.070   6.935
10562SOL     OW32584   4.230   1.354   0.782
10562SOL    HW132585   4.302   1.411   0.822
10562SOL    HW232586   4.157   1.341   0.849
10563SOL     OW32587   1.489   1.960   5.554
10563SOL    HW132588   1.479   2.021   5.632
10563SOL    HW232589   1.438   1.876   5.570
10564SOL     OW32590   6.188   2.458   1.853
10564SOL    HW132591   6.241   2.490   1.932
10564SOL    HW232592   6.092   2.484   1.864
10565SOL     OW32593   5.678   1.710   4.961
10565SOL    HW132594   5.746   1.646   4.999
10565SOL    HW232595   5.688   1.799   5.006
10566SOL     OW32596   3.658   3.848   6.559
10566SOL    HW132597   3.597   3.892   6.625
10566SOL    HW232598   3.699   3.917   6.499
10567SOL     OW32599   1.829   3.709   3.865
10567SOL    HW132600   1.730   3.714   3.883
10567SOL    HW232601   1.874   3.787   3.908
10568SOL     OW32602   4.807   1.085   3.082
10568SOL    HW132603   4.818   1.000   3.134
10568SOL    HW232604   4.779   1.159   3.144
10569SOL     OW32605   5.537   3.152   4.450
10569SOL    HW132606   5.575   3.209   4.523
10569SOL    HW232607   5.607   3.086   4.420
10570SOL     OW32608   1.690   5.169   2.687
10570SOL    HW132609   1.681   5.100   2.759
10570SOL    HW232610   1.678   5.126   2.598
10571SOL     OW32611   6.243   6.334   2.991
10571SOL    HW132612   6.313   6.403   3.012
10571SOL    HW232613   6.159   6.380   2.963
10572SOL     OW32614   5.899   3.463   1.951
10572SOL    HW132615   5.807   3.447   1.914
10572SOL    HW232616   5.933   3.550   1.917
10573SOL     OW32617   5.819   5.386   4.791
10573SOL    HW132618   5.878   5.433   4.725
10573SOL    HW232619   5.724   5.396   4.764
10574SOL     OW32620   0.263   1.589   3.623
10574SOL    HW132621   0.223   1.666   3.673
10574SOL    HW232622   0.244   1.600   3.526
10575SOL     OW32623   1.293   0.173   5.432
10575SOL    HW132624   1.315   0.075   5.438
10575SOL    HW232625   1.219   0.186   5.366
10576SOL     OW32626   1.924   5.676   3.696
10576SOL    HW132627   1.837   5.639   3.664
10576SOL    HW232628   1.937   5.652   3.792
10577SOL     OW32629   1.731   2.977   6.166
10577SOL    HW132630   1.707   2.978   6.069
10577SOL    HW232631   1.813   2.921   6.180
10578SOL     OW32632   6.175   0.318   5.912
10578SOL    HW132633   6.154   0.221   5.919
10578SOL    HW232634   6.197   0.341   5.817
10579SOL     OW32635   4.609   1.699   0.800
10579SOL    HW132636   4.577   1.743   0.884
10579SOL    HW232637   4.530   1.670   0.746
10580SOL     OW32638   6.629   5.890   0.103
10580SOL    HW132639   6.600   5.861   0.194
10580SOL    HW232640   6.686   5.818   0.062
10581SOL     OW32641   5.855   0.374   3.556
10581SOL    HW132642   5.799   0.389   3.475
10581SOL    HW232643   5.804   0.403   3.637
10582SOL     OW32644   3.977   5.060   6.527
10582SOL    HW132645   3.925   5.007   6.594
10582SOL    HW232646   3.919   5.082   6.449
10583SOL     OW32647   4.304   1.187   0.370
10583SOL    HW132648   4.279   1.283   0.385
10583SOL    HW232649   4.319   1.142   0.459
10584SOL     OW32650   5.605   6.880   1.268
10584SOL    HW132651   5.585   6.973   1.237
10584SOL    HW232652   5.551   6.815   1.215
10585SOL     OW32653   0.812   3.046   6.088
10585SOL    HW132654   0.811   3.059   6.187
10585SOL    HW232655   0.873   2.970   6.065
10586SOL     OW32656   3.019   6.177   6.213
10586SOL    HW132657   3.038   6.213   6.122
10586SOL    HW232658   3.013   6.253   6.278
10587SOL     OW32659   6.083   4.055   0.853
10587SOL    HW132660   6.120   3.982   0.910
10587SOL    HW232661   6.098   4.144   0.897
10588SOL     OW32662   0.667   5.335   3.280
10588SOL    HW132663   0.627   5.367   3.195
10588SOL    HW232664   0.678   5.412   3.343
10589SOL     OW32665   5.925   1.902   3.841
10589SOL    HW132666   5.957   1.876   3.749
10589SOL    HW232667   5.875   1.988   3.836
10590SOL     OW32668   1.448   0.259   3.136
10590SOL    HW132669   1.420   0.308   3.053
10590SOL    HW232670   1.518   0.192   3.113
10591SOL     OW32671   0.986   2.119   0.492
10591SOL    HW132672   1.032   2.207   0.482
10591SOL    HW232673   1.023   2.054   0.426
10592SOL     OW32674   6.283   1.408   0.340
10592SOL    HW132675   6.296   1.468   0.419
10592SOL    HW232676   6.266   1.315   0.372
10593SOL     OW32677   2.203   5.334   1.163
10593SOL    HW132678   2.110   5.306   1.141
10593SOL    HW232679   2.240   5.388   1.087
10594SOL     OW32680   0.230   2.048   3.952
10594SOL    HW132681   0.147   2.037   4.006
10594SOL    HW232682   0.239   2.144   3.924
10595SOL     OW32683   3.678   6.548   6.483
10595SOL    HW132684   3.754   6.580   6.539
10595SOL    HW232685   3.708   6.470   6.428
10596SOL     OW32686   3.683   0.116   2.441
10596SOL    HW132687   3.750   0.143   2.511
10596SOL    HW232688   3.595   0.097   2.485
10597SOL     OW32689   1.635   0.770   4.814
10597SOL    HW132690   1.565   0.704   4.841
10597SOL    HW232691   1.635   0.780   4.715
10598SOL     OW32692   2.066   2.027   6.844
10598SOL    HW132693   2.026   2.050   6.755
10598SOL    HW232694   2.080   2.112   6.897
10599SOL     OW32695   5.749   1.624   6.969
10599SOL    HW132696   5.667   1.650   7.020
10599SOL    HW232697   5.796   1.550   7.017
10600SOL     OW32698   2.486   2.939   6.199
10600SOL    HW132699   2.471   2.840   6.198
10600SOL    HW232700   2.455   2.976   6.287
10601SOL     OW32701   3.202   6.076   6.547
10601SOL    HW132702   3.245   6.067   6.637
10601SOL    HW232703   3.103   6.080   6.557
10602SOL     OW32704   4.566   1.612   1.666
10602SOL    HW132705   4.501   1.672   1.713
10602SOL    HW232706   4.521   1.566   1.590
10603SOL     OW32707   1.475   5.660   4.334
10603SOL    HW132708   1.543   5.588   4.315
10603SOL    HW232709   1.385   5.628   4.305
10604SOL     OW32710   6.702   4.557   4.568
10604SOL    HW132711   6.750   4.484   4.618
10604SOL    HW232712   6.666   4.623   4.633
10605SOL     OW32713   1.298   5.469   6.712
10605SOL    HW132714   1.376   5.528   6.734
10605SOL    HW232715   1.315   5.423   6.625
10606SOL     OW32716   0.919   0.558   2.162
10606SOL    HW132717   0.865   0.619   2.220
10606SOL    HW232718   0.859   0.506   2.102
10607SOL     OW32719   5.622   4.688   0.047
10607SOL    HW132720   5.690   4.615   0.049
10607SOL    HW232721   5.544   4.660   7.014
10608SOL     OW32722   6.657   1.477   4.259
10608SOL    HW132723   6.595   1.482   4.181
10608SOL    HW232724   6.709   1.562   4.266
10609SOL     OW32725   3.823   6.589   0.958
10609SOL    HW132726   3.893   6.658   0.938
10609SOL    HW232727   3.863   6.515   1.012
10610SOL     OW32728   1.240   3.431   5.895
10610SOL    HW132729   1.290   3.518   5.894
10610SOL    HW232730   1.300   3.357   5.866
10611SOL     OW32731   5.908   2.492   5.867
10611SOL    HW132732   5.912   2.438   5.951
10611SOL    HW232733   5.946   2.439   5.791
10612SOL     OW32734   1.625   0.282   0.029
10612SOL    HW132735   1.545   0.306   0.085
10612SOL    HW232736   1.596   0.267   6.959
10613SOL     OW32737   0.683   6.138   5.637
10613SOL    HW132738   0.633   6.180   5.562
10613SOL    HW232739   0.693   6.040   5.620
10614SOL     OW32740   6.659   0.996   4.409
10614SOL    HW132741   6.613   1.070   4.456
10614SOL    HW232742   6.746   0.976   4.455
10615SOL     OW32743   5.123   5.514   5.467
10615SOL    HW132744   5.201   5.555   5.514
10615SOL    HW232745   5.071   5.458   5.531
10616SOL     OW32746   2.870   5.671   6.837
10616SOL    HW132747   2.847   5.642   6.743
10616SOL    HW232748   2.786   5.690   6.887
10617SOL     OW32749   1.400   2.227   6.950
10617SOL    HW132750   1.498   2.216   6.964
10617SOL    HW232751   1.363   2.145   6.907
10618SOL     OW32752   5.906   2.969   7.021
10618SOL    HW132753   5.890   3.063   0.027
10618SOL    HW232754   6.004   2.948   0.004
10619SOL     OW32755   1.012   4.330   4.298
10619SOL    HW132756   1.014   4.364   4.204
10619SOL    HW232757   0.949   4.253   4.304
10620SOL     OW32758   1.519   5.774   4.705
10620SOL    HW132759   1.571   5.715   4.767
10620SOL    HW232760   1.433   5.729   4.682
10621SOL     OW32761   2.056   6.679   0.370
10621SOL    HW132762   2.136   6.722   0.413
10621SOL    HW232763   2.006   6.627   0.439
10622SOL     OW32764   3.850   0.808   1.501
10622SOL    HW132765   3.788   0.870   1.548
10622SOL    HW232766   3.802   0.724   1.476
10623SOL     OW32767   6.108   2.196   3.556
10623SOL    HW132768   6.100   2.249   3.472
10623SOL    HW232769   6.061   2.108   3.545
10624SOL     OW32770   1.787   0.561   4.301
10624SOL    HW132771   1.774   0.463   4.285
10624SOL    HW232772   1.708   0.611   4.268
10625SOL     OW32773   0.353   3.267   0.925
10625SOL    HW132774   0.291   3.334   0.885
10625SOL    HW232775   0.306   3.179   0.933
10626SOL     OW32776   0.501   2.564   1.701
10626SOL    HW132777   0.571   2.529   1.763
10626SOL    HW232778   0.519   2.533   1.608
10627SOL     OW32779   6.205   6.371   3.681
10627SOL    HW132780   6.140   6.444   3.702
10627SOL    HW232781   6.175   6.285   3.722
10628SOL     OW32782   5.872   5.657   5.888
10628SOL    HW132783   5.881   5.657   5.789
10628SOL    HW232784   5.878   5.564   5.923
10629SOL     OW32785   2.419   5.628   5.944
10629SOL    HW132786   2.328   5.626   5.903
10629SOL    HW232787   2.487   5.645   5.873
10630SOL     OW32788   6.608   1.788   3.478
10630SOL    HW132789   6.582   1.691   3.475
10630SOL    HW232790   6.687   1.799   3.539
10631SOL     OW32791   0.873   6.746   3.643
10631SOL    HW132792   0.843   6.839   3.665
10631SOL    HW232793   0.961   6.729   3.687
10632SOL     OW32794   0.188   1.926   5.121
10632SOL    HW132795   0.247   1.959   5.047
10632SOL    HW232796   0.123   1.859   5.085
10633SOL     OW32797   1.879   4.979   1.756
10633SOL    HW132798   1.978   4.993   1.747
10633SOL    HW232799   1.848   4.916   1.685
10634SOL     OW32800   3.446   6.378   1.172
10634SOL    HW132801   3.396   6.447   1.119
10634SOL    HW232802   3.470   6.302   1.113
10635SOL     OW32803   2.351   0.823   1.429
10635SOL    HW132804   2.410   0.903   1.417
10635SOL    HW232805   2.405   0.739   1.420
10636SOL     OW32806   1.127   2.313   1.250
10636SOL    HW132807   1.198   2.248   1.223
10636SOL    HW232808   1.067   2.271   1.318
10637SOL     OW32809   3.359   4.099   4.872
10637SOL    HW132810   3.263   4.100   4.843
10637SOL    HW232811   3.411   4.164   4.816
10638SOL     OW32812   0.385   6.443   5.573
10638SOL    HW132813   0.389   6.355   5.622
10638SOL    HW232814   0.343   6.512   5.632
10639SOL     OW32815   2.214   0.565   4.592
10639SOL    HW132816   2.247   0.618   4.514
10639SOL    HW232817   2.146   0.618   4.642
10640SOL     OW32818   4.295   0.784   6.808
10640SOL    HW132819   4.293   0.772   6.907
10640SOL    HW232820   4.207   0.757   6.769
10641SOL     OW32821   5.845   1.848   6.787
10641SOL    HW132822   5.806   1.771   6.836
10641SOL    HW232823   5.787   1.929   6.800
10642SOL     OW32824   0.236   2.941   1.889
10642SOL    HW132825   0.280   2.991   1.814
10642SOL    HW232826   0.184   3.005   1.945
10643SOL     OW32827   2.591   3.101   5.633
10643SOL    HW132828   2.540   3.186   5.638
10643SOL    HW232829   2.625   3.088   5.540
10644SOL     OW32830   4.408   1.404   4.034
10644SOL    HW132831   4.486   1.453   4.073
10644SOL    HW232832   4.440   1.325   3.982
10645SOL     OW32833   2.679   0.744   4.867
10645SOL    HW132834   2.675   0.801   4.784
10645SOL    HW232835   2.632   0.658   4.849
10646SOL     OW32836   1.114   3.600   6.511
10646SOL    HW132837   1.039   3.664   6.493
10646SOL    HW232838   1.201   3.644   6.489
10647SOL     OW32839   6.928   5.088   0.632
10647SOL    HW132840   0.000   5.065   0.647
10647SOL    HW232841   6.921   5.180   0.595
10648SOL     OW32842   4.877   3.030   6.749
10648SOL    HW132843   4.818   2.965   6.797
10648SOL    HW232844   4.931   2.982   6.680
10649SOL     OW32845   7.019   5.171   5.793
10649SOL    HW132846   0.044   5.103   5.847
10649SOL    HW232847   0.020   5.162   5.696
10650SOL     OW32848   3.255   6.708   3.877
10650SOL    HW132849   3.207   6.621   3.865
10650SOL    HW232850   3.220   6.755   3.958
10651SOL     OW32851   4.440   6.197   6.439
10651SOL    HW132852   4.511   6.188   6.370
10651SOL    HW232853   4.479   6.234   6.523
10652SOL     OW32854   3.372   0.728   6.286
10652SOL    HW132855   3.461   0.743   6.243
10652SOL    HW232856   3.381   0.740   6.385
10653SOL     OW32857   5.321   3.800   4.203
10653SOL    HW132858   5.294   3.792   4.107
10653SOL    HW232859   5.376   3.720   4.228
10654SOL     OW32860   4.186   0.824   0.308
10654SOL    HW132861   4.274   0.834   0.355
10654SOL    HW232862   4.201   0.808   0.211
10655SOL     OW32863   2.646   6.115   1.318
10655SOL    HW132864   2.672   6.020   1.337
10655SOL    HW232865   2.718   6.176   1.350
10656SOL     OW32866   6.667   2.519   6.488
10656SOL    HW132867   6.677   2.457   6.566
10656SOL    HW232868   6.630   2.607   6.519
10657SOL     OW32869   6.415   0.807   1.290
10657SOL    HW132870   6.400   0.751   1.372
10657SOL    HW232871   6.329   0.814   1.240
10658SOL     OW32872   0.057   5.558   4.595
10658SOL    HW132873   7.000   5.544   4.538
10658SOL    HW232874   0.137   5.570   4.536
10659SOL     OW32875   5.895   0.774   0.218
10659SOL    HW132876   5.973   0.719   0.188
10659SOL    HW232877   5.814   0.748   0.165
10660SOL     OW32878   4.814   5.011   5.529
10660SOL    HW132879   4.813   5.009   5.429
10660SOL    HW232880   4.870   4.936   5.564
10661SOL     OW32881   0.245   6.696   2.918
10661SOL    HW132882   0.231   6.694   2.820
10661SOL    HW232883   0.191   6.624   2.961
10662SOL     OW32884   5.588   1.339   0.584
10662SOL    HW132885   5.671   1.386   0.553
10662SOL    HW232886   5.610   1.245   0.610
10663SOL     OW32887   6.895   0.400   0.225
10663SOL    HW132888   6.848   0.336   0.286
10663SOL    HW232889   6.879   0.373   0.130
10664SOL     OW32890   1.816   5.317   0.286
10664SOL    HW132891   1.862   5.397   0.326
10664SOL    HW232892   1.809   5.245   0.355
10665SOL     OW32893   6.603   1.432   1.047
10665SOL    HW132894   6.594   1.347   0.995
10665SOL    HW232895   6.645   1.412   1.135
10666SOL     OW32896   1.298   0.047   0.261
10666SOL    HW132897   1.363   0.007   0.196
10666SOL    HW232898   1.204   0.027   0.231
10667SOL     OW32899   3.511   1.912   5.229
10667SOL    HW132900   3.485   2.008   5.220
10667SOL    HW232901   3.558   1.898   5.317
10668SOL     OW32902   1.843   1.214   5.709
10668SOL    HW132903   1.770   1.237   5.773
10668SOL    HW232904   1.844   1.280   5.634
10669SOL     OW32905   0.925   6.884   6.472
10669SOL    HW132906   1.001   6.849   6.418
10669SOL    HW232907   0.951   6.971   6.514
10670SOL     OW32908   6.481   4.693   5.967
10670SOL    HW132909   6.403   4.738   6.010
10670SOL    HW232910   6.566   4.725   6.010
10671SOL     OW32911   1.998   1.228   3.399
10671SOL    HW132912   2.013   1.181   3.312
10671SOL    HW232913   2.077   1.213   3.459
10672SOL     OW32914   0.516   3.252   1.215
10672SOL    HW132915   0.469   3.168   1.188
10672SOL    HW232916   0.466   3.331   1.180
10673SOL     OW32917   2.851   3.250   5.171
10673SOL    HW132918   2.791   3.190   5.224
10673SOL    HW232919   2.889   3.200   5.094
10674SOL     OW32920   3.869   2.272   1.764
10674SOL    HW132921   3.924   2.195   1.795
10674SOL    HW232922   3.785   2.278   1.819
10675SOL     OW32923   0.428   0.562   5.811
10675SOL    HW132924   0.437   0.621   5.731
10675SOL    HW232925   0.360   0.492   5.794
10676SOL     OW32926   6.766   0.045   6.288
10676SOL    HW132927   6.864   0.025   6.292
10676SOL    HW232928   6.749   0.136   6.326
10677SOL     OW32929   0.354   0.293   0.869
10677SOL    HW132930   0.294   0.372   0.881
10677SOL    HW232931   0.448   0.318   0.893
10678SOL     OW32932   2.465   6.452   3.326
10678SOL    HW132933   2.413   6.469   3.243
10678SOL    HW232934   2.561   6.472   3.310
10679SOL     OW32935   5.314   5.183   4.457
10679SOL    HW132936   5.294   5.232   4.542
10679SOL    HW232937   5.413   5.176   4.445
10680SOL     OW32938   1.490   2.335   3.232
10680SOL    HW132939   1.479   2.272   3.155
10680SOL    HW232940   1.556   2.297   3.297
10681SOL     OW32941   0.201   1.322   6.193
10681SOL    HW132942   0.226   1.339   6.098
10681SOL    HW232943   0.272   1.359   6.253
10682SOL     OW32944   6.857   1.823   2.729
10682SOL    HW132945   6.890   1.918   2.729
10682SOL    HW232946   6.901   1.772   2.803
10683SOL     OW32947   2.009   1.924   4.696
10683SOL    HW132948   1.983   1.856   4.628
10683SOL    HW232949   1.952   1.913   4.777
10684SOL     OW32950   5.967   5.505   0.568
10684SOL    HW132951   6.048   5.542   0.614
10684SOL    HW232952   5.944   5.416   0.606
10685SOL     OW32953   0.283   2.804   2.683
10685SOL    HW132954   0.254   2.857   2.763
10685SOL    HW232955   0.309   2.866   2.609
10686SOL     OW32956   3.633   5.084   0.517
10686SOL    HW132957   3.684   5.109   0.435
10686SOL    HW232958   3.568   5.011   0.495
10687SOL     OW32959   0.220   4.728   2.574
10687SOL    HW132960   0.301   4.779   2.601
10687SOL    HW232961   0.244   4.661   2.504
10688SOL     OW32962   6.332   5.402   2.051
10688SOL    HW132963   6.396   5.346   1.998
10688SOL    HW232964   6.280   5.461   1.989
10689SOL     OW32965   0.087   0.926   2.199
10689SOL    HW132966   0.118   1.012   2.240
10689SOL    HW232967   0.088   0.935   2.100
10690SOL     OW32968   4.558   5.165   1.793
10690SOL    HW132969   4.645   5.138   1.835
10690SOL    HW232970   4.515   5.085   1.751
10691SOL     OW32971   0.119   1.461   1.447
10691SOL    HW132972   0.126   1.559   1.431
10691SOL    HW232973   0.162   1.439   1.535
10692SOL     OW32974   4.220   5.946   3.844
10692SOL    HW132975   4.151   6.003   3.799
10692SOL    HW232976   4.255   5.879   3.779
10693SOL     OW32977   6.301   2.221   2.076
10693SOL    HW132978   6.293   2.192   1.980
10693SOL    HW232979   6.325   2.318   2.079
10694SOL     OW32980   3.838   6.213   0.821
10694SOL    HW132981   3.769   6.258   0.765
10694SOL    HW232982   3.916   6.187   0.764
10695SOL     OW32983   6.447   3.413   3.984
10695SOL    HW132984   6.400   3.378   3.903
10695SOL    HW232985   6.444   3.345   4.057
10696SOL     OW32986   6.426   6.402   1.677
10696SOL    HW132987   6.431   6.314   1.630
10696SOL    HW232988   6.472   6.395   1.766
10697SOL     OW32989   2.720   5.917   3.291
10697SOL    HW132990   2.786   5.980   3.252
10697SOL    HW232991   2.644   5.969   3.331
10698SOL     OW32992   3.043   0.502   3.529
10698SOL    HW132993   2.961   0.454   3.497
10698SOL    HW232994   3.018   0.567   3.601
10699SOL     OW32995   1.972   2.421   2.783
10699SOL    HW132996   2.009   2.500   2.832
10699SOL    HW232997   1.931   2.452   2.697
10700SOL     OW32998   6.827   0.429   1.648
10700SOL    HW132999   6.772   0.501   1.606
10700SOL    HW233000   6.808   0.426   1.746
10701SOL     OW33001   3.559   6.349   0.451
10701SOL    HW133002   3.649   6.348   0.407
10701SOL    HW233003   3.519   6.258   0.448
10702SOL     OW33004   6.185   3.213   1.412
10702SOL    HW133005   6.219   3.240   1.322
10702SOL    HW233006   6.239   3.258   1.483
10703SOL     OW33007   4.068   3.558   3.650
10703SOL    HW133008   4.084   3.617   3.729
10703SOL    HW233009   4.054   3.464   3.681
10704SOL     OW33010   5.400   6.502   1.912
10704SOL    HW133011   5.430   6.513   1.818
10704SOL    HW233012   5.398   6.405   1.935
10705SOL     OW33013   0.318   2.453   6.696
10705SOL    HW133014   0.348   2.543   6.727
10705SOL    HW233015   0.241   2.463   6.633
10706SOL     OW33016   3.645   1.279   1.940
10706SOL    HW133017   3.645   1.308   2.036
10706SOL    HW233018   3.558   1.235   1.919
10707SOL     OW33019   6.185   0.033   5.914
10707SOL    HW133020   6.119   0.028   5.989
10707SOL    HW233021   6.268   7.006   5.940
10708SOL     OW33022   4.596   0.951   1.125
10708SOL    HW133023   4.512   1.004   1.113
10708SOL    HW233024   4.659   1.002   1.185
10709SOL     OW33025   0.414   5.948   6.054
10709SOL    HW133026   0.362   6.027   6.087
10709SOL    HW233027   0.451   5.897   6.132
10710SOL     OW33028   6.103   5.828   3.095
10710SOL    HW133029   6.105   5.911   3.040
10710SOL    HW233030   6.196   5.805   3.125
10711SOL     OW33031   1.952   5.535   4.494
10711SOL    HW133032   1.953   5.595   4.574
10711SOL    HW233033   1.865   5.485   4.491
10712SOL     OW33034   3.882   1.401   5.079
10712SOL    HW133035   3.843   1.474   5.136
10712SOL    HW233036   3.970   1.373   5.116
10713SOL     OW33037   1.302   5.835   1.274
10713SOL    HW133038   1.391   5.881   1.269
10713SOL    HW233039   1.311   5.753   1.330
10714SOL     OW33040   0.006   4.871   5.437
10714SOL    HW133041   0.029   4.775   5.451
10714SOL    HW233042   0.040   4.901   5.348
10715SOL     OW33043   6.203   1.570   3.973
10715SOL    HW133044   6.135   1.631   4.013
10715SOL    HW233045   6.182   1.555   3.876
10716SOL     OW33046   6.291   0.524   2.953
10716SOL    HW133047   6.306   0.457   2.880
10716SOL    HW233048   6.367   0.522   3.018
10717SOL     OW33049   6.777   6.447   1.798
10717SOL    HW133050   6.790   6.349   1.791
10717SOL    HW233051   6.827   6.482   1.877
10718SOL     OW33052   6.987   4.536   6.410
10718SOL    HW133053   6.941   4.450   6.389
10718SOL    HW233054   0.061   4.521   6.420
10719SOL     OW33055   4.669   0.806   2.167
10719SOL    HW133056   4.645   0.792   2.263
10719SOL    HW233057   4.680   0.904   2.149
10720SOL     OW33058   0.790   3.510   0.298
10720SOL    HW133059   0.866   3.498   0.235
10720SOL    HW233060   0.750   3.601   0.284
10721SOL     OW33061   4.691   2.640   4.017
10721SOL    HW133062   4.693   2.708   3.944
10721SOL    HW233063   4.774   2.584   4.013
10722SOL     OW33064   0.398   4.100   0.931
10722SOL    HW133065   0.306   4.061   0.938
10722SOL    HW233066   0.426   4.104   0.835
10723SOL     OW33067   6.322   4.118   0.376
10723SOL    HW133068   6.286   4.206   0.344
10723SOL    HW233069   6.360   4.128   0.467
10724SOL     OW33070   3.640   6.756   5.428
10724SOL    HW133071   3.621   6.835   5.369
10724SOL    HW233072   3.623   6.672   5.378
10725SOL     OW33073   6.830   6.513   4.699
10725SOL    HW133074   6.766   6.498   4.625
10725SOL    HW233075   6.792   6.477   4.784
10726SOL     OW33076   5.012   0.926   4.454
10726SOL    HW133077   5.072   0.943   4.376
10726SOL    HW233078   5.055   0.858   4.514
10727SOL     OW33079   1.957   6.294   6.937
10727SOL    HW133080   1.981   6.359   6.864
10727SOL    HW233081   2.004   6.321   7.021
10728SOL     OW33082   5.561   5.719   3.497
10728SOL    HW133083   5.563   5.756   3.589
10728SOL    HW233084   5.485   5.759   3.446
10729SOL     OW33085   5.885   3.746   4.267
10729SOL    HW133086   5.897   3.840   4.300
10729SOL    HW233087   5.832   3.746   4.183
10730SOL     OW33088   1.628   5.843   2.893
10730SOL    HW133089   1.581   5.836   2.981
10730SOL    HW233090   1.678   5.929   2.889
10731SOL     OW33091   4.516   6.438   7.001
10731SOL    HW133092   4.576   6.505   0.021
10731SOL    HW233093   4.568   6.356   6.979
10732SOL     OW33094   5.643   6.016   3.140
10732SOL    HW133095   5.591   6.055   3.216
10732SOL    HW233096   5.730   6.064   3.132
10733SOL     OW33097   0.261   1.000   6.550
10733SOL    HW133098   0.249   1.051   6.464
10733SOL    HW233099   0.171   0.978   6.588
10734SOL     OW33100   1.351   1.047   4.211
10734SOL    HW133101   1.345   0.950   4.237
10734SOL    HW233102   1.424   1.091   4.263
10735SOL     OW33103   0.113   6.495   2.021
10735SOL    HW133104   0.161   6.503   2.109
10735SOL    HW233105   0.017   6.470   2.038
10736SOL     OW33106   6.003   6.506   3.809
10736SOL    HW133107   6.013   6.591   3.861
10736SOL    HW233108   5.910   6.471   3.821
10737SOL     OW33109   6.395   1.256   2.623
10737SOL    HW133110   6.451   1.218   2.550
10737SOL    HW233111   6.301   1.222   2.614
10738SOL     OW33112   3.875   1.005   1.251
10738SOL    HW133113   3.905   0.929   1.309
10738SOL    HW233114   3.942   1.080   1.258
10739SOL     OW33115   5.602   2.921   3.464
10739SOL    HW133116   5.615   2.832   3.509
10739SOL    HW233117   5.626   2.994   3.528
10740SOL     OW33118   2.196   0.333   5.700
10740SOL    HW133119   2.145   0.410   5.661
10740SOL    HW233120   2.271   0.368   5.757
10741SOL     OW33121   2.251   2.151   3.752
10741SOL    HW133122   2.264   2.058   3.786
10741SOL    HW233123   2.201   2.148   3.665
10742SOL     OW33124   6.050   6.280   2.485
10742SOL    HW133125   5.991   6.318   2.556
10742SOL    HW233126   6.127   6.342   2.470
10743SOL     OW33127   2.764   1.346   5.769
10743SOL    HW133128   2.712   1.385   5.693
10743SOL    HW233129   2.766   1.246   5.762
10744SOL     OW33130   1.957   1.210   0.359
10744SOL    HW133131   1.971   1.184   0.263
10744SOL    HW233132   1.971   1.309   0.368
10745SOL     OW33133   1.624   4.205   2.082
10745SOL    HW133134   1.706   4.190   2.138
10745SOL    HW233135   1.607   4.125   2.024
10746SOL     OW33136   1.895   6.080   6.758
10746SOL    HW133137   1.809   6.082   6.706
10746SOL    HW233138   1.932   6.172   6.765
10747SOL     OW33139   6.333   1.436   4.975
10747SOL    HW133140   6.258   1.377   5.004
10747SOL    HW233141   6.419   1.402   5.012
10748SOL     OW33142   3.362   6.230   1.429
10748SOL    HW133143   3.437   6.223   1.494
10748SOL    HW233144   3.390   6.288   1.352
10749SOL     OW33145   6.004   4.592   1.723
10749SOL    HW133146   6.000   4.692   1.716
10749SOL    HW233147   5.947   4.562   1.800
10750SOL     OW33148   4.281   2.332   4.299
10750SOL    HW133149   4.367   2.383   4.296
10750SOL    HW233150   4.205   2.395   4.283
10751SOL     OW33151   0.644   5.381   4.882
10751SOL    HW133152   0.723   5.394   4.942
10751SOL    HW233153   0.567   5.435   4.916
10752SOL     OW33154   5.929   6.419   0.525
10752SOL    HW133155   6.004   6.394   0.585
10752SOL    HW233156   5.868   6.340   0.513
10753SOL     OW33157   5.092   6.699   4.347
10753SOL    HW133158   5.145   6.779   4.374
10753SOL    HW233159   5.004   6.700   4.395
10754SOL     OW33160   0.679   4.010   2.520
10754SOL    HW133161   0.680   4.049   2.429
10754SOL    HW233162   0.757   4.045   2.572
10755SOL     OW33163   0.051   2.764   1.281
10755SOL    HW133164   0.128   2.779   1.344
10755SOL    HW233165   0.086   2.748   1.189
10756SOL     OW33166   1.207   1.081   0.801
10756SOL    HW133167   1.220   1.005   0.865
10756SOL    HW233168   1.123   1.066   0.749
10757SOL     OW33169   0.229   3.943   1.949
10757SOL    HW133170   0.272   3.870   2.001
10757SOL    HW233171   0.207   4.019   2.010
10758SOL     OW33172   0.530   0.762   0.014
10758SOL    HW133173   0.441   0.717   0.007
10758SOL    HW233174   0.563   0.756   0.108
10759SOL     OW33175   3.026   2.145   5.726
10759SOL    HW133176   3.105   2.193   5.688
10759SOL    HW233177   2.960   2.211   5.762
10760SOL     OW33178   1.134   4.980   0.151
10760SOL    HW133179   1.106   5.042   0.223
10760SOL    HW233180   1.226   4.945   0.169
10761SOL     OW33181   1.231   1.650   5.826
10761SOL    HW133182   1.186   1.578   5.878
10761SOL    HW233183   1.169   1.728   5.816
10762SOL     OW33184   3.027   5.852   6.487
10762SOL    HW133185   2.973   5.771   6.509
10762SOL    HW233186   3.095   5.868   6.559
10763SOL     OW33187   5.217   6.875   3.510
10763SOL    HW133188   5.241   6.968   3.537
10763SOL    HW233189   5.118   6.863   3.514
10764SOL     OW33190   4.446   6.985   4.449
10764SOL    HW133191   4.350   6.962   4.432
10764SOL    HW233192   4.492   6.907   4.491
10765SOL     OW33193   0.425   2.394   2.678
10765SOL    HW133194   0.475   2.395   2.591
10765SOL    HW233195   0.351   2.460   2.675
10766SOL     OW33196   2.102   4.891   6.491
10766SOL    HW133197   2.051   4.962   6.539
10766SOL    HW233198   2.182   4.932   6.446
10767SOL     OW33199   1.290   5.208   0.314
10767SOL    HW133200   1.244   5.293   0.339
10767SOL    HW233201   1.296   5.201   0.215
10768SOL     OW33202   5.620   5.955   6.897
10768SOL    HW133203   5.675   5.904   6.830
10768SOL    HW233204   5.678   6.020   6.945
10769SOL     OW33205   3.260   2.966   4.472
10769SOL    HW133206   3.324   3.039   4.492
10769SOL    HW233207   3.226   2.976   4.378
10770SOL     OW33208   5.886   6.979   3.527
10770SOL    HW133209   5.959   6.969   3.595
10770SOL    HW233210   5.923   7.022   3.445
10771SOL     OW33211   4.634   5.802   5.664
10771SOL    HW133212   4.588   5.891   5.673
10771SOL    HW233213   4.572   5.730   5.694
10772SOL     OW33214   5.917   5.141   2.468
10772SOL    HW133215   6.007   5.099   2.456
10772SOL    HW233216   5.924   5.240   2.456
10773SOL     OW33217   6.866   3.511   1.203
10773SOL    HW133218   6.941   3.445   1.193
10773SOL    HW233219   6.814   3.489   1.286
10774SOL     OW33220   0.514   2.981   0.915
10774SOL    HW133221   0.597   2.939   0.954
10774SOL    HW233222   0.447   2.995   0.988
10775SOL     OW33223   1.614   3.885   0.525
10775SOL    HW133224   1.703   3.921   0.554
10775SOL    HW233225   1.547   3.958   0.525
10776SOL     OW33226   0.689   2.785   4.084
10776SOL    HW133227   0.636   2.757   4.164
10776SOL    HW233228   0.653   2.738   4.003
10777SOL     OW33229   2.743   1.325   1.466
10777SOL    HW133230   2.763   1.422   1.480
10777SOL    HW233231   2.716   1.284   1.552
10778SOL     OW33232   5.821   0.261   3.218
10778SOL    HW133233   5.868   0.209   3.290
10778SOL    HW233234   5.885   0.325   3.176
10779SOL     OW33235   5.618   3.997   5.393
10779SOL    HW133236   5.608   3.971   5.489
10779SOL    HW233237   5.652   3.919   5.340
10780SOL     OW33238   2.127   5.394   4.644
10780SOL    HW133239   2.144   5.304   4.603
10780SOL    HW233240   2.070   5.448   4.583
10781SOL     OW33241   5.690   2.411   4.860
10781SOL    HW133242   5.618   2.374   4.801
10781SOL    HW233243   5.779   2.389   4.822
10782SOL     OW33244   0.986   1.621   5.581
10782SOL    HW133245   1.048   1.617   5.503
10782SOL    HW233246   1.014   1.694   5.643
10783SOL     OW33247   1.248   2.524   3.867
10783SOL    HW133248   1.199   2.595   3.817
10783SOL    HW233249   1.347   2.534   3.853
10784SOL     OW33250   3.661   5.604   2.842
10784SOL    HW133251   3.678   5.637   2.935
10784SOL    HW233252   3.687   5.508   2.836
10785SOL     OW33253   1.161   5.024   1.993
10785SOL    HW133254   1.234   4.955   1.995
10785SOL    HW233255   1.146   5.053   1.899
10786SOL     OW33256   4.316   1.534   2.308
10786SOL    HW133257   4.290   1.611   2.249
10786SOL    HW233258   4.268   1.542   2.396
10787SOL     OW33259   4.182   0.570   3.486
10787SOL    HW133260   4.185   0.660   3.442
10787SOL    HW233261   4.113   0.513   3.440
10788SOL     OW33262   1.717   3.963   7.020
10788SOL    HW133263   1.711   3.915   0.084
10788SOL    HW233264   1.735   4.060   0.012
10789SOL     OW33265   6.702   1.315   1.659
10789SOL    HW133266   6.610   1.277   1.647
10789SOL    HW233267   6.763   1.278   1.589
10790SOL     OW33268   0.667   1.837   5.811
10790SOL    HW133269   0.699   1.930   5.797
10790SOL    HW233270   0.670   1.787   5.724
10791SOL     OW33271   1.375   1.933   3.893
10791SOL    HW133272   1.444   1.997   3.929
10791SOL    HW233273   1.287   1.951   3.937
10792SOL     OW33274   3.912   1.949   2.338
10792SOL    HW133275   3.944   2.020   2.275
10792SOL    HW233276   3.812   1.941   2.331
10793SOL     OW33277   4.481   2.086   4.856
10793SOL    HW133278   4.547   2.024   4.815
10793SOL    HW233279   4.495   2.090   4.955
10794SOL     OW33280   5.349   1.756   1.030
10794SOL    HW133281   5.325   1.669   0.987
10794SOL    HW233282   5.447   1.760   1.044
10795SOL     OW33283   6.916   3.604   3.087
10795SOL    HW133284   6.953   3.696   3.099
10795SOL    HW233285   6.939   3.548   3.167
10796SOL     OW33286   0.417   6.680   5.756
10796SOL    HW133287   0.421   6.774   5.791
10796SOL    HW233288   0.491   6.626   5.797
10797SOL     OW33289   4.393   4.107   6.563
10797SOL    HW133290   4.317   4.168   6.584
10797SOL    HW233291   4.411   4.109   6.464
10798SOL     OW33292   1.431   6.922   6.739
10798SOL    HW133293   1.348   6.974   6.760
10798SOL    HW233294   1.421   6.876   6.651
10799SOL     OW33295   3.203   1.071   2.726
10799SOL    HW133296   3.195   1.139   2.800
10799SOL    HW233297   3.194   1.117   2.638
10800SOL     OW33298   2.289   0.149   5.515
10800SOL    HW133299   2.250   0.222   5.571
10800SOL    HW233300   2.283   0.174   5.418
10801SOL     OW33301   2.618   5.985   5.923
10801SOL    HW133302   2.689   6.044   5.962
10801SOL    HW233303   2.654   5.893   5.912
10802SOL     OW33304   0.959   4.891   4.500
10802SOL    HW133305   0.944   4.814   4.438
10802SOL    HW233306   0.875   4.909   4.552
10803SOL     OW33307   0.397   4.074   4.605
10803SOL    HW133308   0.400   3.996   4.543
10803SOL    HW233309   0.488   4.117   4.609
10804SOL     OW33310   4.964   4.521   1.175
10804SOL    HW133311   4.891   4.586   1.153
10804SOL    HW233312   5.051   4.559   1.145
10805SOL     OW33313   3.793   5.998   0.582
10805SOL    HW133314   3.718   6.051   0.543
10805SOL    HW233315   3.875   6.012   0.527
10806SOL     OW33316   5.847   3.944   6.954
10806SOL    HW133317   5.895   3.983   6.875
10806SOL    HW233318   5.906   3.880   7.001
10807SOL     OW33319   4.535   0.045   3.931
10807SOL    HW133320   4.475   0.113   3.888
10807SOL    HW233321   4.515   6.978   3.895
10808SOL     OW33322   0.828   2.706   6.918
10808SOL    HW133323   0.868   2.773   6.981
10808SOL    HW233324   0.808   2.751   6.831
10809SOL     OW33325   3.280   0.681   3.126
10809SOL    HW133326   3.300   0.599   3.073
10809SOL    HW233327   3.266   0.759   3.064
10810SOL     OW33328   0.685   1.861   6.857
10810SOL    HW133329   0.677   1.908   6.946
10810SOL    HW233330   0.730   1.922   6.792
10811SOL     OW33331   4.974   4.795   5.566
10811SOL    HW133332   5.058   4.821   5.614
10811SOL    HW233333   4.996   4.730   5.494
10812SOL     OW33334   6.888   2.452   2.848
10812SOL    HW133335   6.853   2.461   2.755
10812SOL    HW233336   6.873   2.537   2.898
10813SOL     OW33337   2.732   5.538   2.541
10813SOL    HW133338   2.793   5.606   2.581
10813SOL    HW233339   2.646   5.583   2.515
10814SOL     OW33340   1.772   6.035   5.112
10814SOL    HW133341   1.727   6.083   5.037
10814SOL    HW233342   1.777   6.095   5.192
10815SOL     OW33343   4.514   2.543   3.563
10815SOL    HW133344   4.513   2.482   3.483
10815SOL    HW233345   4.447   2.512   3.630
10816SOL     OW33346   2.061   2.280   2.178
10816SOL    HW133347   2.067   2.379   2.196
10816SOL    HW233348   2.039   2.232   2.263
10817SOL     OW33349   4.836   6.760   2.008
10817SOL    HW133350   4.918   6.708   2.031
10817SOL    HW233351   4.757   6.699   2.008
10818SOL     OW33352   4.611   2.930   6.351
10818SOL    HW133353   4.534   2.973   6.399
10818SOL    HW233354   4.614   2.964   6.257
10819SOL     OW33355   0.614   3.676   6.060
10819SOL    HW133356   0.654   3.658   6.150
10819SOL    HW233357   0.686   3.684   5.992
10820SOL     OW33358   0.386   0.342   4.570
10820SOL    HW133359   0.313   0.382   4.516
10820SOL    HW233360   0.360   0.343   4.667
10821SOL     OW33361   0.006   0.024   0.660
10821SOL    HW133362   0.076   0.075   0.611
10821SOL    HW233363   6.944   0.076   0.660
10822SOL     OW33364   1.330   4.961   0.755
10822SOL    HW133365   1.319   4.984   0.852
10822SOL    HW233366   1.378   5.035   0.708
10823SOL     OW33367   0.956   2.042   2.085
10823SOL    HW133368   0.988   2.054   2.179
10823SOL    HW233369   1.031   2.006   2.029
10824SOL     OW33370   5.293   0.361   3.235
10824SOL    HW133371   5.245   0.284   3.275
10824SOL    HW233372   5.381   0.331   3.198
10825SOL     OW33373   3.581   1.900   0.851
10825SOL    HW133374   3.608   1.918   0.756
10825SOL    HW233375   3.656   1.854   0.898
10826SOL     OW33376   6.856   2.936   1.316
10826SOL    HW133377   6.776   2.897   1.362
10826SOL    HW233378   6.936   2.880   1.337
10827SOL     OW33379   1.327   2.573   4.418
10827SOL    HW133380   1.235   2.591   4.452
10827SOL    HW233381   1.363   2.654   4.372
10828SOL     OW33382   1.352   6.385   0.072
10828SOL    HW133383   1.448   6.412   0.084
10828SOL    HW233384   1.300   6.462   0.035
10829SOL     OW33385   2.338   3.699   1.713
10829SOL    HW133386   2.363   3.617   1.765
10829SOL    HW233387   2.261   3.744   1.756
10830SOL     OW33388   4.819   1.749   3.818
10830SOL    HW133389   4.821   1.650   3.803
10830SOL    HW233390   4.816   1.796   3.730
10831SOL     OW33391   5.149   2.833   3.093
10831SOL    HW133392   5.051   2.837   3.073
10831SOL    HW233393   5.188   2.925   3.089
10832SOL     OW33394   6.752   2.487   2.616
10832SOL    HW133395   6.706   2.538   2.543
10832SOL    HW233396   6.693   2.411   2.646
10833SOL     OW33397   3.118   0.339   4.299
10833SOL    HW133398   3.159   0.284   4.372
10833SOL    HW233399   3.056   0.281   4.246
10834SOL     OW33400   0.020   1.217   5.703
10834SOL    HW133401   6.979   1.245   5.633
10834SOL    HW233402   0.007   1.272   5.786
10835SOL     OW33403   6.922   2.205   2.495
10835SOL    HW133404   6.924   2.305   2.490
10835SOL    HW233405   7.012   2.171   2.521
10836SOL     OW33406   1.737   2.751   0.708
10836SOL    HW133407   1.810   2.697   0.749
10836SOL    HW233408   1.648   2.708   0.726
10837SOL     OW33409   1.046   5.581   1.319
10837SOL    HW133410   0.954   5.616   1.332
10837SOL    HW233411   1.085   5.555   1.407
10838SOL     OW33412   6.359   6.886   1.112
10838SOL    HW133413   6.367   6.795   1.152
10838SOL    HW233414   6.270   6.925   1.135
10839SOL     OW33415   1.730   1.699   0.256
10839SOL    HW133416   1.681   1.713   0.342
10839SOL    HW233417   1.755   1.603   0.248
10840SOL     OW33418   3.852   4.906   2.529
10840SOL    HW133419   3.864   4.844   2.451
10840SOL    HW233420   3.928   4.970   2.533
10841SOL     OW33421   5.031   3.352   5.279
10841SOL    HW133422   4.983   3.430   5.320
10841SOL    HW233423   5.130   3.367   5.284
10842SOL     OW33424   6.808   3.207   0.964
10842SOL    HW133425   6.754   3.124   0.947
10842SOL    HW233426   6.769   3.284   0.913
10843SOL     OW33427   0.535   1.214   1.625
10843SOL    HW133428   0.512   1.135   1.568
10843SOL    HW233429   0.500   1.200   1.718
10844SOL     OW33430   3.415   6.699   3.524
10844SOL    HW133431   3.382   6.613   3.563
10844SOL    HW233432   3.436   6.763   3.597
10845SOL     OW33433   1.039   3.026   1.088
10845SOL    HW133434   1.024   2.933   1.055
10845SOL    HW233435   0.958   3.057   1.136
10846SOL     OW33436   3.654   1.931   2.026
10846SOL    HW133437   3.674   2.024   1.996
10846SOL    HW233438   3.611   1.934   2.117
10847SOL     OW33439   3.784   2.441   5.974
10847SOL    HW133440   3.881   2.426   5.955
10847SOL    HW233441   3.764   2.414   6.068
10848SOL     OW33442   0.932   1.400   0.695
10848SOL    HW133443   0.951   1.302   0.685
10848SOL    HW233444   0.991   1.438   0.765
10849SOL     OW33445   2.570   4.927   4.281
10849SOL    HW133446   2.524   4.840   4.295
10849SOL    HW233447   2.648   4.914   4.219
10850SOL     OW33448   5.963   0.658   1.942
10850SOL    HW133449   5.883   0.688   1.890
10850SOL    HW233450   6.027   0.611   1.881
10851SOL     OW33451   4.294   2.268   6.264
10851SOL    HW133452   4.319   2.186   6.315
10851SOL    HW233453   4.312   2.349   6.320
10852SOL     OW33454   0.181   6.292   6.285
10852SOL    HW133455   0.188   6.290   6.384
10852SOL    HW233456   0.102   6.346   6.258
10853SOL     OW33457   1.943   0.966   4.191
10853SOL    HW133458   1.986   0.977   4.101
10853SOL    HW233459   1.958   0.873   4.224
10854SOL     OW33460   0.291   6.349   0.755
10854SOL    HW133461   0.366   6.395   0.708
10854SOL    HW233462   0.312   6.341   0.852
10855SOL     OW33463   1.552   5.975   1.687
10855SOL    HW133464   1.484   5.902   1.680
10855SOL    HW233465   1.604   5.981   1.602
10856SOL     OW33466   6.005   0.469   6.263
10856SOL    HW133467   6.018   0.567   6.247
10856SOL    HW233468   5.907   0.449   6.267
10857SOL     OW33469   6.277   0.697   5.026
10857SOL    HW133470   6.303   0.704   5.122
10857SOL    HW233471   6.194   0.750   5.010
10858SOL     OW33472   2.357   2.171   0.262
10858SOL    HW133473   2.424   2.164   0.188
10858SOL    HW233474   2.268   2.140   0.228
10859SOL     OW33475   0.999   5.923   2.187
10859SOL    HW133476   1.079   5.959   2.139
10859SOL    HW233477   0.944   5.868   2.124
10860SOL     OW33478   5.671   3.169   0.446
10860SOL    HW133479   5.613   3.088   0.450
10860SOL    HW233480   5.766   3.142   0.434
10861SOL     OW33481   2.991   2.652   1.699
10861SOL    HW133482   3.085   2.654   1.732
10861SOL    HW233483   2.942   2.577   1.743
10862SOL     OW33484   3.044   3.249   5.372
10862SOL    HW133485   3.097   3.170   5.341
10862SOL    HW233486   2.970   3.267   5.306
10863SOL     OW33487   2.456   0.887   2.972
10863SOL    HW133488   2.430   0.895   3.068
10863SOL    HW233489   2.501   0.799   2.956
10864SOL     OW33490   3.124   4.429   1.650
10864SOL    HW133491   3.048   4.420   1.715
10864SOL    HW233492   3.158   4.337   1.627
10865SOL     OW33493   3.866   1.330   2.734
10865SOL    HW133494   3.827   1.392   2.802
10865SOL    HW233495   3.880   1.380   2.648
10866SOL     OW33496   0.012   3.346   3.621
10866SOL    HW133497   6.936   3.352   3.617
10866SOL    HW233498   0.045   3.291   3.545
10867SOL     OW33499   4.488   3.030   0.948
10867SOL    HW133500   4.517   3.020   1.044
10867SOL    HW233501   4.420   2.960   0.926
10868SOL     OW33502   1.522   0.015   5.018
10868SOL    HW133503   1.501   0.038   5.113
10868SOL    HW233504   1.610   0.055   4.992
10869NA      NA33505   6.991   1.335   6.175
10870NA      NA33506   4.488   4.645   5.106
10871NA      NA33507   1.484   4.820   2.864
10872NA      NA33508   5.904   4.088   3.261
10873NA      NA33509   3.852   2.233   5.354
10874NA      NA33510   2.101   4.885   0.204
10875NA      NA33511   1.154   5.338   6.839
10876NA      NA33512   3.669   4.351   0.949
10877NA      NA33513   4.730   4.496   0.384
10878NA      NA33514   3.505   0.997   6.839
10879NA      NA33515   5.559   6.980   1.682
10880NA      NA33516   2.345   6.445   5.493
10881NA      NA33517   3.874   5.206   1.430
10882NA      NA33518   3.812   3.214   6.547
   7.02396   7.02396   7.02396
