Generated by trjconv : CNT in water t= 489.00000
33518
    1C        C    1   2.844   2.770   4.749
    1C        C    2   2.900   2.721   4.869
    1C        C    3   2.841   2.774   4.985
    1C        C    4   2.853   2.779   4.263
    1C        C    5   2.906   2.736   4.387
    1C        C    6   2.848   2.780   4.508
    1C        C    7   3.016   2.645   4.626
    1C        C    8   2.898   2.723   4.627
    1C        C    9   3.077   2.607   4.748
    1C        C   10   3.011   2.634   4.870
    1C        C   11   3.182   2.495   4.978
    1C        C   12   3.058   2.560   4.979
    1C        C   13   2.850   2.776   3.772
    1C        C   14   2.902   2.729   3.894
    1C        C   15   2.852   2.778   4.017
    1C        C   16   3.022   2.654   4.141
    1C        C   17   2.905   2.733   4.140
    1C        C   18   3.084   2.621   4.263
    1C        C   19   3.021   2.655   4.385
    1C        C   20   3.215   2.566   4.507
    1C        C   21   3.082   2.613   4.506
    1C        C   22   3.282   2.543   4.629
    1C        C   23   3.210   2.557   4.750
    1C        C   24   3.413   2.486   4.868
    1C        C   25   3.272   2.507   4.868
    1C        C   26   3.495   2.483   4.982
    1C        C   27   2.849   2.772   3.283
    1C        C   28   2.905   2.730   3.405
    1C        C   29   2.853   2.776   3.528
    1C        C   30   3.018   2.644   3.652
    1C        C   31   2.904   2.728   3.651
    1C        C   32   3.081   2.613   3.775
    1C        C   33   3.019   2.649   3.897
    1C        C   34   3.211   2.559   4.019
    1C        C   35   3.082   2.615   4.019
    1C        C   36   3.282   2.540   4.141
    1C        C   37   3.215   2.567   4.262
    1C        C   38   3.421   2.517   4.383
    1C        C   39   3.283   2.547   4.384
    1C        C   40   3.490   2.508   4.507
    1C        C   41   3.419   2.508   4.629
    1C        C   42   3.633   2.487   4.746
    1C        C   43   3.491   2.485   4.748
    1C        C   44   3.710   2.486   4.865
    1C        C   45   3.634   2.474   4.981
    1C        C   46   2.838   2.755   2.795
    1C        C   47   2.898   2.718   2.918
    1C        C   48   2.849   2.771   3.039
    1C        C   49   3.019   2.644   3.164
    1C        C   50   2.903   2.725   3.161
    1C        C   51   3.085   2.616   3.285
    1C        C   52   3.024   2.653   3.407
    1C        C   53   3.211   2.558   3.529
    1C        C   54   3.080   2.612   3.530
    1C        C   55   3.278   2.535   3.651
    1C        C   56   3.212   2.561   3.773
    1C        C   57   3.416   2.513   3.895
    1C        C   58   3.277   2.538   3.896
    1C        C   59   3.490   2.502   4.015
    1C        C   60   3.420   2.509   4.138
    1C        C   61   3.631   2.503   4.261
    1C        C   62   3.490   2.506   4.260
    1C        C   63   3.702   2.508   4.383
    1C        C   64   3.631   2.503   4.505
    1C        C   65   3.840   2.543   4.623
    1C        C   66   3.704   2.508   4.626
    1C        C   67   3.911   2.562   4.744
    1C        C   68   3.847   2.521   4.863
    1C        C   69   4.054   2.586   4.979
    1C        C   70   3.923   2.537   4.980
    1C        C   71   2.829   2.741   2.310
    1C        C   72   2.890   2.702   2.431
    1C        C   73   2.836   2.753   2.551
    1C        C   74   3.012   2.633   2.676
    1C        C   75   2.893   2.710   2.673
    1C        C   76   3.076   2.600   2.797
    1C        C   77   3.016   2.640   2.918
    1C        C   78   3.211   2.558   3.039
    1C        C   79   3.079   2.609   3.041
    1C        C   80   3.278   2.536   3.161
    1C        C   81   3.215   2.560   3.285
    1C        C   82   3.419   2.506   3.406
    1C        C   83   3.281   2.535   3.408
    1C        C   84   3.487   2.496   3.529
    1C        C   85   3.416   2.507   3.650
    1C        C   86   3.628   2.504   3.772
    1C        C   87   3.486   2.503   3.773
    1C        C   88   3.701   2.513   3.892
    1C        C   89   3.631   2.505   4.015
    1C        C   90   3.834   2.552   4.136
    1C        C   91   3.700   2.510   4.138
    1C        C   92   3.901   2.580   4.258
    1C        C   93   3.839   2.544   4.379
    1C        C   94   4.031   2.635   4.500
    1C        C   95   3.907   2.568   4.500
    1C        C   96   4.095   2.669   4.621
    1C        C   97   4.039   2.622   4.742
    1C        C   98   4.192   2.767   4.863
    1C        C   99   4.105   2.654   4.864
    1C        C  100   4.219   2.842   4.979
    1C        C  101   2.823   2.730   2.071
    1C        C  102   2.990   2.592   2.193
    1C        C  103   2.879   2.682   2.190
    1C        C  104   3.065   2.574   2.313
    1C        C  105   3.007   2.624   2.432
    1C        C  106   3.203   2.542   2.551
    1C        C  107   3.075   2.601   2.554
    1C        C  108   3.271   2.522   2.674
    1C        C  109   3.206   2.544   2.797
    1C        C  110   3.415   2.497   2.918
    1C        C  111   3.277   2.527   2.918
    1C        C  112   3.487   2.490   3.039
    1C        C  113   3.416   2.504   3.160
    1C        C  114   3.629   2.496   3.283
    1C        C  115   3.487   2.499   3.282
    1C        C  116   3.699   2.505   3.405
    1C        C  117   3.629   2.500   3.528
    1C        C  118   3.836   2.544   3.648
    1C        C  119   3.699   2.510   3.650
    1C        C  120   3.903   2.569   3.770
    1C        C  121   3.839   2.543   3.893
    1C        C  122   4.029   2.638   4.015
    1C        C  123   3.905   2.571   4.015
    1C        C  124   4.094   2.673   4.136
    1C        C  125   4.029   2.639   4.257
    1C        C  126   4.199   2.766   4.377
    1C        C  127   4.093   2.672   4.379
    1C        C  128   4.246   2.818   4.500
    1C        C  129   4.196   2.768   4.622
    1C        C  130   4.334   2.933   4.740
    1C        C  131   4.242   2.824   4.743
    1C        C  132   4.361   3.001   4.860
    1C        C  133   4.287   2.963   4.973
    1C        C  134   3.173   2.471   2.084
    1C        C  135   3.040   2.513   2.085
    1C        C  136   3.262   2.483   2.192
    1C        C  137   3.199   2.527   2.310
    1C        C  138   3.409   2.488   2.430
    1C        C  139   3.269   2.506   2.431
    1C        C  140   3.481   2.487   2.552
    1C        C  141   3.410   2.496   2.674
    1C        C  142   3.624   2.496   2.791
    1C        C  143   3.483   2.489   2.795
    1C        C  144   3.695   2.500   2.913
    1C        C  145   3.628   2.496   3.038
    1C        C  146   3.836   2.534   3.159
    1C        C  147   3.699   2.501   3.160
    1C        C  148   3.904   2.560   3.280
    1C        C  149   3.835   2.542   3.402
    1C        C  150   4.029   2.627   3.524
    1C        C  151   3.900   2.568   3.525
    1C        C  152   4.088   2.666   3.646
    1C        C  153   4.028   2.636   3.770
    1C        C  154   4.198   2.765   3.889
    1C        C  155   4.084   2.680   3.892
    1C        C  156   4.251   2.812   4.010
    1C        C  157   4.202   2.763   4.133
    1C        C  158   4.344   2.922   4.254
    1C        C  159   4.251   2.815   4.256
    1C        C  160   4.377   2.986   4.375
    1C        C  161   4.330   2.931   4.497
    1C        C  162   4.439   3.116   4.616
    1C        C  163   4.372   2.992   4.617
    1C        C  164   4.467   3.184   4.737
    1C        C  165   4.437   3.120   4.859
    1C        C  166   4.509   3.325   4.974
    1C        C  167   4.474   3.191   4.975
    1C        C  168   3.479   2.433   2.076
    1C        C  169   3.402   2.461   2.190
    1C        C  170   3.620   2.471   2.307
    1C        C  171   3.478   2.472   2.308
    1C        C  172   3.692   2.488   2.427
    1C        C  173   3.622   2.487   2.550
    1C        C  174   3.832   2.536   2.670
    1C        C  175   3.696   2.497   2.670
    1C        C  176   3.899   2.558   2.793
    1C        C  177   3.832   2.535   2.915
    1C        C  178   4.028   2.621   3.034
    1C        C  179   3.901   2.559   3.036
    1C        C  180   4.089   2.661   3.155
    1C        C  181   4.029   2.625   3.278
    1C        C  182   4.200   2.749   3.399
    1C        C  183   4.090   2.660   3.401
    1C        C  184   4.248   2.803   3.521
    1C        C  185   4.197   2.756   3.644
    1C        C  186   4.338   2.918   3.764
    1C        C  187   4.249   2.808   3.764
    1C        C  188   4.380   2.976   3.886
    1C        C  189   4.343   2.920   4.010
    1C        C  190   4.441   3.109   4.130
    1C        C  191   4.380   2.981   4.131
    1C        C  192   4.469   3.177   4.250
    1C        C  193   4.438   3.114   4.372
    1C        C  194   4.508   3.316   4.494
    1C        C  195   4.469   3.180   4.493
    1C        C  196   4.520   3.388   4.614
    1C        C  197   4.509   3.320   4.737
    1C        C  198   4.559   3.536   4.851
    1C        C  199   4.529   3.396   4.855
    1C        C  200   4.586   3.624   4.961
    1C        C  201   3.617   2.413   2.075
    1C        C  202   3.825   2.518   2.187
    1C        C  203   3.694   2.459   2.187
    1C        C  204   3.901   2.541   2.305
    1C        C  205   3.830   2.519   2.425
    1C        C  206   4.024   2.613   2.546
    1C        C  207   3.896   2.552   2.545
    1C        C  208   4.086   2.653   2.666
    1C        C  209   4.025   2.621   2.790
    1C        C  210   4.201   2.742   2.908
    1C        C  211   4.088   2.657   2.911
    1C        C  212   4.252   2.791   3.031
    1C        C  213   4.201   2.746   3.155
    1C        C  214   4.332   2.914   3.271
    1C        C  215   4.248   2.801   3.277
    1C        C  216   4.372   2.970   3.394
    1C        C  217   4.337   2.913   3.518
    1C        C  218   4.441   3.099   3.640
    1C        C  219   4.377   2.973   3.640
    1C        C  220   4.466   3.168   3.760
    1C        C  221   4.440   3.104   3.883
    1C        C  222   4.504   3.306   4.004
    1C        C  223   4.469   3.169   4.005
    1C        C  224   4.514   3.380   4.124
    1C        C  225   4.503   3.314   4.249
    1C        C  226   4.518   3.526   4.367
    1C        C  227   4.514   3.385   4.371
    1C        C  228   4.517   3.598   4.488
    1C        C  229   4.525   3.529   4.612
    1C        C  230   4.502   3.744   4.729
    1C        C  231   4.536   3.606   4.730
    1C        C  232   4.498   3.821   4.847
    1C        C  233   4.547   3.758   4.962
    1C        C  234   4.019   2.608   2.064
    1C        C  235   3.893   2.550   2.069
    1C        C  236   4.087   2.644   2.181
    1C        C  237   4.027   2.607   2.303
    1C        C  238   4.203   2.729   2.422
    1C        C  239   4.089   2.644   2.424
    1C        C  240   4.255   2.779   2.543
    1C        C  241   4.201   2.735   2.665
    1C        C  242   4.337   2.902   2.785
    1C        C  243   4.252   2.789   2.785
    1C        C  244   4.371   2.966   2.906
    1C        C  245   4.335   2.905   3.029
    1C        C  246   4.436   3.097   3.148
    1C        C  247   4.373   2.970   3.148
    1C        C  248   4.460   3.161   3.271
    1C        C  249   4.432   3.098   3.395
    1C        C  250   4.495   3.302   3.515
    1C        C  251   4.460   3.165   3.516
    1C        C  252   4.504   3.374   3.636
    1C        C  253   4.497   3.306   3.760
    1C        C  254   4.516   3.518   3.879
    1C        C  255   4.513   3.377   3.882
    1C        C  256   4.512   3.591   4.000
    1C        C  257   4.520   3.522   4.123
    1C        C  258   4.495   3.735   4.244
    1C        C  259   4.516   3.595   4.244
    1C        C  260   4.475   3.806   4.365
    1C        C  261   4.488   3.736   4.487
    1C        C  262   4.428   3.942   4.604
    1C        C  263   4.476   3.809   4.607
    1C        C  264   4.401   4.010   4.725
    1C        C  265   4.437   3.949   4.847
    1C        C  266   4.323   4.135   4.961
    1C        C  267   4.398   4.018   4.962
    1C        C  268   4.263   2.776   2.063
    1C        C  269   4.196   2.735   2.179
    1C        C  270   4.345   2.888   2.300
    1C        C  271   4.253   2.780   2.300
    1C        C  272   4.382   2.951   2.421
    1C        C  273   4.340   2.892   2.543
    1C        C  274   4.448   3.081   2.661
    1C        C  275   4.378   2.958   2.662
    1C        C  276   4.472   3.151   2.781
    1C        C  277   4.442   3.088   2.904
    1C        C  278   4.503   3.294   3.026
    1C        C  279   4.466   3.158   3.024
    1C        C  280   4.508   3.365   3.148
    1C        C  281   4.494   3.298   3.272
    1C        C  282   4.513   3.512   3.391
    1C        C  283   4.505   3.371   3.392
    1C        C  284   4.517   3.584   3.512
    1C        C  285   4.513   3.515   3.635
    1C        C  286   4.490   3.727   3.755
    1C        C  287   4.514   3.588   3.756
    1C        C  288   4.473   3.795   3.877
    1C        C  289   4.492   3.731   4.001
    1C        C  290   4.435   3.938   4.120
    1C        C  291   4.478   3.803   4.122
    1C        C  292   4.404   4.005   4.240
    1C        C  293   4.430   3.940   4.363
    1C        C  294   4.332   4.132   4.482
    1C        C  295   4.405   4.010   4.483
    1C        C  296   4.290   4.194   4.602
    1C        C  297   4.332   4.134   4.723
    1C        C  298   4.202   4.314   4.841
    1C        C  299   4.288   4.199   4.842
    1C        C  300   4.171   4.405   4.947
    1C        C  301   4.348   2.886   2.064
    1C        C  302   4.467   3.071   2.176
    1C        C  303   4.393   2.949   2.181
    1C        C  304   4.478   3.143   2.298
    1C        C  305   4.445   3.077   2.419
    1C        C  306   4.505   3.284   2.538
    1C        C  307   4.474   3.146   2.538
    1C        C  308   4.511   3.359   2.658
    1C        C  309   4.502   3.289   2.781
    1C        C  310   4.515   3.503   2.900
    1C        C  311   4.515   3.361   2.902
    1C        C  312   4.510   3.576   3.021
    1C        C  313   4.512   3.506   3.144
    1C        C  314   4.491   3.717   3.264
    1C        C  315   4.512   3.578   3.265
    1C        C  316   4.477   3.788   3.386
    1C        C  317   4.496   3.724   3.510
    1C        C  318   4.428   3.927   3.628
    1C        C  319   4.475   3.793   3.631
    1C        C  320   4.396   3.988   3.751
    1C        C  321   4.430   3.930   3.876
    1C        C  322   4.322   4.114   3.993
    1C        C  323   4.403   3.998   3.997
    1C        C  324   4.278   4.171   4.115
    1C        C  325   4.328   4.124   4.238
    1C        C  326   4.188   4.285   4.356
    1C        C  327   4.288   4.186   4.359
    1C        C  328   4.135   4.337   4.477
    1C        C  329   4.192   4.295   4.599
    1C        C  330   4.027   4.436   4.717
    1C        C  331   4.141   4.351   4.718
    1C        C  332   3.968   4.494   4.831
    1C        C  333   4.054   4.482   4.941
    1C        C  334   4.555   3.268   2.062
    1C        C  335   4.533   3.130   2.063
    1C        C  336   4.536   3.350   2.175
    1C        C  337   4.514   3.281   2.296
    1C        C  338   4.524   3.495   2.415
    1C        C  339   4.518   3.354   2.416
    1C        C  340   4.525   3.568   2.536
    1C        C  341   4.525   3.499   2.659
    1C        C  342   4.495   3.714   2.775
    1C        C  343   4.514   3.575   2.778
    1C        C  344   4.475   3.784   2.896
    1C        C  345   4.489   3.715   3.019
    1C        C  346   4.427   3.918   3.139
    1C        C  347   4.475   3.785   3.141
    1C        C  348   4.393   3.980   3.262
    1C        C  349   4.429   3.921   3.385
    1C        C  350   4.326   4.110   3.504
    1C        C  351   4.402   3.991   3.505
    1C        C  352   4.281   4.165   3.626
    1C        C  353   4.322   4.108   3.749
    1C        C  354   4.181   4.269   3.869
    1C        C  355   4.278   4.167   3.870
    1C        C  356   4.129   4.321   3.990
    1C        C  357   4.183   4.275   4.112
    1C        C  358   4.008   4.397   4.231
    1C        C  359   4.128   4.323   4.234
    1C        C  360   3.952   4.440   4.354
    1C        C  361   4.019   4.417   4.476
    1C        C  362   3.829   4.516   4.595
    1C        C  363   3.958   4.459   4.596
    1C        C  364   3.764   4.552   4.715
    1C        C  365   3.837   4.548   4.835
    1C        C  366   3.629   4.591   4.948
    1C        C  367   3.767   4.578   4.953
    1C        C  368   4.513   3.567   2.058
    1C        C  369   4.523   3.491   2.175
    1C        C  370   4.503   3.707   2.291
    1C        C  371   4.520   3.567   2.294
    1C        C  372   4.492   3.780   2.412
    1C        C  373   4.506   3.708   2.532
    1C        C  374   4.438   3.915   2.651
    1C        C  375   4.477   3.779   2.651
    1C        C  376   4.407   3.983   2.771
    1C        C  377   4.430   3.918   2.894
    1C        C  378   4.324   4.101   3.013
    1C        C  379   4.400   3.982   3.017
    1C        C  380   4.275   4.152   3.136
    1C        C  381   4.318   4.100   3.260
    1C        C  382   4.181   4.262   3.381
    1C        C  383   4.281   4.162   3.381
    1C        C  384   4.126   4.307   3.503
    1C        C  385   4.180   4.264   3.627
    1C        C  386   4.010   4.394   3.744
    1C        C  387   4.127   4.316   3.747
    1C        C  388   3.945   4.427   3.866
    1C        C  389   4.011   4.398   3.987
    1C        C  390   3.818   4.488   4.110
    1C        C  391   3.950   4.437   4.109
    1C        C  392   3.751   4.514   4.232
    1C        C  393   3.824   4.500   4.352
    1C        C  394   3.618   4.551   4.475
    1C        C  395   3.758   4.529   4.473
    1C        C  396   3.547   4.561   4.596
    1C        C  397   3.623   4.565   4.715
    1C        C  398   3.409   4.555   4.842
    1C        C  399   3.548   4.578   4.834
    1C        C  400   3.345   4.512   4.958
    1C        C  401   4.502   3.705   2.054
    1C        C  402   4.463   3.919   2.170
    1C        C  403   4.492   3.781   2.171
    1C        C  404   4.420   3.982   2.289
    1C        C  405   4.448   3.914   2.409
    1C        C  406   4.331   4.097   2.528
    1C        C  407   4.410   3.980   2.529
    1C        C  408   4.281   4.153   2.647
    1C        C  409   4.324   4.097   2.770
    1C        C  410   4.175   4.252   2.891
    1C        C  411   4.279   4.155   2.891
    1C        C  412   4.123   4.296   3.015
    1C        C  413   4.175   4.252   3.138
    1C        C  414   4.003   4.379   3.258
    1C        C  415   4.120   4.299   3.259
    1C        C  416   3.942   4.412   3.381
    1C        C  417   4.006   4.381   3.503
    1C        C  418   3.812   4.474   3.620
    1C        C  419   3.943   4.421   3.623
    1C        C  420   3.746   4.499   3.743
    1C        C  421   3.812   4.474   3.865
    1C        C  422   3.610   4.529   3.988
    1C        C  423   3.748   4.500   3.989
    1C        C  424   3.541   4.545   4.111
    1C        C  425   3.612   4.539   4.233
    1C        C  426   3.402   4.550   4.355
    1C        C  427   3.543   4.550   4.355
    1C        C  428   3.333   4.547   4.478
    1C        C  429   3.406   4.559   4.599
    1C        C  430   3.196   4.527   4.724
    1C        C  431   3.335   4.556   4.721
    1C        C  432   3.126   4.498   4.845
    1C        C  433   3.207   4.495   4.960
    1C        C  434   4.389   4.119   2.055
    1C        C  435   4.449   3.992   2.052
    1C        C  436   4.310   4.167   2.164
    1C        C  437   4.338   4.099   2.286
    1C        C  438   4.183   4.248   2.405
    1C        C  439   4.288   4.153   2.406
    1C        C  440   4.129   4.300   2.525
    1C        C  441   4.185   4.256   2.647
    1C        C  442   4.011   4.382   2.767
    1C        C  443   4.125   4.299   2.768
    1C        C  444   3.949   4.411   2.891
    1C        C  445   4.006   4.375   3.015
    1C        C  446   3.811   4.465   3.133
    1C        C  447   3.943   4.414   3.135
    1C        C  448   3.745   4.488   3.256
    1C        C  449   3.810   4.464   3.379
    1C        C  450   3.605   4.527   3.496
    1C        C  451   3.742   4.494   3.499
    1C        C  452   3.540   4.540   3.621
    1C        C  453   3.609   4.534   3.744
    1C        C  454   3.398   4.551   3.865
    1C        C  455   3.539   4.544   3.867
    1C        C  456   3.331   4.542   3.989
    1C        C  457   3.400   4.543   4.113
    1C        C  458   3.190   4.513   4.238
    1C        C  459   3.329   4.541   4.234
    1C        C  460   3.123   4.493   4.360
    1C        C  461   3.195   4.516   4.480
    1C        C  462   3.001   4.438   4.606
    1C        C  463   3.129   4.498   4.604
    1C        C  464   2.933   4.403   4.725
    1C        C  465   2.994   4.443   4.846
    1C        C  466   2.805   4.338   4.959
    1C        C  467   2.909   4.432   4.961
    1C        C  468   4.132   4.287   2.043
    1C        C  469   4.193   4.249   2.163
    1C        C  470   4.011   4.373   2.280
    1C        C  471   4.130   4.295   2.282
    1C        C  472   3.945   4.405   2.400
    1C        C  473   4.010   4.375   2.522
    1C        C  474   3.816   4.462   2.647
    1C        C  475   3.948   4.410   2.644
    1C        C  476   3.749   4.488   2.768
    1C        C  477   3.819   4.466   2.889
    1C        C  478   3.609   4.517   3.010
    1C        C  479   3.747   4.485   3.009
    1C        C  480   3.537   4.528   3.131
    1C        C  481   3.608   4.522   3.253
    1C        C  482   3.394   4.535   3.378
    1C        C  483   3.535   4.535   3.374
    1C        C  484   3.327   4.533   3.502
    1C        C  485   3.399   4.542   3.624
    1C        C  486   3.189   4.507   3.747
    1C        C  487   3.325   4.542   3.745
    1C        C  488   3.124   4.486   3.871
    1C        C  489   3.193   4.511   3.992
    1C        C  490   3.002   4.420   4.119
    1C        C  491   3.126   4.488   4.114
    1C        C  492   2.941   4.388   4.242
    1C        C  493   2.994   4.434   4.364
    1C        C  494   2.831   4.303   4.484
    1C        C  495   2.940   4.393   4.487
    1C        C  496   2.776   4.256   4.606
    1C        C  497   2.822   4.314   4.727
    1C        C  498   2.666   4.164   4.844
    1C        C  499   2.756   4.273   4.845
    1C        C  500   2.594   4.124   4.957
    1C        C  501   4.012   4.357   2.042
    1C        C  502   3.818   4.461   2.156
    1C        C  503   3.947   4.402   2.158
    1C        C  504   3.748   4.476   2.277
    1C        C  505   3.813   4.455   2.401
    1C        C  506   3.611   4.515   2.521
    1C        C  507   3.747   4.477   2.524
    1C        C  508   3.540   4.520   2.643
    1C        C  509   3.609   4.511   2.765
    1C        C  510   3.399   4.526   2.886
    1C        C  511   3.540   4.524   2.887
    1C        C  512   3.325   4.526   3.007
    1C        C  513   3.396   4.531   3.129
    1C        C  514   3.189   4.499   3.257
    1C        C  515   3.328   4.528   3.253
    1C        C  516   3.120   4.481   3.379
    1C        C  517   3.189   4.504   3.500
    1C        C  518   2.998   4.420   3.626
    1C        C  519   3.124   4.484   3.624
    1C        C  520   2.943   4.377   3.749
    1C        C  521   3.003   4.414   3.872
    1C        C  522   2.843   4.281   3.997
    1C        C  523   2.947   4.376   3.996
    1C        C  524   2.797   4.232   4.122
    1C        C  525   2.836   4.293   4.243
    1C        C  526   2.699   4.131   4.364
    1C        C  527   2.783   4.245   4.365
    1C        C  528   2.665   4.071   4.487
    1C        C  529   2.698   4.139   4.607
    1C        C  530   2.585   3.959   4.735
    1C        C  531   2.647   4.086   4.728
    1C        C  532   2.539   3.903   4.858
    1C        C  533   2.528   4.001   4.962
    1C        C  534   3.622   4.564   2.045
    1C        C  535   3.754   4.516   2.045
    1C        C  536   3.539   4.537   2.158
    1C        C  537   3.609   4.509   2.279
    1C        C  538   3.398   4.518   2.404
    1C        C  539   3.539   4.524   2.400
    1C        C  540   3.326   4.512   2.526
    1C        C  541   3.399   4.525   2.646
    1C        C  542   3.187   4.486   2.766
    1C        C  543   3.324   4.520   2.766
    1C        C  544   3.121   4.467   2.890
    1C        C  545   3.187   4.494   3.011
    1C        C  546   3.000   4.404   3.136
    1C        C  547   3.124   4.471   3.135
    1C        C  548   2.940   4.370   3.260
    1C        C  549   2.997   4.412   3.382
    1C        C  550   2.836   4.278   3.508
    1C        C  551   2.939   4.374   3.506
    1C        C  552   2.787   4.230   3.632
    1C        C  553   2.836   4.285   3.752
    1C        C  554   2.709   4.117   3.878
    1C        C  555   2.792   4.231   3.876
    1C        C  556   2.664   4.062   4.000
    1C        C  557   2.708   4.122   4.120
    1C        C  558   2.608   3.937   4.246
    1C        C  559   2.669   4.065   4.243
    1C        C  560   2.578   3.877   4.370
    1C        C  561   2.599   3.947   4.491
    1C        C  562   2.530   3.750   4.614
    1C        C  563   2.565   3.887   4.615
    1C        C  564   2.516   3.683   4.737
    1C        C  565   2.522   3.761   4.856
    1C        C  566   2.536   3.549   4.977
    1C        C  567   2.525   3.688   4.975
    1C        C  568   3.333   4.480   2.041
    1C        C  569   3.399   4.513   2.160
    1C        C  570   3.186   4.485   2.283
    1C        C  571   3.326   4.509   2.282
    1C        C  572   3.116   4.462   2.403
    1C        C  573   3.187   4.487   2.522
    1C        C  574   2.992   4.402   2.650
    1C        C  575   3.119   4.465   2.644
    1C        C  576   2.932   4.364   2.772
    1C        C  577   2.993   4.407   2.892
    1C        C  578   2.832   4.272   3.019
    1C        C  579   2.938   4.365   3.015
    1C        C  580   2.785   4.223   3.143
    1C        C  581   2.834   4.277   3.264
    1C        C  582   2.707   4.110   3.387
    1C        C  583   2.784   4.229   3.386
    1C        C  584   2.668   4.053   3.511
    1C        C  585   2.703   4.117   3.632
    1C        C  586   2.604   3.932   3.756
    1C        C  587   2.672   4.056   3.756
    1C        C  588   2.576   3.869   3.879
    1C        C  589   2.601   3.935   4.002
    1C        C  590   2.531   3.738   4.128
    1C        C  591   2.575   3.872   4.125
    1C        C  592   2.518   3.671   4.252
    1C        C  593   2.534   3.743   4.373
    1C        C  594   2.505   3.533   4.497
    1C        C  595   2.519   3.674   4.495
    1C        C  596   2.512   3.465   4.621
    1C        C  597   2.511   3.541   4.740
    1C        C  598   2.531   3.329   4.864
    1C        C  599   2.526   3.470   4.861
    1C        C  600   2.529   3.251   4.980
    1C        C  601   3.200   4.446   2.047
    1C        C  602   2.986   4.395   2.163
    1C        C  603   3.121   4.445   2.163
    1C        C  604   2.927   4.360   2.287
    1C        C  605   2.990   4.399   2.408
    1C        C  606   2.818   4.275   2.531
    1C        C  607   2.930   4.361   2.530
    1C        C  608   2.770   4.223   2.654
    1C        C  609   2.825   4.272   2.775
    1C        C  610   2.696   4.106   2.898
    1C        C  611   2.779   4.221   2.898
    1C        C  612   2.659   4.051   3.022
    1C        C  613   2.696   4.113   3.144
    1C        C  614   2.592   3.929   3.266
    1C        C  615   2.665   4.050   3.266
    1C        C  616   2.572   3.865   3.390
    1C        C  617   2.605   3.927   3.512
    1C        C  618   2.531   3.730   3.639
    1C        C  619   2.577   3.863   3.635
    1C        C  620   2.515   3.666   3.764
    1C        C  621   2.530   3.736   3.885
    1C        C  622   2.506   3.525   4.011
    1C        C  623   2.518   3.666   4.007
    1C        C  624   2.506   3.456   4.134
    1C        C  625   2.504   3.531   4.254
    1C        C  626   2.529   3.320   4.381
    1C        C  627   2.508   3.460   4.377
    1C        C  628   2.547   3.252   4.503
    1C        C  629   2.532   3.325   4.623
    1C        C  630   2.599   3.122   4.747
    1C        C  631   2.548   3.255   4.745
    1C        C  632   2.617   3.052   4.869
    1C        C  633   2.557   3.114   4.983
    1C        C  634   2.785   4.305   2.056
    1C        C  635   2.895   4.391   2.053
    1C        C  636   2.747   4.233   2.170
    1C        C  637   2.815   4.272   2.288
    1C        C  638   2.689   4.105   2.410
    1C        C  639   2.767   4.222   2.411
    1C        C  640   2.654   4.045   2.533
    1C        C  641   2.691   4.107   2.654
    1C        C  642   2.586   3.923   2.778
    1C        C  643   2.653   4.048   2.777
    1C        C  644   2.564   3.856   2.900
    1C        C  645   2.598   3.924   3.020
    1C        C  646   2.535   3.724   3.149
    1C        C  647   2.572   3.861   3.144
    1C        C  648   2.515   3.659   3.273
    1C        C  649   2.531   3.729   3.395
    1C        C  650   2.511   3.519   3.520
    1C        C  651   2.519   3.660   3.517
    1C        C  652   2.515   3.452   3.644
    1C        C  653   2.514   3.524   3.766
    1C        C  654   2.528   3.314   3.891
    1C        C  655   2.512   3.455   3.889
    1C        C  656   2.549   3.248   4.014
    1C        C  657   2.533   3.318   4.136
    1C        C  658   2.602   3.120   4.260
    1C        C  659   2.548   3.250   4.259
    1C        C  660   2.629   3.056   4.383
    1C        C  661   2.595   3.119   4.504
    1C        C  662   2.712   2.941   4.629
    1C        C  663   2.630   3.056   4.626
    1C        C  664   2.758   2.883   4.749
    1C        C  665   2.696   2.933   4.867
    1C        C  666   2.735   2.864   4.983
    1C        C  667   2.687   4.026   2.055
    1C        C  668   2.683   4.107   2.169
    1C        C  669   2.585   3.915   2.290
    1C        C  670   2.649   4.043   2.290
    1C        C  671   2.563   3.850   2.413
    1C        C  672   2.592   3.917   2.534
    1C        C  673   2.523   3.719   2.659
    1C        C  674   2.564   3.854   2.657
    1C        C  675   2.513   3.650   2.783
    1C        C  676   2.527   3.720   2.905
    1C        C  677   2.506   3.512   3.031
    1C        C  678   2.519   3.653   3.028
    1C        C  679   2.501   3.444   3.155
    1C        C  680   2.503   3.519   3.276
    1C        C  681   2.526   3.308   3.403
    1C        C  682   2.509   3.448   3.398
    1C        C  683   2.546   3.241   3.526
    1C        C  684   2.527   3.311   3.647
    1C        C  685   2.595   3.113   3.772
    1C        C  686   2.540   3.243   3.770
    1C        C  687   2.632   3.052   3.894
    1C        C  688   2.601   3.117   4.016
    1C        C  689   2.714   2.938   4.141
    1C        C  690   2.638   3.057   4.139
    1C        C  691   2.755   2.881   4.263
    1C        C  692   2.711   2.941   4.383
    1C        C  693   2.755   2.886   4.506
    1C        C  694   2.645   3.892   2.060
    1C        C  695   2.532   3.706   2.176
    1C        C  696   2.581   3.838   2.172
    1C        C  697   2.511   3.639   2.298
    1C        C  698   2.525   3.714   2.417
    1C        C  699   2.491   3.505   2.542
    1C        C  700   2.504   3.646   2.540
    1C        C  701   2.497   3.437   2.665
    1C        C  702   2.497   3.510   2.786
    1C        C  703   2.524   3.301   2.910
    1C        C  704   2.501   3.441   2.909
    1C        C  705   2.541   3.235   3.034
    1C        C  706   2.526   3.305   3.156
    1C        C  707   2.590   3.107   3.281
    1C        C  708   2.543   3.240   3.280
    1C        C  709   2.628   3.046   3.403
    1C        C  710   2.601   3.110   3.525
    1C        C  711   2.710   2.935   3.650
    1C        C  712   2.626   3.048   3.650
    1C        C  713   2.758   2.883   3.772
    1C        C  714   2.718   2.940   3.895
    1C        C  715   2.757   2.883   4.018
    1C        C  716   2.448   3.502   2.064
    1C        C  717   2.490   3.635   2.063
    1C        C  718   2.469   3.423   2.182
    1C        C  719   2.488   3.499   2.300
    1C        C  720   2.516   3.291   2.422
    1C        C  721   2.485   3.429   2.423
    1C        C  722   2.537   3.226   2.546
    1C        C  723   2.522   3.298   2.667
    1C        C  724   2.596   3.101   2.793
    1C        C  725   2.539   3.230   2.789
    1C        C  726   2.626   3.038   2.916
    1C        C  727   2.590   3.103   3.036
    1C        C  728   2.706   2.928   3.160
    1C        C  729   2.625   3.043   3.160
    1C        C  730   2.749   2.872   3.283
    1C        C  731   2.710   2.931   3.406
    1C        C  732   2.756   2.878   3.528
    1C        C  733   2.494   3.200   2.067
    1C        C  734   2.490   3.281   2.181
    1C        C  735   2.590   3.090   2.303
    1C        C  736   2.526   3.217   2.303
    1C        C  737   2.617   3.028   2.427
    1C        C  738   2.585   3.094   2.549
    1C        C  739   2.700   2.916   2.670
    1C        C  740   2.624   3.035   2.671
    1C        C  741   2.744   2.860   2.792
    1C        C  742   2.705   2.921   2.914
    1C        C  743   2.752   2.874   3.038
    1C        C  744   2.554   3.074   2.068
    1C        C  745   2.685   2.898   2.187
    1C        C  746   2.612   3.019   2.183
    1C        C  747   2.731   2.843   2.309
    1C        C  748   2.685   2.904   2.428
    1C        C  749   2.738   2.855   2.549
    1C        C  750   2.736   2.839   2.071
    1C        C  751   3.661   2.310   1.978
    1C        O  752   3.716   2.201   2.005
    1C        O  753   3.682   2.338   1.842
    1C        C  754   4.625   3.052   1.978
    1C        O  755   4.638   3.066   1.853
    1C        O  756   4.719   2.961   2.028
    1C        C  757   4.463   4.200   1.955
    1C        O  758   4.487   4.321   1.980
    1C        O  759   4.428   4.196   1.820
    1C        C  760   3.594   4.681   1.959
    1C        O  761   3.636   4.799   1.971
    1C        O  762   3.548   4.660   1.829
    1C        C  763   2.893   4.482   1.936
    1C        O  764   2.892   4.446   1.815
    1C        O  765   2.851   4.615   1.952
    1C        C  766   2.330   3.483   1.977
    1C        O  767   2.338   3.444   1.857
    1C        O  768   2.203   3.514   2.026
    1C        C  769   4.693   3.588   5.057
    1C        O  770   4.671   3.521   5.162
    1C        O  771   4.812   3.661   5.070
    1C        C  772   4.269   4.441   5.052
    1C        O  773   4.224   4.414   5.166
    1C        O  774   4.350   4.552   5.026
    1C        C  775   4.149   2.516   5.069
    1C        O  776   4.268   2.493   5.034
    1C        O  777   4.139   2.505   5.208
    1C        C  778   2.905   4.520   5.080
    1C        O  779   2.875   4.642   5.067
    1C        O  780   2.947   4.477   5.206
    1C        C  781   2.455   3.039   5.060
    1C        O  782   2.348   2.995   5.008
    1C        O  783   2.465   3.029   5.198
    1C        C  784   2.412   4.006   5.053
    1C        O  785   2.292   3.991   5.016
    1C        O  786   2.423   3.987   5.192
    1C        C  787   2.956   2.442   1.985
    1C        O  788   2.946   2.469   1.862
    1C        O  789   2.903   2.317   2.012
    1C        C  790   3.188   2.388   5.080
    1C        O  791   3.162   2.266   5.062
    1C        O  792   3.261   2.411   5.197
    1C        H  793   4.269   3.036   5.049
    1C        H  794   4.145   2.836   5.057
    1C        H  795   4.518   3.133   5.054
    1C        H  796   4.527   3.374   5.068
    1C        H  797   4.573   3.815   5.049
    1C        H  798   4.434   3.989   5.059
    1C        H  799   4.242   4.129   5.030
    1C        H  800   4.038   4.537   5.031
    1C        H  801   3.825   4.625   5.030
    1C        H  802   3.580   4.592   5.043
    1C        H  803   3.400   4.472   5.041
    1C        H  804   3.166   4.445   5.045
    1C        H  805   3.869   2.546   5.072
    1C        H  806   3.688   2.451   5.071
    1C        H  807   2.984   2.519   5.046
    1C        H  808   3.448   2.438   5.067
    1C        H  809   2.908   2.797   5.065
    1C        H  810   2.657   2.856   5.056
    1C        H  811   2.466   3.284   5.060
    1C        H  812   2.563   3.504   5.070
    1C        H  813   2.511   3.743   5.065
    1C        H  814   2.600   4.176   5.050
    1C        H  815   2.765   4.310   5.054
    1C        H  816   2.713   2.874   1.973
    1C        H  817   2.878   2.721   1.980
    1C        H  818   3.193   2.391   2.015
    1C        H  819   3.436   2.465   1.983
    1C        H  820   3.841   2.546   1.975
    1C        H  821   4.072   2.592   1.972
    1C        H  822   4.292   2.698   1.996
    1C        H  823   4.400   2.911   1.974
    1C        H  824   4.610   3.308   1.979
    1C        H  825   4.552   3.521   1.970
    1C        H  826   4.561   3.753   1.978
    1C        H  827   3.804   4.509   1.950
    1C        H  828   3.962   4.355   1.947
    1C        H  829   4.173   4.263   1.947
    1C        H  830   4.522   3.968   1.978
    1C        H  831   2.677   3.826   1.982
    1C        H  832   2.659   4.077   1.965
    1C        H  833   2.712   4.311   1.978
    1C        H  834   3.365   4.528   1.951
    1C        H  835   3.157   4.410   1.956
    1C        H  836   2.579   3.037   1.971
    1C        H  837   2.437   3.239   1.986
    1C        H  838   2.461   3.693   1.978
    2V3OU   H29  839   2.798   3.550   5.430
    2V3OU   C27  840   2.782   3.505   5.531
    2V3OU   H27  841   2.730   3.575   5.602
    2V3OU   H28  842   2.727   3.409   5.521
    2V3OU   O11  843   2.909   3.484   5.594
    2V3OU   C15  844   2.925   3.395   5.698
    2V3OU   C13  845   3.055   3.374   5.750
    2V3OU   C14  846   3.081   3.271   5.840
    2V3OU   C16  847   2.976   3.188   5.878
    2V3OU    H6  848   2.993   3.099   5.940
    2V3OU   C12  849   3.219   3.226   5.866
    2V3OU    O2  850   3.244   3.127   5.938
    2V3OU   C10  851   3.327   3.312   5.815
    2V3OU    C8  852   3.458   3.273   5.837
    2V3OU   O10  853   3.488   3.153   5.895
    2V3OU   H26  854   3.403   3.124   5.931
    2V3OU    C6  855   3.568   3.345   5.781
    2V3OU    C5  856   3.541   3.467   5.719
    2V3OU    C4  857   3.707   3.293   5.783
    2V3OU    H4  858   3.719   3.226   5.874
    2V3OU    H5  859   3.713   3.227   5.691
    2V3OU    C2  860   3.819   3.397   5.783
    2V3OU    O6  861   3.801   3.480   5.898
    2V3OU   H21  862   3.767   3.566   5.870
    2V3OU    C3  863   3.784   3.489   5.666
    2V3OU    H2  864   3.860   3.571   5.661
    2V3OU    H3  865   3.787   3.435   5.568
    2V3OU   C25  866   3.954   3.327   5.769
    2V3OU    O7  867   4.006   3.300   5.661
    2V3OU   C26  868   4.030   3.289   5.895
    2V3OU   H22  869   4.058   3.385   5.945
    2V3OU   H23  870   4.117   3.223   5.869
    2V3OU    O8  871   3.957   3.212   5.988
    2V3OU   H24  872   3.927   3.267   6.063
    2V3OU    C1  873   3.651   3.561   5.680
    2V3OU    H1  874   3.628   3.612   5.582
    2V3OU    O3  875   3.659   3.660   5.783
    2V3OU   C19  876   3.620   3.796   5.763
    2V3OU    H9  877   3.527   3.808   5.700
    2V3OU    O4  878   3.713   3.849   5.671
    2V3OU   C20  879   3.843   3.877   5.724
    2V3OU   H10  880   3.903   3.782   5.743
    2V3OU   C24  881   3.612   3.858   5.902
    2V3OU   H16  882   3.549   3.792   5.967
    2V3OU   H17  883   3.564   3.956   5.879
    2V3OU   C23  884   3.752   3.878   5.961
    2V3OU   H15  885   3.791   3.777   5.996
    2V3OU    N1  886   3.738   3.962   6.079
    2V3OU   H19  887   3.807   3.934   6.145
    2V3OU   H20  888   3.651   3.941   6.123
    2V3OU   C21  889   3.848   3.947   5.860
    2V3OU   H11  890   3.946   3.926   5.911
    2V3OU    O5  891   3.840   4.088   5.860
    2V3OU   H18  892   3.776   4.105   5.931
    2V3OU   C22  893   3.913   3.954   5.612
    2V3OU   H12  894   3.859   4.050   5.593
    2V3OU   H13  895   3.910   3.895   5.517
    2V3OU   H14  896   4.020   3.967   5.641
    2V3OU   C11  897   3.161   3.472   5.720
    2V3OU    O1  898   3.137   3.584   5.669
    2V3OU    C9  899   3.301   3.436   5.749
    2V3OU    C7  900   3.407   3.511   5.700
    2V3OU    O9  901   3.390   3.617   5.613
    2V3OU   H25  902   3.294   3.629   5.613
    2V3OU   C17  903   2.821   3.315   5.749
    2V3OU    H7  904   2.719   3.344   5.724
    2V3OU   C18  905   2.845   3.209   5.836
    2V3OU    H8  906   2.762   3.138   5.850
    3SOL     OW  907   3.371   3.021   3.767
    3SOL    HW1  908   3.368   2.994   3.671
    3SOL    HW2  909   3.447   3.084   3.782
    4SOL     OW  910   6.658   6.300   0.658
    4SOL    HW1  911   6.651   6.398   0.638
    4SOL    HW2  912   6.581   6.252   0.615
    5SOL     OW  913   5.535   1.632   0.800
    5SOL    HW1  914   5.550   1.542   0.839
    5SOL    HW2  915   5.512   1.697   0.872
    6SOL     OW  916   5.436   1.514   2.922
    6SOL    HW1  917   5.480   1.546   2.838
    6SOL    HW2  918   5.351   1.564   2.937
    7SOL     OW  919   1.942   4.243   3.955
    7SOL    HW1  920   2.025   4.225   4.008
    7SOL    HW2  921   1.892   4.158   3.942
    8SOL     OW  922   0.815   3.198   4.786
    8SOL    HW1  923   0.886   3.161   4.845
    8SOL    HW2  924   0.857   3.249   4.711
    9SOL     OW  925   6.993   0.652   6.770
    9SOL    HW1  926   6.943   0.647   6.857
    9SOL    HW2  927   6.933   0.624   6.696
   10SOL     OW  928   5.255   4.567   1.822
   10SOL    HW1  929   5.262   4.550   1.723
   10SOL    HW2  930   5.335   4.531   1.868
   11SOL     OW  931   1.871   2.161   0.680
   11SOL    HW1  932   1.855   2.130   0.587
   11SOL    HW2  933   1.802   2.122   0.741
   12SOL     OW  934   3.936   5.187   2.544
   12SOL    HW1  935   3.915   5.261   2.607
   12SOL    HW2  936   3.984   5.114   2.592
   13SOL     OW  937   6.354   6.021   1.359
   13SOL    HW1  938   6.277   6.050   1.415
   13SOL    HW2  939   6.435   6.009   1.416
   14SOL     OW  940   4.434   6.674   5.937
   14SOL    HW1  941   4.416   6.768   5.909
   14SOL    HW2  942   4.348   6.625   5.946
   15SOL     OW  943   1.172   6.284   5.937
   15SOL    HW1  944   1.188   6.377   5.972
   15SOL    HW2  945   1.154   6.289   5.839
   16SOL     OW  946   2.208   4.681   4.729
   16SOL    HW1  947   2.127   4.646   4.776
   16SOL    HW2  948   2.207   4.650   4.634
   17SOL     OW  949   6.331   1.027   5.415
   17SOL    HW1  950   6.276   0.951   5.450
   17SOL    HW2  951   6.314   1.109   5.470
   18SOL     OW  952   3.226   1.434   6.081
   18SOL    HW1  953   3.211   1.448   5.983
   18SOL    HW2  954   3.229   1.523   6.128
   19SOL     OW  955   2.795   6.568   2.791
   19SOL    HW1  956   2.879   6.608   2.755
   19SOL    HW2  957   2.740   6.532   2.715
   20SOL     OW  958   6.208   1.588   5.179
   20SOL    HW1  959   6.126   1.554   5.133
   20SOL    HW2  960   6.241   1.670   5.132
   21SOL     OW  961   2.373   4.383   2.538
   21SOL    HW1  962   2.314   4.316   2.493
   21SOL    HW2  963   2.386   4.462   2.479
   22SOL     OW  964   1.171   0.846   6.723
   22SOL    HW1  965   1.166   0.766   6.663
   22SOL    HW2  966   1.081   0.864   6.763
   23SOL     OW  967   5.503   4.865   1.297
   23SOL    HW1  968   5.406   4.882   1.281
   23SOL    HW2  969   5.547   4.836   1.213
   24SOL     OW  970   4.617   1.404   0.565
   24SOL    HW1  971   4.607   1.497   0.529
   24SOL    HW2  972   4.622   1.339   0.489
   25SOL     OW  973   2.117   0.616   4.471
   25SOL    HW1  974   2.102   0.649   4.565
   25SOL    HW2  975   2.049   0.547   4.449
   26SOL     OW  976   0.563   2.461   6.456
   26SOL    HW1  977   0.632   2.417   6.400
   26SOL    HW2  978   0.516   2.393   6.512
   27SOL     OW  979   6.571   0.363   2.348
   27SOL    HW1  980   6.601   0.303   2.423
   27SOL    HW2  981   6.650   0.416   2.316
   28SOL     OW  982   2.240   0.538   4.844
   28SOL    HW1  983   2.257   0.442   4.821
   28SOL    HW2  984   2.263   0.553   4.940
   29SOL     OW  985   6.900   6.783   1.115
   29SOL    HW1  986   6.916   6.860   1.177
   29SOL    HW2  987   6.986   6.758   1.071
   30SOL     OW  988   4.529   0.256   5.076
   30SOL    HW1  989   4.436   0.291   5.062
   30SOL    HW2  990   4.543   0.174   5.020
   31SOL     OW  991   0.619   3.947   4.961
   31SOL    HW1  992   0.562   3.866   4.943
   31SOL    HW2  993   0.564   4.029   4.948
   32SOL     OW  994   3.982   0.672   1.048
   32SOL    HW1  995   3.888   0.638   1.048
   32SOL    HW2  996   4.008   0.701   0.956
   33SOL     OW  997   1.967   5.460   6.089
   33SOL    HW1  998   1.867   5.453   6.086
   33SOL    HW2  999   2.007   5.372   6.064
   34SOL     OW 1000   3.208   5.758   5.151
   34SOL    HW1 1001   3.222   5.767   5.249
   34SOL    HW2 1002   3.295   5.732   5.108
   35SOL     OW 1003   2.015   3.123   6.847
   35SOL    HW1 1004   2.002   3.202   6.908
   35SOL    HW2 1005   1.956   3.133   6.767
   36SOL     OW 1006   4.284   1.015   3.696
   36SOL    HW1 1007   4.336   1.037   3.614
   36SOL    HW2 1008   4.191   1.051   3.688
   37SOL     OW 1009   2.542   0.104   3.951
   37SOL    HW1 1010   2.604   0.108   3.873
   37SOL    HW2 1011   2.469   0.039   3.932
   38SOL     OW 1012   0.944   3.952   3.032
   38SOL    HW1 1013   0.950   4.027   3.098
   38SOL    HW2 1014   0.937   3.991   2.940
   39SOL     OW 1015   6.491   4.285   1.100
   39SOL    HW1 1016   6.535   4.223   1.166
   39SOL    HW2 1017   6.439   4.354   1.149
   40SOL     OW 1018   4.735   1.872   0.843
   40SOL    HW1 1019   4.765   1.928   0.766
   40SOL    HW2 1020   4.636   1.856   0.836
   41SOL     OW 1021   4.794   4.408   1.523
   41SOL    HW1 1022   4.700   4.444   1.529
   41SOL    HW2 1023   4.813   4.353   1.604
   42SOL     OW 1024   2.650   4.706   6.594
   42SOL    HW1 1025   2.735   4.738   6.553
   42SOL    HW2 1026   2.585   4.781   6.602
   43SOL     OW 1027   4.611   7.026   5.030
   43SOL    HW1 1028   4.570   6.990   4.946
   43SOL    HW2 1029   4.700   6.982   5.045
   44SOL     OW 1030   6.467   0.911   6.020
   44SOL    HW1 1031   6.473   0.813   6.000
   44SOL    HW2 1032   6.473   0.962   5.934
   45SOL     OW 1033   2.045   4.514   6.028
   45SOL    HW1 1034   1.978   4.518   6.101
   45SOL    HW2 1035   2.125   4.569   6.053
   46SOL     OW 1036   1.365   3.454   4.815
   46SOL    HW1 1037   1.420   3.416   4.741
   46SOL    HW2 1038   1.316   3.534   4.783
   47SOL     OW 1039   5.738   3.888   0.525
   47SOL    HW1 1040   5.788   3.970   0.499
   47SOL    HW2 1041   5.763   3.812   0.465
   48SOL     OW 1042   6.245   3.835   0.363
   48SOL    HW1 1043   6.164   3.846   0.420
   48SOL    HW2 1044   6.270   3.739   0.358
   49SOL     OW 1045   2.860   3.967   6.923
   49SOL    HW1 1046   2.879   3.987   6.827
   49SOL    HW2 1047   2.927   4.012   6.981
   50SOL     OW 1048   5.725   2.102   0.476
   50SOL    HW1 1049   5.750   2.196   0.453
   50SOL    HW2 1050   5.799   2.060   0.529
   51SOL     OW 1051   1.048   5.422   2.571
   51SOL    HW1 1052   0.956   5.458   2.589
   51SOL    HW2 1053   1.086   5.383   2.655
   52SOL     OW 1054   5.967   2.669   1.922
   52SOL    HW1 1055   5.987   2.630   1.832
   52SOL    HW2 1056   5.905   2.609   1.972
   53SOL     OW 1057   3.604   0.865   1.710
   53SOL    HW1 1058   3.636   0.860   1.805
   53SOL    HW2 1059   3.579   0.959   1.689
   54SOL     OW 1060   5.530   0.052   6.586
   54SOL    HW1 1061   5.603   0.003   6.538
   54SOL    HW2 1062   5.449   7.020   6.593
   55SOL     OW 1063   1.077   3.579   6.186
   55SOL    HW1 1064   1.042   3.586   6.092
   55SOL    HW2 1065   1.176   3.590   6.186
   56SOL     OW 1066   0.386   2.168   6.830
   56SOL    HW1 1067   0.309   2.230   6.843
   56SOL    HW2 1068   0.437   2.194   6.747
   57SOL     OW 1069   4.386   6.471   0.830
   57SOL    HW1 1070   4.297   6.500   0.864
   57SOL    HW2 1071   4.416   6.533   0.757
   58SOL     OW 1072   1.080   0.816   0.216
   58SOL    HW1 1073   1.179   0.828   0.220
   58SOL    HW2 1074   1.046   0.845   0.127
   59SOL     OW 1075   4.428   3.453   5.585
   59SOL    HW1 1076   4.450   3.476   5.490
   59SOL    HW2 1077   4.436   3.354   5.598
   60SOL     OW 1078   6.016   2.273   1.843
   60SOL    HW1 1079   6.043   2.270   1.747
   60SOL    HW2 1080   6.014   2.368   1.874
   61SOL     OW 1081   1.128   6.097   4.706
   61SOL    HW1 1082   1.132   6.012   4.652
   61SOL    HW2 1083   1.106   6.075   4.801
   62SOL     OW 1084   6.057   3.304   2.891
   62SOL    HW1 1085   5.987   3.280   2.824
   62SOL    HW2 1086   6.143   3.323   2.844
   63SOL     OW 1087   3.793   0.678   6.149
   63SOL    HW1 1088   3.819   0.731   6.230
   63SOL    HW2 1089   3.730   0.732   6.093
   64SOL     OW 1090   1.370   3.317   5.393
   64SOL    HW1 1091   1.345   3.408   5.424
   64SOL    HW2 1092   1.415   3.323   5.304
   65SOL     OW 1093   0.738   5.231   4.333
   65SOL    HW1 1094   0.821   5.182   4.308
   65SOL    HW2 1095   0.719   5.302   4.266
   66SOL     OW 1096   3.932   1.346   1.863
   66SOL    HW1 1097   3.954   1.285   1.787
   66SOL    HW2 1098   3.949   1.298   1.950
   67SOL     OW 1099   0.077   3.316   1.495
   67SOL    HW1 1100   0.022   3.372   1.432
   67SOL    HW2 1101   0.111   3.236   1.447
   68SOL     OW 1102   6.658   1.389   6.735
   68SOL    HW1 1103   6.748   1.423   6.710
   68SOL    HW2 1104   6.650   1.384   6.834
   69SOL     OW 1105   0.979   6.024   6.317
   69SOL    HW1 1106   1.028   5.937   6.315
   69SOL    HW2 1107   0.984   6.068   6.227
   70SOL     OW 1108   5.360   4.165   4.021
   70SOL    HW1 1109   5.265   4.192   4.035
   70SOL    HW2 1110   5.408   4.168   4.109
   71SOL     OW 1111   5.169   2.044   4.129
   71SOL    HW1 1112   5.148   1.976   4.059
   71SOL    HW2 1113   5.254   2.020   4.176
   72SOL     OW 1114   0.929   1.589   3.182
   72SOL    HW1 1115   1.015   1.541   3.200
   72SOL    HW2 1116   0.868   1.528   3.131
   73SOL     OW 1117   2.752   0.079   0.481
   73SOL    HW1 1118   2.657   0.071   0.451
   73SOL    HW2 1119   2.812   0.091   0.402
   74SOL     OW 1120   2.856   2.319   0.776
   74SOL    HW1 1121   2.907   2.404   0.785
   74SOL    HW2 1122   2.903   2.258   0.711
   75SOL     OW 1123   2.621   3.332   0.207
   75SOL    HW1 1124   2.657   3.361   0.296
   75SOL    HW2 1125   2.586   3.412   0.158
   76SOL     OW 1126   3.756   5.302   5.531
   76SOL    HW1 1127   3.694   5.229   5.503
   76SOL    HW2 1128   3.736   5.328   5.625
   77SOL     OW 1129   1.123   5.396   4.265
   77SOL    HW1 1130   1.051   5.401   4.196
   77SOL    HW2 1131   1.108   5.316   4.323
   78SOL     OW 1132   4.715   1.749   1.484
   78SOL    HW1 1133   4.682   1.825   1.539
   78SOL    HW2 1134   4.668   1.748   1.396
   79SOL     OW 1135   1.219   4.472   3.589
   79SOL    HW1 1136   1.242   4.492   3.494
   79SOL    HW2 1137   1.126   4.502   3.609
   80SOL     OW 1138   3.740   1.404   4.672
   80SOL    HW1 1139   3.759   1.425   4.768
   80SOL    HW2 1140   3.739   1.305   4.660
   81SOL     OW 1141   3.811   5.164   1.774
   81SOL    HW1 1142   3.743   5.236   1.788
   81SOL    HW2 1143   3.798   5.092   1.842
   82SOL     OW 1144   2.209   6.146   2.010
   82SOL    HW1 1145   2.176   6.237   2.034
   82SOL    HW2 1146   2.264   6.150   1.927
   83SOL     OW 1147   5.011   1.423   3.658
   83SOL    HW1 1148   4.985   1.379   3.744
   83SOL    HW2 1149   4.932   1.473   3.622
   84SOL     OW 1150   5.454   3.062   2.282
   84SOL    HW1 1151   5.502   3.094   2.200
   84SOL    HW2 1152   5.451   3.135   2.350
   85SOL     OW 1153   2.600   6.820   3.796
   85SOL    HW1 1154   2.683   6.862   3.760
   85SOL    HW2 1155   2.621   6.770   3.880
   86SOL     OW 1156   5.368   6.738   0.090
   86SOL    HW1 1157   5.365   6.826   0.139
   86SOL    HW2 1158   5.403   6.753   7.025
   87SOL     OW 1159   2.268   4.192   6.382
   87SOL    HW1 1160   2.193   4.258   6.380
   87SOL    HW2 1161   2.291   4.171   6.477
   88SOL     OW 1162   2.683   3.494   1.363
   88SOL    HW1 1163   2.694   3.585   1.405
   88SOL    HW2 1164   2.691   3.502   1.264
   89SOL     OW 1165   3.203   3.476   3.345
   89SOL    HW1 1166   3.104   3.467   3.353
   89SOL    HW2 1167   3.230   3.571   3.362
   90SOL     OW 1168   5.275   3.933   1.945
   90SOL    HW1 1169   5.222   3.936   1.860
   90SOL    HW2 1170   5.233   3.868   2.008
   91SOL     OW 1171   4.648   5.863   6.004
   91SOL    HW1 1172   4.673   5.833   5.913
   91SOL    HW2 1173   4.572   5.928   5.999
   92SOL     OW 1174   4.948   4.452   0.163
   92SOL    HW1 1175   4.974   4.471   0.069
   92SOL    HW2 1176   4.854   4.482   0.178
   93SOL     OW 1177   2.936   3.663   2.022
   93SOL    HW1 1178   2.969   3.669   2.117
   93SOL    HW2 1179   2.895   3.573   2.007
   94SOL     OW 1180   2.996   2.232   4.397
   94SOL    HW1 1181   3.004   2.193   4.489
   94SOL    HW2 1182   2.900   2.247   4.376
   95SOL     OW 1183   0.175   0.299   4.139
   95SOL    HW1 1184   0.245   0.371   4.142
   95SOL    HW2 1185   0.129   0.301   4.050
   96SOL     OW 1186   6.621   5.183   0.034
   96SOL    HW1 1187   6.561   5.252   0.074
   96SOL    HW2 1188   6.595   5.167   6.966
   97SOL     OW 1189   2.273   4.136   5.774
   97SOL    HW1 1190   2.337   4.213   5.779
   97SOL    HW2 1191   2.239   4.127   5.680
   98SOL     OW 1192   0.903   2.099   3.660
   98SOL    HW1 1193   0.841   2.084   3.583
   98SOL    HW2 1194   0.967   2.173   3.638
   99SOL     OW 1195   3.312   4.220   5.204
   99SOL    HW1 1196   3.322   4.202   5.302
   99SOL    HW2 1197   3.231   4.174   5.170
  100SOL     OW 1198   6.978   0.717   5.061
  100SOL    HW1 1199   6.884   0.692   5.039
  100SOL    HW2 1200   7.005   0.671   5.146
  101SOL     OW 1201   5.594   4.114   2.640
  101SOL    HW1 1202   5.582   4.205   2.600
  101SOL    HW2 1203   5.509   4.088   2.687
  102SOL     OW 1204   4.194   0.672   0.118
  102SOL    HW1 1205   4.219   0.764   0.087
  102SOL    HW2 1206   4.180   0.612   0.040
  103SOL     OW 1207   1.754   1.367   2.011
  103SOL    HW1 1208   1.818   1.429   2.056
  103SOL    HW2 1209   1.794   1.332   1.927
  104SOL     OW 1210   6.378   4.864   2.083
  104SOL    HW1 1211   6.301   4.922   2.110
  104SOL    HW2 1212   6.359   4.824   1.992
  105SOL     OW 1213   6.950   1.133   5.606
  105SOL    HW1 1214   6.961   1.191   5.525
  105SOL    HW2 1215   6.965   1.037   5.581
  106SOL     OW 1216   4.631   3.073   1.457
  106SOL    HW1 1217   4.600   3.157   1.501
  106SOL    HW2 1218   4.588   2.995   1.501
  107SOL     OW 1219   5.850   7.007   1.784
  107SOL    HW1 1220   5.922   6.994   1.852
  107SOL    HW2 1221   5.807   6.919   1.763
  108SOL     OW 1222   3.228   1.411   4.474
  108SOL    HW1 1223   3.254   1.384   4.567
  108SOL    HW2 1224   3.183   1.500   4.476
  109SOL     OW 1225   1.736   1.139   4.802
  109SOL    HW1 1226   1.744   1.063   4.867
  109SOL    HW2 1227   1.715   1.223   4.852
  110SOL     OW 1228   3.642   4.374   5.685
  110SOL    HW1 1229   3.709   4.365   5.759
  110SOL    HW2 1230   3.685   4.354   5.598
  111SOL     OW 1231   5.926   2.661   0.537
  111SOL    HW1 1232   5.996   2.654   0.466
  111SOL    HW2 1233   5.955   2.725   0.607
  112SOL     OW 1234   5.183   6.579   6.654
  112SOL    HW1 1235   5.256   6.637   6.618
  112SOL    HW2 1236   5.223   6.505   6.708
  113SOL     OW 1237   0.446   5.182   2.551
  113SOL    HW1 1238   0.511   5.249   2.514
  113SOL    HW2 1239   0.369   5.231   2.592
  114SOL     OW 1240   0.011   2.312   2.093
  114SOL    HW1 1241   0.079   2.333   2.023
  114SOL    HW2 1242   7.009   2.397   2.137
  115SOL     OW 1243   5.646   6.538   3.538
  115SOL    HW1 1244   5.598   6.625   3.545
  115SOL    HW2 1245   5.741   6.551   3.567
  116SOL     OW 1246   0.247   4.982   0.574
  116SOL    HW1 1247   0.334   4.939   0.601
  116SOL    HW2 1248   0.262   5.079   0.557
  117SOL     OW 1249   2.417   2.636   0.105
  117SOL    HW1 1250   2.488   2.593   0.161
  117SOL    HW2 1251   2.459   2.680   0.026
  118SOL     OW 1252   0.397   2.142   2.530
  118SOL    HW1 1253   0.415   2.222   2.473
  118SOL    HW2 1254   0.317   2.159   2.588
  119SOL     OW 1255   6.001   0.246   4.966
  119SOL    HW1 1256   6.050   0.184   4.905
  119SOL    HW2 1257   6.006   0.211   5.060
  120SOL     OW 1258   4.581   1.369   4.096
  120SOL    HW1 1259   4.604   1.272   4.095
  120SOL    HW2 1260   4.664   1.424   4.084
  121SOL     OW 1261   0.487   5.043   0.265
  121SOL    HW1 1262   0.397   5.069   0.230
  121SOL    HW2 1263   0.527   5.119   0.316
  122SOL     OW 1264   6.823   4.809   6.282
  122SOL    HW1 1265   6.831   4.908   6.294
  122SOL    HW2 1266   6.912   4.771   6.256
  123SOL     OW 1267   0.778   2.603   1.691
  123SOL    HW1 1268   0.739   2.695   1.697
  123SOL    HW2 1269   0.877   2.610   1.685
  124SOL     OW 1270   1.219   3.077   6.870
  124SOL    HW1 1271   1.245   3.015   6.797
  124SOL    HW2 1272   1.289   3.075   6.942
  125SOL     OW 1273   4.654   3.343   0.481
  125SOL    HW1 1274   4.554   3.345   0.482
  125SOL    HW2 1275   4.685   3.247   0.480
  126SOL     OW 1276   3.810   2.953   4.014
  126SOL    HW1 1277   3.721   2.971   4.056
  126SOL    HW2 1278   3.797   2.915   3.923
  127SOL     OW 1279   0.732   5.404   5.468
  127SOL    HW1 1280   0.644   5.377   5.508
  127SOL    HW2 1281   0.734   5.503   5.457
  128SOL     OW 1282   4.980   3.872   7.012
  128SOL    HW1 1283   5.021   3.782   0.004
  128SOL    HW2 1284   5.029   3.915   6.936
  129SOL     OW 1285   0.349   5.539   2.462
  129SOL    HW1 1286   0.378   5.526   2.557
  129SOL    HW2 1287   0.422   5.583   2.410
  130SOL     OW 1288   5.819   2.918   4.083
  130SOL    HW1 1289   5.851   2.985   4.150
  130SOL    HW2 1290   5.720   2.908   4.090
  131SOL     OW 1291   0.713   2.360   3.476
  131SOL    HW1 1292   0.802   2.399   3.454
  131SOL    HW2 1293   0.722   2.261   3.487
  132SOL     OW 1294   3.368   2.575   1.048
  132SOL    HW1 1295   3.423   2.544   1.126
  132SOL    HW2 1296   3.389   2.671   1.030
  133SOL     OW 1297   5.385   6.075   6.290
  133SOL    HW1 1298   5.380   6.174   6.278
  133SOL    HW2 1299   5.456   6.037   6.231
  134SOL     OW 1300   5.852   1.897   1.618
  134SOL    HW1 1301   5.893   1.920   1.530
  134SOL    HW2 1302   5.753   1.912   1.614
  135SOL     OW 1303   5.078   3.694   3.989
  135SOL    HW1 1304   5.035   3.689   3.899
  135SOL    HW2 1305   5.037   3.769   4.041
  136SOL     OW 1306   3.531   0.712   6.950
  136SOL    HW1 1307   3.453   0.650   6.938
  136SOL    HW2 1308   3.608   0.679   6.896
  137SOL     OW 1309   2.559   4.215   6.016
  137SOL    HW1 1310   2.482   4.168   6.060
  137SOL    HW2 1311   2.644   4.168   6.038
  138SOL     OW 1312   1.121   4.953   6.379
  138SOL    HW1 1313   1.077   5.040   6.403
  138SOL    HW2 1314   1.051   4.887   6.351
  139SOL     OW 1315   1.498   7.015   1.023
  139SOL    HW1 1316   1.560   6.987   0.951
  139SOL    HW2 1317   1.545   7.011   1.111
  140SOL     OW 1318   4.311   0.719   1.443
  140SOL    HW1 1319   4.243   0.759   1.504
  140SOL    HW2 1320   4.284   0.625   1.421
  141SOL     OW 1321   0.509   2.978   0.538
  141SOL    HW1 1322   0.463   2.951   0.622
  141SOL    HW2 1323   0.443   3.020   0.475
  142SOL     OW 1324   1.980   3.544   0.687
  142SOL    HW1 1325   1.958   3.447   0.701
  142SOL    HW2 1326   1.901   3.600   0.711
  143SOL     OW 1327   4.194   6.197   2.267
  143SOL    HW1 1328   4.153   6.139   2.197
  143SOL    HW2 1329   4.274   6.152   2.306
  144SOL     OW 1330   3.366   5.833   2.831
  144SOL    HW1 1331   3.429   5.774   2.881
  144SOL    HW2 1332   3.351   5.918   2.882
  145SOL     OW 1333   0.505   4.741   3.746
  145SOL    HW1 1334   0.466   4.747   3.654
  145SOL    HW2 1335   0.590   4.793   3.749
  146SOL     OW 1336   4.937   0.749   6.370
  146SOL    HW1 1337   4.994   0.744   6.288
  146SOL    HW2 1338   4.991   0.724   6.450
  147SOL     OW 1339   4.451   0.571   4.802
  147SOL    HW1 1340   4.404   0.539   4.719
  147SOL    HW2 1341   4.389   0.565   4.880
  148SOL     OW 1342   1.542   6.249   1.279
  148SOL    HW1 1343   1.523   6.285   1.188
  148SOL    HW2 1344   1.641   6.252   1.296
  149SOL     OW 1345   2.137   2.499   4.516
  149SOL    HW1 1346   2.117   2.422   4.455
  149SOL    HW2 1347   2.226   2.539   4.492
  150SOL     OW 1348   4.154   1.583   4.821
  150SOL    HW1 1349   4.166   1.533   4.906
  150SOL    HW2 1350   4.167   1.521   4.743
  151SOL     OW 1351   4.753   2.569   0.765
  151SOL    HW1 1352   4.664   2.531   0.790
  151SOL    HW2 1353   4.768   2.654   0.815
  152SOL     OW 1354   0.480   2.572   1.551
  152SOL    HW1 1355   0.567   2.593   1.594
  152SOL    HW2 1356   0.496   2.538   1.458
  153SOL     OW 1357   2.145   1.268   3.756
  153SOL    HW1 1358   2.114   1.262   3.661
  153SOL    HW2 1359   2.243   1.249   3.760
  154SOL     OW 1360   6.384   2.832   2.419
  154SOL    HW1 1361   6.375   2.822   2.320
  154SOL    HW2 1362   6.297   2.862   2.457
  155SOL     OW 1363   7.017   5.423   3.047
  155SOL    HW1 1364   6.923   5.389   3.048
  155SOL    HW2 1365   0.052   5.352   3.080
  156SOL     OW 1366   5.267   2.666   0.414
  156SOL    HW1 1367   5.254   2.584   0.357
  156SOL    HW2 1368   5.260   2.641   0.510
  157SOL     OW 1369   5.229   6.425   1.132
  157SOL    HW1 1370   5.274   6.359   1.192
  157SOL    HW2 1371   5.286   6.507   1.124
  158SOL     OW 1372   0.770   2.839   3.636
  158SOL    HW1 1373   0.798   2.862   3.730
  158SOL    HW2 1374   0.734   2.746   3.635
  159SOL     OW 1375   5.930   5.421   0.621
  159SOL    HW1 1376   5.968   5.381   0.704
  159SOL    HW2 1377   5.866   5.356   0.579
  160SOL     OW 1378   5.381   0.260   1.153
  160SOL    HW1 1379   5.311   0.193   1.177
  160SOL    HW2 1380   5.340   0.333   1.098
  161SOL     OW 1381   6.706   6.698   1.293
  161SOL    HW1 1382   6.786   6.719   1.238
  161SOL    HW2 1383   6.653   6.781   1.308
  162SOL     OW 1384   4.355   6.692   6.524
  162SOL    HW1 1385   4.296   6.670   6.447
  162SOL    HW2 1386   4.312   6.762   6.580
  163SOL     OW 1387   0.936   3.777   2.349
  163SOL    HW1 1388   0.886   3.816   2.271
  163SOL    HW2 1389   0.914   3.829   2.431
  164SOL     OW 1390   2.744   1.568   3.850
  164SOL    HW1 1391   2.752   1.666   3.868
  164SOL    HW2 1392   2.660   1.551   3.799
  165SOL     OW 1393   0.062   6.723   3.847
  165SOL    HW1 1394   0.039   6.667   3.927
  165SOL    HW2 1395   0.149   6.769   3.863
  166SOL     OW 1396   6.393   4.272   3.871
  166SOL    HW1 1397   6.419   4.204   3.803
  166SOL    HW2 1398   6.393   4.362   3.830
  167SOL     OW 1399   2.519   1.658   6.267
  167SOL    HW1 1400   2.446   1.721   6.290
  167SOL    HW2 1401   2.498   1.612   6.180
  168SOL     OW 1402   3.921   3.513   1.727
  168SOL    HW1 1403   3.978   3.594   1.731
  168SOL    HW2 1404   3.960   3.447   1.663
  169SOL     OW 1405   4.513   1.797   1.197
  169SOL    HW1 1406   4.513   1.888   1.238
  169SOL    HW2 1407   4.507   1.805   1.098
  170SOL     OW 1408   6.440   5.585   1.501
  170SOL    HW1 1409   6.448   5.648   1.578
  170SOL    HW2 1410   6.377   5.623   1.433
  171SOL     OW 1411   3.539   3.240   0.818
  171SOL    HW1 1412   3.490   3.173   0.762
  171SOL    HW2 1413   3.537   3.212   0.914
  172SOL     OW 1414   0.742   1.993   6.536
  172SOL    HW1 1415   0.800   1.928   6.488
  172SOL    HW2 1416   0.663   1.944   6.574
  173SOL     OW 1417   6.209   1.608   3.763
  173SOL    HW1 1418   6.249   1.594   3.854
  173SOL    HW2 1419   6.154   1.692   3.764
  174SOL     OW 1420   5.649   4.461   4.633
  174SOL    HW1 1421   5.623   4.393   4.564
  174SOL    HW2 1422   5.736   4.503   4.608
  175SOL     OW 1423   0.357   0.307   2.758
  175SOL    HW1 1424   0.302   0.278   2.837
  175SOL    HW2 1425   0.299   0.310   2.677
  176SOL     OW 1426   5.969   3.824   1.888
  176SOL    HW1 1427   6.050   3.857   1.839
  176SOL    HW2 1428   5.951   3.729   1.862
  177SOL     OW 1429   5.833   2.099   3.818
  177SOL    HW1 1430   5.827   2.198   3.800
  177SOL    HW2 1431   5.793   2.080   3.907
  178SOL     OW 1432   2.703   5.891   4.511
  178SOL    HW1 1433   2.633   5.962   4.508
  178SOL    HW2 1434   2.660   5.803   4.532
  179SOL     OW 1435   3.325   4.147   1.432
  179SOL    HW1 1436   3.234   4.172   1.397
  179SOL    HW2 1437   3.329   4.169   1.530
  180SOL     OW 1438   4.482   1.048   7.009
  180SOL    HW1 1439   4.534   1.002   6.937
  180SOL    HW2 1440   4.463   1.143   6.980
  181SOL     OW 1441   3.633   2.239   5.834
  181SOL    HW1 1442   3.663   2.180   5.759
  181SOL    HW2 1443   3.648   2.335   5.808
  182SOL     OW 1444   3.050   2.645   5.983
  182SOL    HW1 1445   3.075   2.573   5.918
  182SOL    HW2 1446   3.128   2.665   6.041
  183SOL     OW 1447   3.213   0.381   3.272
  183SOL    HW1 1448   3.198   0.479   3.255
  183SOL    HW2 1449   3.160   0.328   3.206
  184SOL     OW 1450   5.149   5.689   3.765
  184SOL    HW1 1451   5.065   5.697   3.712
  184SOL    HW2 1452   5.177   5.593   3.770
  185SOL     OW 1453   6.900   0.207   4.720
  185SOL    HW1 1454   6.837   0.139   4.682
  185SOL    HW2 1455   6.979   0.216   4.659
  186SOL     OW 1456   3.748   5.894   4.941
  186SOL    HW1 1457   3.700   5.807   4.933
  186SOL    HW2 1458   3.700   5.954   5.005
  187SOL     OW 1459   4.127   6.137   1.402
  187SOL    HW1 1460   4.119   6.131   1.303
  187SOL    HW2 1461   4.204   6.196   1.426
  188SOL     OW 1462   1.490   2.628   2.870
  188SOL    HW1 1463   1.444   2.634   2.782
  188SOL    HW2 1464   1.567   2.692   2.871
  189SOL     OW 1465   5.329   5.047   5.495
  189SOL    HW1 1466   5.295   5.109   5.567
  189SOL    HW2 1467   5.280   4.960   5.500
  190SOL     OW 1468   5.932   0.127   0.379
  190SOL    HW1 1469   5.953   0.055   0.446
  190SOL    HW2 1470   5.925   0.215   0.426
  191SOL     OW 1471   0.243   1.323   5.650
  191SOL    HW1 1472   0.289   1.385   5.713
  191SOL    HW2 1473   0.164   1.370   5.609
  192SOL     OW 1474   0.730   5.678   1.117
  192SOL    HW1 1475   0.663   5.636   1.056
  192SOL    HW2 1476   0.816   5.626   1.113
  193SOL     OW 1477   2.583   6.330   0.472
  193SOL    HW1 1478   2.665   6.302   0.521
  193SOL    HW2 1479   2.594   6.424   0.439
  194SOL     OW 1480   4.055   6.009   2.122
  194SOL    HW1 1481   4.078   5.921   2.080
  194SOL    HW2 1482   4.036   5.997   2.219
  195SOL     OW 1483   3.756   1.059   1.452
  195SOL    HW1 1484   3.719   0.970   1.425
  195SOL    HW2 1485   3.765   1.117   1.371
  196SOL     OW 1486   3.306   2.154   0.568
  196SOL    HW1 1487   3.290   2.216   0.645
  196SOL    HW2 1488   3.345   2.068   0.601
  197SOL     OW 1489   1.755   6.196   0.024
  197SOL    HW1 1490   1.743   6.283   0.072
  197SOL    HW2 1491   1.806   6.211   6.966
  198SOL     OW 1492   4.079   7.004   6.923
  198SOL    HW1 1493   4.105   0.007   7.015
  198SOL    HW2 1494   4.036   0.053   6.874
  199SOL     OW 1495   0.618   0.375   2.873
  199SOL    HW1 1496   0.526   0.345   2.848
  199SOL    HW2 1497   0.652   0.440   2.805
  200SOL     OW 1498   0.819   4.194   3.169
  200SOL    HW1 1499   0.825   4.278   3.114
  200SOL    HW2 1500   0.752   4.207   3.241
  201SOL     OW 1501   5.144   1.232   6.286
  201SOL    HW1 1502   5.047   1.224   6.307
  201SOL    HW2 1503   5.155   1.242   6.187
  202SOL     OW 1504   3.519   1.063   2.598
  202SOL    HW1 1505   3.546   1.156   2.625
  202SOL    HW2 1506   3.493   1.062   2.502
  203SOL     OW 1507   5.794   2.664   0.050
  203SOL    HW1 1508   5.723   2.651   7.008
  203SOL    HW2 1509   5.752   2.671   0.140
  204SOL     OW 1510   2.752   6.296   1.607
  204SOL    HW1 1511   2.758   6.214   1.551
  204SOL    HW2 1512   2.667   6.345   1.586
  205SOL     OW 1513   5.962   0.997   0.523
  205SOL    HW1 1514   5.872   1.007   0.480
  205SOL    HW2 1515   5.957   1.027   0.618
  206SOL     OW 1516   0.610   4.990   1.911
  206SOL    HW1 1517   0.621   4.891   1.923
  206SOL    HW2 1518   0.687   5.026   1.858
  207SOL     OW 1519   4.815   1.315   5.383
  207SOL    HW1 1520   4.732   1.324   5.328
  207SOL    HW2 1521   4.833   1.401   5.431
  208SOL     OW 1522   3.607   4.845   6.020
  208SOL    HW1 1523   3.562   4.932   6.004
  208SOL    HW2 1524   3.562   4.773   5.966
  209SOL     OW 1525   6.833   4.984   5.533
  209SOL    HW1 1526   6.926   4.990   5.497
  209SOL    HW2 1527   6.771   5.038   5.476
  210SOL     OW 1528   3.866   2.092   2.180
  210SOL    HW1 1529   3.943   2.154   2.191
  210SOL    HW2 1530   3.803   2.129   2.111
  211SOL     OW 1531   1.251   2.106   1.855
  211SOL    HW1 1532   1.253   2.150   1.765
  211SOL    HW2 1533   1.161   2.065   1.870
  212SOL     OW 1534   0.677   4.708   4.267
  212SOL    HW1 1535   0.621   4.630   4.240
  212SOL    HW2 1536   0.679   4.775   4.193
  213SOL     OW 1537   3.903   2.787   6.939
  213SOL    HW1 1538   3.967   2.831   7.002
  213SOL    HW2 1539   3.940   2.699   6.909
  214SOL     OW 1540   1.270   6.570   2.762
  214SOL    HW1 1541   1.336   6.496   2.776
  214SOL    HW2 1542   1.202   6.540   2.695
  215SOL     OW 1543   3.517   3.479   2.678
  215SOL    HW1 1544   3.513   3.460   2.580
  215SOL    HW2 1545   3.609   3.461   2.712
  216SOL     OW 1546   1.618   6.249   5.797
  216SOL    HW1 1547   1.578   6.321   5.854
  216SOL    HW2 1548   1.668   6.184   5.854
  217SOL     OW 1549   6.841   2.816   3.825
  217SOL    HW1 1550   6.940   2.827   3.816
  217SOL    HW2 1551   6.794   2.885   3.769
  218SOL     OW 1552   1.805   3.806   5.306
  218SOL    HW1 1553   1.774   3.901   5.304
  218SOL    HW2 1554   1.729   3.746   5.329
  219SOL     OW 1555   4.428   5.236   0.471
  219SOL    HW1 1556   4.392   5.229   0.564
  219SOL    HW2 1557   4.483   5.318   0.462
  220SOL     OW 1558   1.807   4.444   0.998
  220SOL    HW1 1559   1.799   4.536   0.961
  220SOL    HW2 1560   1.880   4.442   1.066
  221SOL     OW 1561   6.756   2.592   3.928
  221SOL    HW1 1562   6.700   2.592   4.011
  221SOL    HW2 1563   6.771   2.687   3.898
  222SOL     OW 1564   1.205   6.332   4.963
  222SOL    HW1 1565   1.146   6.378   4.898
  222SOL    HW2 1566   1.164   6.245   4.990
  223SOL     OW 1567   5.992   4.004   2.385
  223SOL    HW1 1568   5.937   3.921   2.378
  223SOL    HW2 1569   5.935   4.084   2.369
  224SOL     OW 1570   3.571   2.036   2.167
  224SOL    HW1 1571   3.559   2.091   2.250
  224SOL    HW2 1572   3.623   2.089   2.100
  225SOL     OW 1573   0.694   0.324   1.063
  225SOL    HW1 1574   0.633   0.247   1.044
  225SOL    HW2 1575   0.689   0.347   1.160
  226SOL     OW 1576   0.416   5.450   1.236
  226SOL    HW1 1577   0.346   5.470   1.168
  226SOL    HW2 1578   0.506   5.478   1.202
  227SOL     OW 1579   1.672   2.769   3.261
  227SOL    HW1 1580   1.736   2.725   3.199
  227SOL    HW2 1581   1.636   2.852   3.219
  228SOL     OW 1582   3.869   6.862   2.786
  228SOL    HW1 1583   3.786   6.815   2.814
  228SOL    HW2 1584   3.943   6.796   2.775
  229SOL     OW 1585   6.472   5.758   3.268
  229SOL    HW1 1586   6.554   5.750   3.212
  229SOL    HW2 1587   6.407   5.819   3.223
  230SOL     OW 1588   1.428   4.216   5.322
  230SOL    HW1 1589   1.435   4.311   5.352
  230SOL    HW2 1590   1.365   4.167   5.382
  231SOL     OW 1591   0.604   2.017   0.159
  231SOL    HW1 1592   0.510   2.043   0.176
  231SOL    HW2 1593   0.663   2.097   0.163
  232SOL     OW 1594   2.029   5.035   6.428
  232SOL    HW1 1595   2.097   5.039   6.354
  232SOL    HW2 1596   1.965   4.960   6.410
  233SOL     OW 1597   3.252   1.072   5.997
  233SOL    HW1 1598   3.240   1.125   6.081
  233SOL    HW2 1599   3.273   1.133   5.922
  234SOL     OW 1600   2.825   5.723   0.112
  234SOL    HW1 1601   2.855   5.791   0.179
  234SOL    HW2 1602   2.762   5.766   0.047
  235SOL     OW 1603   3.741   2.990   4.282
  235SOL    HW1 1604   3.717   3.078   4.241
  235SOL    HW2 1605   3.805   2.942   4.222
  236SOL     OW 1606   6.792   1.946   5.311
  236SOL    HW1 1607   6.860   1.952   5.384
  236SOL    HW2 1608   6.803   2.023   5.249
  237SOL     OW 1609   0.103   6.582   1.909
  237SOL    HW1 1610   0.026   6.518   1.906
  237SOL    HW2 1611   0.132   6.594   2.004
  238SOL     OW 1612   7.011   2.172   2.327
  238SOL    HW1 1613   6.989   2.083   2.287
  238SOL    HW2 1614   7.026   2.238   2.253
  239SOL     OW 1615   0.587   5.513   0.915
  239SOL    HW1 1616   0.537   5.445   0.861
  239SOL    HW2 1617   0.680   5.480   0.933
  240SOL     OW 1618   6.792   2.958   5.451
  240SOL    HW1 1619   6.753   3.050   5.458
  240SOL    HW2 1620   6.720   2.894   5.421
  241SOL     OW 1621   6.324   1.636   4.003
  241SOL    HW1 1622   6.400   1.583   3.965
  241SOL    HW2 1623   6.360   1.718   4.047
  242SOL     OW 1624   1.944   2.636   3.545
  242SOL    HW1 1625   1.964   2.609   3.639
  242SOL    HW2 1626   1.933   2.735   3.541
  243SOL     OW 1627   4.126   0.869   5.811
  243SOL    HW1 1628   4.184   0.950   5.805
  243SOL    HW2 1629   4.034   0.892   5.779
  244SOL     OW 1630   6.692   0.336   6.000
  244SOL    HW1 1631   6.783   0.299   6.018
  244SOL    HW2 1632   6.697   0.400   5.923
  245SOL     OW 1633   5.556   2.713   3.685
  245SOL    HW1 1634   5.533   2.808   3.665
  245SOL    HW2 1635   5.580   2.666   3.600
  246SOL     OW 1636   4.950   3.408   3.791
  246SOL    HW1 1637   4.910   3.493   3.757
  246SOL    HW2 1638   5.045   3.424   3.820
  247SOL     OW 1639   3.243   0.391   3.899
  247SOL    HW1 1640   3.321   0.391   3.835
  247SOL    HW2 1641   3.158   0.405   3.848
  248SOL     OW 1642   6.086   1.752   1.951
  248SOL    HW1 1643   6.093   1.849   1.927
  248SOL    HW2 1644   6.035   1.704   1.881
  249SOL     OW 1645   2.416   6.417   3.842
  249SOL    HW1 1646   2.490   6.350   3.847
  249SOL    HW2 1647   2.346   6.395   3.910
  250SOL     OW 1648   5.307   3.111   6.397
  250SOL    HW1 1649   5.387   3.168   6.413
  250SOL    HW2 1650   5.235   3.135   6.462
  251SOL     OW 1651   1.713   2.092   0.899
  251SOL    HW1 1652   1.758   2.039   0.972
  251SOL    HW2 1653   1.678   2.177   0.937
  252SOL     OW 1654   0.258   1.277   0.154
  252SOL    HW1 1655   0.169   1.260   0.113
  252SOL    HW2 1656   0.262   1.236   0.245
  253SOL     OW 1657   1.518   3.827   5.105
  253SOL    HW1 1658   1.517   3.864   5.198
  253SOL    HW2 1659   1.449   3.874   5.050
  254SOL     OW 1660   5.191   3.425   5.423
  254SOL    HW1 1661   5.104   3.403   5.467
  254SOL    HW2 1662   5.267   3.395   5.481
  255SOL     OW 1663   3.624   2.060   3.321
  255SOL    HW1 1664   3.622   1.963   3.345
  255SOL    HW2 1665   3.543   2.082   3.266
  256SOL     OW 1666   6.493   5.728   0.456
  256SOL    HW1 1667   6.510   5.798   0.525
  256SOL    HW2 1668   6.577   5.678   0.438
  257SOL     OW 1669   3.329   5.248   6.395
  257SOL    HW1 1670   3.285   5.288   6.475
  257SOL    HW2 1671   3.260   5.202   6.339
  258SOL     OW 1672   5.159   4.192   4.444
  258SOL    HW1 1673   5.174   4.114   4.504
  258SOL    HW2 1674   5.218   4.268   4.471
  259SOL     OW 1675   1.166   2.296   3.318
  259SOL    HW1 1676   1.125   2.337   3.236
  259SOL    HW2 1677   1.114   2.325   3.399
  260SOL     OW 1678   6.517   6.819   5.601
  260SOL    HW1 1679   6.558   6.885   5.664
  260SOL    HW2 1680   6.521   6.728   5.640
  261SOL     OW 1681   0.983   1.647   2.741
  261SOL    HW1 1682   0.917   1.706   2.788
  261SOL    HW2 1683   1.065   1.700   2.720
  262SOL     OW 1684   2.074   4.995   1.967
  262SOL    HW1 1685   2.102   4.932   2.038
  262SOL    HW2 1686   2.062   5.087   2.006
  263SOL     OW 1687   6.540   1.982   5.189
  263SOL    HW1 1688   6.607   1.986   5.114
  263SOL    HW2 1689   6.588   1.975   5.276
  264SOL     OW 1690   2.928   3.816   5.831
  264SOL    HW1 1691   2.953   3.764   5.749
  264SOL    HW2 1692   2.895   3.753   5.901
  265SOL     OW 1693   5.561   5.814   5.307
  265SOL    HW1 1694   5.578   5.773   5.396
  265SOL    HW2 1695   5.483   5.770   5.263
  266SOL     OW 1696   3.254   2.774   6.311
  266SOL    HW1 1697   3.340   2.724   6.316
  266SOL    HW2 1698   3.270   2.863   6.267
  267SOL     OW 1699   1.303   1.416   5.923
  267SOL    HW1 1700   1.301   1.342   5.855
  267SOL    HW2 1701   1.369   1.485   5.895
  268SOL     OW 1702   3.357   5.964   3.595
  268SOL    HW1 1703   3.370   6.012   3.508
  268SOL    HW2 1704   3.446   5.955   3.641
  269SOL     OW 1705   1.639   1.459   4.855
  269SOL    HW1 1706   1.613   1.440   4.949
  269SOL    HW2 1707   1.563   1.502   4.807
  270SOL     OW 1708   5.218   6.806   4.629
  270SOL    HW1 1709   5.215   6.706   4.641
  270SOL    HW2 1710   5.305   6.840   4.664
  271SOL     OW 1711   1.133   1.839   0.115
  271SOL    HW1 1712   1.132   1.886   0.027
  271SOL    HW2 1713   1.147   1.906   0.188
  272SOL     OW 1714   5.087   5.833   2.007
  272SOL    HW1 1715   5.161   5.830   2.075
  272SOL    HW2 1716   5.103   5.762   1.938
  273SOL     OW 1717   2.971   6.717   4.296
  273SOL    HW1 1718   3.031   6.784   4.339
  273SOL    HW2 1719   3.015   6.679   4.215
  274SOL     OW 1720   5.840   1.713   0.964
  274SOL    HW1 1721   5.843   1.641   0.895
  274SOL    HW2 1722   5.749   1.755   0.964
  275SOL     OW 1723   5.525   6.037   5.784
  275SOL    HW1 1724   5.484   6.125   5.808
  275SOL    HW2 1725   5.552   6.038   5.688
  276SOL     OW 1726   0.307   6.610   3.674
  276SOL    HW1 1727   0.291   6.516   3.705
  276SOL    HW2 1728   0.231   6.639   3.615
  277SOL     OW 1729   5.014   2.309   5.166
  277SOL    HW1 1730   5.031   2.386   5.106
  277SOL    HW2 1731   5.052   2.328   5.257
  278SOL     OW 1732   5.837   3.628   3.244
  278SOL    HW1 1733   5.889   3.637   3.329
  278SOL    HW2 1734   5.893   3.580   3.175
  279SOL     OW 1735   0.391   3.402   4.118
  279SOL    HW1 1736   0.392   3.452   4.204
  279SOL    HW2 1737   0.309   3.427   4.066
  280SOL     OW 1738   3.622   1.113   3.312
  280SOL    HW1 1739   3.578   1.033   3.272
  280SOL    HW2 1740   3.696   1.143   3.252
  281SOL     OW 1741   5.473   6.452   4.637
  281SOL    HW1 1742   5.491   6.386   4.564
  281SOL    HW2 1743   5.534   6.434   4.714
  282SOL     OW 1744   1.268   2.319   0.494
  282SOL    HW1 1745   1.334   2.345   0.423
  282SOL    HW2 1746   1.244   2.223   0.483
  283SOL     OW 1747   5.208   2.902   4.779
  283SOL    HW1 1748   5.234   2.996   4.759
  283SOL    HW2 1749   5.285   2.854   4.820
  284SOL     OW 1750   5.053   5.798   2.807
  284SOL    HW1 1751   5.150   5.787   2.787
  284SOL    HW2 1752   5.017   5.875   2.755
  285SOL     OW 1753   4.348   0.734   5.921
  285SOL    HW1 1754   4.265   0.782   5.894
  285SOL    HW2 1755   4.410   0.727   5.843
  286SOL     OW 1756   2.719   4.766   5.584
  286SOL    HW1 1757   2.787   4.834   5.555
  286SOL    HW2 1758   2.742   4.677   5.544
  287SOL     OW 1759   3.276   0.128   6.728
  287SOL    HW1 1760   3.190   0.157   6.770
  287SOL    HW2 1761   3.353   0.158   6.786
  288SOL     OW 1762   4.549   1.427   0.814
  288SOL    HW1 1763   4.573   1.407   0.719
  288SOL    HW2 1764   4.606   1.502   0.848
  289SOL     OW 1765   6.567   5.471   3.936
  289SOL    HW1 1766   6.481   5.517   3.915
  289SOL    HW2 1767   6.641   5.514   3.884
  290SOL     OW 1768   3.876   0.852   6.326
  290SOL    HW1 1769   3.948   0.891   6.268
  290SOL    HW2 1770   3.915   0.824   6.414
  291SOL     OW 1771   3.638   0.545   5.626
  291SOL    HW1 1772   3.613   0.451   5.649
  291SOL    HW2 1773   3.578   0.609   5.674
  292SOL     OW 1774   4.651   0.305   3.901
  292SOL    HW1 1775   4.673   0.328   3.806
  292SOL    HW2 1776   4.635   0.389   3.953
  293SOL     OW 1777   5.674   6.420   2.548
  293SOL    HW1 1778   5.687   6.516   2.522
  293SOL    HW2 1779   5.720   6.403   2.635
  294SOL     OW 1780   5.838   0.946   6.241
  294SOL    HW1 1781   5.829   1.045   6.247
  294SOL    HW2 1782   5.815   0.904   6.329
  295SOL     OW 1783   1.187   0.690   4.749
  295SOL    HW1 1784   1.201   0.784   4.781
  295SOL    HW2 1785   1.151   0.692   4.656
  296SOL     OW 1786   0.734   2.548   1.259
  296SOL    HW1 1787   0.752   2.450   1.256
  296SOL    HW2 1788   0.636   2.564   1.249
  297SOL     OW 1789   5.112   3.608   3.501
  297SOL    HW1 1790   5.052   3.539   3.462
  297SOL    HW2 1791   5.134   3.676   3.432
  298SOL     OW 1792   4.681   0.592   6.163
  298SOL    HW1 1793   4.676   0.631   6.255
  298SOL    HW2 1794   4.758   0.633   6.113
  299SOL     OW 1795   0.896   0.467   0.003
  299SOL    HW1 1796   0.880   0.545   6.970
  299SOL    HW2 1797   0.930   0.390   6.977
  300SOL     OW 1798   3.910   0.310   3.607
  300SOL    HW1 1799   3.879   0.237   3.547
  300SOL    HW2 1800   3.979   0.275   3.671
  301SOL     OW 1801   6.697   5.068   0.255
  301SOL    HW1 1802   6.646   5.106   0.179
  301SOL    HW2 1803   6.643   5.076   0.339
  302SOL     OW 1804   6.813   5.240   2.418
  302SOL    HW1 1805   6.857   5.226   2.506
  302SOL    HW2 1806   6.846   5.173   2.352
  303SOL     OW 1807   5.437   5.843   3.477
  303SOL    HW1 1808   5.365   5.792   3.430
  303SOL    HW2 1809   5.523   5.833   3.428
  304SOL     OW 1810   2.697   5.972   4.805
  304SOL    HW1 1811   2.670   5.929   4.719
  304SOL    HW2 1812   2.770   5.918   4.848
  305SOL     OW 1813   1.104   2.492   1.731
  305SOL    HW1 1814   1.166   2.490   1.653
  305SOL    HW2 1815   1.086   2.587   1.757
  306SOL     OW 1816   0.369   0.293   3.545
  306SOL    HW1 1817   0.362   0.221   3.614
  306SOL    HW2 1818   0.343   0.380   3.586
  307SOL     OW 1819   3.673   3.257   4.160
  307SOL    HW1 1820   3.623   3.299   4.235
  307SOL    HW2 1821   3.761   3.302   4.147
  308SOL     OW 1822   6.361   2.105   2.748
  308SOL    HW1 1823   6.385   2.199   2.771
  308SOL    HW2 1824   6.436   2.063   2.697
  309SOL     OW 1825   1.627   5.737   6.403
  309SOL    HW1 1826   1.637   5.777   6.312
  309SOL    HW2 1827   1.700   5.771   6.462
  310SOL     OW 1828   5.293   6.641   5.241
  310SOL    HW1 1829   5.269   6.735   5.217
  310SOL    HW2 1830   5.250   6.578   5.176
  311SOL     OW 1831   1.524   5.629   2.632
  311SOL    HW1 1832   1.578   5.636   2.548
  311SOL    HW2 1833   1.503   5.721   2.666
  312SOL     OW 1834   3.439   0.372   3.715
  312SOL    HW1 1835   3.387   0.354   3.632
  312SOL    HW2 1836   3.475   0.286   3.751
  313SOL     OW 1837   3.326   3.907   2.867
  313SOL    HW1 1838   3.339   3.957   2.952
  313SOL    HW2 1839   3.300   3.970   2.794
  314SOL     OW 1840   3.362   5.535   6.215
  314SOL    HW1 1841   3.268   5.543   6.248
  314SOL    HW2 1842   3.417   5.609   6.253
  315SOL     OW 1843   6.179   0.966   4.547
  315SOL    HW1 1844   6.143   0.923   4.464
  315SOL    HW2 1845   6.276   0.985   4.536
  316SOL     OW 1846   4.284   1.008   6.220
  316SOL    HW1 1847   4.375   1.049   6.229
  316SOL    HW2 1848   4.293   0.912   6.193
  317SOL     OW 1849   1.322   1.798   0.949
  317SOL    HW1 1850   1.282   1.713   0.983
  317SOL    HW2 1851   1.301   1.873   1.011
  318SOL     OW 1852   0.458   0.079   5.246
  318SOL    HW1 1853   0.436   0.157   5.305
  318SOL    HW2 1854   0.515   0.015   5.297
  319SOL     OW 1855   0.593   1.445   3.359
  319SOL    HW1 1856   0.664   1.417   3.295
  319SOL    HW2 1857   0.507   1.401   3.334
  320SOL     OW 1858   5.804   1.847   6.312
  320SOL    HW1 1859   5.747   1.766   6.295
  320SOL    HW2 1860   5.798   1.872   6.408
  321SOL     OW 1861   4.582   2.785   0.638
  321SOL    HW1 1862   4.676   2.798   0.668
  321SOL    HW2 1863   4.520   2.800   0.715
  322SOL     OW 1864   2.947   3.068   6.577
  322SOL    HW1 1865   3.009   2.990   6.586
  322SOL    HW2 1866   2.931   3.086   6.480
  323SOL     OW 1867   1.974   3.992   2.335
  323SOL    HW1 1868   1.900   3.928   2.356
  323SOL    HW2 1869   1.984   4.001   2.236
  324SOL     OW 1870   0.825   0.206   2.929
  324SOL    HW1 1871   0.908   0.263   2.927
  324SOL    HW2 1872   0.747   0.260   2.897
  325SOL     OW 1873   0.086   4.099   1.029
  325SOL    HW1 1874   0.071   4.077   1.125
  325SOL    HW2 1875   0.094   4.198   1.018
  326SOL     OW 1876   0.886   6.308   6.760
  326SOL    HW1 1877   0.966   6.352   6.801
  326SOL    HW2 1878   0.812   6.304   6.827
  327SOL     OW 1879   5.275   5.497   5.073
  327SOL    HW1 1880   5.209   5.430   5.039
  327SOL    HW2 1881   5.342   5.450   5.131
  328SOL     OW 1882   1.530   3.996   3.275
  328SOL    HW1 1883   1.482   3.911   3.296
  328SOL    HW2 1884   1.623   3.992   3.312
  329SOL     OW 1885   2.968   2.956   1.696
  329SOL    HW1 1886   2.976   3.055   1.685
  329SOL    HW2 1887   3.059   2.915   1.698
  330SOL     OW 1888   2.478   4.788   0.755
  330SOL    HW1 1889   2.463   4.853   0.829
  330SOL    HW2 1890   2.517   4.835   0.676
  331SOL     OW 1891   6.479   5.414   6.148
  331SOL    HW1 1892   6.537   5.464   6.212
  331SOL    HW2 1893   6.495   5.316   6.159
  332SOL     OW 1894   5.733   2.612   3.148
  332SOL    HW1 1895   5.821   2.591   3.191
  332SOL    HW2 1896   5.694   2.528   3.111
  333SOL     OW 1897   3.579   0.973   5.167
  333SOL    HW1 1898   3.537   0.928   5.089
  333SOL    HW2 1899   3.509   0.994   5.236
  334SOL     OW 1900   4.040   3.602   3.473
  334SOL    HW1 1901   3.995   3.633   3.389
  334SOL    HW2 1902   4.134   3.635   3.474
  335SOL     OW 1903   4.291   1.721   1.393
  335SOL    HW1 1904   4.374   1.720   1.336
  335SOL    HW2 1905   4.214   1.751   1.337
  336SOL     OW 1906   2.920   1.470   4.337
  336SOL    HW1 1907   2.959   1.560   4.354
  336SOL    HW2 1908   2.834   1.479   4.287
  337SOL     OW 1909   1.394   1.081   5.308
  337SOL    HW1 1910   1.326   1.013   5.281
  337SOL    HW2 1911   1.462   1.091   5.237
  338SOL     OW 1912   4.328   1.664   1.657
  338SOL    HW1 1913   4.313   1.677   1.559
  338SOL    HW2 1914   4.427   1.660   1.675
  339SOL     OW 1915   4.218   6.285   5.810
  339SOL    HW1 1916   4.149   6.227   5.852
  339SOL    HW2 1917   4.219   6.270   5.711
  340SOL     OW 1918   4.970   1.960   4.315
  340SOL    HW1 1919   4.939   2.037   4.259
  340SOL    HW2 1920   5.037   1.907   4.264
  341SOL     OW 1921   6.606   6.209   2.821
  341SOL    HW1 1922   6.550   6.268   2.879
  341SOL    HW2 1923   6.619   6.121   2.866
  342SOL     OW 1924   5.022   1.835   2.684
  342SOL    HW1 1925   5.048   1.891   2.606
  342SOL    HW2 1926   5.071   1.867   2.765
  343SOL     OW 1927   6.642   6.316   2.570
  343SOL    HW1 1928   6.619   6.262   2.651
  343SOL    HW2 1929   6.599   6.406   2.576
  344SOL     OW 1930   0.557   1.906   0.503
  344SOL    HW1 1931   0.498   1.959   0.441
  344SOL    HW2 1932   0.542   1.937   0.597
  345SOL     OW 1933   6.718   3.126   4.437
  345SOL    HW1 1934   6.627   3.117   4.478
  345SOL    HW2 1935   6.765   3.204   4.479
  346SOL     OW 1936   1.940   6.540   3.667
  346SOL    HW1 1937   1.963   6.515   3.573
  346SOL    HW2 1938   1.917   6.637   3.671
  347SOL     OW 1939   2.177   4.749   0.443
  347SOL    HW1 1940   2.179   4.841   0.405
  347SOL    HW2 1941   2.099   4.699   0.407
  348SOL     OW 1942   4.617   5.327   1.699
  348SOL    HW1 1943   4.676   5.249   1.678
  348SOL    HW2 1944   4.580   5.365   1.615
  349SOL     OW 1945   5.689   4.216   1.419
  349SOL    HW1 1946   5.764   4.277   1.395
  349SOL    HW2 1947   5.726   4.126   1.443
  350SOL     OW 1948   3.589   2.742   0.361
  350SOL    HW1 1949   3.678   2.776   0.329
  350SOL    HW2 1950   3.522   2.751   0.288
  351SOL     OW 1951   3.196   4.691   1.237
  351SOL    HW1 1952   3.212   4.598   1.205
  351SOL    HW2 1953   3.104   4.720   1.209
  352SOL     OW 1954   4.256   0.323   2.469
  352SOL    HW1 1955   4.245   0.272   2.555
  352SOL    HW2 1956   4.249   0.421   2.487
  353SOL     OW 1957   1.581   0.063   6.144
  353SOL    HW1 1958   1.634   7.009   6.119
  353SOL    HW2 1959   1.643   0.142   6.151
  354SOL     OW 1960   0.122   2.214   0.205
  354SOL    HW1 1961   0.198   2.256   0.254
  354SOL    HW2 1962   0.065   2.286   0.166
  355SOL     OW 1963   1.257   1.709   2.763
  355SOL    HW1 1964   1.323   1.756   2.822
  355SOL    HW2 1965   1.255   1.752   2.673
  356SOL     OW 1966   1.698   0.763   5.498
  356SOL    HW1 1967   1.643   0.679   5.489
  356SOL    HW2 1968   1.711   0.784   5.595
  357SOL     OW 1969   5.130   0.241   5.072
  357SOL    HW1 1970   5.122   0.337   5.045
  357SOL    HW2 1971   5.145   0.235   5.170
  358SOL     OW 1972   3.622   5.852   6.674
  358SOL    HW1 1973   3.549   5.881   6.612
  358SOL    HW2 1974   3.630   5.752   6.673
  359SOL     OW 1975   2.213   2.268   2.462
  359SOL    HW1 1976   2.305   2.231   2.453
  359SOL    HW2 1977   2.148   2.193   2.474
  360SOL     OW 1978   0.885   4.607   4.052
  360SOL    HW1 1979   0.800   4.638   4.011
  360SOL    HW2 1980   0.873   4.513   4.086
  361SOL     OW 1981   6.683   2.120   3.152
  361SOL    HW1 1982   6.757   2.181   3.125
  361SOL    HW2 1983   6.686   2.037   3.096
  362SOL     OW 1984   3.759   4.045   1.035
  362SOL    HW1 1985   3.691   4.085   1.095
  362SOL    HW2 1986   3.746   3.946   1.031
  363SOL     OW 1987   5.224   5.549   1.615
  363SOL    HW1 1988   5.194   5.619   1.550
  363SOL    HW2 1989   5.299   5.496   1.575
  364SOL     OW 1990   0.899   6.493   6.363
  364SOL    HW1 1991   0.833   6.425   6.331
  364SOL    HW2 1992   0.851   6.565   6.413
  365SOL     OW 1993   4.669   1.780   3.468
  365SOL    HW1 1994   4.631   1.760   3.559
  365SOL    HW2 1995   4.602   1.755   3.398
  366SOL     OW 1996   5.258   1.523   0.122
  366SOL    HW1 1997   5.206   1.553   0.042
  366SOL    HW2 1998   5.348   1.566   0.121
  367SOL     OW 1999   5.465   1.406   6.074
  367SOL    HW1 2000   5.518   1.491   6.068
  367SOL    HW2 2001   5.441   1.376   5.982
  368SOL     OW 2002   6.916   1.989   5.558
  368SOL    HW1 2003   6.973   1.926   5.610
  368SOL    HW2 2004   6.890   2.066   5.616
  369SOL     OW 2005   6.771   3.636   1.898
  369SOL    HW1 2006   6.675   3.628   1.872
  369SOL    HW2 2007   6.814   3.546   1.892
  370SOL     OW 2008   1.227   3.199   3.897
  370SOL    HW1 2009   1.322   3.167   3.903
  370SOL    HW2 2010   1.166   3.122   3.881
  371SOL     OW 2011   0.892   4.516   7.015
  371SOL    HW1 2012   0.976   4.467   6.991
  371SOL    HW2 2013   0.907   4.614   7.005
  372SOL     OW 2014   3.678   6.139   6.252
  372SOL    HW1 2015   3.663   6.157   6.349
  372SOL    HW2 2016   3.750   6.070   6.242
  373SOL     OW 2017   5.768   5.335   3.567
  373SOL    HW1 2018   5.748   5.433   3.571
  373SOL    HW2 2019   5.849   5.320   3.511
  374SOL     OW 2020   2.745   1.651   2.866
  374SOL    HW1 2021   2.696   1.732   2.835
  374SOL    HW2 2022   2.698   1.569   2.835
  375SOL     OW 2023   1.268   5.063   4.506
  375SOL    HW1 2024   1.316   5.151   4.509
  375SOL    HW2 2025   1.329   4.994   4.467
  376SOL     OW 2026   2.865   1.125   3.696
  376SOL    HW1 2027   2.889   1.041   3.746
  376SOL    HW2 2028   2.910   1.124   3.607
  377SOL     OW 2029   1.142   1.755   6.847
  377SOL    HW1 2030   1.051   1.736   6.882
  377SOL    HW2 2031   1.136   1.805   6.761
  378SOL     OW 2032   4.108   0.900   2.161
  378SOL    HW1 2033   4.171   0.971   2.129
  378SOL    HW2 2034   4.144   0.858   2.244
  379SOL     OW 2035   5.672   1.613   6.284
  379SOL    HW1 2036   5.708   1.557   6.209
  379SOL    HW2 2037   5.676   1.560   6.369
  380SOL     OW 2038   4.233   2.742   0.366
  380SOL    HW1 2039   4.138   2.773   0.369
  380SOL    HW2 2040   4.293   2.812   0.404
  381SOL     OW 2041   1.893   3.754   3.211
  381SOL    HW1 2042   1.978   3.751   3.159
  381SOL    HW2 2043   1.869   3.850   3.231
  382SOL     OW 2044   4.753   0.447   6.890
  382SOL    HW1 2045   4.779   0.419   6.798
  382SOL    HW2 2046   4.760   0.546   6.899
  383SOL     OW 2047   4.893   2.247   0.831
  383SOL    HW1 2048   4.969   2.183   0.822
  383SOL    HW2 2049   4.864   2.278   0.741
  384SOL     OW 2050   6.438   3.770   4.939
  384SOL    HW1 2051   6.388   3.716   4.871
  384SOL    HW2 2052   6.490   3.708   4.999
  385SOL     OW 2053   4.424   3.654   0.350
  385SOL    HW1 2054   4.448   3.737   0.400
  385SOL    HW2 2055   4.501   3.628   0.291
  386SOL     OW 2056   3.817   5.901   3.466
  386SOL    HW1 2057   3.757   5.900   3.386
  386SOL    HW2 2058   3.840   5.808   3.493
  387SOL     OW 2059   2.854   6.714   3.582
  387SOL    HW1 2060   2.838   6.655   3.661
  387SOL    HW2 2061   2.895   6.661   3.508
  388SOL     OW 2062   1.502   4.466   6.505
  388SOL    HW1 2063   1.497   4.421   6.416
  388SOL    HW2 2064   1.573   4.424   6.560
  389SOL     OW 2065   2.883   3.626   3.062
  389SOL    HW1 2066   2.966   3.666   3.024
  389SOL    HW2 2067   2.807   3.691   3.051
  390SOL     OW 2068   2.107   1.406   4.043
  390SOL    HW1 2069   2.180   1.471   4.063
  390SOL    HW2 2070   2.143   1.335   3.981
  391SOL     OW 2071   0.566   2.937   0.206
  391SOL    HW1 2072   0.514   2.930   0.120
  391SOL    HW2 2073   0.517   2.890   0.279
  392SOL     OW 2074   2.631   5.379   2.255
  392SOL    HW1 2075   2.643   5.293   2.305
  392SOL    HW2 2076   2.629   5.361   2.156
  393SOL     OW 2077   5.806   4.372   4.999
  393SOL    HW1 2078   5.758   4.334   5.078
  393SOL    HW2 2079   5.825   4.469   5.014
  394SOL     OW 2080   2.439   0.678   6.893
  394SOL    HW1 2081   2.473   0.664   6.986
  394SOL    HW2 2082   2.416   0.775   6.880
  395SOL     OW 2083   6.553   3.478   1.212
  395SOL    HW1 2084   6.616   3.549   1.180
  395SOL    HW2 2085   6.476   3.520   1.259
  396SOL     OW 2086   3.074   3.944   3.995
  396SOL    HW1 2087   3.147   3.891   4.038
  396SOL    HW2 2088   3.044   4.016   4.058
  397SOL     OW 2089   4.177   2.423   6.451
  397SOL    HW1 2090   4.224   2.441   6.365
  397SOL    HW2 2091   4.212   2.337   6.490
  398SOL     OW 2092   1.025   5.255   1.566
  398SOL    HW1 2093   1.083   5.237   1.487
  398SOL    HW2 2094   1.080   5.298   1.638
  399SOL     OW 2095   5.123   5.170   2.175
  399SOL    HW1 2096   5.089   5.076   2.163
  399SOL    HW2 2097   5.092   5.227   2.099
  400SOL     OW 2098   1.363   5.711   5.555
  400SOL    HW1 2099   1.348   5.737   5.650
  400SOL    HW2 2100   1.291   5.649   5.525
  401SOL     OW 2101   5.140   1.303   6.981
  401SOL    HW1 2102   5.049   1.267   7.002
  401SOL    HW2 2103   5.171   1.360   0.029
  402SOL     OW 2104   5.609   4.750   1.043
  402SOL    HW1 2105   5.609   4.651   1.026
  402SOL    HW2 2106   5.669   4.795   0.976
  403SOL     OW 2107   4.908   3.005   6.112
  403SOL    HW1 2108   4.989   2.990   6.169
  403SOL    HW2 2109   4.839   3.054   6.166
  404SOL     OW 2110   0.274   0.156   4.689
  404SOL    HW1 2111   0.252   0.061   4.666
  404SOL    HW2 2112   0.206   0.217   4.647
  405SOL     OW 2113   0.345   2.343   0.328
  405SOL    HW1 2114   0.351   2.343   0.228
  405SOL    HW2 2115   0.432   2.376   0.366
  406SOL     OW 2116   1.768   3.248   3.923
  406SOL    HW1 2117   1.801   3.253   4.017
  406SOL    HW2 2118   1.752   3.152   3.898
  407SOL     OW 2119   2.545   0.502   4.594
  407SOL    HW1 2120   2.479   0.577   4.596
  407SOL    HW2 2121   2.635   0.538   4.568
  408SOL     OW 2122   1.859   0.289   2.963
  408SOL    HW1 2123   1.815   0.206   2.997
  408SOL    HW2 2124   1.799   0.335   2.898
  409SOL     OW 2125   6.465   3.242   3.425
  409SOL    HW1 2126   6.537   3.302   3.389
  409SOL    HW2 2127   6.479   3.229   3.524
  410SOL     OW 2128   2.727   1.622   6.438
  410SOL    HW1 2129   2.646   1.635   6.380
  410SOL    HW2 2130   2.703   1.638   6.534
  411SOL     OW 2131   6.336   4.433   5.510
  411SOL    HW1 2132   6.250   4.436   5.460
  411SOL    HW2 2133   6.319   4.454   5.606
  412SOL     OW 2134   3.190   0.458   2.801
  412SOL    HW1 2135   3.180   0.458   2.701
  412SOL    HW2 2136   3.121   0.518   2.841
  413SOL     OW 2137   2.668   6.701   0.915
  413SOL    HW1 2138   2.570   6.717   0.913
  413SOL    HW2 2139   2.695   6.646   0.836
  414SOL     OW 2140   3.729   3.962   0.559
  414SOL    HW1 2141   3.713   3.865   0.575
  414SOL    HW2 2142   3.648   4.014   0.583
  415SOL     OW 2143   2.847   6.273   1.259
  415SOL    HW1 2144   2.858   6.362   1.302
  415SOL    HW2 2145   2.755   6.266   1.220
  416SOL     OW 2146   4.005   6.241   5.124
  416SOL    HW1 2147   4.009   6.293   5.040
  416SOL    HW2 2148   4.063   6.160   5.116
  417SOL     OW 2149   4.725   6.001   1.562
  417SOL    HW1 2150   4.737   6.095   1.530
  417SOL    HW2 2151   4.745   5.937   1.488
  418SOL     OW 2152   5.244   4.851   1.241
  418SOL    HW1 2153   5.147   4.839   1.262
  418SOL    HW2 2154   5.259   4.838   1.143
  419SOL     OW 2155   6.484   6.561   1.348
  419SOL    HW1 2156   6.480   6.554   1.448
  419SOL    HW2 2157   6.578   6.577   1.319
  420SOL     OW 2158   4.597   4.842   0.348
  420SOL    HW1 2159   4.659   4.877   0.418
  420SOL    HW2 2160   4.507   4.886   0.357
  421SOL     OW 2161   2.001   6.501   6.398
  421SOL    HW1 2162   2.026   6.551   6.481
  421SOL    HW2 2163   2.081   6.449   6.366
  422SOL     OW 2164   5.420   3.779   6.790
  422SOL    HW1 2165   5.332   3.828   6.788
  422SOL    HW2 2166   5.468   3.795   6.704
  423SOL     OW 2167   0.393   2.951   7.023
  423SOL    HW1 2168   0.365   2.914   6.935
  423SOL    HW2 2169   0.313   2.985   0.045
  424SOL     OW 2170   2.505   3.954   0.475
  424SOL    HW1 2171   2.477   3.955   0.571
  424SOL    HW2 2172   2.426   3.968   0.417
  425SOL     OW 2173   3.054   1.532   0.754
  425SOL    HW1 2174   3.054   1.473   0.673
  425SOL    HW2 2175   3.092   1.481   0.832
  426SOL     OW 2176   5.377   4.220   5.844
  426SOL    HW1 2177   5.282   4.196   5.826
  426SOL    HW2 2178   5.436   4.141   5.826
  427SOL     OW 2179   5.341   3.701   0.858
  427SOL    HW1 2180   5.348   3.780   0.798
  427SOL    HW2 2181   5.272   3.718   0.928
  428SOL     OW 2182   3.853   0.897   5.189
  428SOL    HW1 2183   3.875   0.838   5.111
  428SOL    HW2 2184   3.754   0.908   5.195
  429SOL     OW 2185   1.374   5.099   6.960
  429SOL    HW1 2186   1.396   5.190   6.926
  429SOL    HW2 2187   1.372   5.101   0.033
  430SOL     OW 2188   1.125   0.581   5.359
  430SOL    HW1 2189   1.031   0.606   5.337
  430SOL    HW2 2190   1.132   0.561   5.457
  431SOL     OW 2191   3.646   1.672   0.745
  431SOL    HW1 2192   3.723   1.711   0.795
  431SOL    HW2 2193   3.561   1.713   0.777
  432SOL     OW 2194   0.223   1.897   1.171
  432SOL    HW1 2195   0.231   1.899   1.270
  432SOL    HW2 2196   0.143   1.841   1.146
  433SOL     OW 2197   3.187   6.630   5.316
  433SOL    HW1 2198   3.165   6.700   5.383
  433SOL    HW2 2199   3.279   6.595   5.334
  434SOL     OW 2200   6.873   3.688   1.590
  434SOL    HW1 2201   6.924   3.771   1.565
  434SOL    HW2 2202   6.919   3.643   1.667
  435SOL     OW 2203   3.373   4.403   0.323
  435SOL    HW1 2204   3.275   4.398   0.345
  435SOL    HW2 2205   3.396   4.328   0.261
  436SOL     OW 2206   1.757   0.824   0.204
  436SOL    HW1 2207   1.786   0.828   0.300
  436SOL    HW2 2208   1.782   0.910   0.159
  437SOL     OW 2209   6.811   0.014   6.732
  437SOL    HW1 2210   6.883   0.019   6.802
  437SOL    HW2 2211   6.766   0.103   6.724
  438SOL     OW 2212   1.333   2.887   1.710
  438SOL    HW1 2213   1.407   2.904   1.776
  438SOL    HW2 2214   1.357   2.808   1.654
  439SOL     OW 2215   6.682   4.743   2.860
  439SOL    HW1 2216   6.776   4.755   2.830
  439SOL    HW2 2217   6.636   4.677   2.800
  440SOL     OW 2218   1.132   2.925   3.931
  440SOL    HW1 2219   1.128   2.937   4.030
  440SOL    HW2 2220   1.200   2.855   3.908
  441SOL     OW 2221   0.999   1.544   3.514
  441SOL    HW1 2222   0.994   1.634   3.470
  441SOL    HW2 2223   1.055   1.483   3.458
  442SOL     OW 2224   0.009   3.642   0.005
  442SOL    HW1 2225   6.952   3.587   0.000
  442SOL    HW2 2226   0.064   3.611   0.082
  443SOL     OW 2227   0.605   3.972   5.530
  443SOL    HW1 2228   0.582   3.909   5.456
  443SOL    HW2 2229   0.680   4.032   5.502
  444SOL     OW 2230   4.235   2.860   6.472
  444SOL    HW1 2231   4.324   2.824   6.446
  444SOL    HW2 2232   4.186   2.792   6.527
  445SOL     OW 2233   2.188   4.252   3.116
  445SOL    HW1 2234   2.190   4.199   3.032
  445SOL    HW2 2235   2.098   4.295   3.126
  446SOL     OW 2236   4.497   5.155   4.115
  446SOL    HW1 2237   4.511   5.111   4.027
  446SOL    HW2 2238   4.401   5.181   4.125
  447SOL     OW 2239   6.461   5.451   0.658
  447SOL    HW1 2240   6.479   5.355   0.681
  447SOL    HW2 2241   6.419   5.456   0.567
  448SOL     OW 2242   4.180   0.781   5.010
  448SOL    HW1 2243   4.243   0.808   5.083
  448SOL    HW2 2244   4.192   0.842   4.931
  449SOL     OW 2245   5.300   0.579   4.607
  449SOL    HW1 2246   5.273   0.533   4.692
  449SOL    HW2 2247   5.299   0.678   4.621
  450SOL     OW 2248   0.259   6.091   3.625
  450SOL    HW1 2249   0.322   6.020   3.593
  450SOL    HW2 2250   0.185   6.048   3.677
  451SOL     OW 2251   0.657   2.369   2.931
  451SOL    HW1 2252   0.669   2.284   2.982
  451SOL    HW2 2253   0.656   2.447   2.994
  452SOL     OW 2254   0.153   4.827   6.662
  452SOL    HW1 2255   0.100   4.743   6.668
  452SOL    HW2 2256   0.211   4.836   6.743
  453SOL     OW 2257   3.257   1.541   6.433
  453SOL    HW1 2258   3.211   1.484   6.501
  453SOL    HW2 2259   3.303   1.617   6.478
  454SOL     OW 2260   1.335   6.385   6.846
  454SOL    HW1 2261   1.330   6.286   6.837
  454SOL    HW2 2262   1.287   6.428   6.770
  455SOL     OW 2263   5.269   0.984   5.324
  455SOL    HW1 2264   5.240   1.051   5.256
  455SOL    HW2 2265   5.369   0.974   5.321
  456SOL     OW 2266   4.527   6.043   6.339
  456SOL    HW1 2267   4.623   6.071   6.335
  456SOL    HW2 2268   4.479   6.079   6.259
  457SOL     OW 2269   2.355   4.843   3.279
  457SOL    HW1 2270   2.444   4.888   3.271
  457SOL    HW2 2271   2.323   4.816   3.188
  458SOL     OW 2272   6.397   5.304   5.854
  458SOL    HW1 2273   6.335   5.261   5.919
  458SOL    HW2 2274   6.388   5.403   5.860
  459SOL     OW 2275   1.662   0.654   2.549
  459SOL    HW1 2276   1.586   0.714   2.574
  459SOL    HW2 2277   1.693   0.604   2.630
  460SOL     OW 2278   6.925   1.906   2.748
  460SOL    HW1 2279   6.873   1.979   2.792
  460SOL    HW2 2280   6.878   1.875   2.666
  461SOL     OW 2281   4.758   6.333   5.501
  461SOL    HW1 2282   4.841   6.358   5.451
  461SOL    HW2 2283   4.775   6.339   5.599
  462SOL     OW 2284   3.270   2.960   6.744
  462SOL    HW1 2285   3.303   2.992   6.655
  462SOL    HW2 2286   3.316   3.010   6.817
  463SOL     OW 2287   6.926   5.138   2.719
  463SOL    HW1 2288   6.835   5.176   2.733
  463SOL    HW2 2289   6.961   5.103   2.806
  464SOL     OW 2290   1.731   1.430   5.985
  464SOL    HW1 2291   1.795   1.478   5.925
  464SOL    HW2 2292   1.637   1.446   5.955
  465SOL     OW 2293   6.899   2.357   3.823
  465SOL    HW1 2294   6.864   2.445   3.857
  465SOL    HW2 2295   6.923   2.299   3.901
  466SOL     OW 2296   1.399   0.007   3.910
  466SOL    HW1 2297   1.396   0.007   3.810
  466SOL    HW2 2298   1.478   6.981   3.941
  467SOL     OW 2299   1.186   0.604   5.644
  467SOL    HW1 2300   1.168   0.701   5.625
  467SOL    HW2 2301   1.172   0.586   5.741
  468SOL     OW 2302   3.483   4.714   1.127
  468SOL    HW1 2303   3.450   4.741   1.037
  468SOL    HW2 2304   3.431   4.636   1.160
  469SOL     OW 2305   2.196   5.583   6.870
  469SOL    HW1 2306   2.232   5.647   6.802
  469SOL    HW2 2307   2.139   5.633   6.935
  470SOL     OW 2308   4.023   0.592   2.350
  470SOL    HW1 2309   4.102   0.546   2.310
  470SOL    HW2 2310   4.050   0.683   2.382
  471SOL     OW 2311   2.327   2.742   4.933
  471SOL    HW1 2312   2.334   2.840   4.953
  471SOL    HW2 2313   2.235   2.709   4.959
  472SOL     OW 2314   4.156   5.357   5.814
  472SOL    HW1 2315   4.090   5.340   5.887
  472SOL    HW2 2316   4.112   5.407   5.740
  473SOL     OW 2317   1.687   3.202   2.910
  473SOL    HW1 2318   1.612   3.194   2.975
  473SOL    HW2 2319   1.668   3.276   2.845
  474SOL     OW 2320   4.121   5.107   4.978
  474SOL    HW1 2321   4.145   5.096   5.074
  474SOL    HW2 2322   4.175   5.181   4.938
  475SOL     OW 2323   0.000   6.737   6.242
  475SOL    HW1 2324   0.006   6.660   6.178
  475SOL    HW2 2325   6.985   6.815   6.197
  476SOL     OW 2326   6.521   4.598   2.663
  476SOL    HW1 2327   6.589   4.526   2.653
  476SOL    HW2 2328   6.430   4.558   2.665
  477SOL     OW 2329   2.135   5.412   3.770
  477SOL    HW1 2330   2.115   5.426   3.673
  477SOL    HW2 2331   2.056   5.442   3.824
  478SOL     OW 2332   3.965   5.348   3.651
  478SOL    HW1 2333   3.901   5.402   3.707
  478SOL    HW2 2334   4.039   5.407   3.619
  479SOL     OW 2335   3.327   2.602   0.612
  479SOL    HW1 2336   3.333   2.700   0.593
  479SOL    HW2 2337   3.414   2.571   0.651
  480SOL     OW 2338   0.694   6.637   2.383
  480SOL    HW1 2339   0.782   6.642   2.335
  480SOL    HW2 2340   0.697   6.696   2.464
  481SOL     OW 2341   3.815   0.094   1.259
  481SOL    HW1 2342   3.866   0.180   1.253
  481SOL    HW2 2343   3.828   0.054   1.350
  482SOL     OW 2344   5.776   4.634   2.430
  482SOL    HW1 2345   5.834   4.553   2.433
  482SOL    HW2 2346   5.833   4.716   2.438
  483SOL     OW 2347   5.684   1.875   2.314
  483SOL    HW1 2348   5.730   1.849   2.230
  483SOL    HW2 2349   5.677   1.796   2.375
  484SOL     OW 2350   0.239   2.839   4.378
  484SOL    HW1 2351   0.150   2.794   4.367
  484SOL    HW2 2352   0.311   2.772   4.360
  485SOL     OW 2353   3.376   5.189   2.204
  485SOL    HW1 2354   3.341   5.147   2.288
  485SOL    HW2 2355   3.332   5.147   2.125
  486SOL     OW 2356   0.874   0.167   0.744
  486SOL    HW1 2357   0.837   0.252   0.780
  486SOL    HW2 2358   0.936   0.126   0.812
  487SOL     OW 2359   0.317   2.524   6.895
  487SOL    HW1 2360   0.264   2.608   6.880
  487SOL    HW2 2361   0.406   2.547   6.934
  488SOL     OW 2362   0.277   2.098   2.171
  488SOL    HW1 2363   0.347   2.035   2.204
  488SOL    HW2 2364   0.243   2.152   2.248
  489SOL     OW 2365   3.110   5.852   6.950
  489SOL    HW1 2366   3.022   5.816   6.920
  489SOL    HW2 2367   3.176   5.778   6.958
  490SOL     OW 2368   6.389   6.237   4.315
  490SOL    HW1 2369   6.368   6.315   4.257
  490SOL    HW2 2370   6.404   6.156   4.257
  491SOL     OW 2371   1.332   2.799   2.083
  491SOL    HW1 2372   1.380   2.844   2.008
  491SOL    HW2 2373   1.309   2.705   2.056
  492SOL     OW 2374   2.529   0.379   5.473
  492SOL    HW1 2375   2.457   0.407   5.410
  492SOL    HW2 2376   2.507   0.410   5.565
  493SOL     OW 2377   6.114   4.606   5.331
  493SOL    HW1 2378   6.037   4.657   5.294
  493SOL    HW2 2379   6.150   4.544   5.262
  494SOL     OW 2380   0.366   0.152   0.825
  494SOL    HW1 2381   0.277   0.196   0.837
  494SOL    HW2 2382   0.364   0.093   0.744
  495SOL     OW 2383   4.857   4.815   1.631
  495SOL    HW1 2384   4.906   4.740   1.586
  495SOL    HW2 2385   4.872   4.812   1.729
  496SOL     OW 2386   5.476   3.302   2.762
  496SOL    HW1 2387   5.470   3.341   2.854
  496SOL    HW2 2388   5.426   3.215   2.759
  497SOL     OW 2389   3.970   0.869   4.802
  497SOL    HW1 2390   3.951   0.812   4.882
  497SOL    HW2 2391   3.976   0.965   4.830
  498SOL     OW 2392   0.560   3.026   2.978
  498SOL    HW1 2393   0.494   3.098   2.959
  498SOL    HW2 2394   0.651   3.053   2.946
  499SOL     OW 2395   3.406   0.903   4.966
  499SOL    HW1 2396   3.360   0.814   4.974
  499SOL    HW2 2397   3.375   0.948   4.882
  500SOL     OW 2398   0.949   3.618   2.695
  500SOL    HW1 2399   0.910   3.666   2.616
  500SOL    HW2 2400   0.877   3.568   2.743
  501SOL     OW 2401   1.698   2.950   6.820
  501SOL    HW1 2402   1.788   2.958   6.862
  501SOL    HW2 2403   1.633   2.913   6.886
  502SOL     OW 2404   4.225   5.250   0.062
  502SOL    HW1 2405   4.172   5.248   7.004
  502SOL    HW2 2406   4.189   5.322   0.121
  503SOL     OW 2407   5.762   4.534   5.609
  503SOL    HW1 2408   5.730   4.534   5.514
  503SOL    HW2 2409   5.686   4.507   5.669
  504SOL     OW 2410   2.085   6.654   4.141
  504SOL    HW1 2411   2.085   6.660   4.041
  504SOL    HW2 2412   2.126   6.567   4.169
  505SOL     OW 2413   4.452   0.346   5.591
  505SOL    HW1 2414   4.414   0.254   5.578
  505SOL    HW2 2415   4.392   0.414   5.549
  506SOL     OW 2416   1.766   4.474   5.431
  506SOL    HW1 2417   1.687   4.515   5.477
  506SOL    HW2 2418   1.822   4.426   5.498
  507SOL     OW 2419   3.236   0.346   4.899
  507SOL    HW1 2420   3.308   0.291   4.941
  507SOL    HW2 2421   3.176   0.286   4.846
  508SOL     OW 2422   6.499   3.880   3.132
  508SOL    HW1 2423   6.499   3.875   3.032
  508SOL    HW2 2424   6.545   3.799   3.169
  509SOL     OW 2425   4.774   1.260   2.102
  509SOL    HW1 2426   4.752   1.333   2.167
  509SOL    HW2 2427   4.727   1.278   2.015
  510SOL     OW 2428   6.877   4.471   4.830
  510SOL    HW1 2429   6.814   4.416   4.775
  510SOL    HW2 2430   6.961   4.486   4.779
  511SOL     OW 2431   0.721   6.461   0.453
  511SOL    HW1 2432   0.764   6.516   0.381
  511SOL    HW2 2433   0.623   6.454   0.435
  512SOL     OW 2434   0.993   3.875   6.624
  512SOL    HW1 2435   1.073   3.880   6.685
  512SOL    HW2 2436   0.968   3.779   6.611
  513SOL     OW 2437   6.629   5.544   4.239
  513SOL    HW1 2438   6.672   5.616   4.184
  513SOL    HW2 2439   6.625   5.459   4.186
  514SOL     OW 2440   6.323   1.996   4.421
  514SOL    HW1 2441   6.398   1.932   4.404
  514SOL    HW2 2442   6.334   2.076   4.362
  515SOL     OW 2443   2.206   6.655   5.908
  515SOL    HW1 2444   2.195   6.753   5.889
  515SOL    HW2 2445   2.250   6.643   5.997
  516SOL     OW 2446   2.264   5.052   1.780
  516SOL    HW1 2447   2.337   5.014   1.837
  516SOL    HW2 2448   2.178   5.048   1.829
  517SOL     OW 2449   4.384   6.841   1.477
  517SOL    HW1 2450   4.314   6.901   1.440
  517SOL    HW2 2451   4.418   6.780   1.405
  518SOL     OW 2452   2.280   2.616   1.548
  518SOL    HW1 2453   2.313   2.584   1.637
  518SOL    HW2 2454   2.235   2.540   1.500
  519SOL     OW 2455   0.217   0.054   6.121
  519SOL    HW1 2456   0.166   7.013   6.069
  519SOL    HW2 2457   0.172   0.069   6.209
  520SOL     OW 2458   5.342   4.946   5.974
  520SOL    HW1 2459   5.394   4.908   6.051
  520SOL    HW2 2460   5.244   4.934   5.991
  521SOL     OW 2461   6.832   1.884   6.863
  521SOL    HW1 2462   6.778   1.951   6.813
  521SOL    HW2 2463   6.781   1.797   6.867
  522SOL     OW 2464   4.011   3.161   4.023
  522SOL    HW1 2465   3.962   3.080   4.053
  522SOL    HW2 2466   4.070   3.137   3.946
  523SOL     OW 2467   6.591   6.827   4.642
  523SOL    HW1 2468   6.632   6.739   4.619
  523SOL    HW2 2469   6.516   6.847   4.579
  524SOL     OW 2470   2.691   1.058   6.447
  524SOL    HW1 2471   2.709   1.004   6.365
  524SOL    HW2 2472   2.709   1.155   6.428
  525SOL     OW 2473   2.574   4.129   6.834
  525SOL    HW1 2474   2.590   4.127   6.933
  525SOL    HW2 2475   2.646   4.077   6.788
  526SOL     OW 2476   3.386   5.704   4.756
  526SOL    HW1 2477   3.349   5.616   4.728
  526SOL    HW2 2478   3.460   5.731   4.694
  527SOL     OW 2479   0.056   1.144   7.026
  527SOL    HW1 2480   6.990   1.109   0.010
  527SOL    HW2 2481   0.122   1.073   0.022
  528SOL     OW 2482   2.558   1.335   5.196
  528SOL    HW1 2483   2.462   1.356   5.174
  528SOL    HW2 2484   2.603   1.418   5.228
  529SOL     OW 2485   1.376   4.811   4.414
  529SOL    HW1 2486   1.434   4.772   4.343
  529SOL    HW2 2487   1.373   4.750   4.493
  530SOL     OW 2488   2.333   2.993   5.419
  530SOL    HW1 2489   2.262   2.929   5.389
  530SOL    HW2 2490   2.390   3.019   5.340
  531SOL     OW 2491   1.331   0.245   1.248
  531SOL    HW1 2492   1.287   0.156   1.231
  531SOL    HW2 2493   1.365   0.282   1.161
  532SOL     OW 2494   0.919   1.204   5.368
  532SOL    HW1 2495   0.900   1.254   5.453
  532SOL    HW2 2496   0.913   1.266   5.291
  533SOL     OW 2497   5.484   6.849   4.754
  533SOL    HW1 2498   5.529   6.931   4.790
  533SOL    HW2 2499   5.546   6.802   4.691
  534SOL     OW 2500   4.956   5.269   2.389
  534SOL    HW1 2501   5.011   5.226   2.318
  534SOL    HW2 2502   4.928   5.360   2.358
  535SOL     OW 2503   0.302   3.750   3.579
  535SOL    HW1 2504   0.311   3.654   3.554
  535SOL    HW2 2505   0.335   3.808   3.504
  536SOL     OW 2506   1.901   5.556   1.352
  536SOL    HW1 2507   1.894   5.487   1.424
  536SOL    HW2 2508   1.832   5.627   1.367
  537SOL     OW 2509   2.239   0.070   2.198
  537SOL    HW1 2510   2.308   0.114   2.140
  537SOL    HW2 2511   2.191   0.140   2.251
  538SOL     OW 2512   1.048   6.191   2.977
  538SOL    HW1 2513   1.034   6.278   2.929
  538SOL    HW2 2514   0.985   6.185   3.054
  539SOL     OW 2515   1.860   5.038   2.211
  539SOL    HW1 2516   1.798   5.045   2.134
  539SOL    HW2 2517   1.823   5.087   2.290
  540SOL     OW 2518   1.893   2.388   2.434
  540SOL    HW1 2519   1.953   2.468   2.444
  540SOL    HW2 2520   1.872   2.374   2.337
  541SOL     OW 2521   2.770   5.864   5.639
  541SOL    HW1 2522   2.671   5.856   5.651
  541SOL    HW2 2523   2.798   5.809   5.560
  542SOL     OW 2524   6.013   5.450   6.843
  542SOL    HW1 2525   6.098   5.452   6.789
  542SOL    HW2 2526   6.033   5.414   6.934
  543SOL     OW 2527   1.117   4.988   6.787
  543SOL    HW1 2528   1.116   4.897   6.829
  543SOL    HW2 2529   1.211   5.023   6.784
  544SOL     OW 2530   0.706   4.379   0.569
  544SOL    HW1 2531   0.697   4.383   0.470
  544SOL    HW2 2532   0.797   4.409   0.597
  545SOL     OW 2533   3.711   1.306   3.127
  545SOL    HW1 2534   3.731   1.401   3.102
  545SOL    HW2 2535   3.744   1.245   3.054
  546SOL     OW 2536   1.692   3.642   0.685
  546SOL    HW1 2537   1.643   3.694   0.755
  546SOL    HW2 2538   1.703   3.547   0.716
  547SOL     OW 2539   2.820   3.571   0.031
  547SOL    HW1 2540   2.804   3.473   0.023
  547SOL    HW2 2541   2.893   3.598   6.996
  548SOL     OW 2542   3.498   2.862   4.008
  548SOL    HW1 2543   3.580   2.817   3.972
  548SOL    HW2 2544   3.442   2.895   3.932
  549SOL     OW 2545   5.874   3.622   1.315
  549SOL    HW1 2546   5.969   3.620   1.285
  549SOL    HW2 2547   5.868   3.665   1.405
  550SOL     OW 2548   6.973   3.952   2.388
  550SOL    HW1 2549   0.024   3.966   2.450
  550SOL    HW2 2550   6.969   4.028   2.323
  551SOL     OW 2551   6.594   2.039   0.734
  551SOL    HW1 2552   6.544   2.033   0.821
  551SOL    HW2 2553   6.532   2.071   0.662
  552SOL     OW 2554   3.461   5.750   0.675
  552SOL    HW1 2555   3.544   5.796   0.643
  552SOL    HW2 2556   3.417   5.807   0.744
  553SOL     OW 2557   2.389   1.416   1.596
  553SOL    HW1 2558   2.310   1.371   1.556
  553SOL    HW2 2559   2.363   1.505   1.632
  554SOL     OW 2560   5.954   6.284   5.112
  554SOL    HW1 2561   5.891   6.343   5.163
  554SOL    HW2 2562   5.903   6.216   5.060
  555SOL     OW 2563   1.307   4.407   4.044
  555SOL    HW1 2564   1.285   4.416   4.141
  555SOL    HW2 2565   1.401   4.437   4.029
  556SOL     OW 2566   5.494   2.729   3.964
  556SOL    HW1 2567   5.540   2.727   3.876
  556SOL    HW2 2568   5.522   2.811   4.015
  557SOL     OW 2569   0.312   6.616   5.989
  557SOL    HW1 2570   0.382   6.652   6.050
  557SOL    HW2 2571   0.324   6.518   5.978
  558SOL     OW 2572   4.106   4.000   5.266
  558SOL    HW1 2573   4.023   3.982   5.213
  558SOL    HW2 2574   4.163   3.918   5.268
  559SOL     OW 2575   0.175   6.159   6.060
  559SOL    HW1 2576   0.100   6.098   6.083
  559SOL    HW2 2577   0.172   6.240   6.120
  560SOL     OW 2578   4.407   0.258   0.378
  560SOL    HW1 2579   4.416   0.179   0.439
  560SOL    HW2 2580   4.355   0.330   0.424
  561SOL     OW 2581   5.555   6.935   0.400
  561SOL    HW1 2582   5.514   6.997   0.467
  561SOL    HW2 2583   5.563   6.844   0.440
  562SOL     OW 2584   5.437   1.639   5.626
  562SOL    HW1 2585   5.358   1.696   5.647
  562SOL    HW2 2586   5.447   1.631   5.527
  563SOL     OW 2587   3.086   6.580   4.068
  563SOL    HW1 2588   3.153   6.580   3.993
  563SOL    HW2 2589   3.112   6.511   4.136
  564SOL     OW 2590   0.217   1.307   6.789
  564SOL    HW1 2591   0.275   1.253   6.850
  564SOL    HW2 2592   0.121   1.292   6.813
  565SOL     OW 2593   4.723   4.009   5.200
  565SOL    HW1 2594   4.684   4.100   5.214
  565SOL    HW2 2595   4.689   3.947   5.271
  566SOL     OW 2596   5.062   4.460   2.591
  566SOL    HW1 2597   5.009   4.490   2.671
  566SOL    HW2 2598   5.013   4.386   2.544
  567SOL     OW 2599   3.546   3.375   4.377
  567SOL    HW1 2600   3.493   3.331   4.450
  567SOL    HW2 2601   3.625   3.422   4.416
  568SOL     OW 2602   2.791   1.778   6.946
  568SOL    HW1 2603   2.754   1.725   7.023
  568SOL    HW2 2604   2.891   1.775   6.949
  569SOL     OW 2605   2.231   2.787   0.879
  569SOL    HW1 2606   2.187   2.874   0.904
  569SOL    HW2 2607   2.197   2.714   0.939
  570SOL     OW 2608   6.994   6.285   1.196
  570SOL    HW1 2609   6.986   6.214   1.126
  570SOL    HW2 2610   6.997   6.242   1.286
  571SOL     OW 2611   4.271   5.391   3.045
  571SOL    HW1 2612   4.178   5.390   3.008
  571SOL    HW2 2613   4.326   5.322   2.998
  572SOL     OW 2614   1.406   3.581   5.082
  572SOL    HW1 2615   1.453   3.670   5.086
  572SOL    HW2 2616   1.400   3.552   4.986
  573SOL     OW 2617   3.840   2.137   5.643
  573SOL    HW1 2618   3.918   2.195   5.664
  573SOL    HW2 2619   3.869   2.041   5.640
  574SOL     OW 2620   1.897   1.259   4.627
  574SOL    HW1 2621   1.894   1.203   4.544
  574SOL    HW2 2622   1.855   1.209   4.703
  575SOL     OW 2623   5.588   2.367   0.195
  575SOL    HW1 2624   5.684   2.346   0.176
  575SOL    HW2 2625   5.578   2.465   0.211
  576SOL     OW 2626   1.259   1.342   2.506
  576SOL    HW1 2627   1.312   1.427   2.505
  576SOL    HW2 2628   1.183   1.352   2.570
  577SOL     OW 2629   3.288   2.116   3.445
  577SOL    HW1 2630   3.264   2.144   3.538
  577SOL    HW2 2631   3.387   2.121   3.433
  578SOL     OW 2632   6.986   3.410   3.805
  578SOL    HW1 2633   6.964   3.485   3.866
  578SOL    HW2 2634   0.005   3.445   3.723
  579SOL     OW 2635   4.473   2.903   6.675
  579SOL    HW1 2636   4.539   2.957   6.728
  579SOL    HW2 2637   4.381   2.924   6.707
  580SOL     OW 2638   1.257   5.644   6.151
  580SOL    HW1 2639   1.352   5.666   6.128
  580SOL    HW2 2640   1.249   5.547   6.172
  581SOL     OW 2641   4.111   3.336   2.840
  581SOL    HW1 2642   4.052   3.261   2.812
  581SOL    HW2 2643   4.143   3.320   2.934
  582SOL     OW 2644   5.694   3.435   2.234
  582SOL    HW1 2645   5.693   3.522   2.284
  582SOL    HW2 2646   5.601   3.397   2.232
  583SOL     OW 2647   2.519   4.674   6.971
  583SOL    HW1 2648   2.581   4.614   6.919
  583SOL    HW2 2649   2.525   4.767   6.935
  584SOL     OW 2650   0.270   4.909   4.605
  584SOL    HW1 2651   0.347   4.871   4.553
  584SOL    HW2 2652   0.296   4.918   4.701
  585SOL     OW 2653   6.840   1.604   0.222
  585SOL    HW1 2654   6.886   1.629   0.136
  585SOL    HW2 2655   6.781   1.680   0.251
  586SOL     OW 2656   2.532   6.424   0.812
  586SOL    HW1 2657   2.601   6.453   0.745
  586SOL    HW2 2658   2.559   6.454   0.903
  587SOL     OW 2659   0.923   3.144   5.261
  587SOL    HW1 2660   0.973   3.194   5.332
  587SOL    HW2 2661   0.922   3.199   5.177
  588SOL     OW 2662   3.479   6.507   1.565
  588SOL    HW1 2663   3.534   6.458   1.633
  588SOL    HW2 2664   3.383   6.481   1.575
  589SOL     OW 2665   4.117   5.026   2.709
  589SOL    HW1 2666   4.081   5.050   2.799
  589SOL    HW2 2667   4.098   4.930   2.690
  590SOL     OW 2668   0.184   1.529   2.011
  590SOL    HW1 2669   0.188   1.610   1.952
  590SOL    HW2 2670   0.136   1.455   1.963
  591SOL     OW 2671   3.714   6.670   2.954
  591SOL    HW1 2672   3.711   6.623   2.866
  591SOL    HW2 2673   3.700   6.604   3.028
  592SOL     OW 2674   5.020   0.933   0.571
  592SOL    HW1 2675   5.013   0.834   0.583
  592SOL    HW2 2676   5.019   0.978   0.661
  593SOL     OW 2677   5.003   2.178   3.615
  593SOL    HW1 2678   5.049   2.234   3.684
  593SOL    HW2 2679   4.972   2.237   3.540
  594SOL     OW 2680   3.811   2.769   1.383
  594SOL    HW1 2681   3.733   2.824   1.353
  594SOL    HW2 2682   3.800   2.745   1.479
  595SOL     OW 2683   3.880   6.978   3.793
  595SOL    HW1 2684   3.850   0.041   3.823
  595SOL    HW2 2685   3.823   6.908   3.836
  596SOL     OW 2686   1.276   4.578   2.947
  596SOL    HW1 2687   1.307   4.548   2.857
  596SOL    HW2 2688   1.353   4.615   2.999
  597SOL     OW 2689   3.725   1.738   5.357
  597SOL    HW1 2690   3.822   1.731   5.382
  597SOL    HW2 2691   3.696   1.833   5.364
  598SOL     OW 2692   3.531   4.542   0.805
  598SOL    HW1 2693   3.523   4.641   0.818
  598SOL    HW2 2694   3.444   4.498   0.827
  599SOL     OW 2695   6.608   6.617   2.677
  599SOL    HW1 2696   6.512   6.643   2.678
  599SOL    HW2 2697   6.654   6.657   2.756
  600SOL     OW 2698   2.131   6.979   6.909
  600SOL    HW1 2699   2.068   6.983   6.986
  600SOL    HW2 2700   2.180   0.039   6.901
  601SOL     OW 2701   3.534   5.361   3.988
  601SOL    HW1 2702   3.461   5.301   4.021
  601SOL    HW2 2703   3.519   5.381   3.891
  602SOL     OW 2704   2.141   0.565   0.913
  602SOL    HW1 2705   2.101   0.534   0.827
  602SOL    HW2 2706   2.089   0.643   0.948
  603SOL     OW 2707   3.903   2.055   3.297
  603SOL    HW1 2708   3.937   2.040   3.389
  603SOL    HW2 2709   3.803   2.066   3.299
  604SOL     OW 2710   0.167   3.961   6.534
  604SOL    HW1 2711   0.229   3.886   6.556
  604SOL    HW2 2712   0.075   3.926   6.517
  605SOL     OW 2713   6.111   0.576   4.277
  605SOL    HW1 2714   6.084   0.633   4.354
  605SOL    HW2 2715   6.076   0.483   4.289
  606SOL     OW 2716   3.376   6.952   3.325
  606SOL    HW1 2717   3.293   6.970   3.271
  606SOL    HW2 2718   3.442   6.903   3.269
  607SOL     OW 2719   4.926   1.304   3.889
  607SOL    HW1 2720   4.848   1.255   3.853
  607SOL    HW2 2721   4.967   1.253   3.965
  608SOL     OW 2722   4.392   1.245   1.391
  608SOL    HW1 2723   4.380   1.263   1.293
  608SOL    HW2 2724   4.448   1.317   1.432
  609SOL     OW 2725   3.693   4.147   4.573
  609SOL    HW1 2726   3.719   4.052   4.558
  609SOL    HW2 2727   3.668   4.160   4.669
  610SOL     OW 2728   4.920   2.213   4.171
  610SOL    HW1 2729   5.019   2.202   4.168
  610SOL    HW2 2730   4.883   2.210   4.078
  611SOL     OW 2731   0.875   6.859   0.838
  611SOL    HW1 2732   0.942   6.924   0.873
  611SOL    HW2 2733   0.785   6.880   0.875
  612SOL     OW 2734   3.257   5.466   5.312
  612SOL    HW1 2735   3.270   5.390   5.375
  612SOL    HW2 2736   3.224   5.546   5.363
  613SOL     OW 2737   3.358   1.991   6.935
  613SOL    HW1 2738   3.412   1.951   7.009
  613SOL    HW2 2739   3.396   1.964   6.847
  614SOL     OW 2740   5.028   4.744   0.979
  614SOL    HW1 2741   4.943   4.741   1.032
  614SOL    HW2 2742   5.019   4.812   0.907
  615SOL     OW 2743   6.110   6.978   0.924
  615SOL    HW1 2744   6.142   6.885   0.905
  615SOL    HW2 2745   6.134   0.011   0.848
  616SOL     OW 2746   5.805   1.715   4.637
  616SOL    HW1 2747   5.763   1.650   4.574
  616SOL    HW2 2748   5.844   1.792   4.586
  617SOL     OW 2749   0.133   5.284   5.288
  617SOL    HW1 2750   0.200   5.354   5.313
  617SOL    HW2 2751   0.137   5.267   5.189
  618SOL     OW 2752   6.395   3.614   0.492
  618SOL    HW1 2753   6.376   3.644   0.586
  618SOL    HW2 2754   6.449   3.530   0.496
  619SOL     OW 2755   2.542   0.694   6.414
  619SOL    HW1 2756   2.463   0.680   6.353
  619SOL    HW2 2757   2.521   0.657   6.504
  620SOL     OW 2758   6.906   1.520   2.047
  620SOL    HW1 2759   6.889   1.477   2.135
  620SOL    HW2 2760   6.996   1.565   2.049
  621SOL     OW 2761   3.496   1.293   6.893
  621SOL    HW1 2762   3.454   1.384   6.888
  621SOL    HW2 2763   3.471   1.241   6.811
  622SOL     OW 2764   1.171   1.807   5.137
  622SOL    HW1 2765   1.271   1.808   5.137
  622SOL    HW2 2766   1.138   1.752   5.214
  623SOL     OW 2767   6.080   6.735   4.382
  623SOL    HW1 2768   6.077   6.637   4.401
  623SOL    HW2 2769   6.058   6.750   4.285
  624SOL     OW 2770   6.465   0.783   6.358
  624SOL    HW1 2771   6.398   0.831   6.415
  624SOL    HW2 2772   6.464   0.821   6.266
  625SOL     OW 2773   2.276   1.619   0.404
  625SOL    HW1 2774   2.318   1.708   0.421
  625SOL    HW2 2775   2.219   1.594   0.482
  626SOL     OW 2776   0.255   5.292   3.709
  626SOL    HW1 2777   0.178   5.314   3.769
  626SOL    HW2 2778   0.222   5.232   3.635
  627SOL     OW 2779   6.466   0.539   6.678
  627SOL    HW1 2780   6.495   0.624   6.722
  627SOL    HW2 2781   6.490   0.462   6.736
  628SOL     OW 2782   4.500   4.607   5.932
  628SOL    HW1 2783   4.583   4.565   5.969
  628SOL    HW2 2784   4.441   4.637   6.007
  629SOL     OW 2785   0.640   6.570   5.894
  629SOL    HW1 2786   0.588   6.540   5.814
  629SOL    HW2 2787   0.577   6.595   5.967
  630SOL     OW 2788   6.526   1.013   1.192
  630SOL    HW1 2789   6.509   1.060   1.279
  630SOL    HW2 2790   6.569   1.077   1.128
  631SOL     OW 2791   1.950   3.012   4.053
  631SOL    HW1 2792   2.034   3.055   4.087
  631SOL    HW2 2793   1.972   2.955   3.974
  632SOL     OW 2794   3.213   3.498   0.091
  632SOL    HW1 2795   3.294   3.506   0.149
  632SOL    HW2 2796   3.227   3.550   0.007
  633SOL     OW 2797   1.634   6.262   0.938
  633SOL    HW1 2798   1.553   6.204   0.943
  633SOL    HW2 2799   1.660   6.274   0.842
  634SOL     OW 2800   3.015   3.168   4.451
  634SOL    HW1 2801   2.925   3.125   4.441
  634SOL    HW2 2802   3.021   3.211   4.541
  635SOL     OW 2803   5.402   0.702   0.098
  635SOL    HW1 2804   5.338   0.776   0.076
  635SOL    HW2 2805   5.494   0.727   0.067
  636SOL     OW 2806   2.562   0.710   5.805
  636SOL    HW1 2807   2.626   0.780   5.838
  636SOL    HW2 2808   2.544   0.724   5.708
  637SOL     OW 2809   6.687   0.871   2.655
  637SOL    HW1 2810   6.608   0.844   2.600
  637SOL    HW2 2811   6.665   0.953   2.707
  638SOL     OW 2812   6.320   3.275   4.687
  638SOL    HW1 2813   6.295   3.225   4.770
  638SOL    HW2 2814   6.238   3.296   4.635
  639SOL     OW 2815   5.436   4.793   2.244
  639SOL    HW1 2816   5.517   4.850   2.256
  639SOL    HW2 2817   5.421   4.739   2.327
  640SOL     OW 2818   0.533   2.214   1.896
  640SOL    HW1 2819   0.601   2.263   1.840
  640SOL    HW2 2820   0.566   2.206   1.990
  641SOL     OW 2821   2.579   5.161   4.411
  641SOL    HW1 2822   2.535   5.250   4.401
  641SOL    HW2 2823   2.599   5.144   4.507
  642SOL     OW 2824   0.842   4.015   4.822
  642SOL    HW1 2825   0.776   3.960   4.872
  642SOL    HW2 2826   0.896   3.956   4.762
  643SOL     OW 2827   4.956   5.445   0.322
  643SOL    HW1 2828   4.921   5.489   0.405
  643SOL    HW2 2829   4.948   5.507   0.245
  644SOL     OW 2830   6.671   6.343   5.403
  644SOL    HW1 2831   6.755   6.317   5.450
  644SOL    HW2 2832   6.688   6.425   5.348
  645SOL     OW 2833   3.596   5.236   2.064
  645SOL    HW1 2834   3.630   5.329   2.080
  645SOL    HW2 2835   3.514   5.220   2.120
  646SOL     OW 2836   3.740   1.619   5.090
  646SOL    HW1 2837   3.708   1.650   5.179
  646SOL    HW2 2838   3.818   1.674   5.061
  647SOL     OW 2839   4.013   2.636   5.965
  647SOL    HW1 2840   4.064   2.691   5.899
  647SOL    HW2 2841   3.957   2.697   6.023
  648SOL     OW 2842   6.241   1.192   2.886
  648SOL    HW1 2843   6.175   1.118   2.905
  648SOL    HW2 2844   6.246   1.208   2.787
  649SOL     OW 2845   2.010   6.002   0.543
  649SOL    HW1 2846   1.976   6.077   0.485
  649SOL    HW2 2847   1.933   5.946   0.574
  650SOL     OW 2848   0.520   3.962   1.169
  650SOL    HW1 2849   0.477   4.050   1.146
  650SOL    HW2 2850   0.536   3.911   1.085
  651SOL     OW 2851   1.488   0.137   4.780
  651SOL    HW1 2852   1.460   0.067   4.846
  651SOL    HW2 2853   1.407   0.187   4.750
  652SOL     OW 2854   3.702   6.198   1.674
  652SOL    HW1 2855   3.796   6.176   1.647
  652SOL    HW2 2856   3.689   6.178   1.771
  653SOL     OW 2857   1.192   6.761   2.063
  653SOL    HW1 2858   1.194   6.770   1.963
  653SOL    HW2 2859   1.226   6.670   2.088
  654SOL     OW 2860   0.295   0.012   4.910
  654SOL    HW1 2861   0.311   0.078   4.836
  654SOL    HW2 2862   0.211   0.036   4.958
  655SOL     OW 2863   6.837   3.884   2.016
  655SOL    HW1 2864   6.811   3.812   1.952
  655SOL    HW2 2865   6.827   3.851   2.110
  656SOL     OW 2866   3.216   5.956   0.603
  656SOL    HW1 2867   3.200   5.917   0.693
  656SOL    HW2 2868   3.204   6.055   0.607
  657SOL     OW 2869   3.834   3.486   2.269
  657SOL    HW1 2870   3.898   3.504   2.194
  657SOL    HW2 2871   3.788   3.399   2.253
  658SOL     OW 2872   1.447   2.342   4.949
  658SOL    HW1 2873   1.490   2.253   4.965
  658SOL    HW2 2874   1.516   2.414   4.956
  659SOL     OW 2875   1.938   5.876   6.438
  659SOL    HW1 2876   1.952   5.879   6.339
  659SOL    HW2 2877   1.913   5.784   6.467
  660SOL     OW 2878   4.920   4.262   2.488
  660SOL    HW1 2879   4.889   4.176   2.528
  660SOL    HW2 2880   4.896   4.265   2.391
  661SOL     OW 2881   4.768   4.206   4.431
  661SOL    HW1 2882   4.772   4.107   4.444
  661SOL    HW2 2883   4.759   4.227   4.334
  662SOL     OW 2884   4.847   3.496   0.309
  662SOL    HW1 2885   4.786   3.428   0.349
  662SOL    HW2 2886   4.805   3.587   0.317
  663SOL     OW 2887   0.697   4.079   0.353
  663SOL    HW1 2888   0.659   4.139   0.283
  663SOL    HW2 2889   0.794   4.099   0.366
  664SOL     OW 2890   1.927   6.821   6.760
  664SOL    HW1 2891   2.007   6.862   6.803
  664SOL    HW2 2892   1.850   6.884   6.767
  665SOL     OW 2893   3.997   5.035   1.375
  665SOL    HW1 2894   4.042   5.059   1.461
  665SOL    HW2 2895   3.978   4.936   1.374
  666SOL     OW 2896   3.473   1.675   0.340
  666SOL    HW1 2897   3.469   1.629   0.428
  666SOL    HW2 2898   3.542   1.631   0.283
  667SOL     OW 2899   1.091   3.188   3.199
  667SOL    HW1 2900   1.101   3.092   3.175
  667SOL    HW2 2901   1.180   3.233   3.193
  668SOL     OW 2902   4.916   6.843   0.491
  668SOL    HW1 2903   4.867   6.833   0.404
  668SOL    HW2 2904   4.947   6.938   0.501
  669SOL     OW 2905   2.212   5.815   3.234
  669SOL    HW1 2906   2.291   5.771   3.191
  669SOL    HW2 2907   2.240   5.905   3.270
  670SOL     OW 2908   3.291   2.952   3.140
  670SOL    HW1 2909   3.266   2.922   3.048
  670SOL    HW2 2910   3.212   2.997   3.183
  671SOL     OW 2911   1.465   0.382   6.173
  671SOL    HW1 2912   1.404   0.445   6.220
  671SOL    HW2 2913   1.475   0.410   6.077
  672SOL     OW 2914   2.731   2.400   4.068
  672SOL    HW1 2915   2.823   2.381   4.033
  672SOL    HW2 2916   2.671   2.423   3.992
  673SOL     OW 2917   5.661   6.786   1.281
  673SOL    HW1 2918   5.696   6.864   1.229
  673SOL    HW2 2919   5.620   6.719   1.218
  674SOL     OW 2920   0.527   2.185   3.843
  674SOL    HW1 2921   0.453   2.242   3.877
  674SOL    HW2 2922   0.588   2.161   3.918
  675SOL     OW 2923   6.087   2.473   5.064
  675SOL    HW1 2924   6.150   2.509   5.133
  675SOL    HW2 2925   6.128   2.484   4.974
  676SOL     OW 2926   2.179   4.519   4.537
  676SOL    HW1 2927   2.117   4.472   4.599
  676SOL    HW2 2928   2.134   4.533   4.449
  677SOL     OW 2929   5.731   0.060   0.752
  677SOL    HW1 2930   5.660   7.022   0.777
  677SOL    HW2 2931   5.703   0.152   0.778
  678SOL     OW 2932   2.388   1.919   6.143
  678SOL    HW1 2933   2.361   2.015   6.149
  678SOL    HW2 2934   2.482   1.914   6.108
  679SOL     OW 2935   5.649   7.015   2.757
  679SOL    HW1 2936   5.640   0.061   2.824
  679SOL    HW2 2937   5.566   6.959   2.756
  680SOL     OW 2938   5.268   4.051   4.974
  680SOL    HW1 2939   5.259   3.969   5.030
  680SOL    HW2 2940   5.179   4.077   4.936
  681SOL     OW 2941   1.397   6.973   1.976
  681SOL    HW1 2942   1.334   6.912   2.024
  681SOL    HW2 2943   1.377   6.970   1.878
  682SOL     OW 2944   0.958   6.127   0.637
  682SOL    HW1 2945   1.031   6.135   0.569
  682SOL    HW2 2946   0.979   6.186   0.715
  683SOL     OW 2947   5.508   1.375   0.556
  683SOL    HW1 2948   5.514   1.356   0.458
  683SOL    HW2 2949   5.509   1.473   0.571
  684SOL     OW 2950   6.976   6.036   6.170
  684SOL    HW1 2951   6.886   5.994   6.178
  684SOL    HW2 2952   6.999   6.080   6.257
  685SOL     OW 2953   5.687   0.791   5.588
  685SOL    HW1 2954   5.682   0.854   5.666
  685SOL    HW2 2955   5.620   0.818   5.519
  686SOL     OW 2956   5.620   5.396   3.007
  686SOL    HW1 2957   5.577   5.315   3.046
  686SOL    HW2 2958   5.591   5.406   2.912
  687SOL     OW 2959   6.327   3.161   5.353
  687SOL    HW1 2960   6.368   3.228   5.416
  687SOL    HW2 2961   6.399   3.110   5.307
  688SOL     OW 2962   0.073   3.961   5.042
  688SOL    HW1 2963   0.061   4.044   4.987
  688SOL    HW2 2964   7.013   3.911   5.046
  689SOL     OW 2965   5.808   3.931   6.409
  689SOL    HW1 2966   5.851   4.015   6.377
  689SOL    HW2 2967   5.709   3.937   6.394
  690SOL     OW 2968   1.162   2.017   3.449
  690SOL    HW1 2969   1.237   1.984   3.507
  690SOL    HW2 2970   1.174   2.114   3.431
  691SOL     OW 2971   0.397   3.199   6.555
  691SOL    HW1 2972   0.342   3.276   6.522
  691SOL    HW2 2973   0.493   3.215   6.532
  692SOL     OW 2974   1.916   0.004   2.997
  692SOL    HW1 2975   1.954   7.016   3.088
  692SOL    HW2 2976   1.989   0.029   2.934
  693SOL     OW 2977   0.130   1.492   2.264
  693SOL    HW1 2978   0.135   1.491   2.164
  693SOL    HW2 2979   0.087   1.407   2.295
  694SOL     OW 2980   1.779   0.554   1.619
  694SOL    HW1 2981   1.787   0.469   1.671
  694SOL    HW2 2982   1.812   0.538   1.526
  695SOL     OW 2983   3.688   6.607   5.852
  695SOL    HW1 2984   3.593   6.599   5.822
  695SOL    HW2 2985   3.691   6.627   5.950
  696SOL     OW 2986   4.590   5.311   2.579
  696SOL    HW1 2987   4.587   5.389   2.517
  696SOL    HW2 2988   4.504   5.261   2.575
  697SOL     OW 2989   0.971   3.932   3.710
  697SOL    HW1 2990   1.059   3.964   3.745
  697SOL    HW2 2991   0.908   3.917   3.786
  698SOL     OW 2992   4.406   6.586   3.739
  698SOL    HW1 2993   4.415   6.567   3.837
  698SOL    HW2 2994   4.496   6.607   3.701
  699SOL     OW 2995   1.789   4.722   0.912
  699SOL    HW1 2996   1.883   4.695   0.893
  699SOL    HW2 2997   1.743   4.743   0.826
  700SOL     OW 2998   1.896   1.125   4.391
  700SOL    HW1 2999   1.809   1.100   4.350
  700SOL    HW2 3000   1.970   1.106   4.327
  701SOL     OW 3001   0.332   4.507   5.807
  701SOL    HW1 3002   0.232   4.501   5.811
  701SOL    HW2 3003   0.364   4.574   5.874
  702SOL     OW 3004   5.872   5.678   4.880
  702SOL    HW1 3005   5.971   5.685   4.875
  702SOL    HW2 3006   5.845   5.642   4.969
  703SOL     OW 3007   3.866   4.193   6.783
  703SOL    HW1 3008   3.899   4.115   6.835
  703SOL    HW2 3009   3.945   4.247   6.751
  704SOL     OW 3010   2.460   0.113   0.499
  704SOL    HW1 3011   2.473   0.026   0.547
  704SOL    HW2 3012   2.380   0.106   0.439
  705SOL     OW 3013   5.996   2.460   2.466
  705SOL    HW1 3014   5.939   2.518   2.525
  705SOL    HW2 3015   5.940   2.387   2.427
  706SOL     OW 3016   3.960   1.902   3.958
  706SOL    HW1 3017   3.901   1.834   3.915
  706SOL    HW2 3018   4.033   1.855   4.009
  707SOL     OW 3019   5.076   0.792   1.509
  707SOL    HW1 3020   5.154   0.839   1.550
  707SOL    HW2 3021   5.002   0.857   1.492
  708SOL     OW 3022   4.148   0.863   1.611
  708SOL    HW1 3023   4.106   0.940   1.562
  708SOL    HW2 3024   4.195   0.897   1.692
  709SOL     OW 3025   1.174   4.914   0.149
  709SOL    HW1 3026   1.203   4.867   0.066
  709SOL    HW2 3027   1.108   4.857   0.198
  710SOL     OW 3028   3.251   4.073   2.677
  710SOL    HW1 3029   3.165   4.025   2.663
  710SOL    HW2 3030   3.296   4.087   2.589
  711SOL     OW 3031   0.533   0.651   4.009
  711SOL    HW1 3032   0.538   0.579   3.940
  711SOL    HW2 3033   0.487   0.731   3.972
  712SOL     OW 3034   1.789   4.153   1.571
  712SOL    HW1 3035   1.881   4.150   1.531
  712SOL    HW2 3036   1.797   4.162   1.670
  713SOL     OW 3037   3.970   3.115   2.779
  713SOL    HW1 3038   3.954   3.071   2.868
  713SOL    HW2 3039   3.970   3.045   2.707
  714SOL     OW 3040   4.784   5.625   5.135
  714SOL    HW1 3041   4.750   5.695   5.198
  714SOL    HW2 3042   4.780   5.535   5.179
  715SOL     OW 3043   4.414   0.585   6.369
  715SOL    HW1 3044   4.497   0.636   6.389
  715SOL    HW2 3045   4.354   0.639   6.311
  716SOL     OW 3046   0.016   4.966   1.801
  716SOL    HW1 3047   7.013   4.957   1.895
  716SOL    HW2 3048   0.083   4.895   1.780
  717SOL     OW 3049   6.212   2.487   0.570
  717SOL    HW1 3050   6.166   2.408   0.612
  717SOL    HW2 3051   6.159   2.517   0.491
  718SOL     OW 3052   3.674   4.047   6.642
  718SOL    HW1 3053   3.760   4.091   6.669
  718SOL    HW2 3054   3.678   4.025   6.544
  719SOL     OW 3055   5.391   4.325   0.539
  719SOL    HW1 3056   5.425   4.241   0.581
  719SOL    HW2 3057   5.459   4.359   0.473
  720SOL     OW 3058   2.562   0.934   6.126
  720SOL    HW1 3059   2.618   0.922   6.044
  720SOL    HW2 3060   2.468   0.906   6.106
  721SOL     OW 3061   1.607   6.908   5.831
  721SOL    HW1 3062   1.561   6.994   5.850
  721SOL    HW2 3063   1.627   6.902   5.733
  722SOL     OW 3064   4.176   0.179   5.398
  722SOL    HW1 3065   4.269   0.163   5.366
  722SOL    HW2 3066   4.112   0.165   5.322
  723SOL     OW 3067   0.994   3.240   1.827
  723SOL    HW1 3068   0.907   3.286   1.846
  723SOL    HW2 3069   1.051   3.300   1.771
  724SOL     OW 3070   0.266   1.006   5.140
  724SOL    HW1 3071   0.204   1.074   5.180
  724SOL    HW2 3072   0.310   0.954   5.214
  725SOL     OW 3073   2.155   5.359   0.904
  725SOL    HW1 3074   2.080   5.362   0.970
  725SOL    HW2 3075   2.132   5.294   0.831
  726SOL     OW 3076   3.948   0.187   6.820
  726SOL    HW1 3077   3.926   0.285   6.820
  726SOL    HW2 3078   3.944   0.152   6.726
  727SOL     OW 3079   3.145   4.905   4.179
  727SOL    HW1 3080   3.242   4.905   4.202
  727SOL    HW2 3081   3.127   4.974   4.110
  728SOL     OW 3082   6.773   3.702   5.184
  728SOL    HW1 3083   6.703   3.633   5.164
  728SOL    HW2 3084   6.742   3.759   5.261
  729SOL     OW 3085   2.964   0.357   1.235
  729SOL    HW1 3086   2.974   0.456   1.248
  729SOL    HW2 3087   2.925   0.317   1.317
  730SOL     OW 3088   5.893   0.347   4.131
  730SOL    HW1 3089   5.882   0.382   4.224
  730SOL    HW2 3090   5.961   0.273   4.132
  731SOL     OW 3091   5.731   3.691   3.644
  731SOL    HW1 3092   5.744   3.706   3.742
  731SOL    HW2 3093   5.817   3.661   3.603
  732SOL     OW 3094   6.617   2.708   1.666
  732SOL    HW1 3095   6.698   2.667   1.624
  732SOL    HW2 3096   6.536   2.653   1.643
  733SOL     OW 3097   4.574   4.363   4.000
  733SOL    HW1 3098   4.532   4.444   3.958
  733SOL    HW2 3099   4.606   4.302   3.928
  734SOL     OW 3100   6.835   4.408   0.995
  734SOL    HW1 3101   6.799   4.490   0.950
  734SOL    HW2 3102   6.777   4.329   0.973
  735SOL     OW 3103   1.449   4.722   6.253
  735SOL    HW1 3104   1.458   4.793   6.183
  735SOL    HW2 3105   1.422   4.636   6.210
  736SOL     OW 3106   6.542   1.264   3.215
  736SOL    HW1 3107   6.480   1.330   3.172
  736SOL    HW2 3108   6.525   1.173   3.176
  737SOL     OW 3109   5.430   3.223   0.613
  737SOL    HW1 3110   5.403   3.277   0.693
  737SOL    HW2 3111   5.349   3.179   0.574
  738SOL     OW 3112   1.009   3.769   4.259
  738SOL    HW1 3113   0.967   3.687   4.297
  738SOL    HW2 3114   1.046   3.749   4.169
  739SOL     OW 3115   4.651   6.319   6.547
  739SOL    HW1 3116   4.587   6.354   6.477
  739SOL    HW2 3117   4.629   6.361   6.635
  740SOL     OW 3118   6.000   6.545   1.589
  740SOL    HW1 3119   6.076   6.489   1.622
  740SOL    HW2 3120   6.002   6.549   1.489
  741SOL     OW 3121   2.248   0.451   2.394
  741SOL    HW1 3122   2.279   0.546   2.390
  741SOL    HW2 3123   2.235   0.424   2.489
  742SOL     OW 3124   1.341   6.976   2.981
  742SOL    HW1 3125   1.378   6.902   2.925
  742SOL    HW2 3126   1.248   6.997   2.952
  743SOL     OW 3127   2.253   4.161   4.447
  743SOL    HW1 3128   2.177   4.161   4.513
  743SOL    HW2 3129   2.313   4.239   4.466
  744SOL     OW 3130   6.991   5.624   0.653
  744SOL    HW1 3131   0.062   5.629   0.631
  744SOL    HW2 3132   6.941   5.688   0.595
  745SOL     OW 3133   1.438   5.932   2.655
  745SOL    HW1 3134   1.513   5.990   2.624
  745SOL    HW2 3135   1.352   5.966   2.617
  746SOL     OW 3136   1.815   0.964   5.037
  746SOL    HW1 3137   1.845   0.899   5.107
  746SOL    HW2 3138   1.876   1.043   5.036
  747SOL     OW 3139   4.980   4.887   2.850
  747SOL    HW1 3140   4.932   4.863   2.766
  747SOL    HW2 3141   4.923   4.947   2.906
  748SOL     OW 3142   4.653   3.473   1.315
  748SOL    HW1 3143   4.592   3.504   1.243
  748SOL    HW2 3144   4.734   3.430   1.274
  749SOL     OW 3145   6.683   1.626   5.684
  749SOL    HW1 3146   6.689   1.644   5.586
  749SOL    HW2 3147   6.594   1.655   5.718
  750SOL     OW 3148   2.194   4.143   0.518
  750SOL    HW1 3149   2.191   4.117   0.422
  750SOL    HW2 3150   2.172   4.240   0.527
  751SOL     OW 3151   4.638   0.723   6.988
  751SOL    HW1 3152   4.676   0.720   0.053
  751SOL    HW2 3153   4.551   0.674   6.986
  752SOL     OW 3154   4.744   2.436   2.166
  752SOL    HW1 3155   4.825   2.480   2.203
  752SOL    HW2 3156   4.673   2.432   2.236
  753SOL     OW 3157   2.022   2.548   4.147
  753SOL    HW1 3158   1.967   2.496   4.212
  753SOL    HW2 3159   2.111   2.568   4.187
  754SOL     OW 3160   4.473   5.567   0.058
  754SOL    HW1 3161   4.524   5.490   0.097
  754SOL    HW2 3162   4.509   5.587   6.993
  755SOL     OW 3163   0.259   6.089   0.837
  755SOL    HW1 3164   0.347   6.116   0.797
  755SOL    HW2 3165   0.265   5.995   0.871
  756SOL     OW 3166   5.100   0.349   3.143
  756SOL    HW1 3167   5.062   0.421   3.202
  756SOL    HW2 3168   5.069   0.364   3.050
  757SOL     OW 3169   0.053   0.249   3.907
  757SOL    HW1 3170   0.029   0.198   3.824
  757SOL    HW2 3171   7.005   0.311   3.931
  758SOL     OW 3172   3.858   2.514   1.276
  758SOL    HW1 3173   3.954   2.515   1.249
  758SOL    HW2 3174   3.838   2.594   1.332
  759SOL     OW 3175   1.429   0.896   6.449
  759SOL    HW1 3176   1.404   0.926   6.542
  759SOL    HW2 3177   1.511   0.944   6.419
  760SOL     OW 3178   4.828   1.701   5.942
  760SOL    HW1 3179   4.847   1.607   5.915
  760SOL    HW2 3180   4.858   1.715   6.037
  761SOL     OW 3181   5.745   2.112   6.768
  761SOL    HW1 3182   5.718   2.102   6.864
  761SOL    HW2 3183   5.820   2.178   6.762
  762SOL     OW 3184   2.461   6.505   4.225
  762SOL    HW1 3185   2.383   6.550   4.269
  762SOL    HW2 3186   2.428   6.445   4.152
  763SOL     OW 3187   4.027   5.829   6.683
  763SOL    HW1 3188   3.957   5.900   6.681
  763SOL    HW2 3189   4.066   5.823   6.775
  764SOL     OW 3190   4.448   1.395   2.416
  764SOL    HW1 3191   4.479   1.350   2.500
  764SOL    HW2 3192   4.443   1.327   2.342
  765SOL     OW 3193   6.920   6.916   3.399
  765SOL    HW1 3194   6.920   6.904   3.498
  765SOL    HW2 3195   7.005   6.962   3.372
  766SOL     OW 3196   0.257   6.278   6.909
  766SOL    HW1 3197   0.278   6.371   6.939
  766SOL    HW2 3198   0.330   6.245   6.849
  767SOL     OW 3199   5.771   6.978   2.514
  767SOL    HW1 3200   5.703   0.002   2.461
  767SOL    HW2 3201   5.753   6.989   2.611
  768SOL     OW 3202   3.031   6.158   2.906
  768SOL    HW1 3203   3.107   6.204   2.861
  768SOL    HW2 3204   3.046   6.059   2.906
  769SOL     OW 3205   4.229   1.188   5.519
  769SOL    HW1 3206   4.149   1.231   5.477
  769SOL    HW2 3207   4.200   1.115   5.581
  770SOL     OW 3208   3.324   4.967   3.863
  770SOL    HW1 3209   3.263   4.893   3.835
  770SOL    HW2 3210   3.394   4.980   3.793
  771SOL     OW 3211   0.795   5.291   3.612
  771SOL    HW1 3212   0.812   5.244   3.525
  771SOL    HW2 3213   0.710   5.343   3.607
  772SOL     OW 3214   6.796   4.193   6.229
  772SOL    HW1 3215   6.763   4.218   6.138
  772SOL    HW2 3216   6.827   4.276   6.276
  773SOL     OW 3217   0.127   3.566   2.303
  773SOL    HW1 3218   0.089   3.479   2.332
  773SOL    HW2 3219   0.090   3.591   2.213
  774SOL     OW 3220   1.572   1.063   1.301
  774SOL    HW1 3221   1.603   1.071   1.206
  774SOL    HW2 3222   1.651   1.065   1.362
  775SOL     OW 3223   1.783   2.181   4.712
  775SOL    HW1 3224   1.852   2.247   4.681
  775SOL    HW2 3225   1.801   2.092   4.671
  776SOL     OW 3226   1.968   0.518   6.242
  776SOL    HW1 3227   2.044   0.560   6.292
  776SOL    HW2 3228   1.954   0.424   6.274
  777SOL     OW 3229   4.308   1.307   0.856
  777SOL    HW1 3230   4.257   1.309   0.770
  777SOL    HW2 3231   4.395   1.357   0.844
  778SOL     OW 3232   4.162   6.463   4.093
  778SOL    HW1 3233   4.246   6.496   4.050
  778SOL    HW2 3234   4.083   6.488   4.036
  779SOL     OW 3235   1.228   1.400   2.229
  779SOL    HW1 3236   1.322   1.409   2.197
  779SOL    HW2 3237   1.227   1.354   2.318
  780SOL     OW 3238   5.926   3.368   5.123
  780SOL    HW1 3239   6.007   3.309   5.119
  780SOL    HW2 3240   5.851   3.318   5.165
  781SOL     OW 3241   6.778   0.884   5.880
  781SOL    HW1 3242   6.766   0.826   5.961
  781SOL    HW2 3243   6.816   0.972   5.907
  782SOL     OW 3244   6.857   2.942   0.912
  782SOL    HW1 3245   6.781   3.007   0.916
  782SOL    HW2 3246   6.874   2.906   1.003
  783SOL     OW 3247   2.506   4.945   0.497
  783SOL    HW1 3248   2.490   4.941   0.398
  783SOL    HW2 3249   2.541   5.035   0.521
  784SOL     OW 3250   4.861   0.580   5.155
  784SOL    HW1 3251   4.860   0.626   5.244
  784SOL    HW2 3252   4.801   0.500   5.159
  785SOL     OW 3253   6.643   2.527   2.962
  785SOL    HW1 3254   6.593   2.607   2.995
  785SOL    HW2 3255   6.598   2.493   2.879
  786SOL     OW 3256   6.880   6.429   0.056
  786SOL    HW1 3257   6.934   6.362   0.005
  786SOL    HW2 3258   6.941   6.490   0.107
  787SOL     OW 3259   3.073   2.345   6.178
  787SOL    HW1 3260   3.055   2.420   6.242
  787SOL    HW2 3261   3.162   2.358   6.135
  788SOL     OW 3262   1.504   3.743   4.428
  788SOL    HW1 3263   1.603   3.743   4.416
  788SOL    HW2 3264   1.459   3.736   4.339
  789SOL     OW 3265   5.427   4.298   1.419
  789SOL    HW1 3266   5.422   4.384   1.369
  789SOL    HW2 3267   5.519   4.260   1.410
  790SOL     OW 3268   3.151   1.359   3.601
  790SOL    HW1 3269   3.155   1.276   3.545
  790SOL    HW2 3270   3.056   1.380   3.622
  791SOL     OW 3271   3.165   1.442   4.014
  791SOL    HW1 3272   3.177   1.540   3.997
  791SOL    HW2 3273   3.072   1.425   4.046
  792SOL     OW 3274   5.714   0.879   3.793
  792SOL    HW1 3275   5.671   0.964   3.822
  792SOL    HW2 3276   5.799   0.866   3.845
  793SOL     OW 3277   5.365   0.079   6.957
  793SOL    HW1 3278   5.462   0.081   6.932
  793SOL    HW2 3279   5.355   0.040   0.022
  794SOL     OW 3280   2.237   5.405   5.558
  794SOL    HW1 3281   2.270   5.476   5.497
  794SOL    HW2 3282   2.267   5.316   5.525
  795SOL     OW 3283   4.570   4.357   6.559
  795SOL    HW1 3284   4.473   4.372   6.542
  795SOL    HW2 3285   4.589   4.371   6.656
  796SOL     OW 3286   0.194   2.360   6.724
  796SOL    HW1 3287   0.218   2.431   6.789
  796SOL    HW2 3288   0.190   2.399   6.632
  797SOL     OW 3289   5.806   2.957   3.812
  797SOL    HW1 3290   5.820   2.923   3.904
  797SOL    HW2 3291   5.870   3.032   3.794
  798SOL     OW 3292   5.373   0.960   6.185
  798SOL    HW1 3293   5.408   1.049   6.216
  798SOL    HW2 3294   5.299   0.974   6.119
  799SOL     OW 3295   6.911   3.026   2.956
  799SOL    HW1 3296   6.844   3.039   3.029
  799SOL    HW2 3297   6.936   3.115   2.917
  800SOL     OW 3298   6.411   1.215   2.137
  800SOL    HW1 3299   6.400   1.314   2.140
  800SOL    HW2 3300   6.405   1.184   2.042
  801SOL     OW 3301   0.362   2.476   3.188
  801SOL    HW1 3302   0.307   2.398   3.220
  801SOL    HW2 3303   0.318   2.561   3.216
  802SOL     OW 3304   5.399   0.966   0.787
  802SOL    HW1 3305   5.360   1.057   0.797
  802SOL    HW2 3306   5.345   0.901   0.841
  803SOL     OW 3307   6.339   6.752   4.858
  803SOL    HW1 3308   6.357   6.835   4.910
  803SOL    HW2 3309   6.374   6.672   4.908
  804SOL     OW 3310   0.467   6.694   0.321
  804SOL    HW1 3311   0.471   6.596   0.340
  804SOL    HW2 3312   0.404   6.737   0.385
  805SOL     OW 3313   2.920   3.122   6.313
  805SOL    HW1 3314   3.016   3.145   6.303
  805SOL    HW2 3315   2.884   3.088   6.226
  806SOL     OW 3316   5.230   0.931   0.379
  806SOL    HW1 3317   5.207   0.977   0.294
  806SOL    HW2 3318   5.149   0.928   0.438
  807SOL     OW 3319   1.449   0.080   3.408
  807SOL    HW1 3320   1.355   0.085   3.441
  807SOL    HW2 3321   1.459   0.000   3.348
  808SOL     OW 3322   5.333   3.196   5.935
  808SOL    HW1 3323   5.332   3.293   5.910
  808SOL    HW2 3324   5.258   3.149   5.888
  809SOL     OW 3325   0.063   4.212   6.658
  809SOL    HW1 3326   0.085   4.117   6.677
  809SOL    HW2 3327   0.143   4.269   6.676
  810SOL     OW 3328   5.778   4.098   0.245
  810SOL    HW1 3329   5.712   4.140   0.182
  810SOL    HW2 3330   5.869   4.134   0.226
  811SOL     OW 3331   5.099   5.088   3.824
  811SOL    HW1 3332   5.038   5.019   3.863
  811SOL    HW2 3333   5.179   5.044   3.784
  812SOL     OW 3334   0.181   6.800   1.753
  812SOL    HW1 3335   0.105   6.857   1.721
  812SOL    HW2 3336   0.145   6.726   1.810
  813SOL     OW 3337   5.135   5.532   2.661
  813SOL    HW1 3338   5.206   5.588   2.619
  813SOL    HW2 3339   5.156   5.435   2.646
  814SOL     OW 3340   6.056   6.305   1.930
  814SOL    HW1 3341   6.039   6.399   1.960
  814SOL    HW2 3342   6.038   6.242   2.006
  815SOL     OW 3343   6.756   2.161   0.997
  815SOL    HW1 3344   6.810   2.109   1.064
  815SOL    HW2 3345   6.659   2.143   1.012
  816SOL     OW 3346   6.627   6.481   0.902
  816SOL    HW1 3347   6.710   6.449   0.855
  816SOL    HW2 3348   6.557   6.500   0.834
  817SOL     OW 3349   1.711   2.852   2.562
  817SOL    HW1 3350   1.774   2.915   2.518
  817SOL    HW2 3351   1.636   2.904   2.604
  818SOL     OW 3352   6.313   1.314   1.251
  818SOL    HW1 3353   6.330   1.406   1.284
  818SOL    HW2 3354   6.350   1.304   1.159
  819SOL     OW 3355   6.646   3.416   3.921
  819SOL    HW1 3356   6.706   3.350   3.876
  819SOL    HW2 3357   6.572   3.367   3.968
  820SOL     OW 3358   1.124   3.302   4.852
  820SOL    HW1 3359   1.184   3.222   4.849
  820SOL    HW2 3360   1.178   3.385   4.855
  821SOL     OW 3361   1.049   3.282   6.778
  821SOL    HW1 3362   1.113   3.206   6.794
  821SOL    HW2 3363   0.968   3.270   6.835
  822SOL     OW 3364   1.467   4.039   4.514
  822SOL    HW1 3365   1.469   4.099   4.435
  822SOL    HW2 3366   1.432   3.949   4.487
  823SOL     OW 3367   3.853   4.251   0.123
  823SOL    HW1 3368   3.844   4.227   0.219
  823SOL    HW2 3369   3.906   4.181   0.075
  824SOL     OW 3370   5.225   2.450   5.721
  824SOL    HW1 3371   5.299   2.390   5.752
  824SOL    HW2 3372   5.146   2.395   5.696
  825SOL     OW 3373   2.221   4.132   2.362
  825SOL    HW1 3374   2.258   4.196   2.294
  825SOL    HW2 3375   2.156   4.071   2.319
  826SOL     OW 3376   6.774   4.014   6.428
  826SOL    HW1 3377   6.775   4.052   6.336
  826SOL    HW2 3378   6.759   4.088   6.494
  827SOL     OW 3379   3.403   6.181   0.153
  827SOL    HW1 3380   3.423   6.267   0.108
  827SOL    HW2 3381   3.403   6.107   0.086
  828SOL     OW 3382   5.689   0.521   5.683
  828SOL    HW1 3383   5.731   0.520   5.773
  828SOL    HW2 3384   5.696   0.614   5.644
  829SOL     OW 3385   3.273   3.031   4.464
  829SOL    HW1 3386   3.328   3.015   4.383
  829SOL    HW2 3387   3.182   3.064   4.438
  830SOL     OW 3388   4.531   4.211   5.260
  830SOL    HW1 3389   4.563   4.302   5.286
  830SOL    HW2 3390   4.435   4.200   5.285
  831SOL     OW 3391   6.542   1.414   5.033
  831SOL    HW1 3392   6.505   1.346   5.097
  831SOL    HW2 3393   6.467   1.458   4.983
  832SOL     OW 3394   2.192   1.693   6.036
  832SOL    HW1 3395   2.128   1.632   6.082
  832SOL    HW2 3396   2.214   1.770   6.095
  833SOL     OW 3397   6.520   6.873   6.122
  833SOL    HW1 3398   6.440   6.928   6.145
  833SOL    HW2 3399   6.556   6.831   6.206
  834SOL     OW 3400   2.929   3.744   4.584
  834SOL    HW1 3401   2.943   3.646   4.576
  834SOL    HW2 3402   2.832   3.762   4.602
  835SOL     OW 3403   3.527   6.625   3.340
  835SOL    HW1 3404   3.601   6.613   3.273
  835SOL    HW2 3405   3.556   6.689   3.411
  836SOL     OW 3406   2.695   0.851   0.388
  836SOL    HW1 3407   2.719   0.943   0.356
  836SOL    HW2 3408   2.778   0.796   0.397
  837SOL     OW 3409   5.215   1.073   5.989
  837SOL    HW1 3410   5.278   1.130   5.935
  837SOL    HW2 3411   5.126   1.068   5.943
  838SOL     OW 3412   2.042   5.403   3.495
  838SOL    HW1 3413   2.010   5.315   3.461
  838SOL    HW2 3414   2.099   5.447   3.425
  839SOL     OW 3415   2.869   1.962   2.853
  839SOL    HW1 3416   2.922   1.958   2.769
  839SOL    HW2 3417   2.899   1.889   2.915
  840SOL     OW 3418   1.183   1.388   6.912
  840SOL    HW1 3419   1.206   1.458   6.979
  840SOL    HW2 3420   1.189   1.426   6.820
  841SOL     OW 3421   0.850   3.274   6.944
  841SOL    HW1 3422   0.791   3.354   6.949
  841SOL    HW2 3423   0.828   3.212   7.020
  842SOL     OW 3424   3.587   5.036   3.141
  842SOL    HW1 3425   3.574   4.969   3.214
  842SOL    HW2 3426   3.684   5.040   3.117
  843SOL     OW 3427   6.499   2.006   2.087
  843SOL    HW1 3428   6.500   2.018   2.186
  843SOL    HW2 3429   6.411   2.035   2.051
  844SOL     OW 3430   5.038   5.828   0.560
  844SOL    HW1 3431   5.072   5.787   0.645
  844SOL    HW2 3432   4.991   5.913   0.581
  845SOL     OW 3433   0.791   4.918   5.241
  845SOL    HW1 3434   0.889   4.933   5.225
  845SOL    HW2 3435   0.739   4.953   5.163
  846SOL     OW 3436   6.388   1.482   6.727
  846SOL    HW1 3437   6.349   1.558   6.676
  846SOL    HW2 3438   6.484   1.501   6.749
  847SOL     OW 3439   4.980   3.375   2.376
  847SOL    HW1 3440   4.941   3.322   2.301
  847SOL    HW2 3441   5.005   3.466   2.342
  848SOL     OW 3442   5.921   0.969   5.572
  848SOL    HW1 3443   6.002   0.969   5.632
  848SOL    HW2 3444   5.851   0.910   5.611
  849SOL     OW 3445   0.615   5.343   4.554
  849SOL    HW1 3446   0.667   5.343   4.468
  849SOL    HW2 3447   0.602   5.437   4.586
  850SOL     OW 3448   3.877   0.723   2.588
  850SOL    HW1 3449   3.960   0.677   2.555
  850SOL    HW2 3450   3.802   0.706   2.524
  851SOL     OW 3451   1.317   0.347   6.703
  851SOL    HW1 3452   1.367   0.302   6.628
  851SOL    HW2 3453   1.383   0.381   6.770
  852SOL     OW 3454   1.892   3.879   6.531
  852SOL    HW1 3455   1.917   3.943   6.458
  852SOL    HW2 3456   1.910   3.785   6.500
  853SOL     OW 3457   1.514   4.097   1.746
  853SOL    HW1 3458   1.449   4.065   1.816
  853SOL    HW2 3459   1.534   4.194   1.761
  854SOL     OW 3460   5.281   5.208   1.853
  854SOL    HW1 3461   5.194   5.254   1.866
  854SOL    HW2 3462   5.295   5.190   1.755
  855SOL     OW 3463   4.925   0.175   1.685
  855SOL    HW1 3464   5.016   0.193   1.721
  855SOL    HW2 3465   4.926   0.090   1.632
  856SOL     OW 3466   1.768   6.807   5.328
  856SOL    HW1 3467   1.725   6.721   5.303
  856SOL    HW2 3468   1.868   6.796   5.329
  857SOL     OW 3469   6.463   3.388   2.016
  857SOL    HW1 3470   6.410   3.411   2.097
  857SOL    HW2 3471   6.440   3.451   1.942
  858SOL     OW 3472   3.294   4.450   1.139
  858SOL    HW1 3473   3.389   4.421   1.146
  858SOL    HW2 3474   3.234   4.375   1.170
  859SOL     OW 3475   6.487   4.784   0.033
  859SOL    HW1 3476   6.427   4.845   7.009
  859SOL    HW2 3477   6.582   4.813   0.022
  860SOL     OW 3478   2.053   5.098   1.163
  860SOL    HW1 3479   1.999   5.157   1.223
  860SOL    HW2 3480   2.139   5.143   1.141
  861SOL     OW 3481   3.493   5.652   5.465
  861SOL    HW1 3482   3.542   5.707   5.533
  861SOL    HW2 3483   3.558   5.595   5.415
  862SOL     OW 3484   4.584   4.437   4.414
  862SOL    HW1 3485   4.600   4.504   4.486
  862SOL    HW2 3486   4.633   4.352   4.436
  863SOL     OW 3487   6.086   1.146   1.215
  863SOL    HW1 3488   6.160   1.213   1.211
  863SOL    HW2 3489   6.124   1.054   1.200
  864SOL     OW 3490   5.924   4.074   3.011
  864SOL    HW1 3491   5.857   4.089   3.083
  864SOL    HW2 3492   5.920   4.149   2.945
  865SOL     OW 3493   1.821   6.724   4.419
  865SOL    HW1 3494   1.887   6.788   4.381
  865SOL    HW2 3495   1.748   6.774   4.466
  866SOL     OW 3496   3.127   2.037   1.863
  866SOL    HW1 3497   3.028   2.030   1.856
  866SOL    HW2 3498   3.170   1.966   1.807
  867SOL     OW 3499   1.929   2.968   6.288
  867SOL    HW1 3500   1.863   3.040   6.311
  867SOL    HW2 3501   1.954   2.976   6.191
  868SOL     OW 3502   5.307   2.670   3.233
  868SOL    HW1 3503   5.240   2.670   3.307
  868SOL    HW2 3504   5.346   2.761   3.223
  869SOL     OW 3505   6.647   5.035   2.919
  869SOL    HW1 3506   6.632   4.936   2.923
  869SOL    HW2 3507   6.698   5.064   2.999
  870SOL     OW 3508   6.933   1.393   1.040
  870SOL    HW1 3509   6.855   1.383   1.101
  870SOL    HW2 3510   6.910   1.456   0.966
  871SOL     OW 3511   6.182   3.085   1.026
  871SOL    HW1 3512   6.137   3.147   0.962
  871SOL    HW2 3513   6.263   3.046   0.984
  872SOL     OW 3514   5.722   2.153   3.405
  872SOL    HW1 3515   5.665   2.089   3.457
  872SOL    HW2 3516   5.718   2.129   3.307
  873SOL     OW 3517   4.509   6.723   5.430
  873SOL    HW1 3518   4.492   6.773   5.345
  873SOL    HW2 3519   4.584   6.767   5.480
  874SOL     OW 3520   0.573   3.218   5.702
  874SOL    HW1 3521   0.603   3.134   5.747
  874SOL    HW2 3522   0.544   3.285   5.771
  875SOL     OW 3523   6.306   4.615   6.840
  875SOL    HW1 3524   6.366   4.547   6.881
  875SOL    HW2 3525   6.331   4.629   6.744
  876SOL     OW 3526   0.779   3.308   2.336
  876SOL    HW1 3527   0.851   3.372   2.364
  876SOL    HW2 3528   0.708   3.305   2.407
  877SOL     OW 3529   5.869   5.689   0.659
  877SOL    HW1 3530   5.772   5.687   0.682
  877SOL    HW2 3531   5.901   5.596   0.640
  878SOL     OW 3532   3.248   4.870   0.298
  878SOL    HW1 3533   3.173   4.839   0.358
  878SOL    HW2 3534   3.325   4.900   0.354
  879SOL     OW 3535   4.766   2.517   1.873
  879SOL    HW1 3536   4.730   2.502   1.965
  879SOL    HW2 3537   4.718   2.594   1.831
  880SOL     OW 3538   4.001   5.199   0.791
  880SOL    HW1 3539   3.974   5.211   0.886
  880SOL    HW2 3540   3.922   5.210   0.732
  881SOL     OW 3541   4.261   5.327   5.092
  881SOL    HW1 3542   4.303   5.317   5.002
  881SOL    HW2 3543   4.333   5.327   5.162
  882SOL     OW 3544   1.228   0.942   4.804
  882SOL    HW1 3545   1.252   1.000   4.727
  882SOL    HW2 3546   1.155   0.985   4.858
  883SOL     OW 3547   3.110   5.089   6.304
  883SOL    HW1 3548   3.054   5.056   6.379
  883SOL    HW2 3549   3.055   5.145   6.242
  884SOL     OW 3550   4.427   3.755   1.335
  884SOL    HW1 3551   4.402   3.846   1.302
  884SOL    HW2 3552   4.507   3.762   1.394
  885SOL     OW 3553   4.472   6.253   0.147
  885SOL    HW1 3554   4.421   6.201   0.078
  885SOL    HW2 3555   4.422   6.337   0.169
  886SOL     OW 3556   4.517   1.540   6.125
  886SOL    HW1 3557   4.611   1.509   6.118
  886SOL    HW2 3558   4.485   1.570   6.035
  887SOL     OW 3559   4.611   0.739   6.419
  887SOL    HW1 3560   4.643   0.829   6.388
  887SOL    HW2 3561   4.613   0.736   6.519
  888SOL     OW 3562   6.712   6.088   3.390
  888SOL    HW1 3563   6.752   6.001   3.418
  888SOL    HW2 3564   6.772   6.163   3.418
  889SOL     OW 3565   0.542   6.885   4.525
  889SOL    HW1 3566   0.556   6.860   4.429
  889SOL    HW2 3567   0.565   6.807   4.583
  890SOL     OW 3568   2.617   4.625   2.097
  890SOL    HW1 3569   2.605   4.723   2.115
  890SOL    HW2 3570   2.703   4.610   2.048
  891SOL     OW 3571   5.434   3.293   6.777
  891SOL    HW1 3572   5.464   3.198   6.767
  891SOL    HW2 3573   5.504   3.354   6.739
  892SOL     OW 3574   2.427   4.869   1.577
  892SOL    HW1 3575   2.381   4.839   1.660
  892SOL    HW2 3576   2.504   4.808   1.557
  893SOL     OW 3577   1.737   0.287   0.221
  893SOL    HW1 3578   1.695   0.233   0.294
  893SOL    HW2 3579   1.696   0.378   0.219
  894SOL     OW 3580   0.795   5.879   3.762
  894SOL    HW1 3581   0.842   5.829   3.836
  894SOL    HW2 3582   0.841   5.861   3.675
  895SOL     OW 3583   2.113   6.638   5.143
  895SOL    HW1 3584   2.068   6.637   5.053
  895SOL    HW2 3585   2.121   6.544   5.176
  896SOL     OW 3586   5.398   6.758   3.012
  896SOL    HW1 3587   5.493   6.783   3.030
  896SOL    HW2 3588   5.393   6.707   2.925
  897SOL     OW 3589   5.423   2.553   6.091
  897SOL    HW1 3590   5.369   2.470   6.106
  897SOL    HW2 3591   5.364   2.633   6.096
  898SOL     OW 3592   5.933   6.427   4.103
  898SOL    HW1 3593   6.021   6.465   4.074
  898SOL    HW2 3594   5.886   6.387   4.025
  899SOL     OW 3595   0.457   4.883   6.162
  899SOL    HW1 3596   0.390   4.823   6.206
  899SOL    HW2 3597   0.411   4.961   6.121
  900SOL     OW 3598   0.840   5.832   3.478
  900SOL    HW1 3599   0.841   5.926   3.446
  900SOL    HW2 3600   0.768   5.781   3.430
  901SOL     OW 3601   6.220   2.473   3.301
  901SOL    HW1 3602   6.310   2.443   3.331
  901SOL    HW2 3603   6.156   2.472   3.378
  902SOL     OW 3604   0.023   6.098   0.043
  902SOL    HW1 3605   0.045   6.135   6.980
  902SOL    HW2 3606   0.052   6.162   0.114
  903SOL     OW 3607   1.289   4.768   0.418
  903SOL    HW1 3608   1.201   4.744   0.378
  903SOL    HW2 3609   1.316   4.697   0.484
  904SOL     OW 3610   2.008   1.389   3.335
  904SOL    HW1 3611   1.913   1.362   3.347
  904SOL    HW2 3612   2.039   1.440   3.415
  905SOL     OW 3613   5.344   2.182   5.210
  905SOL    HW1 3614   5.320   2.249   5.140
  905SOL    HW2 3615   5.267   2.121   5.225
  906SOL     OW 3616   6.113   4.246   5.392
  906SOL    HW1 3617   6.082   4.290   5.308
  906SOL    HW2 3618   6.195   4.193   5.373
  907SOL     OW 3619   6.673   3.415   1.622
  907SOL    HW1 3620   6.626   3.328   1.606
  907SOL    HW2 3621   6.637   3.485   1.560
  908SOL     OW 3622   1.893   0.594   3.688
  908SOL    HW1 3623   1.966   0.650   3.648
  908SOL    HW2 3624   1.905   0.589   3.787
  909SOL     OW 3625   3.574   1.163   1.627
  909SOL    HW1 3626   3.647   1.152   1.559
  909SOL    HW2 3627   3.569   1.259   1.654
  910SOL     OW 3628   2.100   1.868   1.050
  910SOL    HW1 3629   2.183   1.921   1.032
  910SOL    HW2 3630   2.021   1.929   1.054
  911SOL     OW 3631   0.346   4.174   1.151
  911SOL    HW1 3632   0.394   4.260   1.168
  911SOL    HW2 3633   0.301   4.143   1.234
  912SOL     OW 3634   1.032   0.229   5.596
  912SOL    HW1 3635   1.108   0.248   5.534
  912SOL    HW2 3636   1.059   0.250   5.690
  913SOL     OW 3637   2.905   1.403   1.940
  913SOL    HW1 3638   2.807   1.410   1.962
  913SOL    HW2 3639   2.915   1.377   1.844
  914SOL     OW 3640   3.480   6.428   2.871
  914SOL    HW1 3641   3.556   6.483   2.838
  914SOL    HW2 3642   3.451   6.365   2.798
  915SOL     OW 3643   0.545   2.635   0.029
  915SOL    HW1 3644   0.553   2.703   6.982
  915SOL    HW2 3645   0.634   2.593   0.045
  916SOL     OW 3646   2.148   3.189   3.028
  916SOL    HW1 3647   2.137   3.288   3.020
  916SOL    HW2 3648   2.060   3.144   3.016
  917SOL     OW 3649   3.321   2.286   6.926
  917SOL    HW1 3650   3.260   2.316   6.852
  917SOL    HW2 3651   3.312   2.187   6.939
  918SOL     OW 3652   0.937   0.614   5.988
  918SOL    HW1 3653   0.921   0.693   6.048
  918SOL    HW2 3654   0.858   0.601   5.928
  919SOL     OW 3655   2.358   6.139   1.764
  919SOL    HW1 3656   2.313   6.206   1.704
  919SOL    HW2 3657   2.384   6.059   1.710
  920SOL     OW 3658   2.206   0.372   3.877
  920SOL    HW1 3659   2.304   0.380   3.857
  920SOL    HW2 3660   2.182   0.436   3.950
  921SOL     OW 3661   5.501   4.801   5.800
  921SOL    HW1 3662   5.432   4.866   5.832
  921SOL    HW2 3663   5.580   4.852   5.765
  922SOL     OW 3664   2.132   3.791   6.719
  922SOL    HW1 3665   2.062   3.823   6.654
  922SOL    HW2 3666   2.093   3.788   6.811
  923SOL     OW 3667   3.899   0.438   6.681
  923SOL    HW1 3668   3.981   0.496   6.672
  923SOL    HW2 3669   3.884   0.388   6.596
  924SOL     OW 3670   5.971   3.466   3.089
  924SOL    HW1 3671   6.024   3.408   3.027
  924SOL    HW2 3672   5.990   3.440   3.184
  925SOL     OW 3673   6.641   1.869   3.086
  925SOL    HW1 3674   6.594   1.789   3.048
  925SOL    HW2 3675   6.702   1.840   3.160
  926SOL     OW 3676   5.395   6.124   0.826
  926SOL    HW1 3677   5.411   6.096   0.732
  926SOL    HW2 3678   5.326   6.197   0.828
  927SOL     OW 3679   3.967   5.205   5.373
  927SOL    HW1 3680   4.032   5.278   5.353
  927SOL    HW2 3681   3.908   5.232   5.449
  928SOL     OW 3682   0.480   1.220   1.419
  928SOL    HW1 3683   0.413   1.174   1.361
  928SOL    HW2 3684   0.550   1.154   1.447
  929SOL     OW 3685   1.063   2.683   2.679
  929SOL    HW1 3686   0.990   2.615   2.694
  929SOL    HW2 3687   1.087   2.684   2.582
  930SOL     OW 3688   4.706   6.235   3.384
  930SOL    HW1 3689   4.792   6.190   3.407
  930SOL    HW2 3690   4.714   6.280   3.295
  931SOL     OW 3691   1.499   2.975   1.914
  931SOL    HW1 3692   1.586   2.973   1.864
  931SOL    HW2 3693   1.475   3.069   1.935
  932SOL     OW 3694   4.517   6.392   1.275
  932SOL    HW1 3695   4.551   6.343   1.356
  932SOL    HW2 3696   4.531   6.490   1.288
  933SOL     OW 3697   2.005   6.169   3.010
  933SOL    HW1 3698   2.080   6.104   3.001
  933SOL    HW2 3699   1.919   6.119   3.022
  934SOL     OW 3700   3.209   1.390   5.425
  934SOL    HW1 3701   3.214   1.411   5.328
  934SOL    HW2 3702   3.207   1.475   5.478
  935SOL     OW 3703   2.942   3.307   6.692
  935SOL    HW1 3704   2.848   3.339   6.705
  935SOL    HW2 3705   2.940   3.220   6.642
  936SOL     OW 3706   0.286   1.588   1.396
  936SOL    HW1 3707   0.359   1.556   1.456
  936SOL    HW2 3708   0.314   1.673   1.351
  937SOL     OW 3709   4.771   2.227   3.925
  937SOL    HW1 3710   4.698   2.197   3.986
  937SOL    HW2 3711   4.762   2.181   3.837
  938SOL     OW 3712   6.976   2.397   0.067
  938SOL    HW1 3713   6.966   2.394   0.167
  938SOL    HW2 3714   7.022   2.482   0.041
  939SOL     OW 3715   6.108   1.049   5.768
  939SOL    HW1 3716   6.176   1.098   5.822
  939SOL    HW2 3717   6.019   1.095   5.777
  940SOL     OW 3718   0.559   0.903   4.388
  940SOL    HW1 3719   0.574   0.873   4.482
  940SOL    HW2 3720   0.551   0.824   4.328
  941SOL     OW 3721   5.459   2.746   4.823
  941SOL    HW1 3722   5.495   2.747   4.917
  941SOL    HW2 3723   5.467   2.653   4.786
  942SOL     OW 3724   5.578   0.149   5.037
  942SOL    HW1 3725   5.564   0.220   5.105
  942SOL    HW2 3726   5.507   0.155   4.967
  943SOL     OW 3727   5.344   1.786   0.660
  943SOL    HW1 3728   5.411   1.729   0.708
  943SOL    HW2 3729   5.392   1.859   0.610
  944SOL     OW 3730   6.581   4.003   4.957
  944SOL    HW1 3731   6.547   4.076   5.016
  944SOL    HW2 3732   6.507   3.939   4.935
  945SOL     OW 3733   5.535   4.054   4.933
  945SOL    HW1 3734   5.437   4.072   4.941
  945SOL    HW2 3735   5.569   4.013   5.018
  946SOL     OW 3736   5.569   2.568   5.739
  946SOL    HW1 3737   5.530   2.509   5.809
  946SOL    HW2 3738   5.591   2.513   5.658
  947SOL     OW 3739   1.905   3.215   5.595
  947SOL    HW1 3740   1.855   3.289   5.551
  947SOL    HW2 3741   2.003   3.229   5.582
  948SOL     OW 3742   3.620   1.984   0.024
  948SOL    HW1 3743   3.670   2.055   0.074
  948SOL    HW2 3744   3.546   1.949   0.082
  949SOL     OW 3745   5.175   5.898   6.261
  949SOL    HW1 3746   5.246   5.961   6.292
  949SOL    HW2 3747   5.116   5.942   6.194
  950SOL     OW 3748   3.780   5.448   1.676
  950SOL    HW1 3749   3.877   5.442   1.700
  950SOL    HW2 3750   3.770   5.498   1.590
  951SOL     OW 3751   1.309   2.109   3.007
  951SOL    HW1 3752   1.373   2.156   3.068
  951SOL    HW2 3753   1.222   2.157   3.006
  952SOL     OW 3754   5.018   1.982   2.058
  952SOL    HW1 3755   5.106   1.984   2.010
  952SOL    HW2 3756   4.950   2.031   2.003
  953SOL     OW 3757   3.969   0.107   6.551
  953SOL    HW1 3758   4.011   0.017   6.546
  953SOL    HW2 3759   3.892   0.112   6.488
  954SOL     OW 3760   6.434   6.132   0.593
  954SOL    HW1 3761   6.367   6.074   0.640
  954SOL    HW2 3762   6.507   6.075   0.556
  955SOL     OW 3763   7.002   0.032   2.876
  955SOL    HW1 3764   0.012   6.967   2.881
  955SOL    HW2 3765   6.911   0.034   2.919
  956SOL     OW 3766   0.534   2.318   0.886
  956SOL    HW1 3767   0.447   2.343   0.844
  956SOL    HW2 3768   0.518   2.261   0.966
  957SOL     OW 3769   2.679   6.380   5.159
  957SOL    HW1 3770   2.650   6.450   5.224
  957SOL    HW2 3771   2.775   6.394   5.135
  958SOL     OW 3772   5.126   2.443   0.300
  958SOL    HW1 3773   5.105   2.428   0.397
  958SOL    HW2 3774   5.166   2.360   0.261
  959SOL     OW 3775   1.384   4.448   2.731
  959SOL    HW1 3776   1.330   4.394   2.796
  959SOL    HW2 3777   1.461   4.392   2.698
  960SOL     OW 3778   1.695   5.367   5.422
  960SOL    HW1 3779   1.654   5.276   5.428
  960SOL    HW2 3780   1.772   5.372   5.485
  961SOL     OW 3781   3.953   6.762   1.796
  961SOL    HW1 3782   4.018   6.826   1.837
  961SOL    HW2 3783   3.860   6.799   1.806
  962SOL     OW 3784   1.601   6.860   4.492
  962SOL    HW1 3785   1.573   6.846   4.397
  962SOL    HW2 3786   1.639   6.952   4.502
  963SOL     OW 3787   6.276   0.127   1.118
  963SOL    HW1 3788   6.219   0.086   1.047
  963SOL    HW2 3789   6.221   0.143   1.200
  964SOL     OW 3790   5.180   4.321   1.559
  964SOL    HW1 3791   5.245   4.288   1.489
  964SOL    HW2 3792   5.159   4.246   1.622
  965SOL     OW 3793   0.478   2.111   1.072
  965SOL    HW1 3794   0.435   2.044   1.012
  965SOL    HW2 3795   0.529   2.064   1.144
  966SOL     OW 3796   0.300   1.760   1.796
  966SOL    HW1 3797   0.368   1.822   1.757
  966SOL    HW2 3798   0.240   1.726   1.723
  967SOL     OW 3799   0.686   5.909   2.350
  967SOL    HW1 3800   0.723   5.860   2.271
  967SOL    HW2 3801   0.710   6.006   2.343
  968SOL     OW 3802   5.781   3.468   2.568
  968SOL    HW1 3803   5.683   3.459   2.551
  968SOL    HW2 3804   5.809   3.402   2.637
  969SOL     OW 3805   4.492   5.997   5.713
  969SOL    HW1 3806   4.579   5.950   5.731
  969SOL    HW2 3807   4.435   5.940   5.653
  970SOL     OW 3808   4.493   2.270   5.216
  970SOL    HW1 3809   4.462   2.183   5.255
  970SOL    HW2 3810   4.590   2.263   5.192
  971SOL     OW 3811   6.817   1.960   1.799
  971SOL    HW1 3812   6.853   2.022   1.869
  971SOL    HW2 3813   6.721   1.942   1.816
  972SOL     OW 3814   6.904   5.171   0.961
  972SOL    HW1 3815   6.843   5.196   1.036
  972SOL    HW2 3816   6.999   5.193   0.985
  973SOL     OW 3817   5.752   4.022   5.768
  973SOL    HW1 3818   5.829   4.066   5.816
  973SOL    HW2 3819   5.777   4.008   5.672
  974SOL     OW 3820   2.854   1.421   4.040
  974SOL    HW1 3821   2.841   1.477   4.122
  974SOL    HW2 3822   2.798   1.458   3.966
  975SOL     OW 3823   3.541   6.924   5.779
  975SOL    HW1 3824   3.542   6.854   5.708
  975SOL    HW2 3825   3.554   6.881   5.869
  976SOL     OW 3826   0.278   4.957   4.051
  976SOL    HW1 3827   0.324   4.873   4.024
  976SOL    HW2 3828   0.338   5.035   4.032
  977SOL     OW 3829   1.576   1.119   3.806
  977SOL    HW1 3830   1.478   1.134   3.814
  977SOL    HW2 3831   1.619   1.200   3.767
  978SOL     OW 3832   6.067   3.370   4.676
  978SOL    HW1 3833   6.045   3.428   4.755
  978SOL    HW2 3834   6.013   3.286   4.680
  979SOL     OW 3835   5.859   0.802   3.258
  979SOL    HW1 3836   5.882   0.861   3.181
  979SOL    HW2 3837   5.935   0.802   3.323
  980SOL     OW 3838   6.021   1.004   5.034
  980SOL    HW1 3839   5.987   0.928   4.979
  980SOL    HW2 3840   6.116   1.023   5.008
  981SOL     OW 3841   0.073   2.719   5.877
  981SOL    HW1 3842   0.163   2.727   5.920
  981SOL    HW2 3843   0.043   2.808   5.844
  982SOL     OW 3844   1.556   2.844   1.331
  982SOL    HW1 3845   1.649   2.872   1.353
  982SOL    HW2 3846   1.552   2.810   1.237
  983SOL     OW 3847   5.717   1.197   2.984
  983SOL    HW1 3848   5.692   1.227   2.892
  983SOL    HW2 3849   5.804   1.238   3.010
  984SOL     OW 3850   4.896   0.952   4.257
  984SOL    HW1 3851   4.871   0.883   4.325
  984SOL    HW2 3852   4.932   0.907   4.175
  985SOL     OW 3853   3.049   5.567   0.064
  985SOL    HW1 3854   2.957   5.607   0.075
  985SOL    HW2 3855   3.049   5.474   0.098
  986SOL     OW 3856   4.664   5.190   6.222
  986SOL    HW1 3857   4.565   5.179   6.222
  986SOL    HW2 3858   4.689   5.271   6.170
  987SOL     OW 3859   3.870   0.114   2.782
  987SOL    HW1 3860   3.841   0.020   2.802
  987SOL    HW2 3861   3.822   0.147   2.701
  988SOL     OW 3862   3.356   4.000   1.739
  988SOL    HW1 3863   3.374   3.941   1.818
  988SOL    HW2 3864   3.336   4.092   1.771
  989SOL     OW 3865   0.608   6.779   5.593
  989SOL    HW1 3866   0.586   6.682   5.580
  989SOL    HW2 3867   0.704   6.789   5.618
  990SOL     OW 3868   4.573   6.455   3.477
  990SOL    HW1 3869   4.626   6.388   3.425
  990SOL    HW2 3870   4.484   6.415   3.501
  991SOL     OW 3871   6.245   1.859   5.181
  991SOL    HW1 3872   6.291   1.926   5.124
  991SOL    HW2 3873   6.247   1.889   5.276
  992SOL     OW 3874   0.772   3.303   0.956
  992SOL    HW1 3875   0.694   3.284   1.015
  992SOL    HW2 3876   0.764   3.251   0.871
  993SOL     OW 3877   3.332   5.258   3.511
  993SOL    HW1 3878   3.283   5.339   3.479
  993SOL    HW2 3879   3.266   5.189   3.541
  994SOL     OW 3880   2.992   3.545   2.795
  994SOL    HW1 3881   2.952   3.540   2.887
  994SOL    HW2 3882   2.995   3.454   2.755
  995SOL     OW 3883   0.840   1.304   4.889
  995SOL    HW1 3884   0.893   1.388   4.893
  995SOL    HW2 3885   0.901   1.225   4.895
  996SOL     OW 3886   1.536   3.658   2.737
  996SOL    HW1 3887   1.462   3.630   2.798
  996SOL    HW2 3888   1.496   3.693   2.651
  997SOL     OW 3889   6.476   1.063   1.475
  997SOL    HW1 3890   6.384   1.083   1.443
  997SOL    HW2 3891   6.524   1.148   1.495
  998SOL     OW 3892   5.140   6.826   2.981
  998SOL    HW1 3893   5.147   6.841   2.883
  998SOL    HW2 3894   5.232   6.823   3.021
  999SOL     OW 3895   0.471   4.970   1.393
  999SOL    HW1 3896   0.471   4.986   1.491
  999SOL    HW2 3897   0.522   4.887   1.371
 1000SOL     OW 3898   3.787   1.715   3.839
 1000SOL    HW1 3899   3.692   1.712   3.871
 1000SOL    HW2 3900   3.824   1.622   3.839
 1001SOL     OW 3901   4.838   0.565   5.457
 1001SOL    HW1 3902   4.796   0.476   5.472
 1001SOL    HW2 3903   4.934   0.553   5.433
 1002SOL     OW 3904   6.397   1.547   1.368
 1002SOL    HW1 3905   6.458   1.598   1.307
 1002SOL    HW2 3906   6.429   1.556   1.462
 1003SOL     OW 3907   4.274   5.461   2.518
 1003SOL    HW1 3908   4.330   5.528   2.565
 1003SOL    HW2 3909   4.185   5.455   2.562
 1004SOL     OW 3910   6.010   6.048   6.949
 1004SOL    HW1 3911   6.099   6.053   6.903
 1004SOL    HW2 3912   6.020   6.079   0.016
 1005SOL     OW 3913   0.049   6.656   3.517
 1005SOL    HW1 3914   0.078   6.751   3.528
 1005SOL    HW2 3915   0.052   6.632   3.420
 1006SOL     OW 3916   2.149   4.877   1.012
 1006SOL    HW1 3917   2.123   4.905   1.104
 1006SOL    HW2 3918   2.245   4.851   1.011
 1007SOL     OW 3919   0.228   1.175   3.615
 1007SOL    HW1 3920   0.158   1.110   3.645
 1007SOL    HW2 3921   0.240   1.167   3.516
 1008SOL     OW 3922   1.966   3.246   3.522
 1008SOL    HW1 3923   2.044   3.308   3.534
 1008SOL    HW2 3924   1.936   3.248   3.427
 1009SOL     OW 3925   1.447   6.175   5.296
 1009SOL    HW1 3926   1.374   6.239   5.321
 1009SOL    HW2 3927   1.527   6.226   5.264
 1010SOL     OW 3928   4.828   1.565   0.375
 1010SOL    HW1 3929   4.832   1.587   0.473
 1010SOL    HW2 3930   4.843   1.648   0.322
 1011SOL     OW 3931   3.346   6.335   3.098
 1011SOL    HW1 3932   3.373   6.358   3.192
 1011SOL    HW2 3933   3.418   6.364   3.035
 1012SOL     OW 3934   4.579   5.643   6.864
 1012SOL    HW1 3935   4.672   5.649   6.900
 1012SOL    HW2 3936   4.582   5.635   6.765
 1013SOL     OW 3937   0.664   1.014   1.487
 1013SOL    HW1 3938   0.624   0.923   1.490
 1013SOL    HW2 3939   0.760   1.009   1.514
 1014SOL     OW 3940   4.581   0.368   5.831
 1014SOL    HW1 3941   4.533   0.357   5.744
 1014SOL    HW2 3942   4.660   0.307   5.834
 1015SOL     OW 3943   3.381   6.093   3.916
 1015SOL    HW1 3944   3.300   6.144   3.888
 1015SOL    HW2 3945   3.353   6.009   3.963
 1016SOL     OW 3946   4.154   2.719   1.396
 1016SOL    HW1 3947   4.237   2.712   1.452
 1016SOL    HW2 3948   4.102   2.634   1.404
 1017SOL     OW 3949   4.126   1.713   6.418
 1017SOL    HW1 3950   4.082   1.732   6.506
 1017SOL    HW2 3951   4.221   1.744   6.422
 1018SOL     OW 3952   1.854   3.482   3.150
 1018SOL    HW1 3953   1.943   3.459   3.110
 1018SOL    HW2 3954   1.861   3.569   3.199
 1019SOL     OW 3955   6.149   1.181   0.420
 1019SOL    HW1 3956   6.236   1.165   0.465
 1019SOL    HW2 3957   6.077   1.130   0.467
 1020SOL     OW 3958   2.772   1.709   1.678
 1020SOL    HW1 3959   2.780   1.806   1.653
 1020SOL    HW2 3960   2.758   1.701   1.777
 1021SOL     OW 3961   6.695   1.207   1.048
 1021SOL    HW1 3962   6.709   1.271   1.123
 1021SOL    HW2 3963   6.701   1.255   0.961
 1022SOL     OW 3964   4.042   3.401   6.759
 1022SOL    HW1 3965   4.127   3.363   6.723
 1022SOL    HW2 3966   4.002   3.463   6.692
 1023SOL     OW 3967   5.482   1.073   2.835
 1023SOL    HW1 3968   5.579   1.098   2.834
 1023SOL    HW2 3969   5.440   1.106   2.919
 1024SOL     OW 3970   6.818   1.233   3.290
 1024SOL    HW1 3971   6.718   1.233   3.289
 1024SOL    HW2 3972   6.851   1.192   3.375
 1025SOL     OW 3973   2.915   4.787   1.069
 1025SOL    HW1 3974   2.907   4.744   0.979
 1025SOL    HW2 3975   2.824   4.807   1.105
 1026SOL     OW 3976   1.059   2.493   0.441
 1026SOL    HW1 3977   1.141   2.449   0.476
 1026SOL    HW2 3978   1.078   2.530   0.349
 1027SOL     OW 3979   2.600   4.616   2.469
 1027SOL    HW1 3980   2.610   4.598   2.567
 1027SOL    HW2 3981   2.682   4.663   2.436
 1028SOL     OW 3982   1.492   6.740   0.626
 1028SOL    HW1 3983   1.539   6.655   0.648
 1028SOL    HW2 3984   1.433   6.726   0.547
 1029SOL     OW 3985   2.728   0.636   6.224
 1029SOL    HW1 3986   2.655   0.664   6.286
 1029SOL    HW2 3987   2.783   0.716   6.200
 1030SOL     OW 3988   3.927   3.901   5.048
 1030SOL    HW1 3989   3.908   3.947   4.961
 1030SOL    HW2 3990   3.849   3.913   5.110
 1031SOL     OW 3991   2.093   5.834   1.560
 1031SOL    HW1 3992   2.168   5.898   1.575
 1031SOL    HW2 3993   2.053   5.849   1.470
 1032SOL     OW 3994   1.937   0.660   4.208
 1032SOL    HW1 3995   1.951   0.569   4.247
 1032SOL    HW2 3996   1.908   0.723   4.280
 1033SOL     OW 3997   2.529   5.948   2.791
 1033SOL    HW1 3998   2.611   5.928   2.845
 1033SOL    HW2 3999   2.534   5.900   2.704
 1034SOL     OW 4000   1.313   4.789   4.067
 1034SOL    HW1 4001   1.389   4.759   4.125
 1034SOL    HW2 4002   1.226   4.766   4.111
 1035SOL     OW 4003   2.111   1.440   4.621
 1035SOL    HW1 4004   2.118   1.488   4.708
 1035SOL    HW2 4005   2.028   1.384   4.621
 1036SOL     OW 4006   4.712   2.031   0.373
 1036SOL    HW1 4007   4.624   2.072   0.347
 1036SOL    HW2 4008   4.717   1.937   0.339
 1037SOL     OW 4009   2.120   2.082   6.685
 1037SOL    HW1 4010   2.037   2.137   6.694
 1037SOL    HW2 4011   2.110   2.016   6.610
 1038SOL     OW 4012   2.124   0.936   4.871
 1038SOL    HW1 4013   2.085   0.864   4.814
 1038SOL    HW2 4014   2.203   0.976   4.826
 1039SOL     OW 4015   3.852   1.709   3.564
 1039SOL    HW1 4016   3.827   1.707   3.661
 1039SOL    HW2 4017   3.864   1.615   3.532
 1040SOL     OW 4018   6.399   4.210   3.303
 1040SOL    HW1 4019   6.389   4.187   3.206
 1040SOL    HW2 4020   6.327   4.164   3.355
 1041SOL     OW 4021   1.043   0.348   4.427
 1041SOL    HW1 4022   1.069   0.271   4.368
 1041SOL    HW2 4023   0.959   0.390   4.393
 1042SOL     OW 4024   5.471   4.538   0.750
 1042SOL    HW1 4025   5.467   4.482   0.668
 1042SOL    HW2 4026   5.381   4.541   0.793
 1043SOL     OW 4027   3.423   1.077   6.391
 1043SOL    HW1 4028   3.385   1.140   6.323
 1043SOL    HW2 4029   3.499   1.027   6.350
 1044SOL     OW 4030   4.219   3.272   1.794
 1044SOL    HW1 4031   4.223   3.372   1.792
 1044SOL    HW2 4032   4.209   3.241   1.889
 1045SOL     OW 4033   3.091   1.591   3.144
 1045SOL    HW1 4034   3.034   1.520   3.186
 1045SOL    HW2 4035   3.169   1.611   3.204
 1046SOL     OW 4036   4.098   0.593   1.778
 1046SOL    HW1 4037   4.099   0.627   1.873
 1046SOL    HW2 4038   4.179   0.627   1.730
 1047SOL     OW 4039   1.032   4.857   2.292
 1047SOL    HW1 4040   1.014   4.861   2.391
 1047SOL    HW2 4041   0.946   4.855   2.242
 1048SOL     OW 4042   5.173   4.379   5.617
 1048SOL    HW1 4043   5.223   4.310   5.566
 1048SOL    HW2 4044   5.236   4.447   5.653
 1049SOL     OW 4045   0.381   3.403   4.740
 1049SOL    HW1 4046   0.403   3.496   4.709
 1049SOL    HW2 4047   0.457   3.342   4.716
 1050SOL     OW 4048   2.839   0.587   6.890
 1050SOL    HW1 4049   2.892   0.546   6.816
 1050SOL    HW2 4050   2.884   0.568   6.977
 1051SOL     OW 4051   4.512   4.381   1.559
 1051SOL    HW1 4052   4.525   4.381   1.460
 1051SOL    HW2 4053   4.494   4.288   1.590
 1052SOL     OW 4054   3.417   0.159   4.555
 1052SOL    HW1 4055   3.453   0.246   4.588
 1052SOL    HW2 4056   3.426   0.156   4.455
 1053SOL     OW 4057   4.214   4.716   3.727
 1053SOL    HW1 4058   4.295   4.667   3.696
 1053SOL    HW2 4059   4.232   4.761   3.814
 1054SOL     OW 4060   3.775   6.045   4.426
 1054SOL    HW1 4061   3.764   5.951   4.460
 1054SOL    HW2 4062   3.783   6.107   4.504
 1055SOL     OW 4063   4.570   5.236   4.815
 1055SOL    HW1 4064   4.633   5.269   4.885
 1055SOL    HW2 4065   4.616   5.236   4.726
 1056SOL     OW 4066   1.296   6.665   5.361
 1056SOL    HW1 4067   1.291   6.653   5.262
 1056SOL    HW2 4068   1.204   6.666   5.400
 1057SOL     OW 4069   3.478   4.188   2.022
 1057SOL    HW1 4070   3.540   4.199   1.945
 1057SOL    HW2 4071   3.407   4.258   2.018
 1058SOL     OW 4072   3.973   1.154   1.625
 1058SOL    HW1 4073   4.053   1.142   1.567
 1058SOL    HW2 4074   3.899   1.095   1.593
 1059SOL     OW 4075   3.415   1.616   0.887
 1059SOL    HW1 4076   3.332   1.560   0.885
 1059SOL    HW2 4077   3.400   1.697   0.943
 1060SOL     OW 4078   2.665   2.301   5.268
 1060SOL    HW1 4079   2.643   2.236   5.195
 1060SOL    HW2 4080   2.581   2.341   5.304
 1061SOL     OW 4081   3.107   5.822   1.673
 1061SOL    HW1 4082   3.151   5.897   1.722
 1061SOL    HW2 4083   3.066   5.856   1.589
 1062SOL     OW 4084   5.627   5.129   4.637
 1062SOL    HW1 4085   5.556   5.085   4.581
 1062SOL    HW2 4086   5.615   5.101   4.733
 1063SOL     OW 4087   2.043   2.650   6.613
 1063SOL    HW1 4088   2.037   2.728   6.676
 1063SOL    HW2 4089   1.972   2.659   6.543
 1064SOL     OW 4090   6.952   2.857   1.465
 1064SOL    HW1 4091   7.003   2.801   1.531
 1064SOL    HW2 4092   6.872   2.897   1.510
 1065SOL     OW 4093   6.250   6.193   5.073
 1065SOL    HW1 4094   6.227   6.272   5.015
 1065SOL    HW2 4095   6.342   6.161   5.050
 1066SOL     OW 4096   3.683   0.437   3.355
 1066SOL    HW1 4097   3.704   0.517   3.411
 1066SOL    HW2 4098   3.606   0.458   3.294
 1067SOL     OW 4099   1.724   3.100   1.093
 1067SOL    HW1 4100   1.633   3.103   1.133
 1067SOL    HW2 4101   1.740   3.011   1.052
 1068SOL     OW 4102   0.794   3.383   1.931
 1068SOL    HW1 4103   0.851   3.432   1.998
 1068SOL    HW2 4104   0.721   3.335   1.979
 1069SOL     OW 4105   3.743   3.729   1.731
 1069SOL    HW1 4106   3.683   3.712   1.809
 1069SOL    HW2 4107   3.808   3.653   1.722
 1070SOL     OW 4108   2.122   0.903   6.795
 1070SOL    HW1 4109   2.121   0.915   6.894
 1070SOL    HW2 4110   2.061   0.970   6.753
 1071SOL     OW 4111   3.810   6.606   3.402
 1071SOL    HW1 4112   3.784   6.678   3.337
 1071SOL    HW2 4113   3.856   6.648   3.481
 1072SOL     OW 4114   3.860   5.850   2.854
 1072SOL    HW1 4115   3.795   5.814   2.921
 1072SOL    HW2 4116   3.953   5.828   2.883
 1073SOL     OW 4117   2.487   4.678   2.809
 1073SOL    HW1 4118   2.580   4.652   2.784
 1073SOL    HW2 4119   2.455   4.621   2.885
 1074SOL     OW 4120   1.386   5.501   2.117
 1074SOL    HW1 4121   1.320   5.506   2.192
 1074SOL    HW2 4122   1.357   5.562   2.044
 1075SOL     OW 4123   0.114   4.289   3.709
 1075SOL    HW1 4124   0.207   4.326   3.704
 1075SOL    HW2 4125   0.071   4.297   3.619
 1076SOL     OW 4126   0.430   4.976   3.575
 1076SOL    HW1 4127   0.522   4.945   3.549
 1076SOL    HW2 4128   0.407   5.058   3.523
 1077SOL     OW 4129   4.841   0.300   0.596
 1077SOL    HW1 4130   4.799   0.341   0.677
 1077SOL    HW2 4131   4.926   0.349   0.574
 1078SOL     OW 4132   0.457   1.979   1.364
 1078SOL    HW1 4133   0.484   1.901   1.307
 1078SOL    HW2 4134   0.515   1.983   1.445
 1079SOL     OW 4135   2.479   5.703   3.187
 1079SOL    HW1 4136   2.563   5.668   3.146
 1079SOL    HW2 4137   2.474   5.674   3.282
 1080SOL     OW 4138   1.832   5.199   4.640
 1080SOL    HW1 4139   1.896   5.164   4.709
 1080SOL    HW2 4140   1.751   5.141   4.638
 1081SOL     OW 4141   1.415   0.945   6.773
 1081SOL    HW1 4142   1.409   1.007   6.851
 1081SOL    HW2 4143   1.323   0.910   6.752
 1082SOL     OW 4144   2.365   0.014   6.420
 1082SOL    HW1 4145   2.268   0.017   6.444
 1082SOL    HW2 4146   2.409   0.100   6.445
 1083SOL     OW 4147   3.880   3.136   1.465
 1083SOL    HW1 4148   3.783   3.111   1.463
 1083SOL    HW2 4149   3.929   3.083   1.396
 1084SOL     OW 4150   6.340   3.684   0.747
 1084SOL    HW1 4151   6.353   3.781   0.770
 1084SOL    HW2 4152   6.316   3.633   0.829
 1085SOL     OW 4153   2.164   3.906   3.969
 1085SOL    HW1 4154   2.165   3.890   4.067
 1085SOL    HW2 4155   2.128   3.825   3.922
 1086SOL     OW 4156   4.073   5.006   2.041
 1086SOL    HW1 4157   3.976   4.985   2.034
 1086SOL    HW2 4158   4.089   5.063   2.122
 1087SOL     OW 4159   4.332   3.080   5.338
 1087SOL    HW1 4160   4.281   3.000   5.310
 1087SOL    HW2 4161   4.271   3.146   5.382
 1088SOL     OW 4162   5.186   3.797   3.311
 1088SOL    HW1 4163   5.282   3.814   3.290
 1088SOL    HW2 4164   5.141   3.755   3.232
 1089SOL     OW 4165   6.404   0.258   3.539
 1089SOL    HW1 4166   6.491   0.308   3.542
 1089SOL    HW2 4167   6.350   0.279   3.620
 1090SOL     OW 4168   0.284   1.989   5.592
 1090SOL    HW1 4169   0.343   1.973   5.513
 1090SOL    HW2 4170   0.269   2.087   5.603
 1091SOL     OW 4171   1.182   1.734   4.868
 1091SOL    HW1 4172   1.119   1.657   4.860
 1091SOL    HW2 4173   1.171   1.777   4.958
 1092SOL     OW 4174   2.139   4.596   1.374
 1092SOL    HW1 4175   2.128   4.695   1.379
 1092SOL    HW2 4176   2.228   4.574   1.333
 1093SOL     OW 4177   0.931   1.753   2.103
 1093SOL    HW1 4178   0.939   1.667   2.153
 1093SOL    HW2 4179   0.856   1.807   2.141
 1094SOL     OW 4180   0.645   6.446   1.788
 1094SOL    HW1 4181   0.691   6.378   1.733
 1094SOL    HW2 4182   0.546   6.434   1.781
 1095SOL     OW 4183   6.051   3.744   6.489
 1095SOL    HW1 4184   6.124   3.772   6.427
 1095SOL    HW2 4185   5.984   3.818   6.496
 1096SOL     OW 4186   3.534   4.242   1.723
 1096SOL    HW1 4187   3.554   4.149   1.691
 1096SOL    HW2 4188   3.448   4.273   1.683
 1097SOL     OW 4189   1.755   4.853   5.308
 1097SOL    HW1 4190   1.789   4.932   5.359
 1097SOL    HW2 4191   1.655   4.847   5.320
 1098SOL     OW 4192   4.407   1.515   2.929
 1098SOL    HW1 4193   4.407   1.415   2.932
 1098SOL    HW2 4194   4.501   1.549   2.923
 1099SOL     OW 4195   3.681   1.804   2.747
 1099SOL    HW1 4196   3.649   1.862   2.672
 1099SOL    HW2 4197   3.631   1.828   2.831
 1100SOL     OW 4198   1.051   0.610   0.404
 1100SOL    HW1 4199   1.024   0.518   0.375
 1100SOL    HW2 4200   1.062   0.668   0.323
 1101SOL     OW 4201   5.300   2.812   0.703
 1101SOL    HW1 4202   5.272   2.721   0.733
 1101SOL    HW2 4203   5.392   2.808   0.665
 1102SOL     OW 4204   0.591   5.091   3.275
 1102SOL    HW1 4205   0.632   5.079   3.185
 1102SOL    HW2 4206   0.531   5.171   3.273
 1103SOL     OW 4207   0.577   2.913   1.255
 1103SOL    HW1 4208   0.511   2.885   1.324
 1103SOL    HW2 4209   0.612   3.005   1.277
 1104SOL     OW 4210   2.784   4.765   5.933
 1104SOL    HW1 4211   2.815   4.671   5.924
 1104SOL    HW2 4212   2.752   4.798   5.843
 1105SOL     OW 4213   4.527   5.797   0.169
 1105SOL    HW1 4214   4.606   5.778   0.227
 1105SOL    HW2 4215   4.490   5.711   0.135
 1106SOL     OW 4216   0.281   2.043   6.398
 1106SOL    HW1 4217   0.229   2.035   6.313
 1106SOL    HW2 4218   0.240   1.984   6.467
 1107SOL     OW 4219   1.611   0.645   1.027
 1107SOL    HW1 4220   1.632   0.635   1.125
 1107SOL    HW2 4221   1.540   0.579   1.002
 1108SOL     OW 4222   0.859   2.107   5.526
 1108SOL    HW1 4223   0.917   2.027   5.538
 1108SOL    HW2 4224   0.855   2.159   5.611
 1109SOL     OW 4225   5.322   0.852   4.177
 1109SOL    HW1 4226   5.296   0.871   4.271
 1109SOL    HW2 4227   5.304   0.933   4.120
 1110SOL     OW 4228   3.700   3.239   2.279
 1110SOL    HW1 4229   3.637   3.211   2.351
 1110SOL    HW2 4230   3.754   3.161   2.250
 1111SOL     OW 4231   5.742   6.529   0.128
 1111SOL    HW1 4232   5.805   6.605   0.143
 1111SOL    HW2 4233   5.780   6.446   0.167
 1112SOL     OW 4234   5.943   0.631   2.664
 1112SOL    HW1 4235   6.009   0.576   2.714
 1112SOL    HW2 4236   5.986   0.716   2.634
 1113SOL     OW 4237   6.356   3.804   2.032
 1113SOL    HW1 4238   6.395   3.794   2.124
 1113SOL    HW2 4239   6.271   3.752   2.026
 1114SOL     OW 4240   5.102   1.620   4.971
 1114SOL    HW1 4241   5.004   1.601   4.967
 1114SOL    HW2 4242   5.137   1.639   4.879
 1115SOL     OW 4243   2.531   3.063   0.793
 1115SOL    HW1 4244   2.499   3.119   0.717
 1115SOL    HW2 4245   2.454   3.014   0.834
 1116SOL     OW 4246   4.565   6.305   4.623
 1116SOL    HW1 4247   4.599   6.212   4.637
 1116SOL    HW2 4248   4.553   6.323   4.526
 1117SOL     OW 4249   2.548   3.391   0.936
 1117SOL    HW1 4250   2.465   3.354   0.978
 1117SOL    HW2 4251   2.572   3.336   0.856
 1118SOL     OW 4252   2.146   3.692   3.572
 1118SOL    HW1 4253   2.158   3.788   3.547
 1118SOL    HW2 4254   2.116   3.686   3.667
 1119SOL     OW 4255   3.573   4.139   2.289
 1119SOL    HW1 4256   3.569   4.234   2.319
 1119SOL    HW2 4257   3.562   4.135   2.190
 1120SOL     OW 4258   4.639   0.529   4.092
 1120SOL    HW1 4259   4.570   0.485   4.149
 1120SOL    HW2 4260   4.715   0.560   4.149
 1121SOL     OW 4261   5.387   3.558   1.891
 1121SOL    HW1 4262   5.448   3.572   1.813
 1121SOL    HW2 4263   5.294   3.585   1.866
 1122SOL     OW 4264   5.034   4.520   6.927
 1122SOL    HW1 4265   5.027   4.451   6.855
 1122SOL    HW2 4266   4.991   4.605   6.897
 1123SOL     OW 4267   3.731   0.846   1.976
 1123SOL    HW1 4268   3.763   0.752   1.990
 1123SOL    HW2 4269   3.744   0.898   2.060
 1124SOL     OW 4270   0.850   4.287   4.849
 1124SOL    HW1 4271   0.947   4.310   4.843
 1124SOL    HW2 4272   0.839   4.188   4.843
 1125SOL     OW 4273   3.872   3.544   5.019
 1125SOL    HW1 4274   3.913   3.597   5.093
 1125SOL    HW2 4275   3.923   3.458   5.008
 1126SOL     OW 4276   5.952   6.605   2.290
 1126SOL    HW1 4277   5.990   6.689   2.327
 1126SOL    HW2 4278   5.858   6.594   2.322
 1127SOL     OW 4279   1.552   4.782   0.256
 1127SOL    HW1 4280   1.464   4.779   0.303
 1127SOL    HW2 4281   1.596   4.870   0.272
 1128SOL     OW 4282   2.765   1.899   4.600
 1128SOL    HW1 4283   2.761   1.858   4.691
 1128SOL    HW2 4284   2.710   1.844   4.537
 1129SOL     OW 4285   5.627   0.029   6.987
 1129SOL    HW1 4286   5.640   0.112   0.015
 1129SOL    HW2 4287   5.709   6.999   6.994
 1130SOL     OW 4288   0.106   4.755   5.948
 1130SOL    HW1 4289   0.081   4.838   5.898
 1130SOL    HW2 4290   0.081   4.675   5.894
 1131SOL     OW 4291   0.600   4.708   6.493
 1131SOL    HW1 4292   0.626   4.796   6.532
 1131SOL    HW2 4293   0.621   4.707   6.395
 1132SOL     OW 4294   4.941   0.227   5.627
 1132SOL    HW1 4295   5.029   0.260   5.591
 1132SOL    HW2 4296   4.957   0.174   5.710
 1133SOL     OW 4297   1.007   3.192   1.371
 1133SOL    HW1 4298   1.090   3.165   1.419
 1133SOL    HW2 4299   1.004   3.291   1.361
 1134SOL     OW 4300   5.894   3.231   6.060
 1134SOL    HW1 4301   5.884   3.138   6.026
 1134SOL    HW2 4302   5.985   3.243   6.099
 1135SOL     OW 4303   4.460   1.659   3.300
 1135SOL    HW1 4304   4.424   1.740   3.253
 1135SOL    HW2 4305   4.421   1.577   3.258
 1136SOL     OW 4306   3.737   5.040   4.046
 1136SOL    HW1 4307   3.768   5.111   4.110
 1136SOL    HW2 4308   3.737   5.076   3.953
 1137SOL     OW 4309   1.578   1.306   5.504
 1137SOL    HW1 4310   1.624   1.221   5.479
 1137SOL    HW2 4311   1.640   1.363   5.559
 1138SOL     OW 4312   1.213   4.140   5.481
 1138SOL    HW1 4313   1.165   4.090   5.553
 1138SOL    HW2 4314   1.175   4.232   5.474
 1139SOL     OW 4315   1.383   6.445   1.559
 1139SOL    HW1 4316   1.328   6.438   1.476
 1139SOL    HW2 4317   1.328   6.420   1.638
 1140SOL     OW 4318   3.152   1.843   3.620
 1140SOL    HW1 4319   3.088   1.843   3.544
 1140SOL    HW2 4320   3.246   1.845   3.585
 1141SOL     OW 4321   6.774   5.498   5.791
 1141SOL    HW1 4322   6.741   5.440   5.865
 1141SOL    HW2 4323   6.829   5.444   5.728
 1142SOL     OW 4324   6.195   1.076   3.842
 1142SOL    HW1 4325   6.152   1.052   3.754
 1142SOL    HW2 4326   6.136   1.139   3.891
 1143SOL     OW 4327   4.353   1.936   3.251
 1143SOL    HW1 4328   4.301   1.922   3.335
 1143SOL    HW2 4329   4.380   2.032   3.244
 1144SOL     OW 4330   0.153   6.092   4.947
 1144SOL    HW1 4331   0.070   6.124   4.993
 1144SOL    HW2 4332   0.142   5.997   4.921
 1145SOL     OW 4333   0.783   5.265   5.164
 1145SOL    HW1 4334   0.800   5.177   5.121
 1145SOL    HW2 4335   0.785   5.254   5.264
 1146SOL     OW 4336   5.561   2.366   0.714
 1146SOL    HW1 4337   5.660   2.380   0.708
 1146SOL    HW2 4338   5.542   2.274   0.749
 1147SOL     OW 4339   6.117   2.289   1.594
 1147SOL    HW1 4340   6.216   2.292   1.581
 1147SOL    HW2 4341   6.074   2.249   1.513
 1148SOL     OW 4342   3.571   0.359   0.599
 1148SOL    HW1 4343   3.563   0.458   0.610
 1148SOL    HW2 4344   3.582   0.315   0.688
 1149SOL     OW 4345   6.761   3.403   2.521
 1149SOL    HW1 4346   6.858   3.411   2.540
 1149SOL    HW2 4347   6.741   3.440   2.430
 1150SOL     OW 4348   1.307   4.784   6.483
 1150SOL    HW1 4349   1.363   4.751   6.408
 1150SOL    HW2 4350   1.234   4.842   6.447
 1151SOL     OW 4351   4.786   5.429   0.004
 1151SOL    HW1 4352   4.843   5.508   7.007
 1151SOL    HW2 4353   4.808   5.353   6.970
 1152SOL     OW 4354   0.186   0.534   4.675
 1152SOL    HW1 4355   0.153   0.615   4.626
 1152SOL    HW2 4356   0.270   0.556   4.723
 1153SOL     OW 4357   2.333   5.190   2.473
 1153SOL    HW1 4358   2.428   5.181   2.506
 1153SOL    HW2 4359   2.334   5.204   2.374
 1154SOL     OW 4360   1.804   5.051   1.507
 1154SOL    HW1 4361   1.781   5.075   1.602
 1154SOL    HW2 4362   1.900   5.072   1.489
 1155SOL     OW 4363   3.338   5.816   2.164
 1155SOL    HW1 4364   3.356   5.908   2.198
 1155SOL    HW2 4365   3.294   5.762   2.236
 1156SOL     OW 4366   2.217   0.596   4.093
 1156SOL    HW1 4367   2.126   0.624   4.126
 1156SOL    HW2 4368   2.276   0.576   4.172
 1157SOL     OW 4369   1.102   2.711   4.380
 1157SOL    HW1 4370   1.069   2.792   4.331
 1157SOL    HW2 4371   1.202   2.715   4.386
 1158SOL     OW 4372   4.471   5.589   5.288
 1158SOL    HW1 4373   4.476   5.493   5.262
 1158SOL    HW2 4374   4.480   5.647   5.207
 1159SOL     OW 4375   4.812   4.987   3.043
 1159SOL    HW1 4376   4.746   5.062   3.047
 1159SOL    HW2 4377   4.845   4.966   3.134
 1160SOL     OW 4378   3.016   3.612   0.276
 1160SOL    HW1 4379   3.017   3.552   0.356
 1160SOL    HW2 4380   3.076   3.574   0.205
 1161SOL     OW 4381   4.385   0.227   3.891
 1161SOL    HW1 4382   4.481   0.244   3.916
 1161SOL    HW2 4383   4.326   0.292   3.939
 1162SOL     OW 4384   3.717   4.558   1.654
 1162SOL    HW1 4385   3.714   4.464   1.688
 1162SOL    HW2 4386   3.649   4.613   1.702
 1163SOL     OW 4387   5.048   2.689   2.623
 1163SOL    HW1 4388   5.136   2.642   2.613
 1163SOL    HW2 4389   5.008   2.666   2.712
 1164SOL     OW 4390   6.013   3.355   3.326
 1164SOL    HW1 4391   6.106   3.392   3.328
 1164SOL    HW2 4392   6.014   3.262   3.364
 1165SOL     OW 4393   1.372   5.019   2.018
 1165SOL    HW1 4394   1.351   4.926   1.989
 1165SOL    HW2 4395   1.310   5.046   2.092
 1166SOL     OW 4396   3.712   3.263   6.619
 1166SOL    HW1 4397   3.667   3.232   6.535
 1166SOL    HW2 4398   3.802   3.220   6.626
 1167SOL     OW 4399   4.821   1.563   4.992
 1167SOL    HW1 4400   4.781   1.471   4.999
 1167SOL    HW2 4401   4.793   1.617   5.071
 1168SOL     OW 4402   6.250   6.081   3.800
 1168SOL    HW1 4403   6.222   6.046   3.889
 1168SOL    HW2 4404   6.287   6.006   3.745
 1169SOL     OW 4405   1.225   3.749   1.811
 1169SOL    HW1 4406   1.127   3.765   1.820
 1169SOL    HW2 4407   1.270   3.832   1.780
 1170SOL     OW 4408   3.311   0.604   1.107
 1170SOL    HW1 4409   3.257   0.682   1.076
 1170SOL    HW2 4410   3.293   0.526   1.047
 1171SOL     OW 4411   1.747   6.574   0.479
 1171SOL    HW1 4412   1.698   6.537   0.558
 1171SOL    HW2 4413   1.845   6.579   0.501
 1172SOL     OW 4414   3.123   3.591   5.166
 1172SOL    HW1 4415   3.030   3.554   5.156
 1172SOL    HW2 4416   3.168   3.592   5.077
 1173SOL     OW 4417   4.574   1.034   6.157
 1173SOL    HW1 4418   4.586   0.989   6.069
 1173SOL    HW2 4419   4.663   1.043   6.202
 1174SOL     OW 4420   3.210   6.051   1.098
 1174SOL    HW1 4421   3.262   6.131   1.070
 1174SOL    HW2 4422   3.252   6.010   1.179
 1175SOL     OW 4423   5.974   4.641   5.707
 1175SOL    HW1 4424   6.049   4.575   5.707
 1175SOL    HW2 4425   5.895   4.602   5.659
 1176SOL     OW 4426   6.021   3.930   0.679
 1176SOL    HW1 4427   6.051   3.987   0.602
 1176SOL    HW2 4428   6.066   3.961   0.763
 1177SOL     OW 4429   6.213   2.641   6.863
 1177SOL    HW1 4430   6.222   2.660   6.960
 1177SOL    HW2 4431   6.169   2.719   6.817
 1178SOL     OW 4432   5.355   4.379   2.190
 1178SOL    HW1 4433   5.293   4.447   2.228
 1178SOL    HW2 4434   5.395   4.413   2.105
 1179SOL     OW 4435   2.488   6.140   6.457
 1179SOL    HW1 4436   2.493   6.062   6.519
 1179SOL    HW2 4437   2.573   6.147   6.405
 1180SOL     OW 4438   2.412   2.009   4.130
 1180SOL    HW1 4439   2.450   2.046   4.215
 1180SOL    HW2 4440   2.332   1.952   4.151
 1181SOL     OW 4441   2.345   4.350   2.818
 1181SOL    HW1 4442   2.275   4.280   2.834
 1181SOL    HW2 4443   2.369   4.351   2.721
 1182SOL     OW 4444   1.509   4.164   3.046
 1182SOL    HW1 4445   1.497   4.088   3.110
 1182SOL    HW2 4446   1.433   4.165   2.982
 1183SOL     OW 4447   4.754   5.821   1.380
 1183SOL    HW1 4448   4.819   5.791   1.310
 1183SOL    HW2 4449   4.676   5.758   1.382
 1184SOL     OW 4450   2.981   3.238   5.272
 1184SOL    HW1 4451   2.929   3.186   5.340
 1184SOL    HW2 4452   3.078   3.234   5.293
 1185SOL     OW 4453   1.773   1.765   6.768
 1185SOL    HW1 4454   1.869   1.746   6.784
 1185SOL    HW2 4455   1.732   1.690   6.716
 1186SOL     OW 4456   4.167   1.424   5.024
 1186SOL    HW1 4457   4.120   1.411   5.112
 1186SOL    HW2 4458   4.225   1.344   5.006
 1187SOL     OW 4459   6.716   0.980   5.217
 1187SOL    HW1 4460   6.656   0.953   5.142
 1187SOL    HW2 4461   6.726   1.079   5.218
 1188SOL     OW 4462   1.106   6.936   5.664
 1188SOL    HW1 4463   1.095   6.877   5.744
 1188SOL    HW2 4464   1.045   7.014   5.671
 1189SOL     OW 4465   6.391   0.869   1.898
 1189SOL    HW1 4466   6.388   0.829   1.806
 1189SOL    HW2 4467   6.481   0.855   1.938
 1190SOL     OW 4468   4.064   4.775   3.069
 1190SOL    HW1 4469   4.117   4.725   3.137
 1190SOL    HW2 4470   4.074   4.874   3.083
 1191SOL     OW 4471   3.550   5.141   6.742
 1191SOL    HW1 4472   3.481   5.071   6.727
 1191SOL    HW2 4473   3.577   5.181   6.655
 1192SOL     OW 4474   4.553   5.076   2.239
 1192SOL    HW1 4475   4.525   4.982   2.220
 1192SOL    HW2 4476   4.472   5.135   2.240
 1193SOL     OW 4477   4.342   0.142   3.645
 1193SOL    HW1 4478   4.378   0.161   3.736
 1193SOL    HW2 4479   4.417   0.111   3.586
 1194SOL     OW 4480   5.902   0.298   0.939
 1194SOL    HW1 4481   5.996   0.324   0.916
 1194SOL    HW2 4482   5.904   0.235   1.017
 1195SOL     OW 4483   4.097   0.398   6.386
 1195SOL    HW1 4484   4.004   0.390   6.351
 1195SOL    HW2 4485   4.160   0.411   6.310
 1196SOL     OW 4486   0.162   5.459   2.308
 1196SOL    HW1 4487   0.219   5.489   2.384
 1196SOL    HW2 4488   0.101   5.386   2.340
 1197SOL     OW 4489   2.967   5.006   6.009
 1197SOL    HW1 4490   3.066   5.005   6.023
 1197SOL    HW2 4491   2.939   4.923   5.961
 1198SOL     OW 4492   3.219   1.836   2.833
 1198SOL    HW1 4493   3.151   1.786   2.781
 1198SOL    HW2 4494   3.266   1.902   2.774
 1199SOL     OW 4495   3.957   3.832   3.153
 1199SOL    HW1 4496   4.028   3.778   3.107
 1199SOL    HW2 4497   3.920   3.900   3.090
 1200SOL     OW 4498   3.420   4.635   0.147
 1200SOL    HW1 4499   3.360   4.582   0.206
 1200SOL    HW2 4500   3.485   4.687   0.202
 1201SOL     OW 4501   1.410   0.784   5.018
 1201SOL    HW1 4502   1.389   0.783   5.116
 1201SOL    HW2 4503   1.356   0.855   4.973
 1202SOL     OW 4504   5.854   6.747   5.129
 1202SOL    HW1 4505   5.839   6.715   5.035
 1202SOL    HW2 4506   5.951   6.739   5.152
 1203SOL     OW 4507   5.844   6.748   2.058
 1203SOL    HW1 4508   5.915   6.801   2.011
 1203SOL    HW2 4509   5.887   6.689   2.127
 1204SOL     OW 4510   3.276   0.378   0.335
 1204SOL    HW1 4511   3.357   0.408   0.284
 1204SOL    HW2 4512   3.304   0.325   0.415
 1205SOL     OW 4513   0.275   2.818   5.248
 1205SOL    HW1 4514   0.214   2.742   5.222
 1205SOL    HW2 4515   0.369   2.785   5.253
 1206SOL     OW 4516   1.041   1.509   4.804
 1206SOL    HW1 4517   1.106   1.448   4.758
 1206SOL    HW2 4518   0.990   1.560   4.735
 1207SOL     OW 4519   5.531   6.253   7.023
 1207SOL    HW1 4520   5.624   6.223   0.019
 1207SOL    HW2 4521   5.535   6.344   6.982
 1208SOL     OW 4522   3.964   3.617   3.925
 1208SOL    HW1 4523   3.988   3.709   3.956
 1208SOL    HW2 4524   3.911   3.623   3.841
 1209SOL     OW 4525   6.179   5.107   4.271
 1209SOL    HW1 4526   6.209   5.102   4.366
 1209SOL    HW2 4527   6.156   5.201   4.248
 1210SOL     OW 4528   3.015   6.906   2.639
 1210SOL    HW1 4529   2.922   6.925   2.609
 1210SOL    HW2 4530   3.080   6.958   2.583
 1211SOL     OW 4531   1.281   3.702   4.780
 1211SOL    HW1 4532   1.224   3.720   4.700
 1211SOL    HW2 4533   1.303   3.789   4.825
 1212SOL     OW 4534   2.125   3.881   4.460
 1212SOL    HW1 4535   2.222   3.906   4.458
 1212SOL    HW2 4536   2.078   3.925   4.384
 1213SOL     OW 4537   5.853   2.740   5.773
 1213SOL    HW1 4538   5.790   2.668   5.744
 1213SOL    HW2 4539   5.947   2.708   5.763
 1214SOL     OW 4540   2.166   2.632   3.310
 1214SOL    HW1 4541   2.194   2.728   3.315
 1214SOL    HW2 4542   2.076   2.621   3.351
 1215SOL     OW 4543   0.784   4.788   1.548
 1215SOL    HW1 4544   0.775   4.886   1.535
 1215SOL    HW2 4545   0.876   4.767   1.583
 1216SOL     OW 4546   2.875   0.141   1.862
 1216SOL    HW1 4547   2.780   0.126   1.887
 1216SOL    HW2 4548   2.881   0.217   1.798
 1217SOL     OW 4549   1.243   1.088   2.721
 1217SOL    HW1 4550   1.271   1.142   2.642
 1217SOL    HW2 4551   1.312   1.097   2.793
 1218SOL     OW 4552   0.494   3.184   3.994
 1218SOL    HW1 4553   0.454   3.262   4.042
 1218SOL    HW2 4554   0.480   3.194   3.895
 1219SOL     OW 4555   2.784   5.915   2.545
 1219SOL    HW1 4556   2.726   5.993   2.522
 1219SOL    HW2 4557   2.728   5.833   2.556
 1220SOL     OW 4558   6.508   3.516   2.867
 1220SOL    HW1 4559   6.488   3.473   2.955
 1220SOL    HW2 4560   6.547   3.607   2.883
 1221SOL     OW 4561   4.853   3.051   6.958
 1221SOL    HW1 4562   4.758   3.079   6.948
 1221SOL    HW2 4563   4.868   3.017   0.024
 1222SOL     OW 4564   6.684   6.203   1.335
 1222SOL    HW1 4565   6.636   6.262   1.270
 1222SOL    HW2 4566   6.658   6.108   1.319
 1223SOL     OW 4567   6.382   5.954   5.346
 1223SOL    HW1 4568   6.393   5.919   5.253
 1223SOL    HW2 4569   6.380   6.054   5.344
 1224SOL     OW 4570   5.812   5.147   2.127
 1224SOL    HW1 4571   5.852   5.127   2.038
 1224SOL    HW2 4572   5.728   5.199   2.115
 1225SOL     OW 4573   4.963   1.607   7.008
 1225SOL    HW1 4574   4.863   1.606   7.003
 1225SOL    HW2 4575   4.993   1.561   0.065
 1226SOL     OW 4576   5.340   4.755   0.492
 1226SOL    HW1 4577   5.356   4.853   0.476
 1226SOL    HW2 4578   5.282   4.718   0.419
 1227SOL     OW 4579   5.024   4.310   6.755
 1227SOL    HW1 4580   5.104   4.253   6.737
 1227SOL    HW2 4581   4.960   4.261   6.814
 1228SOL     OW 4582   3.853   3.003   3.557
 1228SOL    HW1 4583   3.812   2.964   3.474
 1228SOL    HW2 4584   3.781   3.024   3.623
 1229SOL     OW 4585   1.821   5.275   3.182
 1229SOL    HW1 4586   1.722   5.282   3.180
 1229SOL    HW2 4587   1.861   5.353   3.134
 1230SOL     OW 4588   5.518   4.613   1.448
 1230SOL    HW1 4589   5.505   4.704   1.408
 1230SOL    HW2 4590   5.579   4.620   1.526
 1231SOL     OW 4591   1.835   2.032   6.693
 1231SOL    HW1 4592   1.840   2.065   6.599
 1231SOL    HW2 4593   1.836   1.932   6.694
 1232SOL     OW 4594   2.778   0.750   5.415
 1232SOL    HW1 4595   2.854   0.761   5.478
 1232SOL    HW2 4596   2.697   0.797   5.450
 1233SOL     OW 4597   0.723   5.722   5.366
 1233SOL    HW1 4598   0.638   5.770   5.388
 1233SOL    HW2 4599   0.764   5.762   5.284
 1234SOL     OW 4600   0.105   3.436   0.444
 1234SOL    HW1 4601   0.168   3.391   0.508
 1234SOL    HW2 4602   0.119   3.399   0.352
 1235SOL     OW 4603   6.252   4.817   1.449
 1235SOL    HW1 4604   6.277   4.818   1.352
 1235SOL    HW2 4605   6.297   4.893   1.496
 1236SOL     OW 4606   1.708   1.401   2.605
 1236SOL    HW1 4607   1.804   1.414   2.579
 1236SOL    HW2 4608   1.657   1.366   2.527
 1237SOL     OW 4609   0.531   0.032   4.987
 1237SOL    HW1 4610   0.438   0.041   4.952
 1237SOL    HW2 4611   0.530   0.046   5.086
 1238SOL     OW 4612   0.364   0.479   4.428
 1238SOL    HW1 4613   0.306   0.473   4.509
 1238SOL    HW2 4614   0.455   0.511   4.454
 1239SOL     OW 4615   5.385   5.288   4.851
 1239SOL    HW1 4616   5.400   5.356   4.780
 1239SOL    HW2 4617   5.303   5.235   4.829
 1240SOL     OW 4618   0.237   4.029   2.573
 1240SOL    HW1 4619   0.281   4.075   2.651
 1240SOL    HW2 4620   0.302   4.022   2.498
 1241SOL     OW 4621   4.593   4.865   5.064
 1241SOL    HW1 4622   4.532   4.792   5.094
 1241SOL    HW2 4623   4.558   4.907   4.980
 1242SOL     OW 4624   1.426   5.125   0.300
 1242SOL    HW1 4625   1.442   5.067   0.380
 1242SOL    HW2 4626   1.328   5.129   0.281
 1243SOL     OW 4627   1.387   4.297   5.072
 1243SOL    HW1 4628   1.374   4.238   5.152
 1243SOL    HW2 4629   1.481   4.329   5.069
 1244SOL     OW 4630   5.844   0.115   5.538
 1244SOL    HW1 4631   5.878   0.061   5.615
 1244SOL    HW2 4632   5.922   0.150   5.485
 1245SOL     OW 4633   4.815   6.631   0.913
 1245SOL    HW1 4634   4.811   6.681   0.826
 1245SOL    HW2 4635   4.736   6.569   0.919
 1246SOL     OW 4636   4.845   0.635   0.186
 1246SOL    HW1 4637   4.899   0.638   0.102
 1246SOL    HW2 4638   4.843   0.541   0.221
 1247SOL     OW 4639   6.724   0.025   2.992
 1247SOL    HW1 4640   6.735   7.004   3.079
 1247SOL    HW2 4641   6.628   0.049   2.979
 1248SOL     OW 4642   1.413   6.506   4.392
 1248SOL    HW1 4643   1.427   6.424   4.447
 1248SOL    HW2 4644   1.430   6.485   4.296
 1249SOL     OW 4645   5.627   5.617   6.948
 1249SOL    HW1 4646   5.578   5.533   6.971
 1249SOL    HW2 4647   5.561   5.689   6.926
 1250SOL     OW 4648   6.706   3.232   5.098
 1250SOL    HW1 4649   6.636   3.303   5.107
 1250SOL    HW2 4650   6.678   3.167   5.027
 1251SOL     OW 4651   2.876   0.817   2.618
 1251SOL    HW1 4652   2.920   0.884   2.559
 1251SOL    HW2 4653   2.777   0.831   2.617
 1252SOL     OW 4654   2.047   6.290   6.612
 1252SOL    HW1 4655   2.011   6.380   6.590
 1252SOL    HW2 4656   2.036   6.271   6.709
 1253SOL     OW 4657   2.869   0.552   0.384
 1253SOL    HW1 4658   2.908   0.633   0.427
 1253SOL    HW2 4659   2.825   0.495   0.453
 1254SOL     OW 4660   5.854   0.291   2.616
 1254SOL    HW1 4661   5.850   0.285   2.716
 1254SOL    HW2 4662   5.871   0.200   2.578
 1255SOL     OW 4663   5.800   1.584   5.386
 1255SOL    HW1 4664   5.899   1.601   5.377
 1255SOL    HW2 4665   5.771   1.521   5.313
 1256SOL     OW 4666   1.036   5.123   4.380
 1256SOL    HW1 4667   1.035   5.087   4.287
 1256SOL    HW2 4668   1.116   5.088   4.429
 1257SOL     OW 4669   0.733   6.583   3.940
 1257SOL    HW1 4670   0.827   6.566   3.968
 1257SOL    HW2 4671   0.705   6.514   3.874
 1258SOL     OW 4672   4.311   6.356   5.450
 1258SOL    HW1 4673   4.347   6.406   5.528
 1258SOL    HW2 4674   4.343   6.261   5.453
 1259SOL     OW 4675   5.914   0.383   4.437
 1259SOL    HW1 4676   5.930   0.406   4.533
 1259SOL    HW2 4677   5.862   0.457   4.394
 1260SOL     OW 4678   2.745   1.369   1.488
 1260SOL    HW1 4679   2.819   1.388   1.423
 1260SOL    HW2 4680   2.660   1.407   1.453
 1261SOL     OW 4681   6.140   4.562   6.094
 1261SOL    HW1 4682   6.108   4.473   6.063
 1261SOL    HW2 4683   6.210   4.596   6.031
 1262SOL     OW 4684   4.301   4.915   0.838
 1262SOL    HW1 4685   4.209   4.906   0.876
 1262SOL    HW2 4686   4.304   4.873   0.747
 1263SOL     OW 4687   6.640   1.937   1.384
 1263SOL    HW1 4688   6.595   1.866   1.438
 1263SOL    HW2 4689   6.712   1.980   1.439
 1264SOL     OW 4690   0.241   3.353   3.819
 1264SOL    HW1 4691   0.149   3.342   3.856
 1264SOL    HW2 4692   0.277   3.264   3.792
 1265SOL     OW 4693   6.944   5.417   4.846
 1265SOL    HW1 4694   6.985   5.332   4.881
 1265SOL    HW2 4695   6.883   5.456   4.916
 1266SOL     OW 4696   1.908   1.734   4.576
 1266SOL    HW1 4697   1.997   1.779   4.578
 1266SOL    HW2 4698   1.911   1.652   4.633
 1267SOL     OW 4699   6.961   4.873   2.558
 1267SOL    HW1 4700   6.972   4.832   2.649
 1267SOL    HW2 4701   6.948   4.972   2.567
 1268SOL     OW 4702   6.828   3.271   0.154
 1268SOL    HW1 4703   6.728   3.263   0.162
 1268SOL    HW2 4704   6.867   3.290   0.244
 1269SOL     OW 4705   0.008   5.560   5.998
 1269SOL    HW1 4706   0.031   5.559   5.901
 1269SOL    HW2 4707   0.014   5.654   6.033
 1270SOL     OW 4708   1.788   3.026   4.678
 1270SOL    HW1 4709   1.722   2.966   4.632
 1270SOL    HW2 4710   1.866   2.973   4.708
 1271SOL     OW 4711   5.175   1.623   2.969
 1271SOL    HW1 4712   5.105   1.571   2.921
 1271SOL    HW2 4713   5.131   1.694   3.024
 1272SOL     OW 4714   0.733   6.222   1.683
 1272SOL    HW1 4715   0.673   6.169   1.744
 1272SOL    HW2 4716   0.829   6.206   1.708
 1273SOL     OW 4717   2.974   6.659   6.305
 1273SOL    HW1 4718   2.899   6.611   6.351
 1273SOL    HW2 4719   2.939   6.707   6.225
 1274SOL     OW 4720   6.408   2.606   1.941
 1274SOL    HW1 4721   6.401   2.592   1.842
 1274SOL    HW2 4722   6.484   2.669   1.960
 1275SOL     OW 4723   3.699   1.850   4.285
 1275SOL    HW1 4724   3.696   1.788   4.207
 1275SOL    HW2 4725   3.608   1.891   4.298
 1276SOL     OW 4726   6.207   0.169   3.801
 1276SOL    HW1 4727   6.279   0.133   3.861
 1276SOL    HW2 4728   6.175   0.257   3.836
 1277SOL     OW 4729   0.610   0.962   5.071
 1277SOL    HW1 4730   0.524   0.911   5.081
 1277SOL    HW2 4731   0.633   1.004   5.158
 1278SOL     OW 4732   2.203   1.856   5.819
 1278SOL    HW1 4733   2.267   1.933   5.822
 1278SOL    HW2 4734   2.213   1.801   5.902
 1279SOL     OW 4735   2.587   5.402   6.385
 1279SOL    HW1 4736   2.571   5.499   6.403
 1279SOL    HW2 4737   2.603   5.388   6.287
 1280SOL     OW 4738   2.004   6.939   3.226
 1280SOL    HW1 4739   2.086   6.996   3.223
 1280SOL    HW2 4740   1.995   6.898   3.317
 1281SOL     OW 4741   1.050   6.494   3.783
 1281SOL    HW1 4742   1.043   6.548   3.867
 1281SOL    HW2 4743   1.136   6.443   3.784
 1282SOL     OW 4744   1.001   0.283   1.986
 1282SOL    HW1 4745   1.014   0.213   2.056
 1282SOL    HW2 4746   1.031   0.372   2.021
 1283SOL     OW 4747   5.474   5.568   6.412
 1283SOL    HW1 4748   5.445   5.472   6.421
 1283SOL    HW2 4749   5.407   5.627   6.457
 1284SOL     OW 4750   2.746   2.209   1.835
 1284SOL    HW1 4751   2.653   2.237   1.862
 1284SOL    HW2 4752   2.812   2.251   1.897
 1285SOL     OW 4753   4.782   2.458   5.321
 1285SOL    HW1 4754   4.827   2.547   5.313
 1285SOL    HW2 4755   4.802   2.403   5.240
 1286SOL     OW 4756   6.305   5.034   1.606
 1286SOL    HW1 4757   6.261   5.123   1.594
 1286SOL    HW2 4758   6.263   4.987   1.683
 1287SOL     OW 4759   6.866   4.989   6.612
 1287SOL    HW1 4760   6.952   5.040   6.621
 1287SOL    HW2 4761   6.834   4.995   6.518
 1288SOL     OW 4762   6.119   3.247   2.008
 1288SOL    HW1 4763   6.081   3.327   2.055
 1288SOL    HW2 4764   6.117   3.168   2.070
 1289SOL     OW 4765   0.090   6.403   2.693
 1289SOL    HW1 4766   0.050   6.449   2.773
 1289SOL    HW2 4767   0.019   6.384   2.626
 1290SOL     OW 4768   0.600   6.322   1.443
 1290SOL    HW1 4769   0.620   6.273   1.528
 1290SOL    HW2 4770   0.668   6.393   1.428
 1291SOL     OW 4771   2.096   6.245   0.391
 1291SOL    HW1 4772   2.189   6.243   0.429
 1291SOL    HW2 4773   2.084   6.168   0.329
 1292SOL     OW 4774   0.946   5.873   0.773
 1292SOL    HW1 4775   0.881   5.810   0.729
 1292SOL    HW2 4776   0.973   5.943   0.707
 1293SOL     OW 4777   0.105   2.045   5.880
 1293SOL    HW1 4778   0.148   2.100   5.809
 1293SOL    HW2 4779   0.045   2.103   5.936
 1294SOL     OW 4780   0.931   2.071   2.285
 1294SOL    HW1 4781   0.854   2.034   2.233
 1294SOL    HW2 4782   0.902   2.088   2.379
 1295SOL     OW 4783   6.198   3.313   1.390
 1295SOL    HW1 4784   6.242   3.293   1.303
 1295SOL    HW2 4785   6.205   3.411   1.409
 1296SOL     OW 4786   4.108   2.085   5.943
 1296SOL    HW1 4787   4.058   2.140   6.009
 1296SOL    HW2 4788   4.161   2.145   5.882
 1297SOL     OW 4789   6.301   1.212   5.889
 1297SOL    HW1 4790   6.362   1.217   5.968
 1297SOL    HW2 4791   6.344   1.256   5.811
 1298SOL     OW 4792   5.353   2.947   3.235
 1298SOL    HW1 4793   5.307   2.993   3.310
 1298SOL    HW2 4794   5.301   2.960   3.150
 1299SOL     OW 4795   0.900   4.164   4.021
 1299SOL    HW1 4796   0.997   4.160   4.048
 1299SOL    HW2 4797   0.867   4.071   4.005
 1300SOL     OW 4798   3.045   3.413   1.508
 1300SOL    HW1 4799   2.976   3.346   1.480
 1300SOL    HW2 4800   3.098   3.441   1.427
 1301SOL     OW 4801   0.865   0.265   3.289
 1301SOL    HW1 4802   0.961   0.258   3.262
 1301SOL    HW2 4803   0.842   0.191   3.352
 1302SOL     OW 4804   2.945   6.063   4.532
 1302SOL    HW1 4805   2.852   6.028   4.519
 1302SOL    HW2 4806   3.000   5.995   4.580
 1303SOL     OW 4807   3.825   1.796   1.344
 1303SOL    HW1 4808   3.836   1.823   1.439
 1303SOL    HW2 4809   3.912   1.803   1.296
 1304SOL     OW 4810   2.792   0.928   6.987
 1304SOL    HW1 4811   2.806   1.025   6.968
 1304SOL    HW2 4812   2.774   0.879   6.902
 1305SOL     OW 4813   4.473   6.449   5.066
 1305SOL    HW1 4814   4.545   6.463   5.134
 1305SOL    HW2 4815   4.386   6.482   5.102
 1306SOL     OW 4816   0.991   4.398   4.408
 1306SOL    HW1 4817   1.033   4.331   4.469
 1306SOL    HW2 4818   0.893   4.406   4.429
 1307SOL     OW 4819   1.419   2.574   4.619
 1307SOL    HW1 4820   1.409   2.572   4.519
 1307SOL    HW2 4821   1.465   2.490   4.649
 1308SOL     OW 4822   5.063   5.922   3.070
 1308SOL    HW1 4823   5.036   5.867   2.991
 1308SOL    HW2 4824   5.135   5.986   3.042
 1309SOL     OW 4825   5.651   2.713   4.403
 1309SOL    HW1 4826   5.625   2.623   4.440
 1309SOL    HW2 4827   5.622   2.785   4.466
 1310SOL     OW 4828   4.994   3.578   5.240
 1310SOL    HW1 4829   4.963   3.502   5.297
 1310SOL    HW2 4830   4.919   3.609   5.182
 1311SOL     OW 4831   6.045   5.853   5.295
 1311SOL    HW1 4832   6.000   5.812   5.374
 1311SOL    HW2 4833   6.035   5.952   5.299
 1312SOL     OW 4834   0.900   6.522   0.664
 1312SOL    HW1 4835   0.932   6.612   0.635
 1312SOL    HW2 4836   0.854   6.477   0.587
 1313SOL     OW 4837   3.541   5.426   4.890
 1313SOL    HW1 4838   3.524   5.374   4.806
 1313SOL    HW2 4839   3.522   5.368   4.969
 1314SOL     OW 4840   6.894   1.341   4.999
 1314SOL    HW1 4841   6.867   1.301   5.086
 1314SOL    HW2 4842   6.926   1.269   4.937
 1315SOL     OW 4843   2.155   1.347   2.629
 1315SOL    HW1 4844   2.145   1.376   2.724
 1315SOL    HW2 4845   2.251   1.326   2.610
 1316SOL     OW 4846   3.043   6.636   2.690
 1316SOL    HW1 4847   3.119   6.620   2.752
 1316SOL    HW2 4848   3.041   6.732   2.662
 1317SOL     OW 4849   0.064   5.692   4.073
 1317SOL    HW1 4850   0.134   5.736   4.130
 1317SOL    HW2 4851   7.010   5.751   4.069
 1318SOL     OW 4852   0.001   6.429   0.623
 1318SOL    HW1 4853   7.022   6.522   0.661
 1318SOL    HW2 4854   0.018   6.364   0.697
 1319SOL     OW 4855   6.372   0.978   6.699
 1319SOL    HW1 4856   6.332   0.974   6.607
 1319SOL    HW2 4857   6.431   1.058   6.705
 1320SOL     OW 4858   5.331   5.534   6.855
 1320SOL    HW1 4859   5.273   5.488   6.923
 1320SOL    HW2 4860   5.285   5.532   6.766
 1321SOL     OW 4861   3.638   2.641   6.723
 1321SOL    HW1 4862   3.709   2.707   6.700
 1321SOL    HW2 4863   3.658   2.600   6.812
 1322SOL     OW 4864   6.358   1.639   4.650
 1322SOL    HW1 4865   6.424   1.619   4.578
 1322SOL    HW2 4866   6.280   1.688   4.611
 1323SOL     OW 4867   6.565   1.739   4.968
 1323SOL    HW1 4868   6.537   1.796   5.045
 1323SOL    HW2 4869   6.494   1.671   4.950
 1324SOL     OW 4870   1.892   3.581   1.008
 1324SOL    HW1 4871   1.963   3.649   1.026
 1324SOL    HW2 4872   1.933   3.489   1.006
 1325SOL     OW 4873   2.913   5.902   2.294
 1325SOL    HW1 4874   2.979   5.970   2.264
 1325SOL    HW2 4875   2.866   5.935   2.376
 1326SOL     OW 4876   5.270   3.308   4.315
 1326SOL    HW1 4877   5.368   3.322   4.301
 1326SOL    HW2 4878   5.230   3.390   4.355
 1327SOL     OW 4879   3.716   5.312   2.997
 1327SOL    HW1 4880   3.657   5.303   3.078
 1327SOL    HW2 4881   3.667   5.363   2.926
 1328SOL     OW 4882   1.744   2.795   6.584
 1328SOL    HW1 4883   1.700   2.843   6.660
 1328SOL    HW2 4884   1.728   2.845   6.499
 1329SOL     OW 4885   0.566   0.492   0.665
 1329SOL    HW1 4886   0.577   0.396   0.637
 1329SOL    HW2 4887   0.580   0.552   0.586
 1330SOL     OW 4888   5.587   6.472   1.451
 1330SOL    HW1 4889   5.525   6.416   1.396
 1330SOL    HW2 4890   5.664   6.416   1.481
 1331SOL     OW 4891   5.588   0.572   1.945
 1331SOL    HW1 4892   5.670   0.551   1.892
 1331SOL    HW2 4893   5.532   0.490   1.953
 1332SOL     OW 4894   4.574   1.412   1.522
 1332SOL    HW1 4895   4.671   1.392   1.513
 1332SOL    HW2 4896   4.562   1.508   1.549
 1333SOL     OW 4897   3.888   4.230   5.271
 1333SOL    HW1 4898   3.965   4.225   5.208
 1333SOL    HW2 4899   3.918   4.272   5.357
 1334SOL     OW 4900   6.971   4.013   4.581
 1334SOL    HW1 4901   6.918   4.027   4.665
 1334SOL    HW2 4902   0.033   3.976   4.605
 1335SOL     OW 4903   2.616   4.901   3.207
 1335SOL    HW1 4904   2.667   4.830   3.157
 1335SOL    HW2 4905   2.619   4.987   3.156
 1336SOL     OW 4906   0.363   0.595   4.923
 1336SOL    HW1 4907   0.312   0.579   5.008
 1336SOL    HW2 4908   0.345   0.688   4.890
 1337SOL     OW 4909   1.955   2.009   6.144
 1337SOL    HW1 4910   1.967   1.947   6.221
 1337SOL    HW2 4911   1.895   2.085   6.171
 1338SOL     OW 4912   4.123   5.479   0.712
 1338SOL    HW1 4913   4.063   5.400   0.727
 1338SOL    HW2 4914   4.201   5.451   0.655
 1339SOL     OW 4915   6.816   4.382   5.644
 1339SOL    HW1 4916   6.736   4.345   5.597
 1339SOL    HW2 4917   6.787   4.443   5.717
 1340SOL     OW 4918   1.566   2.250   6.441
 1340SOL    HW1 4919   1.504   2.327   6.423
 1340SOL    HW2 4920   1.567   2.230   6.539
 1341SOL     OW 4921   4.035   1.157   3.697
 1341SOL    HW1 4922   3.938   1.160   3.672
 1341SOL    HW2 4923   4.044   1.124   3.791
 1342SOL     OW 4924   0.313   6.479   0.995
 1342SOL    HW1 4925   0.230   6.462   1.048
 1342SOL    HW2 4926   0.327   6.404   0.930
 1343SOL     OW 4927   4.173   4.969   3.439
 1343SOL    HW1 4928   4.119   4.891   3.470
 1343SOL    HW2 4929   4.127   5.054   3.465
 1344SOL     OW 4930   6.540   1.112   2.746
 1344SOL    HW1 4931   6.501   1.198   2.716
 1344SOL    HW2 4932   6.477   1.067   2.810
 1345SOL     OW 4933   0.401   0.042   3.696
 1345SOL    HW1 4934   0.402   0.026   3.795
 1345SOL    HW2 4935   0.432   6.987   3.648
 1346SOL     OW 4936   0.290   0.970   4.048
 1346SOL    HW1 4937   0.262   1.038   4.116
 1346SOL    HW2 4938   0.245   0.883   4.067
 1347SOL     OW 4939   5.834   0.316   2.901
 1347SOL    HW1 4940   5.856   0.398   2.953
 1347SOL    HW2 4941   5.856   0.235   2.956
 1348SOL     OW 4942   5.260   4.710   5.211
 1348SOL    HW1 4943   5.186   4.760   5.166
 1348SOL    HW2 4944   5.311   4.657   5.143
 1349SOL     OW 4945   4.163   3.180   0.078
 1349SOL    HW1 4946   4.191   3.197   0.172
 1349SOL    HW2 4947   4.076   3.226   0.060
 1350SOL     OW 4948   2.913   0.849   6.146
 1350SOL    HW1 4949   2.983   0.860   6.076
 1350SOL    HW2 4950   2.953   0.866   6.236
 1351SOL     OW 4951   0.825   0.943   4.502
 1351SOL    HW1 4952   0.784   1.026   4.539
 1351SOL    HW2 4953   0.911   0.924   4.549
 1352SOL     OW 4954   0.554   1.086   3.239
 1352SOL    HW1 4955   0.623   1.105   3.309
 1352SOL    HW2 4956   0.468   1.130   3.264
 1353SOL     OW 4957   1.230   4.067   3.788
 1353SOL    HW1 4958   1.204   4.124   3.867
 1353SOL    HW2 4959   1.309   4.108   3.742
 1354SOL     OW 4960   0.613   6.936   1.867
 1354SOL    HW1 4961   0.644   6.965   1.776
 1354SOL    HW2 4962   0.689   6.897   1.917
 1355SOL     OW 4963   4.604   3.086   6.874
 1355SOL    HW1 4964   4.509   3.099   6.902
 1355SOL    HW2 4965   4.644   3.174   6.849
 1356SOL     OW 4966   3.010   3.959   2.609
 1356SOL    HW1 4967   2.942   4.030   2.592
 1356SOL    HW2 4968   2.975   3.871   2.576
 1357SOL     OW 4969   2.848   3.098   5.451
 1357SOL    HW1 4970   2.763   3.063   5.490
 1357SOL    HW2 4971   2.925   3.071   5.509
 1358SOL     OW 4972   2.035   2.195   5.856
 1358SOL    HW1 4973   2.063   2.291   5.858
 1358SOL    HW2 4974   2.064   2.150   5.941
 1359SOL     OW 4975   6.061   1.121   6.801
 1359SOL    HW1 4976   6.080   1.188   6.729
 1359SOL    HW2 4977   6.146   1.075   6.827
 1360SOL     OW 4978   3.486   3.938   4.315
 1360SOL    HW1 4979   3.559   3.869   4.319
 1360SOL    HW2 4980   3.526   4.029   4.319
 1361SOL     OW 4981   0.753   6.192   0.324
 1361SOL    HW1 4982   0.851   6.192   0.304
 1361SOL    HW2 4983   0.735   6.248   0.405
 1362SOL     OW 4984   2.838   3.391   6.289
 1362SOL    HW1 4985   2.834   3.293   6.308
 1362SOL    HW2 4986   2.934   3.421   6.287
 1363SOL     OW 4987   5.767   6.342   2.019
 1363SOL    HW1 4988   5.725   6.391   2.095
 1363SOL    HW2 4989   5.740   6.384   1.932
 1364SOL     OW 4990   0.386   3.398   1.401
 1364SOL    HW1 4991   0.372   3.486   1.355
 1364SOL    HW2 4992   0.393   3.413   1.500
 1365SOL     OW 4993   0.853   3.946   5.943
 1365SOL    HW1 4994   0.886   3.854   5.918
 1365SOL    HW2 4995   0.767   3.965   5.896
 1366SOL     OW 4996   5.556   0.701   0.710
 1366SOL    HW1 4997   5.592   0.661   0.626
 1366SOL    HW2 4998   5.522   0.794   0.692
 1367SOL     OW 4999   1.013   5.664   4.339
 1367SOL    HW1 5000   1.053   5.755   4.329
 1367SOL    HW2 5001   1.060   5.600   4.278
 1368SOL     OW 5002   0.941   6.344   5.749
 1368SOL    HW1 5003   0.928   6.358   5.847
 1368SOL    HW2 5004   0.977   6.428   5.708
 1369SOL     OW 5005   2.614   6.564   3.045
 1369SOL    HW1 5006   2.693   6.549   2.985
 1369SOL    HW2 5007   2.606   6.489   3.110
 1370SOL     OW 5008   6.105   2.288   2.691
 1370SOL    HW1 5009   6.117   2.340   2.606
 1370SOL    HW2 5010   6.181   2.224   2.702
 1371SOL     OW 5011   6.100   1.951   5.410
 1371SOL    HW1 5012   6.026   1.914   5.354
 1371SOL    HW2 5013   6.104   2.050   5.399
 1372SOL     OW 5014   6.472   2.532   0.117
 1372SOL    HW1 5015   6.552   2.473   0.101
 1372SOL    HW2 5016   6.391   2.489   0.078
 1373SOL     OW 5017   5.035   2.893   1.669
 1373SOL    HW1 5018   5.018   2.877   1.767
 1373SOL    HW2 5019   4.991   2.820   1.616
 1374SOL     OW 5020   4.159   4.416   0.142
 1374SOL    HW1 5021   4.231   4.471   0.184
 1374SOL    HW2 5022   4.079   4.413   0.203
 1375SOL     OW 5023   5.671   5.685   4.303
 1375SOL    HW1 5024   5.720   5.599   4.291
 1375SOL    HW2 5025   5.687   5.720   4.395
 1376SOL     OW 5026   2.511   4.937   5.628
 1376SOL    HW1 5027   2.428   4.885   5.604
 1376SOL    HW2 5028   2.591   4.878   5.620
 1377SOL     OW 5029   1.835   1.192   3.081
 1377SOL    HW1 5030   1.822   1.263   3.011
 1377SOL    HW2 5031   1.745   1.166   3.118
 1378SOL     OW 5032   4.775   2.407   4.475
 1378SOL    HW1 5033   4.832   2.422   4.394
 1378SOL    HW2 5034   4.747   2.311   4.478
 1379SOL     OW 5035   5.078   5.444   0.950
 1379SOL    HW1 5036   5.058   5.467   1.045
 1379SOL    HW2 5037   5.016   5.372   0.919
 1380SOL     OW 5038   6.807   5.278   2.038
 1380SOL    HW1 5039   6.823   5.197   2.094
 1380SOL    HW2 5040   6.891   5.332   2.031
 1381SOL     OW 5041   5.870   2.413   5.845
 1381SOL    HW1 5042   5.952   2.436   5.897
 1381SOL    HW2 5043   5.789   2.434   5.900
 1382SOL     OW 5044   4.809   2.467   0.213
 1382SOL    HW1 5045   4.903   2.454   0.245
 1382SOL    HW2 5046   4.791   2.564   0.198
 1383SOL     OW 5047   0.133   1.110   1.981
 1383SOL    HW1 5048   0.231   1.122   1.997
 1383SOL    HW2 5049   0.090   1.200   1.973
 1384SOL     OW 5050   5.916   1.083   1.851
 1384SOL    HW1 5051   5.936   1.151   1.780
 1384SOL    HW2 5052   5.935   1.122   1.941
 1385SOL     OW 5053   0.989   5.639   1.893
 1385SOL    HW1 5054   0.922   5.681   1.833
 1385SOL    HW2 5055   0.943   5.573   1.953
 1386SOL     OW 5056   2.791   5.867   4.259
 1386SOL    HW1 5057   2.871   5.810   4.241
 1386SOL    HW2 5058   2.785   5.887   4.357
 1387SOL     OW 5059   2.931   5.607   2.389
 1387SOL    HW1 5060   2.919   5.701   2.355
 1387SOL    HW2 5061   3.029   5.587   2.393
 1388SOL     OW 5062   6.470   0.088   1.617
 1388SOL    HW1 5063   6.550   0.042   1.581
 1388SOL    HW2 5064   6.410   0.022   1.662
 1389SOL     OW 5065   6.327   1.252   2.589
 1389SOL    HW1 5066   6.283   1.213   2.508
 1389SOL    HW2 5067   6.371   1.339   2.564
 1390SOL     OW 5068   6.794   1.801   6.545
 1390SOL    HW1 5069   6.815   1.898   6.558
 1390SOL    HW2 5070   6.879   1.751   6.529
 1391SOL     OW 5071   0.992   2.993   2.646
 1391SOL    HW1 5072   0.993   2.992   2.546
 1391SOL    HW2 5073   1.023   2.905   2.681
 1392SOL     OW 5074   4.818   4.827   5.215
 1392SOL    HW1 5075   4.737   4.866   5.171
 1392SOL    HW2 5076   4.793   4.742   5.261
 1393SOL     OW 5077   3.878   6.793   5.794
 1393SOL    HW1 5078   3.821   6.710   5.801
 1393SOL    HW2 5079   3.827   6.863   5.745
 1394SOL     OW 5080   2.571   6.228   5.381
 1394SOL    HW1 5081   2.642   6.277   5.433
 1394SOL    HW2 5082   2.609   6.199   5.293
 1395SOL     OW 5083   3.648   4.722   5.499
 1395SOL    HW1 5084   3.578   4.765   5.557
 1395SOL    HW2 5085   3.666   4.781   5.420
 1396SOL     OW 5086   5.857   5.647   4.583
 1396SOL    HW1 5087   5.923   5.578   4.553
 1396SOL    HW2 5088   5.851   5.645   4.683
 1397SOL     OW 5089   4.783   6.255   4.947
 1397SOL    HW1 5090   4.784   6.340   4.895
 1397SOL    HW2 5091   4.773   6.177   4.885
 1398SOL     OW 5092   1.297   1.216   5.009
 1398SOL    HW1 5093   1.384   1.167   5.015
 1398SOL    HW2 5094   1.306   1.305   5.053
 1399SOL     OW 5095   3.246   6.313   1.511
 1399SOL    HW1 5096   3.334   6.267   1.520
 1399SOL    HW2 5097   3.175   6.246   1.488
 1400SOL     OW 5098   1.039   0.063   1.740
 1400SOL    HW1 5099   0.976   0.134   1.772
 1400SOL    HW2 5100   1.126   0.070   1.790
 1401SOL     OW 5101   6.994   1.103   4.869
 1401SOL    HW1 5102   0.034   1.152   4.813
 1401SOL    HW2 5103   7.019   1.006   4.873
 1402SOL     OW 5104   6.603   2.621   0.348
 1402SOL    HW1 5105   6.678   2.575   0.394
 1402SOL    HW2 5106   6.548   2.555   0.298
 1403SOL     OW 5107   2.480   6.797   2.053
 1403SOL    HW1 5108   2.550   6.726   2.061
 1403SOL    HW2 5109   2.476   6.829   1.958
 1404SOL     OW 5110   5.617   0.322   0.437
 1404SOL    HW1 5111   5.713   0.309   0.461
 1404SOL    HW2 5112   5.566   0.239   0.459
 1405SOL     OW 5113   2.181   3.715   0.979
 1405SOL    HW1 5114   2.130   3.784   0.928
 1405SOL    HW2 5115   2.274   3.708   0.943
 1406SOL     OW 5116   1.651   4.191   1.222
 1406SOL    HW1 5117   1.614   4.214   1.132
 1406SOL    HW2 5118   1.664   4.274   1.276
 1407SOL     OW 5119   6.749   2.188   2.433
 1407SOL    HW1 5120   6.846   2.167   2.418
 1407SOL    HW2 5121   6.715   2.136   2.511
 1408SOL     OW 5122   5.625   0.948   6.052
 1408SOL    HW1 5123   5.704   0.953   6.113
 1408SOL    HW2 5124   5.542   0.934   6.106
 1409SOL     OW 5125   0.081   0.305   4.563
 1409SOL    HW1 5126   0.122   0.389   4.597
 1409SOL    HW2 5127   0.034   0.323   4.477
 1410SOL     OW 5128   0.306   2.960   6.679
 1410SOL    HW1 5129   0.376   2.895   6.650
 1410SOL    HW2 5130   0.312   3.043   6.624
 1411SOL     OW 5131   1.957   6.676   2.160
 1411SOL    HW1 5132   1.931   6.766   2.127
 1411SOL    HW2 5133   1.893   6.648   2.232
 1412SOL     OW 5134   1.283   2.704   0.718
 1412SOL    HW1 5135   1.358   2.675   0.778
 1412SOL    HW2 5136   1.320   2.760   0.644
 1413SOL     OW 5137   2.454   0.305   4.107
 1413SOL    HW1 5138   2.504   0.389   4.085
 1413SOL    HW2 5139   2.471   0.237   4.037
 1414SOL     OW 5140   2.393   1.655   1.719
 1414SOL    HW1 5141   2.391   1.735   1.780
 1414SOL    HW2 5142   2.488   1.636   1.693
 1415SOL     OW 5143   3.843   6.358   5.769
 1415SOL    HW1 5144   3.823   6.454   5.792
 1415SOL    HW2 5145   3.828   6.344   5.671
 1416SOL     OW 5146   4.188   4.939   1.792
 1416SOL    HW1 5147   4.288   4.933   1.796
 1416SOL    HW2 5148   4.155   4.974   1.880
 1417SOL     OW 5149   2.800   1.981   6.623
 1417SOL    HW1 5150   2.713   1.996   6.669
 1417SOL    HW2 5151   2.801   2.030   6.536
 1418SOL     OW 5152   3.308   4.076   3.100
 1418SOL    HW1 5153   3.394   4.116   3.067
 1418SOL    HW2 5154   3.290   4.108   3.193
 1419SOL     OW 5155   3.780   6.677   4.788
 1419SOL    HW1 5156   3.739   6.596   4.830
 1419SOL    HW2 5157   3.710   6.746   4.773
 1420SOL     OW 5158   1.163   5.793   2.052
 1420SOL    HW1 5159   1.167   5.887   2.016
 1420SOL    HW2 5160   1.096   5.740   2.000
 1421SOL     OW 5161   2.995   2.221   2.555
 1421SOL    HW1 5162   2.902   2.254   2.540
 1421SOL    HW2 5163   3.025   2.245   2.647
 1422SOL     OW 5164   1.739   5.051   0.668
 1422SOL    HW1 5165   1.831   5.072   0.703
 1422SOL    HW2 5166   1.734   4.955   0.642
 1423SOL     OW 5167   4.730   6.844   2.698
 1423SOL    HW1 5168   4.729   6.921   2.762
 1423SOL    HW2 5169   4.738   6.878   2.604
 1424SOL     OW 5170   6.046   5.075   5.069
 1424SOL    HW1 5171   6.138   5.040   5.049
 1424SOL    HW2 5172   6.053   5.169   5.102
 1425SOL     OW 5173   2.074   7.019   3.928
 1425SOL    HW1 5174   2.135   7.020   3.848
 1425SOL    HW2 5175   2.028   0.081   3.935
 1426SOL     OW 5176   1.152   1.713   5.747
 1426SOL    HW1 5177   1.105   1.630   5.776
 1426SOL    HW2 5178   1.128   1.734   5.652
 1427SOL     OW 5179   6.067   0.258   3.523
 1427SOL    HW1 5180   6.119   0.189   3.573
 1427SOL    HW2 5181   6.090   0.252   3.426
 1428SOL     OW 5182   5.526   1.857   6.945
 1428SOL    HW1 5183   5.432   1.855   6.980
 1428SOL    HW2 5184   5.577   1.931   6.990
 1429SOL     OW 5185   0.027   0.708   0.790
 1429SOL    HW1 5186   0.120   0.680   0.767
 1429SOL    HW2 5187   0.030   0.798   0.835
 1430SOL     OW 5188   1.862   4.792   3.540
 1430SOL    HW1 5189   1.775   4.806   3.493
 1430SOL    HW2 5190   1.851   4.724   3.612
 1431SOL     OW 5191   2.966   0.972   1.668
 1431SOL    HW1 5192   2.968   1.071   1.660
 1431SOL    HW2 5193   2.915   0.946   1.750
 1432SOL     OW 5194   2.333   0.939   2.640
 1432SOL    HW1 5195   2.267   0.952   2.715
 1432SOL    HW2 5196   2.311   0.854   2.591
 1433SOL     OW 5197   4.214   0.353   4.065
 1433SOL    HW1 5198   4.258   0.366   4.154
 1433SOL    HW2 5199   4.143   0.423   4.052
 1434SOL     OW 5200   0.883   0.748   5.635
 1434SOL    HW1 5201   0.927   0.837   5.648
 1434SOL    HW2 5202   0.865   0.706   5.725
 1435SOL     OW 5203   6.569   1.786   2.765
 1435SOL    HW1 5204   6.505   1.747   2.699
 1435SOL    HW2 5205   6.554   1.745   2.855
 1436SOL     OW 5206   4.104   3.911   0.271
 1436SOL    HW1 5207   4.178   3.889   0.207
 1436SOL    HW2 5208   4.125   3.872   0.361
 1437SOL     OW 5209   3.253   0.906   2.646
 1437SOL    HW1 5210   3.294   0.962   2.718
 1437SOL    HW2 5211   3.218   0.967   2.574
 1438SOL     OW 5212   2.985   6.491   1.107
 1438SOL    HW1 5213   3.056   6.437   1.151
 1438SOL    HW2 5214   2.909   6.506   1.170
 1439SOL     OW 5215   0.087   5.819   2.347
 1439SOL    HW1 5216   0.145   5.754   2.298
 1439SOL    HW2 5217   7.023   5.780   2.360
 1440SOL     OW 5218   2.821   3.683   0.502
 1440SOL    HW1 5219   2.869   3.705   0.417
 1440SOL    HW2 5220   2.871   3.612   0.552
 1441SOL     OW 5221   5.906   6.610   1.086
 1441SOL    HW1 5222   5.876   6.598   1.181
 1441SOL    HW2 5223   5.825   6.615   1.027
 1442SOL     OW 5224   5.635   5.431   0.324
 1442SOL    HW1 5225   5.559   5.472   0.274
 1442SOL    HW2 5226   5.719   5.483   0.305
 1443SOL     OW 5227   1.711   2.480   2.917
 1443SOL    HW1 5228   1.620   2.520   2.913
 1443SOL    HW2 5229   1.725   2.419   2.839
 1444SOL     OW 5230   6.263   5.995   6.883
 1444SOL    HW1 5231   6.292   6.000   6.979
 1444SOL    HW2 5232   6.338   6.027   6.824
 1445SOL     OW 5233   1.200   3.451   2.483
 1445SOL    HW1 5234   1.262   3.402   2.423
 1445SOL    HW2 5235   1.188   3.400   2.568
 1446SOL     OW 5236   6.768   0.176   6.409
 1446SOL    HW1 5237   6.781   0.208   6.503
 1446SOL    HW2 5238   6.696   0.230   6.365
 1447SOL     OW 5239   5.921   5.016   4.806
 1447SOL    HW1 5240   5.826   5.047   4.805
 1447SOL    HW2 5241   5.968   5.055   4.885
 1448SOL     OW 5242   0.921   2.903   5.785
 1448SOL    HW1 5243   0.946   2.817   5.739
 1448SOL    HW2 5244   0.973   2.978   5.744
 1449SOL     OW 5245   1.496   4.225   4.322
 1449SOL    HW1 5246   1.522   4.289   4.394
 1449SOL    HW2 5247   1.504   4.269   4.233
 1450SOL     OW 5248   2.111   2.206   5.209
 1450SOL    HW1 5249   2.172   2.279   5.176
 1450SOL    HW2 5250   2.153   2.117   5.190
 1451SOL     OW 5251   2.622   6.692   1.681
 1451SOL    HW1 5252   2.547   6.742   1.725
 1451SOL    HW2 5253   2.697   6.755   1.661
 1452SOL     OW 5254   4.916   3.309   5.917
 1452SOL    HW1 5255   4.900   3.392   5.863
 1452SOL    HW2 5256   4.842   3.297   5.982
 1453SOL     OW 5257   0.729   4.313   5.249
 1453SOL    HW1 5258   0.678   4.357   5.175
 1453SOL    HW2 5259   0.768   4.227   5.216
 1454SOL     OW 5260   2.617   1.793   3.613
 1454SOL    HW1 5261   2.645   1.753   3.525
 1454SOL    HW2 5262   2.519   1.810   3.613
 1455SOL     OW 5263   1.168   5.577   2.282
 1455SOL    HW1 5264   1.155   5.584   2.381
 1455SOL    HW2 5265   1.170   5.669   2.242
 1456SOL     OW 5266   6.382   5.559   5.935
 1456SOL    HW1 5267   6.441   5.515   6.002
 1456SOL    HW2 5268   6.413   5.653   5.919
 1457SOL     OW 5269   0.536   4.003   6.420
 1457SOL    HW1 5270   0.496   3.913   6.403
 1457SOL    HW2 5271   0.464   4.068   6.444
 1458SOL     OW 5272   5.544   4.797   5.259
 1458SOL    HW1 5273   5.455   4.753   5.244
 1458SOL    HW2 5274   5.539   4.893   5.232
 1459SOL     OW 5275   4.823   6.579   5.098
 1459SOL    HW1 5276   4.837   6.481   5.086
 1459SOL    HW2 5277   4.745   6.595   5.158
 1460SOL     OW 5278   2.147   6.369   5.208
 1460SOL    HW1 5279   2.116   6.291   5.262
 1460SOL    HW2 5280   2.140   6.349   5.111
 1461SOL     OW 5281   0.187   3.073   2.806
 1461SOL    HW1 5282   0.164   3.108   2.715
 1461SOL    HW2 5283   0.132   3.121   2.875
 1462SOL     OW 5284   0.543   6.960   0.560
 1462SOL    HW1 5285   0.536   7.016   0.477
 1462SOL    HW2 5286   0.630   6.910   0.560
 1463SOL     OW 5287   1.434   5.643   6.580
 1463SOL    HW1 5288   1.496   5.626   6.656
 1463SOL    HW2 5289   1.486   5.662   6.497
 1464SOL     OW 5290   6.973   4.423   4.341
 1464SOL    HW1 5291   6.897   4.374   4.297
 1464SOL    HW2 5292   0.028   4.415   4.284
 1465SOL     OW 5293   1.324   1.627   3.475
 1465SOL    HW1 5294   1.318   1.682   3.391
 1465SOL    HW2 5295   1.329   1.688   3.554
 1466SOL     OW 5296   4.126   2.105   1.694
 1466SOL    HW1 5297   4.127   2.007   1.714
 1466SOL    HW2 5298   4.091   2.155   1.774
 1467SOL     OW 5299   1.488   0.639   3.974
 1467SOL    HW1 5300   1.543   0.700   4.031
 1467SOL    HW2 5301   1.497   0.545   4.007
 1468SOL     OW 5302   2.034   6.345   2.339
 1468SOL    HW1 5303   2.046   6.435   2.381
 1468SOL    HW2 5304   2.099   6.335   2.264
 1469SOL     OW 5305   6.249   5.352   3.361
 1469SOL    HW1 5306   6.321   5.305   3.311
 1469SOL    HW2 5307   6.211   5.425   3.304
 1470SOL     OW 5308   6.442   2.127   0.530
 1470SOL    HW1 5309   6.468   2.154   0.437
 1470SOL    HW2 5310   6.444   2.207   0.589
 1471SOL     OW 5311   5.528   7.005   1.633
 1471SOL    HW1 5312   5.529   7.024   1.731
 1471SOL    HW2 5313   5.617   6.969   1.605
 1472SOL     OW 5314   2.092   0.145   6.012
 1472SOL    HW1 5315   2.031   0.215   5.974
 1472SOL    HW2 5316   2.066   0.127   6.106
 1473SOL     OW 5317   3.023   5.215   4.428
 1473SOL    HW1 5318   2.980   5.300   4.398
 1473SOL    HW2 5319   3.106   5.199   4.375
 1474SOL     OW 5320   4.319   4.623   1.414
 1474SOL    HW1 5321   4.409   4.598   1.449
 1474SOL    HW2 5322   4.257   4.640   1.490
 1475SOL     OW 5323   4.915   0.327   0.076
 1475SOL    HW1 5324   4.864   0.379   0.007
 1475SOL    HW2 5325   5.013   0.346   0.066
 1476SOL     OW 5326   3.928   1.059   1.977
 1476SOL    HW1 5327   3.872   0.979   1.955
 1476SOL    HW2 5328   4.020   1.046   1.940
 1477SOL     OW 5329   4.090   5.119   1.604
 1477SOL    HW1 5330   4.021   5.172   1.653
 1477SOL    HW2 5331   4.117   5.040   1.660
 1478SOL     OW 5332   5.284   5.764   5.580
 1478SOL    HW1 5333   5.223   5.739   5.655
 1478SOL    HW2 5334   5.257   5.854   5.546
 1479SOL     OW 5335   3.272   3.236   1.297
 1479SOL    HW1 5336   3.267   3.206   1.393
 1479SOL    HW2 5337   3.221   3.172   1.240
 1480SOL     OW 5338   2.938   0.638   4.737
 1480SOL    HW1 5339   2.948   0.623   4.835
 1480SOL    HW2 5340   2.943   0.736   4.717
 1481SOL     OW 5341   5.070   2.591   5.333
 1481SOL    HW1 5342   5.036   2.669   5.282
 1481SOL    HW2 5343   5.043   2.599   5.429
 1482SOL     OW 5344   4.422   1.054   0.267
 1482SOL    HW1 5345   4.427   1.049   0.168
 1482SOL    HW2 5346   4.351   0.992   0.301
 1483SOL     OW 5347   4.873   1.224   6.261
 1483SOL    HW1 5348   4.828   1.268   6.183
 1483SOL    HW2 5349   4.843   1.267   6.346
 1484SOL     OW 5350   3.076   5.878   4.668
 1484SOL    HW1 5351   3.029   5.801   4.712
 1484SOL    HW2 5352   3.139   5.921   4.734
 1485SOL     OW 5353   4.896   2.513   2.809
 1485SOL    HW1 5354   4.798   2.535   2.817
 1485SOL    HW2 5355   4.911   2.461   2.725
 1486SOL     OW 5356   4.953   6.653   3.985
 1486SOL    HW1 5357   4.965   6.680   3.889
 1486SOL    HW2 5358   5.031   6.686   4.039
 1487SOL     OW 5359   6.888   0.407   0.581
 1487SOL    HW1 5360   6.897   0.507   0.584
 1487SOL    HW2 5361   6.829   0.377   0.656
 1488SOL     OW 5362   6.172   1.165   3.252
 1488SOL    HW1 5363   6.205   1.171   3.346
 1488SOL    HW2 5364   6.219   1.234   3.196
 1489SOL     OW 5365   4.398   4.696   6.195
 1489SOL    HW1 5366   4.373   4.785   6.233
 1489SOL    HW2 5367   4.490   4.672   6.223
 1490SOL     OW 5368   0.621   2.201   2.203
 1490SOL    HW1 5369   0.523   2.192   2.220
 1490SOL    HW2 5370   0.658   2.275   2.261
 1491SOL     OW 5371   0.123   3.091   2.536
 1491SOL    HW1 5372   0.162   3.000   2.548
 1491SOL    HW2 5373   0.187   3.149   2.485
 1492SOL     OW 5374   6.318   1.358   3.081
 1492SOL    HW1 5375   6.327   1.299   3.001
 1492SOL    HW2 5376   6.236   1.414   3.072
 1493SOL     OW 5377   4.835   2.525   5.754
 1493SOL    HW1 5378   4.863   2.517   5.849
 1493SOL    HW2 5379   4.872   2.609   5.714
 1494SOL     OW 5380   6.035   3.559   6.135
 1494SOL    HW1 5381   6.129   3.593   6.139
 1494SOL    HW2 5382   5.992   3.569   6.226
 1495SOL     OW 5383   6.122   3.799   4.398
 1495SOL    HW1 5384   6.213   3.834   4.376
 1495SOL    HW2 5385   6.060   3.821   4.323
 1496SOL     OW 5386   0.030   5.733   6.957
 1496SOL    HW1 5387   6.959   5.754   6.954
 1496SOL    HW2 5388   0.067   5.757   0.019
 1497SOL     OW 5389   5.508   3.307   2.479
 1497SOL    HW1 5390   5.467   3.397   2.459
 1497SOL    HW2 5391   5.520   3.298   2.578
 1498SOL     OW 5392   3.070   4.985   0.976
 1498SOL    HW1 5393   3.047   5.064   1.034
 1498SOL    HW2 5394   3.009   4.909   0.998
 1499SOL     OW 5395   0.387   4.198   5.580
 1499SOL    HW1 5396   0.443   4.121   5.549
 1499SOL    HW2 5397   0.424   4.283   5.542
 1500SOL     OW 5398   0.728   5.741   1.368
 1500SOL    HW1 5399   0.720   5.725   1.270
 1500SOL    HW2 5400   0.799   5.683   1.406
 1501SOL     OW 5401   5.197   1.653   6.210
 1501SOL    HW1 5402   5.273   1.717   6.222
 1501SOL    HW2 5403   5.232   1.563   6.185
 1502SOL     OW 5404   6.375   0.139   6.504
 1502SOL    HW1 5405   6.417   0.063   6.553
 1502SOL    HW2 5406   6.439   0.216   6.501
 1503SOL     OW 5407   0.411   3.953   2.095
 1503SOL    HW1 5408   0.502   3.945   2.055
 1503SOL    HW2 5409   0.371   4.042   2.069
 1504SOL     OW 5410   0.642   0.988   3.011
 1504SOL    HW1 5411   0.684   1.065   2.964
 1504SOL    HW2 5412   0.607   1.017   3.099
 1505SOL     OW 5413   5.422   6.205   4.887
 1505SOL    HW1 5414   5.469   6.134   4.939
 1505SOL    HW2 5415   5.381   6.165   4.805
 1506SOL     OW 5416   0.965   1.052   0.296
 1506SOL    HW1 5417   1.017   0.969   0.276
 1506SOL    HW2 5418   0.880   1.052   0.244
 1507SOL     OW 5419   1.749   2.597   4.708
 1507SOL    HW1 5420   1.701   2.684   4.708
 1507SOL    HW2 5421   1.721   2.543   4.788
 1508SOL     OW 5422   0.992   0.745   0.626
 1508SOL    HW1 5423   1.004   0.708   0.534
 1508SOL    HW2 5424   1.029   0.681   0.694
 1509SOL     OW 5425   5.165   0.421   3.776
 1509SOL    HW1 5426   5.232   0.492   3.795
 1509SOL    HW2 5427   5.179   0.344   3.837
 1510SOL     OW 5428   3.762   5.727   3.975
 1510SOL    HW1 5429   3.663   5.737   3.976
 1510SOL    HW2 5430   3.804   5.815   3.951
 1511SOL     OW 5431   3.771   3.522   4.429
 1511SOL    HW1 5432   3.793   3.546   4.523
 1511SOL    HW2 5433   3.853   3.489   4.383
 1512SOL     OW 5434   6.571   6.063   0.856
 1512SOL    HW1 5435   6.658   6.014   0.842
 1512SOL    HW2 5436   6.523   6.070   0.769
 1513SOL     OW 5437   3.254   0.378   6.002
 1513SOL    HW1 5438   3.171   0.360   5.949
 1513SOL    HW2 5439   3.279   0.475   5.992
 1514SOL     OW 5440   3.486   2.307   5.558
 1514SOL    HW1 5441   3.517   2.262   5.475
 1514SOL    HW2 5442   3.543   2.280   5.635
 1515SOL     OW 5443   6.562   1.710   2.081
 1515SOL    HW1 5444   6.573   1.809   2.090
 1515SOL    HW2 5445   6.589   1.666   2.167
 1516SOL     OW 5446   6.172   6.402   4.921
 1516SOL    HW1 5447   6.100   6.384   4.988
 1516SOL    HW2 5448   6.132   6.410   4.830
 1517SOL     OW 5449   3.850   6.072   3.683
 1517SOL    HW1 5450   3.899   6.157   3.661
 1517SOL    HW2 5451   3.849   6.013   3.603
 1518SOL     OW 5452   0.312   2.331   0.718
 1518SOL    HW1 5453   0.242   2.262   0.701
 1518SOL    HW2 5454   0.320   2.391   0.639
 1519SOL     OW 5455   6.751   4.327   0.079
 1519SOL    HW1 5456   6.787   4.286   7.022
 1519SOL    HW2 5457   6.677   4.270   0.115
 1520SOL     OW 5458   7.001   5.456   2.059
 1520SOL    HW1 5459   0.052   5.434   2.118
 1520SOL    HW2 5460   6.994   5.555   2.048
 1521SOL     OW 5461   1.988   5.196   6.049
 1521SOL    HW1 5462   1.990   5.241   5.959
 1521SOL    HW2 5463   1.914   5.129   6.051
 1522SOL     OW 5464   5.071   5.365   4.919
 1522SOL    HW1 5465   5.079   5.389   4.822
 1522SOL    HW2 5466   4.974   5.368   4.946
 1523SOL     OW 5467   3.645   6.357   6.513
 1523SOL    HW1 5468   3.741   6.347   6.487
 1523SOL    HW2 5469   3.638   6.369   6.612
 1524SOL     OW 5470   2.300   1.637   2.395
 1524SOL    HW1 5471   2.342   1.565   2.339
 1524SOL    HW2 5472   2.349   1.646   2.481
 1525SOL     OW 5473   5.121   2.938   0.518
 1525SOL    HW1 5474   5.178   2.884   0.580
 1525SOL    HW2 5475   5.179   3.004   0.469
 1526SOL     OW 5476   0.968   1.212   0.937
 1526SOL    HW1 5477   0.959   1.205   1.037
 1526SOL    HW2 5478   0.896   1.270   0.901
 1527SOL     OW 5479   3.619   1.216   4.275
 1527SOL    HW1 5480   3.625   1.277   4.354
 1527SOL    HW2 5481   3.532   1.231   4.228
 1528SOL     OW 5482   4.819   3.741   1.109
 1528SOL    HW1 5483   4.799   3.753   1.206
 1528SOL    HW2 5484   4.858   3.825   1.072
 1529SOL     OW 5485   4.760   1.399   6.061
 1529SOL    HW1 5486   4.856   1.414   6.036
 1529SOL    HW2 5487   4.713   1.352   5.987
 1530SOL     OW 5488   4.031   6.864   1.541
 1530SOL    HW1 5489   3.976   6.947   1.545
 1530SOL    HW2 5490   3.999   6.798   1.609
 1531SOL     OW 5491   3.510   6.692   4.493
 1531SOL    HW1 5492   3.463   6.683   4.581
 1531SOL    HW2 5493   3.599   6.645   4.497
 1532SOL     OW 5494   2.846   5.485   5.893
 1532SOL    HW1 5495   2.888   5.568   5.856
 1532SOL    HW2 5496   2.826   5.499   5.990
 1533SOL     OW 5497   5.354   5.414   1.442
 1533SOL    HW1 5498   5.428   5.355   1.472
 1533SOL    HW2 5499   5.277   5.358   1.411
 1534SOL     OW 5500   3.853   6.060   6.681
 1534SOL    HW1 5501   3.766   6.016   6.660
 1534SOL    HW2 5502   3.902   6.080   6.596
 1535SOL     OW 5503   6.105   6.467   4.468
 1535SOL    HW1 5504   6.163   6.500   4.543
 1535SOL    HW2 5505   6.162   6.447   4.389
 1536SOL     OW 5506   4.281   4.374   6.446
 1536SOL    HW1 5507   4.214   4.382   6.520
 1536SOL    HW2 5508   4.244   4.414   6.362
 1537SOL     OW 5509   3.317   5.524   3.336
 1537SOL    HW1 5510   3.256   5.499   3.261
 1537SOL    HW2 5511   3.283   5.607   3.380
 1538SOL     OW 5512   3.609   1.288   0.412
 1538SOL    HW1 5513   3.571   1.337   0.491
 1538SOL    HW2 5514   3.610   1.348   0.332
 1539SOL     OW 5515   5.562   3.639   1.013
 1539SOL    HW1 5516   5.625   3.602   0.946
 1539SOL    HW2 5517   5.479   3.672   0.967
 1540SOL     OW 5518   2.609   0.199   4.814
 1540SOL    HW1 5519   2.627   0.113   4.765
 1540SOL    HW2 5520   2.696   0.240   4.841
 1541SOL     OW 5521   3.598   2.958   4.510
 1541SOL    HW1 5522   3.681   2.995   4.467
 1541SOL    HW2 5523   3.624   2.901   4.588
 1542SOL     OW 5524   6.855   0.384   2.265
 1542SOL    HW1 5525   6.940   0.333   2.253
 1542SOL    HW2 5526   6.875   0.477   2.296
 1543SOL     OW 5527   2.852   5.333   6.482
 1543SOL    HW1 5528   2.763   5.332   6.527
 1543SOL    HW2 5529   2.921   5.364   6.546
 1544SOL     OW 5530   3.696   2.926   3.324
 1544SOL    HW1 5531   3.640   3.008   3.338
 1544SOL    HW2 5532   3.685   2.894   3.229
 1545SOL     OW 5533   6.166   6.887   2.762
 1545SOL    HW1 5534   6.095   6.825   2.794
 1545SOL    HW2 5535   6.249   6.874   2.816
 1546SOL     OW 5536   4.913   6.633   5.787
 1546SOL    HW1 5537   4.998   6.676   5.817
 1546SOL    HW2 5538   4.894   6.659   5.693
 1547SOL     OW 5539   1.567   4.304   6.851
 1547SOL    HW1 5540   1.583   4.262   6.762
 1547SOL    HW2 5541   1.635   4.375   6.868
 1548SOL     OW 5542   5.624   1.894   0.314
 1548SOL    HW1 5543   5.629   1.802   0.354
 1548SOL    HW2 5544   5.675   1.958   0.372
 1549SOL     OW 5545   4.201   1.389   4.637
 1549SOL    HW1 5546   4.254   1.305   4.647
 1549SOL    HW2 5547   4.238   1.444   4.562
 1550SOL     OW 5548   3.433   3.222   2.659
 1550SOL    HW1 5549   3.514   3.205   2.603
 1550SOL    HW2 5550   3.449   3.301   2.719
 1551SOL     OW 5551   0.333   5.657   6.485
 1551SOL    HW1 5552   0.283   5.688   6.566
 1551SOL    HW2 5553   0.289   5.575   6.448
 1552SOL     OW 5554   2.422   4.083   1.682
 1552SOL    HW1 5555   2.329   4.104   1.712
 1552SOL    HW2 5556   2.487   4.138   1.734
 1553SOL     OW 5557   6.846   1.548   5.869
 1553SOL    HW1 5558   6.888   1.632   5.903
 1553SOL    HW2 5559   6.797   1.567   5.784
 1554SOL     OW 5560   3.022   1.815   3.388
 1554SOL    HW1 5561   3.102   1.758   3.371
 1554SOL    HW2 5562   2.940   1.758   3.384
 1555SOL     OW 5563   6.431   3.103   6.170
 1555SOL    HW1 5564   6.481   3.106   6.256
 1555SOL    HW2 5565   6.456   3.182   6.114
 1556SOL     OW 5566   2.091   1.195   5.853
 1556SOL    HW1 5567   2.084   1.235   5.761
 1556SOL    HW2 5568   2.153   1.252   5.908
 1557SOL     OW 5569   1.073   3.569   6.807
 1557SOL    HW1 5570   1.093   3.472   6.793
 1557SOL    HW2 5571   1.028   3.606   6.725
 1558SOL     OW 5572   6.989   0.527   5.363
 1558SOL    HW1 5573   6.933   0.452   5.397
 1558SOL    HW2 5574   0.053   0.524   5.406
 1559SOL     OW 5575   0.464   2.102   5.867
 1559SOL    HW1 5576   0.422   2.053   5.790
 1559SOL    HW2 5577   0.540   2.048   5.902
 1560SOL     OW 5578   0.122   0.487   6.430
 1560SOL    HW1 5579   0.027   0.508   6.452
 1560SOL    HW2 5580   0.163   0.433   6.503
 1561SOL     OW 5581   5.409   5.872   2.648
 1561SOL    HW1 5582   5.467   5.935   2.595
 1561SOL    HW2 5583   5.400   5.786   2.599
 1562SOL     OW 5584   5.344   0.385   2.974
 1562SOL    HW1 5585   5.306   0.445   2.903
 1562SOL    HW2 5586   5.276   0.372   3.046
 1563SOL     OW 5587   3.510   1.404   5.968
 1563SOL    HW1 5588   3.456   1.411   6.052
 1563SOL    HW2 5589   3.449   1.397   5.890
 1564SOL     OW 5590   2.218   2.028   2.161
 1564SOL    HW1 5591   2.185   2.013   2.254
 1564SOL    HW2 5592   2.317   2.043   2.163
 1565SOL     OW 5593   5.154   3.922   1.685
 1565SOL    HW1 5594   5.067   3.906   1.639
 1565SOL    HW2 5595   5.206   3.837   1.689
 1566SOL     OW 5596   5.393   4.174   3.448
 1566SOL    HW1 5597   5.301   4.137   3.458
 1566SOL    HW2 5598   5.454   4.103   3.412
 1567SOL     OW 5599   6.877   5.296   5.651
 1567SOL    HW1 5600   6.856   5.240   5.732
 1567SOL    HW2 5601   6.969   5.275   5.619
 1568SOL     OW 5602   0.773   0.431   0.838
 1568SOL    HW1 5603   0.699   0.465   0.780
 1568SOL    HW2 5604   0.737   0.412   0.929
 1569SOL     OW 5605   3.834   6.366   5.486
 1569SOL    HW1 5606   3.774   6.311   5.427
 1569SOL    HW2 5607   3.914   6.395   5.434
 1570SOL     OW 5608   3.047   1.797   1.404
 1570SOL    HW1 5609   2.951   1.773   1.391
 1570SOL    HW2 5610   3.065   1.886   1.362
 1571SOL     OW 5611   6.372   3.626   1.402
 1571SOL    HW1 5612   6.305   3.623   1.477
 1571SOL    HW2 5613   6.458   3.663   1.436
 1572SOL     OW 5614   1.385   0.353   1.851
 1572SOL    HW1 5615   1.376   0.371   1.753
 1572SOL    HW2 5616   1.402   0.256   1.866
 1573SOL     OW 5617   4.346   0.456   1.970
 1573SOL    HW1 5618   4.292   0.505   1.901
 1573SOL    HW2 5619   4.440   0.491   1.970
 1574SOL     OW 5620   6.505   2.179   2.315
 1574SOL    HW1 5621   6.492   2.278   2.313
 1574SOL    HW2 5622   6.597   2.158   2.348
 1575SOL     OW 5623   1.858   2.112   0.382
 1575SOL    HW1 5624   1.832   2.201   0.418
 1575SOL    HW2 5625   1.911   2.123   0.298
 1576SOL     OW 5626   5.873   5.993   3.946
 1576SOL    HW1 5627   5.790   5.969   3.996
 1576SOL    HW2 5628   5.858   5.978   3.848
 1577SOL     OW 5629   2.881   0.469   5.381
 1577SOL    HW1 5630   2.852   0.410   5.456
 1577SOL    HW2 5631   2.847   0.562   5.396
 1578SOL     OW 5632   5.561   4.394   5.748
 1578SOL    HW1 5633   5.593   4.452   5.822
 1578SOL    HW2 5634   5.486   4.336   5.782
 1579SOL     OW 5635   0.933   0.934   3.627
 1579SOL    HW1 5636   1.013   0.940   3.686
 1579SOL    HW2 5637   0.948   0.991   3.546
 1580SOL     OW 5638   3.179   4.434   5.332
 1580SOL    HW1 5639   3.226   4.360   5.283
 1580SOL    HW2 5640   3.105   4.470   5.275
 1581SOL     OW 5641   6.814   4.265   4.170
 1581SOL    HW1 5642   6.864   4.232   4.090
 1581SOL    HW2 5643   6.727   4.304   4.141
 1582SOL     OW 5644   0.520   5.037   4.318
 1582SOL    HW1 5645   0.576   5.116   4.343
 1582SOL    HW2 5646   0.441   5.032   4.379
 1583SOL     OW 5647   1.651   3.173   3.555
 1583SOL    HW1 5648   1.681   3.085   3.591
 1583SOL    HW2 5649   1.726   3.215   3.504
 1584SOL     OW 5650   2.277   0.243   5.823
 1584SOL    HW1 5651   2.231   0.225   5.909
 1584SOL    HW2 5652   2.333   0.325   5.830
 1585SOL     OW 5653   5.431   1.453   3.994
 1585SOL    HW1 5654   5.466   1.363   4.021
 1585SOL    HW2 5655   5.369   1.443   3.916
 1586SOL     OW 5656   3.872   3.815   2.807
 1586SOL    HW1 5657   3.889   3.824   2.709
 1586SOL    HW2 5658   3.949   3.768   2.850
 1587SOL     OW 5659   3.430   6.726   6.889
 1587SOL    HW1 5660   3.502   6.693   6.950
 1587SOL    HW2 5661   3.415   6.661   6.816
 1588SOL     OW 5662   5.754   2.693   1.494
 1588SOL    HW1 5663   5.682   2.699   1.563
 1588SOL    HW2 5664   5.751   2.773   1.435
 1589SOL     OW 5665   5.926   4.395   4.734
 1589SOL    HW1 5666   5.978   4.477   4.757
 1589SOL    HW2 5667   5.869   4.368   4.811
 1590SOL     OW 5668   1.932   0.287   6.439
 1590SOL    HW1 5669   1.837   0.258   6.446
 1590SOL    HW2 5670   1.952   0.353   6.511
 1591SOL     OW 5671   1.242   4.486   2.121
 1591SOL    HW1 5672   1.267   4.560   2.184
 1591SOL    HW2 5673   1.191   4.524   2.044
 1592SOL     OW 5674   3.246   3.507   2.780
 1592SOL    HW1 5675   3.260   3.453   2.862
 1592SOL    HW2 5676   3.152   3.540   2.777
 1593SOL     OW 5677   1.334   5.537   4.686
 1593SOL    HW1 5678   1.234   5.535   4.677
 1593SOL    HW2 5679   1.366   5.446   4.713
 1594SOL     OW 5680   6.775   5.068   3.168
 1594SOL    HW1 5681   6.824   5.113   3.242
 1594SOL    HW2 5682   6.803   4.972   3.162
 1595SOL     OW 5683   6.576   4.844   6.391
 1595SOL    HW1 5684   6.602   4.800   6.476
 1595SOL    HW2 5685   6.653   4.846   6.328
 1596SOL     OW 5686   2.573   5.162   5.785
 1596SOL    HW1 5687   2.495   5.217   5.814
 1596SOL    HW2 5688   2.540   5.085   5.730
 1597SOL     OW 5689   3.034   6.130   1.439
 1597SOL    HW1 5690   3.023   6.031   1.444
 1597SOL    HW2 5691   2.954   6.170   1.395
 1598SOL     OW 5692   0.086   5.283   1.110
 1598SOL    HW1 5693   0.095   5.382   1.111
 1598SOL    HW2 5694   0.163   5.242   1.159
 1599SOL     OW 5695   3.887   5.214   7.000
 1599SOL    HW1 5696   3.932   5.205   6.912
 1599SOL    HW2 5697   3.789   5.224   6.987
 1600SOL     OW 5698   4.537   1.050   4.418
 1600SOL    HW1 5699   4.572   1.101   4.340
 1600SOL    HW2 5700   4.605   0.983   4.448
 1601SOL     OW 5701   1.523   5.216   4.154
 1601SOL    HW1 5702   1.552   5.311   4.158
 1601SOL    HW2 5703   1.474   5.199   4.068
 1602SOL     OW 5704   1.063   5.063   3.680
 1602SOL    HW1 5705   0.969   5.096   3.687
 1602SOL    HW2 5706   1.079   4.992   3.749
 1603SOL     OW 5707   7.009   6.386   2.178
 1603SOL    HW1 5708   6.911   6.385   2.161
 1603SOL    HW2 5709   0.022   6.469   2.138
 1604SOL     OW 5710   0.545   5.043   6.589
 1604SOL    HW1 5711   0.513   4.992   6.669
 1604SOL    HW2 5712   0.484   5.120   6.571
 1605SOL     OW 5713   5.765   6.715   2.926
 1605SOL    HW1 5714   5.724   6.779   2.991
 1605SOL    HW2 5715   5.695   6.650   2.895
 1606SOL     OW 5716   5.186   6.886   6.254
 1606SOL    HW1 5717   5.114   6.818   6.238
 1606SOL    HW2 5718   5.198   6.940   6.171
 1607SOL     OW 5719   4.120   2.509   1.193
 1607SOL    HW1 5720   4.170   2.595   1.185
 1607SOL    HW2 5721   4.174   2.444   1.245
 1608SOL     OW 5722   2.555   6.690   0.425
 1608SOL    HW1 5723   2.487   6.748   0.470
 1608SOL    HW2 5724   2.583   6.732   0.339
 1609SOL     OW 5725   4.927   2.113   5.516
 1609SOL    HW1 5726   4.867   2.073   5.446
 1609SOL    HW2 5727   4.947   2.044   5.586
 1610SOL     OW 5728   6.245   5.387   4.379
 1610SOL    HW1 5729   6.344   5.380   4.365
 1610SOL    HW2 5730   6.225   5.467   4.436
 1611SOL     OW 5731   3.091   3.895   1.645
 1611SOL    HW1 5732   3.125   3.814   1.693
 1611SOL    HW2 5733   3.163   3.964   1.641
 1612SOL     OW 5734   2.509   0.806   4.456
 1612SOL    HW1 5735   2.530   0.806   4.554
 1612SOL    HW2 5736   2.468   0.894   4.431
 1613SOL     OW 5737   2.240   5.896   0.506
 1613SOL    HW1 5738   2.307   5.915   0.578
 1613SOL    HW2 5739   2.162   5.958   0.515
 1614SOL     OW 5740   5.680   2.049   0.069
 1614SOL    HW1 5741   5.667   1.986   0.146
 1614SOL    HW2 5742   5.776   2.048   0.041
 1615SOL     OW 5743   6.520   4.503   6.983
 1615SOL    HW1 5744   6.494   4.598   7.000
 1615SOL    HW2 5745   6.589   4.475   0.024
 1616SOL     OW 5746   3.484   2.181   6.057
 1616SOL    HW1 5747   3.543   2.200   5.979
 1616SOL    HW2 5748   3.537   2.133   6.127
 1617SOL     OW 5749   4.929   0.154   3.741
 1617SOL    HW1 5750   4.975   0.187   3.824
 1617SOL    HW2 5751   4.961   0.062   3.719
 1618SOL     OW 5752   5.427   2.719   0.979
 1618SOL    HW1 5753   5.468   2.715   1.070
 1618SOL    HW2 5754   5.435   2.812   0.943
 1619SOL     OW 5755   1.645   3.345   4.552
 1619SOL    HW1 5756   1.693   3.396   4.623
 1619SOL    HW2 5757   1.554   3.385   4.539
 1620SOL     OW 5758   2.772   5.077   1.522
 1620SOL    HW1 5759   2.748   4.980   1.515
 1620SOL    HW2 5760   2.719   5.119   1.596
 1621SOL     OW 5761   1.655   1.037   1.020
 1621SOL    HW1 5762   1.622   1.120   0.976
 1621SOL    HW2 5763   1.754   1.045   1.035
 1622SOL     OW 5764   2.418   2.045   5.366
 1622SOL    HW1 5765   2.371   1.979   5.424
 1622SOL    HW2 5766   2.360   2.125   5.352
 1623SOL     OW 5767   2.905   2.272   5.369
 1623SOL    HW1 5768   2.963   2.351   5.389
 1623SOL    HW2 5769   2.817   2.303   5.334
 1624SOL     OW 5770   2.738   1.551   0.141
 1624SOL    HW1 5771   2.833   1.578   0.128
 1624SOL    HW2 5772   2.704   1.505   0.059
 1625SOL     OW 5773   0.484   5.236   2.167
 1625SOL    HW1 5774   0.386   5.220   2.181
 1625SOL    HW2 5775   0.527   5.153   2.132
 1626SOL     OW 5776   1.818   2.565   6.431
 1626SOL    HW1 5777   1.767   2.644   6.464
 1626SOL    HW2 5778   1.773   2.529   6.348
 1627SOL     OW 5779   5.726   2.962   3.463
 1627SOL    HW1 5780   5.686   2.959   3.554
 1627SOL    HW2 5781   5.663   2.920   3.397
 1628SOL     OW 5782   3.067   4.456   0.587
 1628SOL    HW1 5783   3.130   4.394   0.634
 1628SOL    HW2 5784   2.973   4.429   0.606
 1629SOL     OW 5785   3.762   2.094   3.964
 1629SOL    HW1 5786   3.831   2.022   3.959
 1629SOL    HW2 5787   3.671   2.054   3.972
 1630SOL     OW 5788   0.187   4.705   5.344
 1630SOL    HW1 5789   0.105   4.681   5.292
 1630SOL    HW2 5790   0.217   4.626   5.397
 1631SOL     OW 5791   6.987   6.962   6.002
 1631SOL    HW1 5792   6.915   6.951   6.071
 1631SOL    HW2 5793   6.968   0.017   5.948
 1632SOL     OW 5794   6.070   0.927   1.446
 1632SOL    HW1 5795   6.114   1.013   1.422
 1632SOL    HW2 5796   6.023   0.890   1.366
 1633SOL     OW 5797   5.817   2.345   3.913
 1633SOL    HW1 5798   5.791   2.432   3.872
 1633SOL    HW2 5799   5.837   2.358   4.010
 1634SOL     OW 5800   3.282   0.932   6.576
 1634SOL    HW1 5801   3.308   0.836   6.565
 1634SOL    HW2 5802   3.342   0.989   6.521
 1635SOL     OW 5803   0.428   5.570   4.706
 1635SOL    HW1 5804   0.486   5.649   4.688
 1635SOL    HW2 5805   0.337   5.601   4.735
 1636SOL     OW 5806   2.109   6.068   1.371
 1636SOL    HW1 5807   2.130   6.160   1.405
 1636SOL    HW2 5808   2.023   6.070   1.321
 1637SOL     OW 5809   0.295   3.348   1.928
 1637SOL    HW1 5810   0.284   3.371   1.831
 1637SOL    HW2 5811   0.206   3.324   1.966
 1638SOL     OW 5812   0.445   3.486   4.974
 1638SOL    HW1 5813   0.405   3.446   4.892
 1638SOL    HW2 5814   0.373   3.523   5.032
 1639SOL     OW 5815   5.535   5.330   2.227
 1639SOL    HW1 5816   5.454   5.284   2.262
 1639SOL    HW2 5817   5.523   5.429   2.233
 1640SOL     OW 5818   6.540   0.156   1.120
 1640SOL    HW1 5819   6.548   0.249   1.084
 1640SOL    HW2 5820   6.444   0.129   1.125
 1641SOL     OW 5821   5.850   2.599   5.270
 1641SOL    HW1 5822   5.851   2.594   5.170
 1641SOL    HW2 5823   5.812   2.687   5.299
 1642SOL     OW 5824   6.855   2.046   1.540
 1642SOL    HW1 5825   6.826   2.004   1.627
 1642SOL    HW2 5826   6.912   1.981   1.489
 1643SOL     OW 5827   4.728   0.329   5.487
 1643SOL    HW1 5828   4.636   0.317   5.524
 1643SOL    HW2 5829   4.795   0.300   5.555
 1644SOL     OW 5830   3.155   1.267   1.532
 1644SOL    HW1 5831   3.184   1.188   1.586
 1644SOL    HW2 5832   3.189   1.351   1.575
 1645SOL     OW 5833   2.553   6.954   6.619
 1645SOL    HW1 5834   2.651   6.962   6.606
 1645SOL    HW2 5835   2.509   6.940   6.530
 1646SOL     OW 5836   0.834   3.890   1.070
 1646SOL    HW1 5837   0.874   3.813   1.120
 1646SOL    HW2 5838   0.752   3.921   1.118
 1647SOL     OW 5839   5.574   3.287   3.699
 1647SOL    HW1 5840   5.498   3.231   3.731
 1647SOL    HW2 5841   5.550   3.329   3.612
 1648SOL     OW 5842   4.642   0.031   2.153
 1648SOL    HW1 5843   4.629   0.070   2.062
 1648SOL    HW2 5844   4.564   6.999   2.175
 1649SOL     OW 5845   3.398   0.799   3.870
 1649SOL    HW1 5846   3.323   0.740   3.900
 1649SOL    HW2 5847   3.457   0.748   3.807
 1650SOL     OW 5848   2.898   6.567   3.827
 1650SOL    HW1 5849   2.997   6.578   3.817
 1650SOL    HW2 5850   2.870   6.597   3.918
 1651SOL     OW 5851   1.269   0.055   0.390
 1651SOL    HW1 5852   1.268   6.990   0.350
 1651SOL    HW2 5853   1.177   0.081   0.417
 1652SOL     OW 5854   2.719   2.509   1.731
 1652SOL    HW1 5855   2.695   2.424   1.683
 1652SOL    HW2 5856   2.801   2.494   1.786
 1653SOL     OW 5857   1.112   5.743   1.627
 1653SOL    HW1 5858   1.066   5.706   1.708
 1653SOL    HW2 5859   1.085   5.690   1.547
 1654SOL     OW 5860   7.008   3.522   2.909
 1654SOL    HW1 5861   6.965   3.557   2.992
 1654SOL    HW2 5862   0.067   3.572   2.894
 1655SOL     OW 5863   4.930   4.871   6.375
 1655SOL    HW1 5864   4.947   4.809   6.452
 1655SOL    HW2 5865   4.959   4.827   6.290
 1656SOL     OW 5866   0.820   5.089   3.426
 1656SOL    HW1 5867   0.742   5.092   3.362
 1656SOL    HW2 5868   0.904   5.075   3.375
 1657SOL     OW 5869   1.520   0.587   5.262
 1657SOL    HW1 5870   1.445   0.552   5.207
 1657SOL    HW2 5871   1.497   0.581   5.359
 1658SOL     OW 5872   6.042   6.154   2.973
 1658SOL    HW1 5873   6.054   6.079   3.038
 1658SOL    HW2 5874   5.945   6.178   2.968
 1659SOL     OW 5875   3.753   2.771   5.764
 1659SOL    HW1 5876   3.781   2.721   5.682
 1659SOL    HW2 5877   3.742   2.707   5.840
 1660SOL     OW 5878   1.906   5.504   3.898
 1660SOL    HW1 5879   1.864   5.554   3.822
 1660SOL    HW2 5880   1.876   5.409   3.895
 1661SOL     OW 5881   3.056   0.281   2.349
 1661SOL    HW1 5882   3.126   0.210   2.346
 1661SOL    HW2 5883   3.051   0.327   2.261
 1662SOL     OW 5884   0.878   0.723   3.303
 1662SOL    HW1 5885   0.819   0.737   3.223
 1662SOL    HW2 5886   0.836   0.764   3.383
 1663SOL     OW 5887   2.663   0.148   2.774
 1663SOL    HW1 5888   2.726   0.095   2.831
 1663SOL    HW2 5889   2.692   0.143   2.679
 1664SOL     OW 5890   2.210   5.709   3.871
 1664SOL    HW1 5891   2.182   5.644   3.942
 1664SOL    HW2 5892   2.130   5.762   3.843
 1665SOL     OW 5893   6.765   0.667   4.163
 1665SOL    HW1 5894   6.843   0.624   4.209
 1665SOL    HW2 5895   6.680   0.638   4.207
 1666SOL     OW 5896   5.623   2.881   6.731
 1666SOL    HW1 5897   5.570   2.806   6.690
 1666SOL    HW2 5898   5.613   2.877   6.831
 1667SOL     OW 5899   6.450   0.193   5.889
 1667SOL    HW1 5900   6.373   0.217   5.947
 1667SOL    HW2 5901   6.528   0.253   5.909
 1668SOL     OW 5902   3.824   0.914   5.787
 1668SOL    HW1 5903   3.774   0.888   5.870
 1668SOL    HW2 5904   3.762   0.917   5.709
 1669SOL     OW 5905   5.793   6.687   6.111
 1669SOL    HW1 5906   5.735   6.753   6.064
 1669SOL    HW2 5907   5.883   6.728   6.129
 1670SOL     OW 5908   5.465   4.549   6.116
 1670SOL    HW1 5909   5.465   4.449   6.129
 1670SOL    HW2 5910   5.531   4.572   6.045
 1671SOL     OW 5911   5.180   3.064   0.130
 1671SOL    HW1 5912   5.094   3.074   0.180
 1671SOL    HW2 5913   5.189   3.140   0.064
 1672SOL     OW 5914   1.762   5.084   2.744
 1672SOL    HW1 5915   1.775   5.000   2.796
 1672SOL    HW2 5916   1.754   5.161   2.807
 1673SOL     OW 5917   6.881   2.929   4.106
 1673SOL    HW1 5918   6.859   3.023   4.132
 1673SOL    HW2 5919   6.863   2.916   4.009
 1674SOL     OW 5920   0.729   4.273   6.581
 1674SOL    HW1 5921   0.724   4.272   6.482
 1674SOL    HW2 5922   0.772   4.358   6.612
 1675SOL     OW 5923   4.573   1.748   6.724
 1675SOL    HW1 5924   4.645   1.814   6.744
 1675SOL    HW2 5925   4.484   1.793   6.726
 1676SOL     OW 5926   1.421   6.835   2.756
 1676SOL    HW1 5927   1.471   6.758   2.717
 1676SOL    HW2 5928   1.411   6.907   2.687
 1677SOL     OW 5929   5.911   1.875   5.242
 1677SOL    HW1 5930   5.965   1.864   5.159
 1677SOL    HW2 5931   5.856   1.959   5.234
 1678SOL     OW 5932   4.997   0.283   1.196
 1678SOL    HW1 5933   4.899   0.300   1.189
 1678SOL    HW2 5934   5.041   0.362   1.238
 1679SOL     OW 5935   0.741   3.534   6.686
 1679SOL    HW1 5936   0.675   3.539   6.611
 1679SOL    HW2 5937   0.703   3.577   6.767
 1680SOL     OW 5938   1.101   1.926   4.524
 1680SOL    HW1 5939   1.021   1.952   4.471
 1680SOL    HW2 5940   1.160   2.006   4.537
 1681SOL     OW 5941   6.423   5.505   1.134
 1681SOL    HW1 5942   6.482   5.433   1.098
 1681SOL    HW2 5943   6.358   5.533   1.063
 1682SOL     OW 5944   6.611   3.644   5.664
 1682SOL    HW1 5945   6.553   3.630   5.744
 1682SOL    HW2 5946   6.665   3.562   5.647
 1683SOL     OW 5947   5.416   6.308   1.306
 1683SOL    HW1 5948   5.359   6.257   1.371
 1683SOL    HW2 5949   5.437   6.249   1.227
 1684SOL     OW 5950   1.062   6.091   4.996
 1684SOL    HW1 5951   1.114   6.007   5.008
 1684SOL    HW2 5952   1.011   6.111   5.080
 1685SOL     OW 5953   1.489   1.442   6.983
 1685SOL    HW1 5954   1.587   1.423   6.969
 1685SOL    HW2 5955   1.455   1.385   0.031
 1686SOL     OW 5956   1.629   6.865   0.306
 1686SOL    HW1 5957   1.579   6.794   0.356
 1686SOL    HW2 5958   1.608   6.955   0.346
 1687SOL     OW 5959   1.656   6.477   1.818
 1687SOL    HW1 5960   1.701   6.455   1.732
 1687SOL    HW2 5961   1.710   6.442   1.894
 1688SOL     OW 5962   1.048   1.854   3.108
 1688SOL    HW1 5963   1.042   1.832   3.206
 1688SOL    HW2 5964   1.023   1.950   3.094
 1689SOL     OW 5965   2.126   1.884   2.899
 1689SOL    HW1 5966   2.087   1.814   2.839
 1689SOL    HW2 5967   2.127   1.972   2.852
 1690SOL     OW 5968   1.380   1.244   1.239
 1690SOL    HW1 5969   1.440   1.171   1.271
 1690SOL    HW2 5970   1.434   1.321   1.205
 1691SOL     OW 5971   5.347   4.426   2.653
 1691SOL    HW1 5972   5.365   4.483   2.734
 1691SOL    HW2 5973   5.249   4.417   2.640
 1692SOL     OW 5974   1.410   0.478   2.398
 1692SOL    HW1 5975   1.506   0.496   2.378
 1692SOL    HW2 5976   1.392   0.380   2.390
 1693SOL     OW 5977   3.065   2.066   3.303
 1693SOL    HW1 5978   3.046   1.969   3.319
 1693SOL    HW2 5979   3.141   2.095   3.362
 1694SOL     OW 5980   5.516   6.023   5.021
 1694SOL    HW1 5981   5.611   6.029   5.051
 1694SOL    HW2 5982   5.471   5.948   5.069
 1695SOL     OW 5983   3.193   2.756   5.683
 1695SOL    HW1 5984   3.181   2.789   5.777
 1695SOL    HW2 5985   3.187   2.656   5.682
 1696SOL     OW 5986   4.302   6.019   0.836
 1696SOL    HW1 5987   4.388   6.069   0.821
 1696SOL    HW2 5988   4.301   5.979   0.927
 1697SOL     OW 5989   0.950   1.373   1.919
 1697SOL    HW1 5990   1.023   1.386   1.851
 1697SOL    HW2 5991   0.864   1.410   1.884
 1698SOL     OW 5992   4.633   1.991   1.622
 1698SOL    HW1 5993   4.539   2.018   1.601
 1698SOL    HW2 5994   4.686   2.072   1.646
 1699SOL     OW 5995   2.294   3.278   1.015
 1699SOL    HW1 5996   2.264   3.328   0.934
 1699SOL    HW2 5997   2.231   3.297   1.091
 1700SOL     OW 5998   6.710   3.258   3.237
 1700SOL    HW1 5999   6.635   3.304   3.189
 1700SOL    HW2 6000   6.722   3.166   3.200
 1701SOL     OW 6001   5.624   3.241   4.086
 1701SOL    HW1 6002   5.579   3.328   4.105
 1701SOL    HW2 6003   5.723   3.256   4.079
 1702SOL     OW 6004   4.747   3.829   0.747
 1702SOL    HW1 6005   4.763   3.730   0.746
 1702SOL    HW2 6006   4.835   3.877   0.751
 1703SOL     OW 6007   1.513   3.650   0.184
 1703SOL    HW1 6008   1.579   3.718   0.152
 1703SOL    HW2 6009   1.458   3.617   0.107
 1704SOL     OW 6010   0.628   0.859   1.969
 1704SOL    HW1 6011   0.645   0.956   1.951
 1704SOL    HW2 6012   0.669   0.804   1.896
 1705SOL     OW 6013   4.377   3.076   1.650
 1705SOL    HW1 6014   4.299   3.138   1.652
 1705SOL    HW2 6015   4.446   3.107   1.715
 1706SOL     OW 6016   3.239   0.683   0.419
 1706SOL    HW1 6017   3.277   0.746   0.350
 1706SOL    HW2 6018   3.279   0.592   0.406
 1707SOL     OW 6019   5.403   2.205   3.629
 1707SOL    HW1 6020   5.446   2.160   3.708
 1707SOL    HW2 6021   5.403   2.304   3.643
 1708SOL     OW 6022   0.205   5.259   3.073
 1708SOL    HW1 6023   0.293   5.291   3.037
 1708SOL    HW2 6024   0.206   5.159   3.079
 1709SOL     OW 6025   2.771   6.138   2.173
 1709SOL    HW1 6026   2.779   6.103   2.080
 1709SOL    HW2 6027   2.781   6.063   2.239
 1710SOL     OW 6028   0.736   5.593   4.384
 1710SOL    HW1 6029   0.695   5.561   4.299
 1710SOL    HW2 6030   0.825   5.634   4.364
 1711SOL     OW 6031   1.398   4.538   5.385
 1711SOL    HW1 6032   1.314   4.539   5.439
 1711SOL    HW2 6033   1.377   4.562   5.290
 1712SOL     OW 6034   0.361   4.382   0.528
 1712SOL    HW1 6035   0.292   4.359   0.596
 1712SOL    HW2 6036   0.415   4.301   0.507
 1713SOL     OW 6037   1.140   2.687   1.131
 1713SOL    HW1 6038   1.189   2.745   1.066
 1713SOL    HW2 6039   1.158   2.721   1.224
 1714SOL     OW 6040   3.113   1.820   0.761
 1714SOL    HW1 6041   3.042   1.888   0.746
 1714SOL    HW2 6042   3.079   1.729   0.736
 1715SOL     OW 6043   0.206   3.151   3.083
 1715SOL    HW1 6044   0.130   3.205   3.047
 1715SOL    HW2 6045   0.172   3.062   3.113
 1716SOL     OW 6046   0.287   6.008   0.341
 1716SOL    HW1 6047   0.213   6.061   0.383
 1716SOL    HW2 6048   0.337   6.066   0.278
 1717SOL     OW 6049   3.016   0.237   6.787
 1717SOL    HW1 6050   3.055   0.197   6.870
 1717SOL    HW2 6051   2.918   0.217   6.782
 1718SOL     OW 6052   1.221   4.487   6.482
 1718SOL    HW1 6053   1.320   4.495   6.498
 1718SOL    HW2 6054   1.180   4.432   6.555
 1719SOL     OW 6055   2.365   3.704   1.367
 1719SOL    HW1 6056   2.432   3.706   1.293
 1719SOL    HW2 6057   2.397   3.643   1.440
 1720SOL     OW 6058   6.835   0.489   1.233
 1720SOL    HW1 6059   6.743   0.482   1.194
 1720SOL    HW2 6060   6.833   0.462   1.329
 1721SOL     OW 6061   2.185   6.200   3.346
 1721SOL    HW1 6062   2.169   6.247   3.259
 1721SOL    HW2 6063   2.245   6.255   3.404
 1722SOL     OW 6064   6.165   6.451   2.404
 1722SOL    HW1 6065   6.087   6.490   2.356
 1722SOL    HW2 6066   6.221   6.398   2.340
 1723SOL     OW 6067   6.660   1.571   2.314
 1723SOL    HW1 6068   6.705   1.599   2.398
 1723SOL    HW2 6069   6.708   1.492   2.275
 1724SOL     OW 6070   4.981   0.898   0.068
 1724SOL    HW1 6071   4.923   0.906   7.014
 1724SOL    HW2 6072   4.930   0.852   0.141
 1725SOL     OW 6073   3.937   4.415   1.341
 1725SOL    HW1 6074   3.918   4.317   1.332
 1725SOL    HW2 6075   4.029   4.428   1.379
 1726SOL     OW 6076   0.555   4.106   4.606
 1726SOL    HW1 6077   0.499   4.116   4.688
 1726SOL    HW2 6078   0.583   4.010   4.597
 1727SOL     OW 6079   3.627   3.843   5.408
 1727SOL    HW1 6080   3.529   3.845   5.427
 1727SOL    HW2 6081   3.678   3.859   5.493
 1728SOL     OW 6082   4.333   4.569   3.015
 1728SOL    HW1 6083   4.250   4.623   3.022
 1728SOL    HW2 6084   4.353   4.551   2.918
 1729SOL     OW 6085   2.147   3.768   2.805
 1729SOL    HW1 6086   2.125   3.698   2.737
 1729SOL    HW2 6087   2.144   3.858   2.762
 1730SOL     OW 6088   6.125   2.866   5.315
 1730SOL    HW1 6089   6.097   2.853   5.410
 1730SOL    HW2 6090   6.044   2.883   5.258
 1731SOL     OW 6091   2.020   5.303   0.651
 1731SOL    HW1 6092   2.040   5.236   0.580
 1731SOL    HW2 6093   2.073   5.386   0.636
 1732SOL     OW 6094   0.259   4.423   6.655
 1732SOL    HW1 6095   0.307   4.469   6.580
 1732SOL    HW2 6096   0.325   4.376   6.713
 1733SOL     OW 6097   1.703   3.372   0.738
 1733SOL    HW1 6098   1.622   3.356   0.795
 1733SOL    HW2 6099   1.775   3.308   0.763
 1734SOL     OW 6100   4.875   2.419   1.486
 1734SOL    HW1 6101   4.954   2.358   1.479
 1734SOL    HW2 6102   4.796   2.376   1.442
 1735SOL     OW 6103   6.412   5.316   1.342
 1735SOL    HW1 6104   6.478   5.320   1.418
 1735SOL    HW2 6105   6.408   5.404   1.296
 1736SOL     OW 6106   3.809   3.279   0.367
 1736SOL    HW1 6107   3.871   3.318   0.435
 1736SOL    HW2 6108   3.761   3.353   0.319
 1737SOL     OW 6109   2.016   6.517   3.382
 1737SOL    HW1 6110   2.045   6.613   3.374
 1737SOL    HW2 6111   2.039   6.468   3.298
 1738SOL     OW 6112   1.917   2.962   2.398
 1738SOL    HW1 6113   1.949   3.053   2.371
 1738SOL    HW2 6114   1.954   2.893   2.335
 1739SOL     OW 6115   4.409   1.965   4.959
 1739SOL    HW1 6116   4.332   2.025   4.940
 1739SOL    HW2 6117   4.474   1.970   4.883
 1740SOL     OW 6118   0.321   1.037   5.748
 1740SOL    HW1 6119   0.332   1.119   5.692
 1740SOL    HW2 6120   0.360   1.053   5.839
 1741SOL     OW 6121   1.214   0.091   2.578
 1741SOL    HW1 6122   1.294   0.037   2.551
 1741SOL    HW2 6123   1.169   0.128   2.497
 1742SOL     OW 6124   6.449   0.750   4.570
 1742SOL    HW1 6125   6.415   0.661   4.538
 1742SOL    HW2 6126   6.434   0.819   4.499
 1743SOL     OW 6127   4.031   1.370   1.215
 1743SOL    HW1 6128   4.057   1.405   1.305
 1743SOL    HW2 6129   3.969   1.293   1.226
 1744SOL     OW 6130   2.975   0.624   1.223
 1744SOL    HW1 6131   3.026   0.666   1.148
 1744SOL    HW2 6132   2.986   0.680   1.305
 1745SOL     OW 6133   0.356   2.262   2.939
 1745SOL    HW1 6134   0.444   2.304   2.960
 1745SOL    HW2 6135   0.371   2.170   2.902
 1746SOL     OW 6136   2.687   1.139   5.755
 1746SOL    HW1 6137   2.669   1.219   5.813
 1746SOL    HW2 6138   2.622   1.138   5.679
 1747SOL     OW 6139   3.303   0.318   2.054
 1747SOL    HW1 6140   3.301   0.418   2.051
 1747SOL    HW2 6141   3.209   0.284   2.059
 1748SOL     OW 6142   5.072   2.021   2.509
 1748SOL    HW1 6143   4.989   2.064   2.474
 1748SOL    HW2 6144   5.138   2.009   2.435
 1749SOL     OW 6145   4.286   0.172   6.458
 1749SOL    HW1 6146   4.196   0.215   6.450
 1749SOL    HW2 6147   4.355   0.231   6.417
 1750SOL     OW 6148   4.376   1.193   2.985
 1750SOL    HW1 6149   4.321   1.223   3.063
 1750SOL    HW2 6150   4.462   1.155   3.017
 1751SOL     OW 6151   1.636   5.413   3.747
 1751SOL    HW1 6152   1.703   5.467   3.696
 1751SOL    HW2 6153   1.684   5.352   3.810
 1752SOL     OW 6154   6.201   1.823   0.677
 1752SOL    HW1 6155   6.161   1.913   0.689
 1752SOL    HW2 6156   6.201   1.774   0.764
 1753SOL     OW 6157   1.537   0.150   1.672
 1753SOL    HW1 6158   1.448   0.183   1.640
 1753SOL    HW2 6159   1.554   0.059   1.634
 1754SOL     OW 6160   3.794   3.098   0.785
 1754SOL    HW1 6161   3.823   3.099   0.880
 1754SOL    HW2 6162   3.732   3.175   0.768
 1755SOL     OW 6163   5.259   4.049   0.764
 1755SOL    HW1 6164   5.208   4.130   0.796
 1755SOL    HW2 6165   5.339   4.035   0.822
 1756SOL     OW 6166   6.946   5.358   4.591
 1756SOL    HW1 6167   6.921   5.364   4.687
 1756SOL    HW2 6168   6.895   5.425   4.538
 1757SOL     OW 6169   3.160   6.649   4.808
 1757SOL    HW1 6170   3.143   6.698   4.894
 1757SOL    HW2 6171   3.186   6.715   4.737
 1758SOL     OW 6172   1.947   0.479   3.185
 1758SOL    HW1 6173   1.867   0.472   3.244
 1758SOL    HW2 6174   1.935   0.419   3.106
 1759SOL     OW 6175   0.542   5.663   6.333
 1759SOL    HW1 6176   0.617   5.702   6.386
 1759SOL    HW2 6177   0.459   5.662   6.390
 1760SOL     OW 6178   6.087   0.732   2.905
 1760SOL    HW1 6179   6.026   0.788   2.961
 1760SOL    HW2 6180   6.089   0.768   2.811
 1761SOL     OW 6181   6.505   1.756   1.191
 1761SOL    HW1 6182   6.406   1.761   1.200
 1761SOL    HW2 6183   6.548   1.823   1.251
 1762SOL     OW 6184   6.045   1.690   6.098
 1762SOL    HW1 6185   6.040   1.663   6.194
 1762SOL    HW2 6186   5.954   1.719   6.068
 1763SOL     OW 6187   2.041   3.669   4.134
 1763SOL    HW1 6188   2.005   3.755   4.171
 1763SOL    HW2 6189   2.082   3.615   4.207
 1764SOL     OW 6190   0.379   3.478   3.587
 1764SOL    HW1 6191   0.415   3.400   3.537
 1764SOL    HW2 6192   0.326   3.446   3.665
 1765SOL     OW 6193   2.856   2.118   6.385
 1765SOL    HW1 6194   2.818   2.210   6.379
 1765SOL    HW2 6195   2.951   2.119   6.353
 1766SOL     OW 6196   5.358   3.174   5.128
 1766SOL    HW1 6197   5.352   3.266   5.167
 1766SOL    HW2 6198   5.451   3.157   5.096
 1767SOL     OW 6199   5.402   3.371   2.088
 1767SOL    HW1 6200   5.353   3.421   2.160
 1767SOL    HW2 6201   5.416   3.431   2.010
 1768SOL     OW 6202   5.185   6.552   3.756
 1768SOL    HW1 6203   5.203   6.540   3.854
 1768SOL    HW2 6204   5.144   6.468   3.720
 1769SOL     OW 6205   3.900   1.435   2.422
 1769SOL    HW1 6206   3.921   1.449   2.518
 1769SOL    HW2 6207   3.806   1.465   2.403
 1770SOL     OW 6208   2.461   5.968   5.344
 1770SOL    HW1 6209   2.485   6.056   5.386
 1770SOL    HW2 6210   2.488   5.969   5.247
 1771SOL     OW 6211   4.111   5.377   6.834
 1771SOL    HW1 6212   4.195   5.382   6.780
 1771SOL    HW2 6213   4.041   5.435   6.793
 1772SOL     OW 6214   3.141   6.515   3.062
 1772SOL    HW1 6215   3.213   6.446   3.073
 1772SOL    HW2 6216   3.155   6.588   3.128
 1773SOL     OW 6217   1.663   5.435   6.220
 1773SOL    HW1 6218   1.643   5.339   6.202
 1773SOL    HW2 6219   1.643   5.456   6.316
 1774SOL     OW 6220   4.531   5.664   1.372
 1774SOL    HW1 6221   4.462   5.692   1.439
 1774SOL    HW2 6222   4.511   5.707   1.284
 1775SOL     OW 6223   0.756   3.939   2.165
 1775SOL    HW1 6224   0.708   3.851   2.165
 1775SOL    HW2 6225   0.782   3.962   2.071
 1776SOL     OW 6226   3.874   6.187   4.638
 1776SOL    HW1 6227   3.878   6.251   4.715
 1776SOL    HW2 6228   3.874   6.094   4.673
 1777SOL     OW 6229   4.173   6.156   0.655
 1777SOL    HW1 6230   4.218   6.103   0.727
 1777SOL    HW2 6231   4.143   6.244   0.691
 1778SOL     OW 6232   5.259   3.880   5.891
 1778SOL    HW1 6233   5.275   3.792   5.936
 1778SOL    HW2 6234   5.345   3.918   5.858
 1779SOL     OW 6235   3.822   0.542   4.823
 1779SOL    HW1 6236   3.887   0.482   4.777
 1779SOL    HW2 6237   3.747   0.486   4.859
 1780SOL     OW 6238   3.598   3.181   6.380
 1780SOL    HW1 6239   3.672   3.134   6.332
 1780SOL    HW2 6240   3.581   3.270   6.337
 1781SOL     OW 6241   3.995   5.410   2.947
 1781SOL    HW1 6242   3.906   5.366   2.946
 1781SOL    HW2 6243   3.995   5.487   3.010
 1782SOL     OW 6244   2.667   0.870   3.502
 1782SOL    HW1 6245   2.739   0.806   3.473
 1782SOL    HW2 6246   2.692   0.963   3.474
 1783SOL     OW 6247   2.235   5.984   6.715
 1783SOL    HW1 6248   2.206   5.999   6.620
 1783SOL    HW2 6249   2.169   6.026   6.777
 1784SOL     OW 6250   3.448   0.187   6.075
 1784SOL    HW1 6251   3.390   0.265   6.052
 1784SOL    HW2 6252   3.391   0.105   6.087
 1785SOL     OW 6253   6.079   3.351   2.503
 1785SOL    HW1 6254   6.019   3.310   2.433
 1785SOL    HW2 6255   6.173   3.350   2.469
 1786SOL     OW 6256   2.472   2.361   0.318
 1786SOL    HW1 6257   2.400   2.380   0.385
 1786SOL    HW2 6258   2.556   2.337   0.366
 1787SOL     OW 6259   3.455   1.777   6.180
 1787SOL    HW1 6260   3.473   1.859   6.126
 1787SOL    HW2 6261   3.356   1.764   6.190
 1788SOL     OW 6262   1.537   5.117   5.434
 1788SOL    HW1 6263   1.497   5.161   5.353
 1788SOL    HW2 6264   1.535   5.018   5.422
 1789SOL     OW 6265   5.900   1.485   0.080
 1789SOL    HW1 6266   5.988   1.521   0.112
 1789SOL    HW2 6267   5.849   1.558   0.035
 1790SOL     OW 6268   3.949   6.712   3.630
 1790SOL    HW1 6269   4.041   6.689   3.599
 1790SOL    HW2 6270   3.953   6.741   3.726
 1791SOL     OW 6271   0.199   0.178   2.931
 1791SOL    HW1 6272   0.110   0.156   2.893
 1791SOL    HW2 6273   0.251   0.094   2.945
 1792SOL     OW 6274   0.918   3.471   5.531
 1792SOL    HW1 6275   0.824   3.438   5.536
 1792SOL    HW2 6276   0.921   3.567   5.557
 1793SOL     OW 6277   6.943   0.564   3.772
 1793SOL    HW1 6278   6.895   0.536   3.688
 1793SOL    HW2 6279   6.918   0.503   3.847
 1794SOL     OW 6280   5.044   5.594   6.189
 1794SOL    HW1 6281   5.055   5.624   6.284
 1794SOL    HW2 6282   5.010   5.670   6.134
 1795SOL     OW 6283   0.058   2.674   0.720
 1795SOL    HW1 6284   0.111   2.652   0.638
 1795SOL    HW2 6285   6.992   2.701   0.693
 1796SOL     OW 6286   2.362   1.037   5.635
 1796SOL    HW1 6287   2.400   1.094   5.563
 1796SOL    HW2 6288   2.271   1.005   5.609
 1797SOL     OW 6289   1.280   6.866   0.805
 1797SOL    HW1 6290   1.324   6.951   0.833
 1797SOL    HW2 6291   1.344   6.811   0.752
 1798SOL     OW 6292   4.696   2.785   3.567
 1798SOL    HW1 6293   4.745   2.722   3.507
 1798SOL    HW2 6294   4.712   2.758   3.663
 1799SOL     OW 6295   0.630   2.186   6.136
 1799SOL    HW1 6296   0.547   2.206   6.084
 1799SOL    HW2 6297   0.675   2.106   6.097
 1800SOL     OW 6298   4.147   4.745   1.228
 1800SOL    HW1 6299   4.212   4.680   1.268
 1800SOL    HW2 6300   4.131   4.720   1.133
 1801SOL     OW 6301   0.028   0.213   2.328
 1801SOL    HW1 6302   6.982   0.160   2.372
 1801SOL    HW2 6303   0.113   0.160   2.331
 1802SOL     OW 6304   6.186   5.603   4.552
 1802SOL    HW1 6305   6.187   5.613   4.652
 1802SOL    HW2 6306   6.128   5.674   4.512
 1803SOL     OW 6307   6.940   5.639   0.310
 1803SOL    HW1 6308   6.920   5.566   0.244
 1803SOL    HW2 6309   6.961   5.724   0.261
 1804SOL     OW 6310   3.058   3.831   5.320
 1804SOL    HW1 6311   2.983   3.880   5.275
 1804SOL    HW2 6312   3.096   3.764   5.256
 1805SOL     OW 6313   5.257   3.855   6.344
 1805SOL    HW1 6314   5.181   3.814   6.292
 1805SOL    HW2 6315   5.246   3.955   6.346
 1806SOL     OW 6316   1.735   0.085   1.197
 1806SOL    HW1 6317   1.693   7.023   1.218
 1806SOL    HW2 6318   1.738   0.140   1.280
 1807SOL     OW 6319   6.313   1.984   4.937
 1807SOL    HW1 6320   6.314   2.083   4.948
 1807SOL    HW2 6321   6.295   1.961   4.841
 1808SOL     OW 6322   0.525   4.822   4.837
 1808SOL    HW1 6323   0.490   4.746   4.782
 1808SOL    HW2 6324   0.559   4.787   4.924
 1809SOL     OW 6325   2.880   2.282   5.963
 1809SOL    HW1 6326   2.895   2.183   5.955
 1809SOL    HW2 6327   2.936   2.318   6.038
 1810SOL     OW 6328   3.002   6.498   3.408
 1810SOL    HW1 6329   2.942   6.428   3.368
 1810SOL    HW2 6330   3.054   6.541   3.335
 1811SOL     OW 6331   6.123   5.577   3.209
 1811SOL    HW1 6332   6.031   5.569   3.247
 1811SOL    HW2 6333   6.118   5.581   3.109
 1812SOL     OW 6334   4.069   5.735   5.756
 1812SOL    HW1 6335   4.159   5.759   5.794
 1812SOL    HW2 6336   4.073   5.642   5.720
 1813SOL     OW 6337   6.054   4.576   0.228
 1813SOL    HW1 6338   6.062   4.484   0.191
 1813SOL    HW2 6339   6.033   4.571   0.326
 1814SOL     OW 6340   4.519   0.278   2.437
 1814SOL    HW1 6341   4.534   0.195   2.491
 1814SOL    HW2 6342   4.431   0.319   2.462
 1815SOL     OW 6343   0.228   0.793   2.840
 1815SOL    HW1 6344   0.263   0.704   2.812
 1815SOL    HW2 6345   0.225   0.797   2.940
 1816SOL     OW 6346   1.433   3.518   6.976
 1816SOL    HW1 6347   1.523   3.527   6.932
 1816SOL    HW2 6348   1.410   3.421   6.985
 1817SOL     OW 6349   1.933   5.461   2.600
 1817SOL    HW1 6350   2.008   5.496   2.656
 1817SOL    HW2 6351   1.967   5.443   2.507
 1818SOL     OW 6352   1.652   0.566   2.853
 1818SOL    HW1 6353   1.628   0.470   2.840
 1818SOL    HW2 6354   1.569   0.620   2.863
 1819SOL     OW 6355   1.383   4.127   1.147
 1819SOL    HW1 6356   1.413   4.185   1.071
 1819SOL    HW2 6357   1.336   4.183   1.216
 1820SOL     OW 6358   4.891   0.395   2.922
 1820SOL    HW1 6359   4.866   0.482   2.880
 1820SOL    HW2 6360   4.910   0.328   2.851
 1821SOL     OW 6361   1.990   1.854   3.135
 1821SOL    HW1 6362   1.997   1.853   3.235
 1821SOL    HW2 6363   2.071   1.899   3.097
 1822SOL     OW 6364   3.312   2.472   1.741
 1822SOL    HW1 6365   3.236   2.503   1.799
 1822SOL    HW2 6366   3.307   2.372   1.732
 1823SOL     OW 6367   4.402   6.659   1.998
 1823SOL    HW1 6368   4.348   6.609   2.065
 1823SOL    HW2 6369   4.342   6.697   1.928
 1824SOL     OW 6370   4.580   2.759   1.421
 1824SOL    HW1 6371   4.649   2.750   1.493
 1824SOL    HW2 6372   4.621   2.801   1.340
 1825SOL     OW 6373   1.187   0.416   1.403
 1825SOL    HW1 6374   1.233   0.346   1.350
 1825SOL    HW2 6375   1.201   0.505   1.361
 1826SOL     OW 6376   2.925   0.528   0.110
 1826SOL    HW1 6377   2.922   0.564   0.203
 1826SOL    HW2 6378   3.008   0.473   0.098
 1827SOL     OW 6379   6.559   5.592   1.855
 1827SOL    HW1 6380   6.473   5.544   1.842
 1827SOL    HW2 6381   6.634   5.526   1.855
 1828SOL     OW 6382   0.650   2.794   6.366
 1828SOL    HW1 6383   0.684   2.719   6.310
 1828SOL    HW2 6384   0.676   2.881   6.324
 1829SOL     OW 6385   5.452   5.694   2.863
 1829SOL    HW1 6386   5.440   5.752   2.783
 1829SOL    HW2 6387   5.366   5.691   2.915
 1830SOL     OW 6388   4.472   6.322   2.906
 1830SOL    HW1 6389   4.466   6.414   2.944
 1830SOL    HW2 6390   4.503   6.258   2.977
 1831SOL     OW 6391   5.240   6.621   1.921
 1831SOL    HW1 6392   5.333   6.657   1.916
 1831SOL    HW2 6393   5.206   6.603   1.829
 1832SOL     OW 6394   4.450   2.530   1.002
 1832SOL    HW1 6395   4.517   2.481   1.056
 1832SOL    HW2 6396   4.429   2.618   1.045
 1833SOL     OW 6397   4.704   0.524   4.819
 1833SOL    HW1 6398   4.606   0.503   4.824
 1833SOL    HW2 6399   4.723   0.605   4.874
 1834SOL     OW 6400   3.554   3.394   1.380
 1834SOL    HW1 6401   3.455   3.377   1.379
 1834SOL    HW2 6402   3.600   3.318   1.425
 1835SOL     OW 6403   1.250   5.096   0.610
 1835SOL    HW1 6404   1.318   5.042   0.561
 1835SOL    HW2 6405   1.276   5.103   0.706
 1836SOL     OW 6406   0.634   0.223   0.589
 1836SOL    HW1 6407   0.561   0.157   0.601
 1836SOL    HW2 6408   0.719   0.187   0.627
 1837SOL     OW 6409   0.976   2.447   4.409
 1837SOL    HW1 6410   1.001   2.404   4.496
 1837SOL    HW2 6411   1.040   2.522   4.391
 1838SOL     OW 6412   6.706   2.636   4.425
 1838SOL    HW1 6413   6.734   2.731   4.414
 1838SOL    HW2 6414   6.754   2.596   4.503
 1839SOL     OW 6415   6.392   2.910   5.262
 1839SOL    HW1 6416   6.455   2.865   5.325
 1839SOL    HW2 6417   6.298   2.886   5.286
 1840SOL     OW 6418   2.591   5.534   0.564
 1840SOL    HW1 6419   2.626   5.594   0.492
 1840SOL    HW2 6420   2.491   5.533   0.560
 1841SOL     OW 6421   2.251   2.961   3.763
 1841SOL    HW1 6422   2.268   2.905   3.844
 1841SOL    HW2 6423   2.256   3.058   3.787
 1842SOL     OW 6424   0.734   4.221   1.100
 1842SOL    HW1 6425   0.716   4.276   1.019
 1842SOL    HW2 6426   0.748   4.126   1.074
 1843SOL     OW 6427   2.783   1.691   5.511
 1843SOL    HW1 6428   2.710   1.757   5.527
 1843SOL    HW2 6429   2.812   1.696   5.416
 1844SOL     OW 6430   4.070   2.120   4.107
 1844SOL    HW1 6431   4.027   2.062   4.175
 1844SOL    HW2 6432   4.031   2.102   4.017
 1845SOL     OW 6433   3.313   6.933   0.070
 1845SOL    HW1 6434   3.303   6.875   7.016
 1845SOL    HW2 6435   3.402   6.915   0.113
 1846SOL     OW 6436   2.725   2.311   6.666
 1846SOL    HW1 6437   2.804   2.267   6.710
 1846SOL    HW2 6438   2.648   2.248   6.665
 1847SOL     OW 6439   0.977   0.314   1.167
 1847SOL    HW1 6440   0.984   0.281   1.261
 1847SOL    HW2 6441   0.885   0.298   1.133
 1848SOL     OW 6442   3.126   6.706   2.006
 1848SOL    HW1 6443   3.057   6.635   2.015
 1848SOL    HW2 6444   3.085   6.787   1.964
 1849SOL     OW 6445   3.265   2.165   6.655
 1849SOL    HW1 6446   3.195   2.102   6.623
 1849SOL    HW2 6447   3.355   2.121   6.650
 1850SOL     OW 6448   6.170   2.627   3.084
 1850SOL    HW1 6449   6.190   2.569   3.163
 1850SOL    HW2 6450   6.113   2.577   3.019
 1851SOL     OW 6451   0.672   2.522   2.299
 1851SOL    HW1 6452   0.644   2.485   2.210
 1851SOL    HW2 6453   0.607   2.593   2.327
 1852SOL     OW 6454   4.254   3.242   0.338
 1852SOL    HW1 6455   4.172   3.226   0.394
 1852SOL    HW2 6456   4.299   3.325   0.369
 1853SOL     OW 6457   1.357   4.388   1.511
 1853SOL    HW1 6458   1.378   4.293   1.534
 1853SOL    HW2 6459   1.413   4.417   1.434
 1854SOL     OW 6460   2.691   5.487   4.504
 1854SOL    HW1 6461   2.674   5.454   4.597
 1854SOL    HW2 6462   2.607   5.527   4.466
 1855SOL     OW 6463   5.536   5.142   0.701
 1855SOL    HW1 6464   5.457   5.145   0.763
 1855SOL    HW2 6465   5.505   5.157   0.607
 1856SOL     OW 6466   5.439   2.191   4.739
 1856SOL    HW1 6467   5.468   2.112   4.685
 1856SOL    HW2 6468   5.354   2.227   4.702
 1857SOL     OW 6469   3.978   1.027   3.922
 1857SOL    HW1 6470   3.931   1.011   4.008
 1857SOL    HW2 6471   4.066   0.979   3.921
 1858SOL     OW 6472   5.073   2.788   3.764
 1858SOL    HW1 6473   4.974   2.775   3.774
 1858SOL    HW2 6474   5.121   2.704   3.789
 1859SOL     OW 6475   4.473   2.458   3.293
 1859SOL    HW1 6476   4.481   2.466   3.392
 1859SOL    HW2 6477   4.531   2.527   3.249
 1860SOL     OW 6478   6.032   1.211   4.552
 1860SOL    HW1 6479   6.119   1.220   4.601
 1860SOL    HW2 6480   6.020   1.116   4.524
 1861SOL     OW 6481   5.421   6.314   3.000
 1861SOL    HW1 6482   5.471   6.301   3.086
 1861SOL    HW2 6483   5.337   6.365   3.017
 1862SOL     OW 6484   1.963   1.378   0.208
 1862SOL    HW1 6485   1.991   1.282   0.216
 1862SOL    HW2 6486   2.043   1.437   0.221
 1863SOL     OW 6487   2.822   2.908   1.408
 1863SOL    HW1 6488   2.754   2.851   1.455
 1863SOL    HW2 6489   2.775   2.973   1.347
 1864SOL     OW 6490   1.093   6.540   4.797
 1864SOL    HW1 6491   1.118   6.565   4.704
 1864SOL    HW2 6492   1.098   6.620   4.856
 1865SOL     OW 6493   4.182   1.842   6.059
 1865SOL    HW1 6494   4.115   1.850   6.132
 1865SOL    HW2 6495   4.169   1.916   5.993
 1866SOL     OW 6496   4.523   4.476   2.180
 1866SOL    HW1 6497   4.506   4.419   2.100
 1866SOL    HW2 6498   4.472   4.439   2.258
 1867SOL     OW 6499   0.237   4.104   0.289
 1867SOL    HW1 6500   0.208   4.195   0.262
 1867SOL    HW2 6501   0.159   4.053   0.326
 1868SOL     OW 6502   5.759   4.351   6.106
 1868SOL    HW1 6503   5.721   4.433   6.062
 1868SOL    HW2 6504   5.688   4.281   6.112
 1869SOL     OW 6505   6.417   1.428   5.283
 1869SOL    HW1 6506   6.399   1.333   5.259
 1869SOL    HW2 6507   6.345   1.487   5.245
 1870SOL     OW 6508   1.676   5.448   4.674
 1870SOL    HW1 6509   1.732   5.520   4.715
 1870SOL    HW2 6510   1.735   5.374   4.642
 1871SOL     OW 6511   2.145   6.888   0.246
 1871SOL    HW1 6512   2.086   6.925   0.174
 1871SOL    HW2 6513   2.088   6.857   0.322
 1872SOL     OW 6514   1.795   4.291   0.159
 1872SOL    HW1 6515   1.878   4.308   0.106
 1872SOL    HW2 6516   1.744   4.377   0.169
 1873SOL     OW 6517   4.336   1.473   6.692
 1873SOL    HW1 6518   4.296   1.383   6.680
 1873SOL    HW2 6519   4.347   1.516   6.602
 1874SOL     OW 6520   1.366   1.527   1.852
 1874SOL    HW1 6521   1.454   1.526   1.805
 1874SOL    HW2 6522   1.381   1.527   1.951
 1875SOL     OW 6523   0.617   6.729   6.428
 1875SOL    HW1 6524   0.631   6.642   6.474
 1875SOL    HW2 6525   0.560   6.788   6.486
 1876SOL     OW 6526   2.970   0.010   4.237
 1876SOL    HW1 6527   2.911   0.090   4.233
 1876SOL    HW2 6528   3.046   0.028   4.301
 1877SOL     OW 6529   1.110   0.221   3.744
 1877SOL    HW1 6530   1.045   0.163   3.795
 1877SOL    HW2 6531   1.070   0.312   3.731
 1878SOL     OW 6532   6.515   2.581   4.844
 1878SOL    HW1 6533   6.560   2.541   4.764
 1878SOL    HW2 6534   6.575   2.649   4.885
 1879SOL     OW 6535   1.290   3.959   4.934
 1879SOL    HW1 6536   1.268   3.982   5.028
 1879SOL    HW2 6537   1.357   4.025   4.898
 1880SOL     OW 6538   5.683   1.368   4.858
 1880SOL    HW1 6539   5.641   1.373   4.768
 1880SOL    HW2 6540   5.615   1.341   4.926
 1881SOL     OW 6541   6.579   1.803   0.506
 1881SOL    HW1 6542   6.555   1.713   0.542
 1881SOL    HW2 6543   6.561   1.872   0.576
 1882SOL     OW 6544   0.829   4.165   6.077
 1882SOL    HW1 6545   0.825   4.080   6.025
 1882SOL    HW2 6546   0.813   4.242   6.015
 1883SOL     OW 6547   0.230   2.709   3.193
 1883SOL    HW1 6548   0.144   2.664   3.170
 1883SOL    HW2 6549   0.243   2.789   3.133
 1884SOL     OW 6550   0.097   1.941   1.444
 1884SOL    HW1 6551   0.099   1.854   1.493
 1884SOL    HW2 6552   0.134   2.013   1.503
 1885SOL     OW 6553   2.177   1.945   5.562
 1885SOL    HW1 6554   2.160   2.042   5.583
 1885SOL    HW2 6555   2.178   1.892   5.646
 1886SOL     OW 6556   1.433   6.480   3.329
 1886SOL    HW1 6557   1.486   6.473   3.244
 1886SOL    HW2 6558   1.493   6.459   3.406
 1887SOL     OW 6559   1.188   6.409   6.320
 1887SOL    HW1 6560   1.090   6.405   6.298
 1887SOL    HW2 6561   1.240   6.430   6.237
 1888SOL     OW 6562   2.857   1.058   1.429
 1888SOL    HW1 6563   2.792   1.050   1.504
 1888SOL    HW2 6564   2.809   1.090   1.347
 1889SOL     OW 6565   1.712   3.714   3.461
 1889SOL    HW1 6566   1.750   3.697   3.370
 1889SOL    HW2 6567   1.612   3.719   3.454
 1890SOL     OW 6568   0.833   6.111   3.878
 1890SOL    HW1 6569   0.820   6.035   3.814
 1890SOL    HW2 6570   0.930   6.120   3.899
 1891SOL     OW 6571   4.156   3.555   2.436
 1891SOL    HW1 6572   4.244   3.597   2.412
 1891SOL    HW2 6573   4.085   3.591   2.375
 1892SOL     OW 6574   0.378   0.496   2.014
 1892SOL    HW1 6575   0.355   0.410   2.061
 1892SOL    HW2 6576   0.452   0.479   1.949
 1893SOL     OW 6577   3.594   3.275   3.553
 1893SOL    HW1 6578   3.609   3.290   3.650
 1893SOL    HW2 6579   3.666   3.320   3.500
 1894SOL     OW 6580   3.792   3.896   4.548
 1894SOL    HW1 6581   3.773   3.867   4.454
 1894SOL    HW2 6582   3.753   3.828   4.611
 1895SOL     OW 6583   3.999   0.008   0.329
 1895SOL    HW1 6584   4.072   0.041   0.269
 1895SOL    HW2 6585   4.026   6.948   0.370
 1896SOL     OW 6586   5.221   1.928   1.133
 1896SOL    HW1 6587   5.141   1.986   1.141
 1896SOL    HW2 6588   5.299   1.982   1.101
 1897SOL     OW 6589   2.275   4.944   3.672
 1897SOL    HW1 6590   2.278   4.855   3.626
 1897SOL    HW2 6591   2.310   5.015   3.611
 1898SOL     OW 6592   1.363   6.129   3.409
 1898SOL    HW1 6593   1.406   6.164   3.492
 1898SOL    HW2 6594   1.359   6.029   3.413
 1899SOL     OW 6595   6.888   0.126   1.994
 1899SOL    HW1 6596   6.952   0.108   2.069
 1899SOL    HW2 6597   6.851   0.218   2.003
 1900SOL     OW 6598   2.598   0.084   0.123
 1900SOL    HW1 6599   2.549   0.172   0.125
 1900SOL    HW2 6600   2.695   0.099   0.142
 1901SOL     OW 6601   2.778   3.949   0.509
 1901SOL    HW1 6602   2.683   3.953   0.476
 1901SOL    HW2 6603   2.811   3.855   0.504
 1902SOL     OW 6604   1.582   6.540   4.710
 1902SOL    HW1 6605   1.525   6.459   4.726
 1902SOL    HW2 6606   1.556   6.583   4.624
 1903SOL     OW 6607   1.304   2.902   4.567
 1903SOL    HW1 6608   1.215   2.943   4.546
 1903SOL    HW2 6609   1.370   2.975   4.586
 1904SOL     OW 6610   5.768   5.245   2.734
 1904SOL    HW1 6611   5.803   5.325   2.686
 1904SOL    HW2 6612   5.671   5.235   2.716
 1905SOL     OW 6613   0.255   0.812   3.657
 1905SOL    HW1 6614   0.330   0.845   3.713
 1905SOL    HW2 6615   0.176   0.793   3.715
 1906SOL     OW 6616   2.557   0.125   5.421
 1906SOL    HW1 6617   2.558   0.224   5.435
 1906SOL    HW2 6618   2.604   0.080   5.497
 1907SOL     OW 6619   4.787   2.740   0.208
 1907SOL    HW1 6620   4.827   2.786   0.287
 1907SOL    HW2 6621   4.730   2.804   0.157
 1908SOL     OW 6622   3.596   1.400   1.201
 1908SOL    HW1 6623   3.635   1.456   1.273
 1908SOL    HW2 6624   3.496   1.403   1.206
 1909SOL     OW 6625   6.959   4.674   5.259
 1909SOL    HW1 6626   6.929   4.672   5.164
 1909SOL    HW2 6627   6.880   4.659   5.319
 1910SOL     OW 6628   6.508   6.332   5.687
 1910SOL    HW1 6629   6.579   6.271   5.720
 1910SOL    HW2 6630   6.497   6.320   5.588
 1911SOL     OW 6631   0.072   5.182   4.396
 1911SOL    HW1 6632   0.171   5.168   4.400
 1911SOL    HW2 6633   0.040   5.219   4.483
 1912SOL     OW 6634   2.509   4.962   2.843
 1912SOL    HW1 6635   2.489   4.867   2.818
 1912SOL    HW2 6636   2.438   5.022   2.807
 1913SOL     OW 6637   2.801   4.526   5.414
 1913SOL    HW1 6638   2.861   4.499   5.339
 1913SOL    HW2 6639   2.713   4.558   5.377
 1914SOL     OW 6640   2.601   4.165   6.440
 1914SOL    HW1 6641   2.679   4.142   6.382
 1914SOL    HW2 6642   2.532   4.093   6.433
 1915SOL     OW 6643   4.729   2.609   6.558
 1915SOL    HW1 6644   4.772   2.697   6.539
 1915SOL    HW2 6645   4.738   2.549   6.478
 1916SOL     OW 6646   4.093   0.624   2.048
 1916SOL    HW1 6647   4.135   0.587   2.131
 1916SOL    HW2 6648   4.112   0.722   2.043
 1917SOL     OW 6649   2.792   4.310   1.450
 1917SOL    HW1 6650   2.734   4.329   1.529
 1917SOL    HW2 6651   2.848   4.229   1.468
 1918SOL     OW 6652   6.801   1.764   4.266
 1918SOL    HW1 6653   6.891   1.808   4.271
 1918SOL    HW2 6654   6.809   1.668   4.291
 1919SOL     OW 6655   0.815   1.882   1.051
 1919SOL    HW1 6656   0.830   1.972   1.009
 1919SOL    HW2 6657   0.747   1.832   0.997
 1920SOL     OW 6658   4.916   2.483   0.578
 1920SOL    HW1 6659   4.887   2.503   0.672
 1920SOL    HW2 6660   4.840   2.440   0.529
 1921SOL     OW 6661   2.285   3.140   6.748
 1921SOL    HW1 6662   2.317   3.081   6.673
 1921SOL    HW2 6663   2.192   3.114   6.773
 1922SOL     OW 6664   3.099   3.642   2.262
 1922SOL    HW1 6665   3.020   3.612   2.315
 1922SOL    HW2 6666   3.182   3.601   2.299
 1923SOL     OW 6667   4.276   0.524   5.518
 1923SOL    HW1 6668   4.231   0.549   5.432
 1923SOL    HW2 6669   4.209   0.526   5.592
 1924SOL     OW 6670   4.456   6.797   1.006
 1924SOL    HW1 6671   4.395   6.795   0.927
 1924SOL    HW2 6672   4.529   6.864   0.990
 1925SOL     OW 6673   1.470   4.850   1.325
 1925SOL    HW1 6674   1.428   4.787   1.390
 1925SOL    HW2 6675   1.569   4.853   1.340
 1926SOL     OW 6676   3.377   0.019   2.117
 1926SOL    HW1 6677   3.380   6.986   2.037
 1926SOL    HW2 6678   3.445   0.092   2.107
 1927SOL     OW 6679   2.017   5.383   1.157
 1927SOL    HW1 6680   2.110   5.403   1.189
 1927SOL    HW2 6681   1.952   5.441   1.207
 1928SOL     OW 6682   4.750   4.093   2.895
 1928SOL    HW1 6683   4.702   4.181   2.890
 1928SOL    HW2 6684   4.761   4.057   2.802
 1929SOL     OW 6685   2.947   0.661   3.049
 1929SOL    HW1 6686   2.856   0.699   3.065
 1929SOL    HW2 6687   2.979   0.687   2.958
 1930SOL     OW 6688   4.719   3.089   6.332
 1930SOL    HW1 6689   4.742   3.145   6.412
 1930SOL    HW2 6690   4.620   3.073   6.331
 1931SOL     OW 6691   0.941   1.743   4.675
 1931SOL    HW1 6692   0.928   1.778   4.768
 1931SOL    HW2 6693   1.028   1.776   4.639
 1932SOL     OW 6694   4.461   2.498   1.999
 1932SOL    HW1 6695   4.542   2.546   2.031
 1932SOL    HW2 6696   4.421   2.548   1.922
 1933SOL     OW 6697   1.228   1.580   1.062
 1933SOL    HW1 6698   1.170   1.547   1.136
 1933SOL    HW2 6699   1.212   1.526   0.980
 1934SOL     OW 6700   0.435   0.228   6.113
 1934SOL    HW1 6701   0.355   0.169   6.104
 1934SOL    HW2 6702   0.407   0.324   6.105
 1935SOL     OW 6703   6.897   5.238   3.872
 1935SOL    HW1 6704   6.968   5.187   3.921
 1935SOL    HW2 6705   6.819   5.251   3.933
 1936SOL     OW 6706   4.641   3.084   5.377
 1936SOL    HW1 6707   4.642   3.173   5.333
 1936SOL    HW2 6708   4.577   3.023   5.329
 1937SOL     OW 6709   5.239   5.226   6.624
 1937SOL    HW1 6710   5.158   5.280   6.602
 1937SOL    HW2 6711   5.312   5.248   6.559
 1938SOL     OW 6712   0.755   3.013   6.241
 1938SOL    HW1 6713   0.817   2.957   6.186
 1938SOL    HW2 6714   0.692   3.061   6.180
 1939SOL     OW 6715   1.275   0.292   4.715
 1939SOL    HW1 6716   1.317   0.381   4.701
 1939SOL    HW2 6717   1.177   0.303   4.733
 1940SOL     OW 6718   6.482   4.561   0.701
 1940SOL    HW1 6719   6.424   4.492   0.743
 1940SOL    HW2 6720   6.575   4.555   0.738
 1941SOL     OW 6721   0.044   2.336   4.311
 1941SOL    HW1 6722   6.991   2.322   4.369
 1941SOL    HW2 6723   0.120   2.371   4.367
 1942SOL     OW 6724   5.517   3.630   2.531
 1942SOL    HW1 6725   5.518   3.645   2.432
 1942SOL    HW2 6726   5.574   3.698   2.576
 1943SOL     OW 6727   1.062   1.362   2.680
 1943SOL    HW1 6728   1.069   1.330   2.774
 1943SOL    HW2 6729   1.071   1.462   2.678
 1944SOL     OW 6730   0.249   2.840   2.622
 1944SOL    HW1 6731   0.245   2.897   2.704
 1944SOL    HW2 6732   0.329   2.780   2.627
 1945SOL     OW 6733   4.969   0.613   1.936
 1945SOL    HW1 6734   5.036   0.633   2.008
 1945SOL    HW2 6735   4.935   0.700   1.899
 1946SOL     OW 6736   5.957   5.123   1.544
 1946SOL    HW1 6737   5.900   5.147   1.465
 1946SOL    HW2 6738   6.045   5.169   1.538
 1947SOL     OW 6739   6.141   4.766   4.034
 1947SOL    HW1 6740   6.158   4.865   4.034
 1947SOL    HW2 6741   6.058   4.747   3.983
 1948SOL     OW 6742   4.883   3.815   3.460
 1948SOL    HW1 6743   4.875   3.899   3.407
 1948SOL    HW2 6744   4.884   3.736   3.398
 1949SOL     OW 6745   3.879   4.648   6.581
 1949SOL    HW1 6746   3.935   4.677   6.503
 1949SOL    HW2 6747   3.790   4.693   6.577
 1950SOL     OW 6748   3.475   4.135   3.769
 1950SOL    HW1 6749   3.380   4.107   3.778
 1950SOL    HW2 6750   3.527   4.104   3.849
 1951SOL     OW 6751   6.031   4.329   6.010
 1951SOL    HW1 6752   6.067   4.278   5.933
 1951SOL    HW2 6753   5.932   4.322   6.012
 1952SOL     OW 6754   5.308   5.150   6.886
 1952SOL    HW1 6755   5.257   5.169   6.802
 1952SOL    HW2 6756   5.392   5.101   6.863
 1953SOL     OW 6757   0.804   1.341   6.654
 1953SOL    HW1 6758   0.770   1.311   6.743
 1953SOL    HW2 6759   0.901   1.316   6.646
 1954SOL     OW 6760   4.338   0.127   1.991
 1954SOL    HW1 6761   4.344   0.111   2.090
 1954SOL    HW2 6762   4.323   0.225   1.974
 1955SOL     OW 6763   0.858   2.047   2.550
 1955SOL    HW1 6764   0.785   2.087   2.605
 1955SOL    HW2 6765   0.925   2.003   2.610
 1956SOL     OW 6766   5.752   0.299   1.818
 1956SOL    HW1 6767   5.833   0.348   1.787
 1956SOL    HW2 6768   5.681   0.304   1.748
 1957SOL     OW 6769   5.441   1.755   4.092
 1957SOL    HW1 6770   5.462   1.658   4.093
 1957SOL    HW2 6771   5.475   1.796   4.007
 1958SOL     OW 6772   4.484   1.848   0.932
 1958SOL    HW1 6773   4.458   1.927   0.876
 1958SOL    HW2 6774   4.437   1.766   0.898
 1959SOL     OW 6775   0.644   0.793   4.673
 1959SOL    HW1 6776   0.716   0.855   4.643
 1959SOL    HW2 6777   0.591   0.836   4.746
 1960SOL     OW 6778   6.008   3.902   4.113
 1960SOL    HW1 6779   6.001   3.993   4.072
 1960SOL    HW2 6780   6.095   3.860   4.086
 1961SOL     OW 6781   6.774   4.192   4.437
 1961SOL    HW1 6782   6.735   4.102   4.453
 1961SOL    HW2 6783   6.793   4.204   4.339
 1962SOL     OW 6784   0.769   0.093   2.466
 1962SOL    HW1 6785   0.811   0.073   2.555
 1962SOL    HW2 6786   0.670   0.076   2.472
 1963SOL     OW 6787   0.745   1.933   1.852
 1963SOL    HW1 6788   0.753   1.958   1.948
 1963SOL    HW2 6789   0.836   1.911   1.816
 1964SOL     OW 6790   5.429   4.099   1.160
 1964SOL    HW1 6791   5.380   4.184   1.177
 1964SOL    HW2 6792   5.457   4.095   1.064
 1965SOL     OW 6793   0.522   4.479   4.219
 1965SOL    HW1 6794   0.428   4.498   4.192
 1965SOL    HW2 6795   0.523   4.403   4.284
 1966SOL     OW 6796   1.888   4.714   6.832
 1966SOL    HW1 6797   1.961   4.653   6.862
 1966SOL    HW2 6798   1.928   4.796   6.791
 1967SOL     OW 6799   5.713   3.295   3.183
 1967SOL    HW1 6800   5.792   3.355   3.175
 1967SOL    HW2 6801   5.743   3.200   3.178
 1968SOL     OW 6802   2.829   1.727   5.218
 1968SOL    HW1 6803   2.761   1.797   5.197
 1968SOL    HW2 6804   2.919   1.769   5.229
 1969SOL     OW 6805   2.562   6.082   0.306
 1969SOL    HW1 6806   2.590   6.168   0.349
 1969SOL    HW2 6807   2.482   6.098   0.248
 1970SOL     OW 6808   6.155   5.479   5.427
 1970SOL    HW1 6809   6.060   5.447   5.421
 1970SOL    HW2 6810   6.183   5.481   5.523
 1971SOL     OW 6811   1.774   5.987   4.833
 1971SOL    HW1 6812   1.801   5.928   4.757
 1971SOL    HW2 6813   1.771   5.932   4.917
 1972SOL     OW 6814   5.912   2.738   2.631
 1972SOL    HW1 6815   5.837   2.748   2.566
 1972SOL    HW2 6816   5.878   2.699   2.716
 1973SOL     OW 6817   2.387   3.715   6.684
 1973SOL    HW1 6818   2.291   3.718   6.714
 1973SOL    HW2 6819   2.412   3.621   6.664
 1974SOL     OW 6820   3.629   6.466   4.900
 1974SOL    HW1 6821   3.640   6.385   4.957
 1974SOL    HW2 6822   3.531   6.483   4.884
 1975SOL     OW 6823   1.856   2.471   3.356
 1975SOL    HW1 6824   1.898   2.534   3.422
 1975SOL    HW2 6825   1.820   2.522   3.278
 1976SOL     OW 6826   7.013   6.949   6.513
 1976SOL    HW1 6827   0.060   6.905   6.564
 1976SOL    HW2 6828   6.944   6.983   6.578
 1977SOL     OW 6829   1.955   4.554   5.785
 1977SOL    HW1 6830   1.895   4.478   5.761
 1977SOL    HW2 6831   2.003   4.532   5.870
 1978SOL     OW 6832   2.756   6.965   1.470
 1978SOL    HW1 6833   2.820   6.890   1.488
 1978SOL    HW2 6834   2.679   6.930   1.417
 1979SOL     OW 6835   0.088   5.092   6.612
 1979SOL    HW1 6836   0.173   5.144   6.596
 1979SOL    HW2 6837   0.107   4.995   6.602
 1980SOL     OW 6838   3.659   1.443   0.933
 1980SOL    HW1 6839   3.626   1.427   1.026
 1980SOL    HW2 6840   3.611   1.521   0.894
 1981SOL     OW 6841   4.202   2.250   3.151
 1981SOL    HW1 6842   4.227   2.330   3.097
 1981SOL    HW2 6843   4.125   2.203   3.107
 1982SOL     OW 6844   6.872   2.519   5.570
 1982SOL    HW1 6845   6.856   2.561   5.659
 1982SOL    HW2 6846   6.791   2.529   5.513
 1983SOL     OW 6847   0.220   0.778   2.257
 1983SOL    HW1 6848   0.223   0.842   2.334
 1983SOL    HW2 6849   0.305   0.725   2.255
 1984SOL     OW 6850   5.244   2.857   5.440
 1984SOL    HW1 6851   5.244   2.856   5.540
 1984SOL    HW2 6852   5.247   2.763   5.405
 1985SOL     OW 6853   5.969   3.600   2.430
 1985SOL    HW1 6854   6.026   3.519   2.418
 1985SOL    HW2 6855   5.894   3.580   2.493
 1986SOL     OW 6856   3.905   2.370   1.666
 1986SOL    HW1 6857   3.949   2.292   1.711
 1986SOL    HW2 6858   3.822   2.394   1.714
 1987SOL     OW 6859   2.711   1.056   1.874
 1987SOL    HW1 6860   2.644   1.106   1.929
 1987SOL    HW2 6861   2.789   1.030   1.931
 1988SOL     OW 6862   6.916   2.083   1.200
 1988SOL    HW1 6863   6.968   2.163   1.232
 1988SOL    HW2 6864   6.948   2.002   1.248
 1989SOL     OW 6865   3.141   5.146   5.108
 1989SOL    HW1 6866   3.050   5.184   5.124
 1989SOL    HW2 6867   3.135   5.071   5.042
 1990SOL     OW 6868   3.792   0.644   0.740
 1990SOL    HW1 6869   3.777   0.604   0.831
 1990SOL    HW2 6870   3.884   0.683   0.736
 1991SOL     OW 6871   2.404   5.006   0.893
 1991SOL    HW1 6872   2.490   5.056   0.888
 1991SOL    HW2 6873   2.346   5.047   0.963
 1992SOL     OW 6874   0.453   5.825   1.381
 1992SOL    HW1 6875   0.438   5.879   1.298
 1992SOL    HW2 6876   0.550   5.808   1.394
 1993SOL     OW 6877   2.305   2.865   4.010
 1993SOL    HW1 6878   2.279   2.787   4.068
 1993SOL    HW2 6879   2.314   2.947   4.066
 1994SOL     OW 6880   2.998   2.823   0.433
 1994SOL    HW1 6881   2.962   2.901   0.484
 1994SOL    HW2 6882   2.973   2.831   0.336
 1995SOL     OW 6883   5.682   2.217   4.902
 1995SOL    HW1 6884   5.737   2.212   4.818
 1995SOL    HW2 6885   5.588   2.191   4.881
 1996SOL     OW 6886   3.884   1.756   0.900
 1996SOL    HW1 6887   3.916   1.677   0.952
 1996SOL    HW2 6888   3.822   1.810   0.956
 1997SOL     OW 6889   4.057   0.540   3.611
 1997SOL    HW1 6890   4.021   0.448   3.592
 1997SOL    HW2 6891   4.022   0.571   3.700
 1998SOL     OW 6892   1.917   3.287   1.046
 1998SOL    HW1 6893   1.976   3.298   1.125
 1998SOL    HW2 6894   1.843   3.224   1.068
 1999SOL     OW 6895   1.902   6.976   6.374
 1999SOL    HW1 6896   1.852   6.915   6.437
 1999SOL    HW2 6897   1.979   7.018   6.422
 2000SOL     OW 6898   3.994   4.279   5.701
 2000SOL    HW1 6899   3.964   4.186   5.718
 2000SOL    HW2 6900   3.960   4.339   5.773
 2001SOL     OW 6901   2.186   1.553   0.169
 2001SOL    HW1 6902   2.237   1.563   0.254
 2001SOL    HW2 6903   2.134   1.636   0.151
 2002SOL     OW 6904   6.901   4.469   0.262
 2002SOL    HW1 6905   6.849   4.413   0.198
 2002SOL    HW2 6906   6.839   4.516   0.325
 2003SOL     OW 6907   6.619   5.485   2.916
 2003SOL    HW1 6908   6.521   5.473   2.934
 2003SOL    HW2 6909   6.632   5.560   2.852
 2004SOL     OW 6910   3.119   6.801   3.099
 2004SOL    HW1 6911   3.074   6.745   3.030
 2004SOL    HW2 6912   3.112   6.897   3.074
 2005SOL     OW 6913   1.641   6.579   1.019
 2005SOL    HW1 6914   1.615   6.494   0.974
 2005SOL    HW2 6915   1.559   6.627   1.051
 2006SOL     OW 6916   5.872   0.040   2.970
 2006SOL    HW1 6917   5.811   0.004   2.898
 2006SOL    HW2 6918   5.912   6.990   3.020
 2007SOL     OW 6919   5.492   4.953   6.846
 2007SOL    HW1 6920   5.581   4.993   6.864
 2007SOL    HW2 6921   5.473   4.881   6.914
 2008SOL     OW 6922   1.629   3.751   3.884
 2008SOL    HW1 6923   1.685   3.671   3.868
 2008SOL    HW2 6924   1.688   3.832   3.893
 2009SOL     OW 6925   6.209   0.108   2.641
 2009SOL    HW1 6926   6.181   0.016   2.670
 2009SOL    HW2 6927   6.197   0.172   2.717
 2010SOL     OW 6928   1.361   1.825   1.444
 2010SOL    HW1 6929   1.263   1.832   1.465
 2010SOL    HW2 6930   1.398   1.916   1.426
 2011SOL     OW 6931   0.467   6.978   6.157
 2011SOL    HW1 6932   0.371   7.004   6.153
 2011SOL    HW2 6933   0.519   0.002   6.089
 2012SOL     OW 6934   1.626   3.486   1.614
 2012SOL    HW1 6935   1.539   3.535   1.606
 2012SOL    HW2 6936   1.612   3.403   1.667
 2013SOL     OW 6937   0.642   3.554   2.404
 2013SOL    HW1 6938   0.737   3.536   2.381
 2013SOL    HW2 6939   0.596   3.595   2.325
 2014SOL     OW 6940   3.454   0.474   4.384
 2014SOL    HW1 6941   3.448   0.472   4.484
 2014SOL    HW2 6942   3.367   0.504   4.346
 2015SOL     OW 6943   4.363   0.601   1.694
 2015SOL    HW1 6944   4.426   0.641   1.628
 2015SOL    HW2 6945   4.385   0.504   1.707
 2016SOL     OW 6946   1.453   0.387   5.873
 2016SOL    HW1 6947   1.432   0.354   5.781
 2016SOL    HW2 6948   1.538   0.440   5.870
 2017SOL     OW 6949   4.114   6.337   3.397
 2017SOL    HW1 6950   4.156   6.423   3.368
 2017SOL    HW2 6951   4.038   6.314   3.335
 2018SOL     OW 6952   0.974   0.970   3.983
 2018SOL    HW1 6953   0.956   1.018   4.069
 2018SOL    HW2 6954   0.893   0.971   3.926
 2019SOL     OW 6955   5.763   5.273   6.409
 2019SOL    HW1 6956   5.862   5.283   6.413
 2019SOL    HW2 6957   5.731   5.288   6.315
 2020SOL     OW 6958   2.268   5.738   6.213
 2020SOL    HW1 6959   2.183   5.687   6.231
 2020SOL    HW2 6960   2.249   5.836   6.213
 2021SOL     OW 6961   0.199   6.085   3.916
 2021SOL    HW1 6962   0.236   6.093   4.009
 2021SOL    HW2 6963   0.244   6.010   3.868
 2022SOL     OW 6964   1.756   4.057   5.030
 2022SOL    HW1 6965   1.757   4.035   5.127
 2022SOL    HW2 6966   1.833   4.013   4.984
 2023SOL     OW 6967   6.824   6.484   0.432
 2023SOL    HW1 6968   6.739   6.525   0.465
 2023SOL    HW2 6969   6.891   6.485   0.505
 2024SOL     OW 6970   0.667   5.774   4.089
 2024SOL    HW1 6971   0.745   5.794   4.029
 2024SOL    HW2 6972   0.604   5.713   4.043
 2025SOL     OW 6973   1.366   6.835   4.645
 2025SOL    HW1 6974   1.356   6.861   4.741
 2025SOL    HW2 6975   1.463   6.838   4.619
 2026SOL     OW 6976   6.945   0.142   5.843
 2026SOL    HW1 6977   6.938   0.204   5.920
 2026SOL    HW2 6978   7.018   0.173   5.782
 2027SOL     OW 6979   6.820   6.015   2.713
 2027SOL    HW1 6980   6.904   6.060   2.681
 2027SOL    HW2 6981   6.742   6.075   2.696
 2028SOL     OW 6982   3.257   5.233   4.295
 2028SOL    HW1 6983   3.291   5.200   4.207
 2028SOL    HW2 6984   3.303   5.318   4.319
 2029SOL     OW 6985   6.075   2.399   6.926
 2029SOL    HW1 6986   6.129   2.477   6.896
 2029SOL    HW2 6987   6.018   2.366   6.851
 2030SOL     OW 6988   2.321   6.529   2.459
 2030SOL    HW1 6989   2.297   6.577   2.374
 2030SOL    HW2 6990   2.237   6.510   2.511
 2031SOL     OW 6991   6.955   6.063   3.890
 2031SOL    HW1 6992   0.027   6.063   3.880
 2031SOL    HW2 6993   6.931   6.043   3.986
 2032SOL     OW 6994   2.666   1.941   6.040
 2032SOL    HW1 6995   2.708   1.901   6.121
 2032SOL    HW2 6996   2.738   1.975   5.979
 2033SOL     OW 6997   2.143   1.744   0.747
 2033SOL    HW1 6998   2.121   1.791   0.662
 2033SOL    HW2 6999   2.107   1.796   0.824
 2034SOL     OW 7000   0.014   4.409   5.109
 2034SOL    HW1 7001   7.001   4.415   5.200
 2034SOL    HW2 7002   7.006   4.484   5.052
 2035SOL     OW 7003   5.583   0.194   2.920
 2035SOL    HW1 7004   5.667   0.248   2.918
 2035SOL    HW2 7005   5.507   0.253   2.949
 2036SOL     OW 7006   1.105   3.824   1.531
 2036SOL    HW1 7007   1.142   3.883   1.459
 2036SOL    HW2 7008   1.161   3.742   1.539
 2037SOL     OW 7009   0.475   2.694   0.312
 2037SOL    HW1 7010   0.485   2.678   0.214
 2037SOL    HW2 7011   0.501   2.611   0.362
 2038SOL     OW 7012   1.370   1.383   6.184
 2038SOL    HW1 7013   1.368   1.384   6.084
 2038SOL    HW2 7014   1.309   1.312   6.218
 2039SOL     OW 7015   5.807   6.352   2.775
 2039SOL    HW1 7016   5.801   6.266   2.824
 2039SOL    HW2 7017   5.889   6.352   2.718
 2040SOL     OW 7018   1.922   2.767   0.875
 2040SOL    HW1 7019   1.980   2.831   0.824
 2040SOL    HW2 7020   1.826   2.794   0.864
 2041SOL     OW 7021   2.346   0.661   6.213
 2041SOL    HW1 7022   2.341   0.619   6.122
 2041SOL    HW2 7023   2.291   0.608   6.277
 2042SOL     OW 7024   5.176   1.213   5.593
 2042SOL    HW1 7025   5.261   1.161   5.592
 2042SOL    HW2 7026   5.196   1.309   5.611
 2043SOL     OW 7027   0.139   3.952   1.247
 2043SOL    HW1 7028   0.228   3.924   1.212
 2043SOL    HW2 7029   0.101   3.880   1.305
 2044SOL     OW 7030   4.306   0.441   0.997
 2044SOL    HW1 7031   4.226   0.420   1.054
 2044SOL    HW2 7032   4.324   0.539   1.000
 2045SOL     OW 7033   1.301   6.353   5.465
 2045SOL    HW1 7034   1.321   6.446   5.496
 2045SOL    HW2 7035   1.273   6.297   5.543
 2046SOL     OW 7036   1.161   2.327   4.882
 2046SOL    HW1 7037   1.101   2.400   4.914
 2046SOL    HW2 7038   1.256   2.356   4.892
 2047SOL     OW 7039   0.091   0.397   1.164
 2047SOL    HW1 7040   0.162   0.465   1.143
 2047SOL    HW2 7041   0.009   0.444   1.197
 2048SOL     OW 7042   0.858   1.900   4.874
 2048SOL    HW1 7043   0.792   1.959   4.828
 2048SOL    HW2 7044   0.935   1.956   4.907
 2049SOL     OW 7045   5.120   1.718   5.208
 2049SOL    HW1 7046   5.183   1.659   5.257
 2049SOL    HW2 7047   5.103   1.681   5.116
 2050SOL     OW 7048   0.652   1.520   3.909
 2050SOL    HW1 7049   0.734   1.462   3.919
 2050SOL    HW2 7050   0.676   1.603   3.859
 2051SOL     OW 7051   2.838   6.297   0.597
 2051SOL    HW1 7052   2.856   6.351   0.679
 2051SOL    HW2 7053   2.878   6.343   0.518
 2052SOL     OW 7054   0.874   4.484   6.684
 2052SOL    HW1 7055   0.925   4.568   6.665
 2052SOL    HW2 7056   0.937   4.413   6.714
 2053SOL     OW 7057   0.033   5.918   3.659
 2053SOL    HW1 7058   6.972   5.953   3.692
 2053SOL    HW2 7059   0.019   5.870   3.572
 2054SOL     OW 7060   3.356   3.750   3.285
 2054SOL    HW1 7061   3.409   3.786   3.208
 2054SOL    HW2 7062   3.418   3.728   3.361
 2055SOL     OW 7063   3.272   2.484   5.598
 2055SOL    HW1 7064   3.332   2.405   5.587
 2055SOL    HW2 7065   3.225   2.502   5.512
 2056SOL     OW 7066   3.823   4.640   0.878
 2056SOL    HW1 7067   3.856   4.689   0.798
 2056SOL    HW2 7068   3.741   4.588   0.854
 2057SOL     OW 7069   5.641   2.064   4.338
 2057SOL    HW1 7070   5.639   2.163   4.334
 2057SOL    HW2 7071   5.548   2.027   4.330
 2058SOL     OW 7072   0.035   6.499   2.942
 2058SOL    HW1 7073   0.123   6.483   2.988
 2058SOL    HW2 7074   6.989   6.459   2.997
 2059SOL     OW 7075   1.234   0.513   6.303
 2059SOL    HW1 7076   1.154   0.492   6.247
 2059SOL    HW2 7077   1.241   0.611   6.317
 2060SOL     OW 7078   1.302   3.049   6.587
 2060SOL    HW1 7079   1.302   2.959   6.544
 2060SOL    HW2 7080   1.248   3.112   6.532
 2061SOL     OW 7081   1.654   2.796   2.188
 2061SOL    HW1 7082   1.729   2.789   2.122
 2061SOL    HW2 7083   1.570   2.822   2.140
 2062SOL     OW 7084   0.373   5.199   4.505
 2062SOL    HW1 7085   0.459   5.243   4.528
 2062SOL    HW2 7086   0.349   5.132   4.575
 2063SOL     OW 7087   0.729   1.175   4.616
 2063SOL    HW1 7088   0.679   1.145   4.697
 2063SOL    HW2 7089   0.731   1.275   4.613
 2064SOL     OW 7090   0.854   2.997   3.436
 2064SOL    HW1 7091   0.830   2.942   3.516
 2064SOL    HW2 7092   0.909   3.075   3.465
 2065SOL     OW 7093   4.215   3.610   5.627
 2065SOL    HW1 7094   4.279   3.533   5.624
 2065SOL    HW2 7095   4.253   3.687   5.575
 2066SOL     OW 7096   0.366   3.103   5.565
 2066SOL    HW1 7097   0.301   3.056   5.625
 2066SOL    HW2 7098   0.437   3.147   5.620
 2067SOL     OW 7099   6.660   5.015   1.211
 2067SOL    HW1 7100   6.694   5.091   1.266
 2067SOL    HW2 7101   6.561   5.024   1.199
 2068SOL     OW 7102   4.438   0.733   4.321
 2068SOL    HW1 7103   4.509   0.760   4.386
 2068SOL    HW2 7104   4.363   0.800   4.323
 2069SOL     OW 7105   0.389   2.452   4.111
 2069SOL    HW1 7106   0.449   2.397   4.170
 2069SOL    HW2 7107   0.355   2.395   4.037
 2070SOL     OW 7108   0.758   4.748   0.664
 2070SOL    HW1 7109   0.756   4.758   0.564
 2070SOL    HW2 7110   0.825   4.811   0.702
 2071SOL     OW 7111   0.060   1.531   5.525
 2071SOL    HW1 7112   0.072   1.617   5.574
 2071SOL    HW2 7113   0.036   1.549   5.430
 2072SOL     OW 7114   4.200   4.511   5.465
 2072SOL    HW1 7115   4.112   4.469   5.486
 2072SOL    HW2 7116   4.247   4.533   5.551
 2073SOL     OW 7117   3.086   5.507   6.281
 2073SOL    HW1 7118   3.067   5.584   6.220
 2073SOL    HW2 7119   3.038   5.426   6.249
 2074SOL     OW 7120   1.038   4.071   5.681
 2074SOL    HW1 7121   0.971   4.137   5.716
 2074SOL    HW2 7122   1.081   4.023   5.758
 2075SOL     OW 7123   6.505   2.123   1.132
 2075SOL    HW1 7124   6.558   2.068   1.198
 2075SOL    HW2 7125   6.451   2.190   1.182
 2076SOL     OW 7126   5.846   6.919   4.704
 2076SOL    HW1 7127   5.788   6.846   4.667
 2076SOL    HW2 7128   5.879   6.893   4.795
 2077SOL     OW 7129   6.060   4.947   0.373
 2077SOL    HW1 7130   5.963   4.945   0.350
 2077SOL    HW2 7131   6.114   4.927   0.291
 2078SOL     OW 7132   1.105   3.113   5.689
 2078SOL    HW1 7133   1.089   3.147   5.596
 2078SOL    HW2 7134   1.186   3.157   5.727
 2079SOL     OW 7135   5.267   1.627   1.966
 2079SOL    HW1 7136   5.349   1.574   1.989
 2079SOL    HW2 7137   5.186   1.574   1.992
 2080SOL     OW 7138   2.428   3.178   6.358
 2080SOL    HW1 7139   2.500   3.108   6.358
 2080SOL    HW2 7140   2.338   3.133   6.352
 2081SOL     OW 7141   6.028   5.684   2.434
 2081SOL    HW1 7142   6.077   5.768   2.453
 2081SOL    HW2 7143   5.973   5.695   2.351
 2082SOL     OW 7144   6.340   5.571   4.152
 2082SOL    HW1 7145   6.288   5.491   4.120
 2082SOL    HW2 7146   6.427   5.541   4.190
 2083SOL     OW 7147   0.655   6.805   3.823
 2083SOL    HW1 7148   0.679   6.721   3.872
 2083SOL    HW2 7149   0.626   6.783   3.730
 2084SOL     OW 7150   5.778   2.058   0.983
 2084SOL    HW1 7151   5.745   1.997   1.055
 2084SOL    HW2 7152   5.715   2.054   0.905
 2085SOL     OW 7153   5.727   5.955   0.812
 2085SOL    HW1 7154   5.769   6.016   0.879
 2085SOL    HW2 7155   5.736   5.860   0.843
 2086SOL     OW 7156   5.193   0.925   6.664
 2086SOL    HW1 7157   5.190   0.999   6.597
 2086SOL    HW2 7158   5.275   0.935   6.721
 2087SOL     OW 7159   4.314   1.558   6.937
 2087SOL    HW1 7160   4.341   1.654   6.947
 2087SOL    HW2 7161   4.302   1.536   6.840
 2088SOL     OW 7162   0.844   5.711   6.135
 2088SOL    HW1 7163   0.790   5.785   6.096
 2088SOL    HW2 7164   0.820   5.699   6.232
 2089SOL     OW 7165   2.286   3.983   0.302
 2089SOL    HW1 7166   2.337   3.976   0.216
 2089SOL    HW2 7167   2.215   3.913   0.304
 2090SOL     OW 7168   5.283   2.791   6.024
 2090SOL    HW1 7169   5.349   2.821   5.955
 2090SOL    HW2 7170   5.193   2.781   5.981
 2091SOL     OW 7171   5.540   6.145   1.765
 2091SOL    HW1 7172   5.558   6.229   1.816
 2091SOL    HW2 7173   5.525   6.167   1.669
 2092SOL     OW 7174   4.241   3.524   1.792
 2092SOL    HW1 7175   4.166   3.587   1.770
 2092SOL    HW2 7176   4.327   3.563   1.759
 2093SOL     OW 7177   3.489   1.186   1.976
 2093SOL    HW1 7178   3.567   1.238   1.940
 2093SOL    HW2 7179   3.499   1.090   1.951
 2094SOL     OW 7180   5.083   2.282   6.382
 2094SOL    HW1 7181   5.154   2.221   6.346
 2094SOL    HW2 7182   5.126   2.357   6.431
 2095SOL     OW 7183   5.522   5.688   3.839
 2095SOL    HW1 7184   5.464   5.769   3.827
 2095SOL    HW2 7185   5.555   5.685   3.933
 2096SOL     OW 7186   5.008   7.023   2.112
 2096SOL    HW1 7187   5.002   6.950   2.180
 2096SOL    HW2 7188   5.021   6.983   2.022
 2097SOL     OW 7189   1.100   5.757   6.383
 2097SOL    HW1 7190   1.174   5.733   6.321
 2097SOL    HW2 7191   1.044   5.675   6.400
 2098SOL     OW 7192   3.062   6.156   3.537
 2098SOL    HW1 7193   2.975   6.119   3.569
 2098SOL    HW2 7194   3.087   6.235   3.593
 2099SOL     OW 7195   4.901   1.735   6.207
 2099SOL    HW1 7196   4.968   1.796   6.248
 2099SOL    HW2 7197   4.873   1.666   6.274
 2100SOL     OW 7198   4.788   7.023   1.398
 2100SOL    HW1 7199   4.734   7.017   1.482
 2100SOL    HW2 7200   4.756   0.073   1.343
 2101SOL     OW 7201   0.737   7.001   2.219
 2101SOL    HW1 7202   0.761   0.019   2.305
 2101SOL    HW2 7203   0.679   0.036   2.165
 2102SOL     OW 7204   3.506   2.424   0.813
 2102SOL    HW1 7205   3.576   2.356   0.837
 2102SOL    HW2 7206   3.474   2.469   0.897
 2103SOL     OW 7207   2.836   5.978   0.269
 2103SOL    HW1 7208   2.746   6.011   0.243
 2103SOL    HW2 7209   2.906   6.036   0.227
 2104SOL     OW 7210   1.921   4.345   3.145
 2104SOL    HW1 7211   1.848   4.346   3.077
 2104SOL    HW2 7212   1.970   4.432   3.142
 2105SOL     OW 7213   6.094   5.332   5.130
 2105SOL    HW1 7214   6.053   5.423   5.142
 2105SOL    HW2 7215   6.190   5.342   5.107
 2106SOL     OW 7216   4.279   3.263   0.754
 2106SOL    HW1 7217   4.277   3.230   0.849
 2106SOL    HW2 7218   4.328   3.350   0.751
 2107SOL     OW 7219   4.949   4.545   5.666
 2107SOL    HW1 7220   5.033   4.498   5.638
 2107SOL    HW2 7221   4.969   4.641   5.686
 2108SOL     OW 7222   5.251   0.215   5.349
 2108SOL    HW1 7223   5.228   0.259   5.436
 2108SOL    HW2 7224   5.329   0.262   5.308
 2109SOL     OW 7225   2.826   6.759   2.225
 2109SOL    HW1 7226   2.756   6.724   2.162
 2109SOL    HW2 7227   2.825   6.705   2.309
 2110SOL     OW 7228   3.854   6.809   0.209
 2110SOL    HW1 7229   3.854   6.804   0.109
 2110SOL    HW2 7230   3.943   6.841   0.240
 2111SOL     OW 7231   0.973   2.426   5.943
 2111SOL    HW1 7232   0.932   2.497   5.886
 2111SOL    HW2 7233   1.071   2.424   5.928
 2112SOL     OW 7234   0.656   0.911   6.943
 2112SOL    HW1 7235   0.706   0.859   7.012
 2112SOL    HW2 7236   0.569   0.865   6.924
 2113SOL     OW 7237   0.334   0.832   4.748
 2113SOL    HW1 7238   0.265   0.845   4.819
 2113SOL    HW2 7239   0.344   0.917   4.696
 2114SOL     OW 7240   1.034   1.397   6.037
 2114SOL    HW1 7241   1.131   1.411   6.016
 2114SOL    HW2 7242   1.011   1.444   6.122
 2115SOL     OW 7243   6.465   6.316   3.056
 2115SOL    HW1 7244   6.514   6.328   3.143
 2115SOL    HW2 7245   6.375   6.357   3.062
 2116SOL     OW 7246   1.072   2.204   0.189
 2116SOL    HW1 7247   1.069   2.142   0.267
 2116SOL    HW2 7248   0.979   2.233   0.166
 2117SOL     OW 7249   6.364   1.674   1.908
 2117SOL    HW1 7250   6.426   1.676   1.987
 2117SOL    HW2 7251   6.270   1.689   1.940
 2118SOL     OW 7252   6.964   2.977   2.172
 2118SOL    HW1 7253   6.903   2.912   2.126
 2118SOL    HW2 7254   6.936   2.987   2.268
 2119SOL     OW 7255   1.431   1.267   0.205
 2119SOL    HW1 7256   1.500   1.217   0.256
 2119SOL    HW2 7257   1.376   1.322   0.268
 2120SOL     OW 7258   5.715   1.470   1.143
 2120SOL    HW1 7259   5.679   1.540   1.205
 2120SOL    HW2 7260   5.809   1.448   1.169
 2121SOL     OW 7261   1.446   0.443   6.917
 2121SOL    HW1 7262   1.381   0.517   6.931
 2121SOL    HW2 7263   1.464   0.397   7.004
 2122SOL     OW 7264   6.260   1.182   4.138
 2122SOL    HW1 7265   6.171   1.187   4.093
 2122SOL    HW2 7266   6.327   1.142   4.075
 2123SOL     OW 7267   1.390   5.215   2.944
 2123SOL    HW1 7268   1.370   5.118   2.932
 2123SOL    HW2 7269   1.419   5.254   2.857
 2124SOL     OW 7270   3.989   3.843   6.179
 2124SOL    HW1 7271   4.033   3.927   6.148
 2124SOL    HW2 7272   4.036   3.764   6.139
 2125SOL     OW 7273   1.936   6.168   4.467
 2125SOL    HW1 7274   1.925   6.188   4.564
 2125SOL    HW2 7275   2.032   6.147   4.448
 2126SOL     OW 7276   2.871   4.514   0.311
 2126SOL    HW1 7277   2.954   4.459   0.325
 2126SOL    HW2 7278   2.875   4.595   0.369
 2127SOL     OW 7279   0.707   2.494   4.389
 2127SOL    HW1 7280   0.802   2.471   4.411
 2127SOL    HW2 7281   0.671   2.426   4.325
 2128SOL     OW 7282   5.139   2.990   1.419
 2128SOL    HW1 7283   5.133   2.917   1.487
 2128SOL    HW2 7284   5.049   3.029   1.404
 2129SOL     OW 7285   5.498   3.907   4.333
 2129SOL    HW1 7286   5.524   3.812   4.346
 2129SOL    HW2 7287   5.430   3.933   4.402
 2130SOL     OW 7288   2.923   1.279   1.671
 2130SOL    HW1 7289   3.003   1.294   1.613
 2130SOL    HW2 7290   2.840   1.307   1.622
 2131SOL     OW 7291   5.268   0.407   4.833
 2131SOL    HW1 7292   5.250   0.468   4.910
 2131SOL    HW2 7293   5.333   0.336   4.859
 2132SOL     OW 7294   1.954   2.335   0.884
 2132SOL    HW1 7295   1.874   2.352   0.941
 2132SOL    HW2 7296   1.936   2.258   0.823
 2133SOL     OW 7297   3.168   2.210   1.486
 2133SOL    HW1 7298   3.145   2.126   1.438
 2133SOL    HW2 7299   3.118   2.214   1.572
 2134SOL     OW 7300   2.003   6.425   4.337
 2134SOL    HW1 7301   1.971   6.345   4.388
 2134SOL    HW2 7302   1.935   6.498   4.344
 2135SOL     OW 7303   1.013   0.762   4.245
 2135SOL    HW1 7304   1.006   0.750   4.146
 2135SOL    HW2 7305   0.941   0.825   4.276
 2136SOL     OW 7306   0.735   4.320   3.817
 2136SOL    HW1 7307   0.795   4.270   3.879
 2136SOL    HW2 7308   0.686   4.390   3.868
 2137SOL     OW 7309   1.218   0.830   5.264
 2137SOL    HW1 7310   1.186   0.745   5.308
 2137SOL    HW2 7311   1.145   0.866   5.205
 2138SOL     OW 7312   0.401   2.675   0.601
 2138SOL    HW1 7313   0.423   2.728   0.520
 2138SOL    HW2 7314   0.483   2.661   0.656
 2139SOL     OW 7315   2.720   1.447   4.963
 2139SOL    HW1 7316   2.697   1.438   5.059
 2139SOL    HW2 7317   2.819   1.449   4.952
 2140SOL     OW 7318   2.023   6.112   3.888
 2140SOL    HW1 7319   1.976   6.200   3.879
 2140SOL    HW2 7320   2.014   6.079   3.982
 2141SOL     OW 7321   5.866   1.336   6.868
 2141SOL    HW1 7322   5.877   1.238   6.854
 2141SOL    HW2 7323   5.880   1.358   6.965
 2142SOL     OW 7324   2.924   1.787   3.068
 2142SOL    HW1 7325   2.834   1.746   3.053
 2142SOL    HW2 7326   2.990   1.715   3.092
 2143SOL     OW 7327   3.545   6.925   0.213
 2143SOL    HW1 7328   3.597   6.840   0.203
 2143SOL    HW2 7329   3.606   6.998   0.246
 2144SOL     OW 7330   0.059   1.000   3.061
 2144SOL    HW1 7331   7.014   0.950   3.012
 2144SOL    HW2 7332   0.046   0.989   3.159
 2145SOL     OW 7333   3.955   5.691   2.607
 2145SOL    HW1 7334   3.951   5.741   2.693
 2145SOL    HW2 7335   4.032   5.724   2.553
 2146SOL     OW 7336   3.587   3.097   1.488
 2146SOL    HW1 7337   3.492   3.127   1.479
 2146SOL    HW2 7338   3.610   3.089   1.585
 2147SOL     OW 7339   0.431   0.880   5.332
 2147SOL    HW1 7340   0.413   0.962   5.386
 2147SOL    HW2 7341   0.454   0.805   5.393
 2148SOL     OW 7342   4.984   3.335   3.148
 2148SOL    HW1 7343   5.081   3.311   3.139
 2148SOL    HW2 7344   4.955   3.386   3.067
 2149SOL     OW 7345   3.442   0.955   3.039
 2149SOL    HW1 7346   3.491   0.945   2.953
 2149SOL    HW2 7347   3.363   1.015   3.026
 2150SOL     OW 7348   3.918   1.476   2.711
 2150SOL    HW1 7349   3.917   1.571   2.679
 2150SOL    HW2 7350   3.831   1.455   2.756
 2151SOL     OW 7351   3.899   2.967   5.550
 2151SOL    HW1 7352   3.887   2.872   5.524
 2151SOL    HW2 7353   3.848   3.026   5.487
 2152SOL     OW 7354   6.321   5.932   2.064
 2152SOL    HW1 7355   6.321   6.030   2.046
 2152SOL    HW2 7356   6.293   5.883   1.981
 2153SOL     OW 7357   4.900   3.026   3.215
 2153SOL    HW1 7358   4.925   3.076   3.298
 2153SOL    HW2 7359   4.875   3.091   3.143
 2154SOL     OW 7360   4.633   6.174   5.175
 2154SOL    HW1 7361   4.533   6.186   5.176
 2154SOL    HW2 7362   4.668   6.200   5.085
 2155SOL     OW 7363   6.845   3.413   0.411
 2155SOL    HW1 7364   6.933   3.420   0.457
 2155SOL    HW2 7365   6.834   3.489   0.348
 2156SOL     OW 7366   1.231   1.154   1.501
 2156SOL    HW1 7367   1.297   1.211   1.453
 2156SOL    HW2 7368   1.279   1.086   1.556
 2157SOL     OW 7369   0.693   1.438   4.588
 2157SOL    HW1 7370   0.698   1.480   4.498
 2157SOL    HW2 7371   0.705   1.509   4.658
 2158SOL     OW 7372   4.510   6.608   2.331
 2158SOL    HW1 7373   4.580   6.581   2.265
 2158SOL    HW2 7374   4.456   6.683   2.294
 2159SOL     OW 7375   2.282   5.794   4.443
 2159SOL    HW1 7376   2.241   5.841   4.364
 2159SOL    HW2 7377   2.213   5.780   4.513
 2160SOL     OW 7378   2.963   3.846   0.151
 2160SOL    HW1 7379   2.993   3.763   0.199
 2160SOL    HW2 7380   2.927   3.820   0.061
 2161SOL     OW 7381   5.520   2.168   3.874
 2161SOL    HW1 7382   5.477   2.216   3.951
 2161SOL    HW2 7383   5.607   2.212   3.852
 2162SOL     OW 7384   0.878   1.714   6.985
 2162SOL    HW1 7385   0.883   1.639   0.024
 2162SOL    HW2 7386   0.786   1.717   6.946
 2163SOL     OW 7387   2.457   2.235   0.065
 2163SOL    HW1 7388   2.495   2.279   0.146
 2163SOL    HW2 7389   2.511   2.259   7.012
 2164SOL     OW 7390   1.129   6.787   1.577
 2164SOL    HW1 7391   1.133   6.877   1.534
 2164SOL    HW2 7392   1.083   6.722   1.516
 2165SOL     OW 7393   2.886   6.744   1.574
 2165SOL    HW1 7394   2.923   6.652   1.578
 2165SOL    HW2 7395   2.949   6.807   1.619
 2166SOL     OW 7396   6.490   1.917   6.805
 2166SOL    HW1 7397   6.543   1.958   6.731
 2166SOL    HW2 7398   6.427   1.849   6.767
 2167SOL     OW 7399   2.588   0.498   1.421
 2167SOL    HW1 7400   2.657   0.538   1.481
 2167SOL    HW2 7401   2.632   0.442   1.351
 2168SOL     OW 7402   6.148   5.625   4.904
 2168SOL    HW1 7403   6.134   5.623   5.003
 2168SOL    HW2 7404   6.149   5.720   4.872
 2169SOL     OW 7405   5.137   2.037   4.854
 2169SOL    HW1 7406   5.105   1.984   4.776
 2169SOL    HW2 7407   5.121   2.134   4.837
 2170SOL     OW 7408   5.240   4.953   4.426
 2170SOL    HW1 7409   5.251   4.854   4.422
 2170SOL    HW2 7410   5.228   4.989   4.333
 2171SOL     OW 7411   6.692   2.061   0.144
 2171SOL    HW1 7412   6.707   2.084   0.240
 2171SOL    HW2 7413   6.757   2.111   0.087
 2172SOL     OW 7414   3.246   1.071   0.637
 2172SOL    HW1 7415   3.155   1.037   0.664
 2172SOL    HW2 7416   3.245   1.092   0.539
 2173SOL     OW 7417   5.005   1.344   5.140
 2173SOL    HW1 7418   5.003   1.401   5.058
 2173SOL    HW2 7419   4.950   1.388   5.212
 2174SOL     OW 7420   1.352   5.079   4.895
 2174SOL    HW1 7421   1.354   4.996   4.841
 2174SOL    HW2 7422   1.379   5.157   4.838
 2175SOL     OW 7423   2.706   6.268   4.797
 2175SOL    HW1 7424   2.700   6.169   4.788
 2175SOL    HW2 7425   2.619   6.305   4.829
 2176SOL     OW 7426   1.899   2.264   2.151
 2176SOL    HW1 7427   1.896   2.278   2.052
 2176SOL    HW2 7428   1.814   2.222   2.181
 2177SOL     OW 7429   6.538   1.461   1.664
 2177SOL    HW1 7430   6.457   1.402   1.658
 2177SOL    HW2 7431   6.535   1.514   1.749
 2178SOL     OW 7432   0.664   5.157   0.600
 2178SOL    HW1 7433   0.614   5.189   0.519
 2178SOL    HW2 7434   0.722   5.080   0.575
 2179SOL     OW 7435   0.776   4.585   3.457
 2179SOL    HW1 7436   0.828   4.559   3.538
 2179SOL    HW2 7437   0.715   4.661   3.480
 2180SOL     OW 7438   4.082   3.193   2.075
 2180SOL    HW1 7439   3.983   3.177   2.068
 2180SOL    HW2 7440   4.120   3.136   2.147
 2181SOL     OW 7441   4.438   6.567   6.992
 2181SOL    HW1 7442   4.397   6.645   6.945
 2181SOL    HW2 7443   4.369   6.523   0.022
 2182SOL     OW 7444   5.929   1.963   0.598
 2182SOL    HW1 7445   5.851   1.933   0.653
 2182SOL    HW2 7446   5.929   1.917   0.510
 2183SOL     OW 7447   3.002   2.839   0.927
 2183SOL    HW1 7448   3.033   2.788   0.846
 2183SOL    HW2 7449   2.919   2.889   0.905
 2184SOL     OW 7450   4.161   3.127   6.142
 2184SOL    HW1 7451   4.140   3.125   6.240
 2184SOL    HW2 7452   4.076   3.117   6.089
 2185SOL     OW 7453   1.568   1.298   0.914
 2185SOL    HW1 7454   1.622   1.378   0.940
 2185SOL    HW2 7455   1.549   1.301   0.816
 2186SOL     OW 7456   0.009   5.428   2.639
 2186SOL    HW1 7457   7.005   5.522   2.628
 2186SOL    HW2 7458   6.958   5.370   2.665
 2187SOL     OW 7459   0.327   1.635   6.374
 2187SOL    HW1 7460   0.265   1.607   6.447
 2187SOL    HW2 7461   0.378   1.555   6.342
 2188SOL     OW 7462   5.018   0.944   2.635
 2188SOL    HW1 7463   5.024   1.038   2.668
 2188SOL    HW2 7464   4.992   0.883   2.711
 2189SOL     OW 7465   2.521   0.355   6.917
 2189SOL    HW1 7466   2.572   0.440   6.905
 2189SOL    HW2 7467   2.443   0.371   6.977
 2190SOL     OW 7468   5.169   1.493   1.513
 2190SOL    HW1 7469   5.194   1.397   1.499
 2190SOL    HW2 7470   5.098   1.520   1.448
 2191SOL     OW 7471   2.994   1.505   0.348
 2191SOL    HW1 7472   2.915   1.453   0.381
 2191SOL    HW2 7473   3.069   1.442   0.327
 2192SOL     OW 7474   4.159   5.389   3.907
 2192SOL    HW1 7475   4.137   5.353   3.998
 2192SOL    HW2 7476   4.138   5.319   3.838
 2193SOL     OW 7477   0.168   5.141   5.674
 2193SOL    HW1 7478   0.224   5.220   5.698
 2193SOL    HW2 7479   0.192   5.109   5.583
 2194SOL     OW 7480   3.222   0.309   1.283
 2194SOL    HW1 7481   3.223   0.239   1.354
 2194SOL    HW2 7482   3.132   0.313   1.240
 2195SOL     OW 7483   1.680   4.547   2.724
 2195SOL    HW1 7484   1.620   4.614   2.681
 2195SOL    HW2 7485   1.676   4.461   2.674
 2196SOL     OW 7486   4.186   3.629   0.177
 2196SOL    HW1 7487   4.262   3.671   0.225
 2196SOL    HW2 7488   4.125   3.584   0.242
 2197SOL     OW 7489   4.200   4.110   0.776
 2197SOL    HW1 7490   4.111   4.089   0.737
 2197SOL    HW2 7491   4.214   4.055   0.858
 2198SOL     OW 7492   5.921   4.520   0.486
 2198SOL    HW1 7493   5.879   4.434   0.458
 2198SOL    HW2 7494   5.852   4.593   0.483
 2199SOL     OW 7495   4.501   0.712   2.325
 2199SOL    HW1 7496   4.436   0.725   2.249
 2199SOL    HW2 7497   4.589   0.682   2.288
 2200SOL     OW 7498   2.749   0.166   4.150
 2200SOL    HW1 7499   2.684   0.197   4.220
 2200SOL    HW2 7500   2.699   0.120   4.076
 2201SOL     OW 7501   4.785   4.273   1.997
 2201SOL    HW1 7502   4.705   4.326   2.025
 2201SOL    HW2 7503   4.863   4.297   2.055
 2202SOL     OW 7504   4.922   6.072   3.411
 2202SOL    HW1 7505   4.929   6.029   3.501
 2202SOL    HW2 7506   5.011   6.111   3.386
 2203SOL     OW 7507   3.397   2.027   2.747
 2203SOL    HW1 7508   3.447   2.068   2.824
 2203SOL    HW2 7509   3.461   2.009   2.672
 2204SOL     OW 7510   2.805   2.499   1.067
 2204SOL    HW1 7511   2.829   2.593   1.093
 2204SOL    HW2 7512   2.714   2.498   1.026
 2205SOL     OW 7513   2.614   0.376   0.483
 2205SOL    HW1 7514   2.603   0.295   0.540
 2205SOL    HW2 7515   2.664   0.352   0.400
 2206SOL     OW 7516   1.851   3.155   0.178
 2206SOL    HW1 7517   1.948   3.179   0.184
 2206SOL    HW2 7518   1.842   3.062   0.142
 2207SOL     OW 7519   0.610   4.390   4.987
 2207SOL    HW1 7520   0.617   4.489   4.970
 2207SOL    HW2 7521   0.675   4.342   4.928
 2208SOL     OW 7522   0.049   4.545   1.828
 2208SOL    HW1 7523   7.011   4.558   1.753
 2208SOL    HW2 7524   0.119   4.617   1.824
 2209SOL     OW 7525   1.107   6.012   1.234
 2209SOL    HW1 7526   1.123   6.101   1.191
 2209SOL    HW2 7527   1.061   5.952   1.169
 2210SOL     OW 7528   1.334   5.598   4.258
 2210SOL    HW1 7529   1.301   5.679   4.306
 2210SOL    HW2 7530   1.281   5.518   4.287
 2211SOL     OW 7531   6.829   1.146   5.984
 2211SOL    HW1 7532   6.919   1.178   6.013
 2211SOL    HW2 7533   6.799   1.199   5.904
 2212SOL     OW 7534   1.693   6.861   6.496
 2212SOL    HW1 7535   1.608   6.881   6.447
 2212SOL    HW2 7536   1.687   6.894   6.590
 2213SOL     OW 7537   3.403   1.256   3.221
 2213SOL    HW1 7538   3.477   1.199   3.257
 2213SOL    HW2 7539   3.416   1.269   3.123
 2214SOL     OW 7540   4.460   0.115   5.315
 2214SOL    HW1 7541   4.463   0.016   5.299
 2214SOL    HW2 7542   4.510   0.162   5.242
 2215SOL     OW 7543   5.586   3.292   4.935
 2215SOL    HW1 7544   5.600   3.390   4.918
 2215SOL    HW2 7545   5.644   3.263   5.011
 2216SOL     OW 7546   2.380   0.414   1.603
 2216SOL    HW1 7547   2.476   0.397   1.579
 2216SOL    HW2 7548   2.326   0.420   1.519
 2217SOL     OW 7549   4.640   1.194   1.865
 2217SOL    HW1 7550   4.550   1.231   1.844
 2217SOL    HW2 7551   4.672   1.138   1.788
 2218SOL     OW 7552   0.983   6.504   1.982
 2218SOL    HW1 7553   0.989   6.514   1.883
 2218SOL    HW2 7554   1.074   6.483   2.018
 2219SOL     OW 7555   1.442   2.102   2.718
 2219SOL    HW1 7556   1.414   2.157   2.797
 2219SOL    HW2 7557   1.524   2.050   2.741
 2220SOL     OW 7558   1.001   0.613   1.158
 2220SOL    HW1 7559   1.008   0.515   1.139
 2220SOL    HW2 7560   0.989   0.662   1.072
 2221SOL     OW 7561   6.782   1.366   0.388
 2221SOL    HW1 7562   6.683   1.353   0.395
 2221SOL    HW2 7563   6.803   1.437   0.320
 2222SOL     OW 7564   5.642   5.882   3.023
 2222SOL    HW1 7565   5.573   5.847   2.960
 2222SOL    HW2 7566   5.712   5.812   3.037
 2223SOL     OW 7567   5.849   4.869   1.628
 2223SOL    HW1 7568   5.887   4.960   1.608
 2223SOL    HW2 7569   5.749   4.873   1.621
 2224SOL     OW 7570   0.865   5.077   2.099
 2224SOL    HW1 7571   0.821   5.128   2.025
 2224SOL    HW2 7572   0.949   5.123   2.126
 2225SOL     OW 7573   0.376   4.261   0.894
 2225SOL    HW1 7574   0.295   4.263   0.836
 2225SOL    HW2 7575   0.349   4.246   0.989
 2226SOL     OW 7576   4.191   3.999   1.404
 2226SOL    HW1 7577   4.276   4.009   1.353
 2226SOL    HW2 7578   4.208   4.020   1.501
 2227SOL     OW 7579   0.948   3.167   4.294
 2227SOL    HW1 7580   0.861   3.156   4.246
 2227SOL    HW2 7581   0.989   3.254   4.268
 2228SOL     OW 7582   3.092   4.973   4.909
 2228SOL    HW1 7583   3.011   4.944   4.858
 2228SOL    HW2 7584   3.169   4.982   4.846
 2229SOL     OW 7585   5.114   0.140   3.327
 2229SOL    HW1 7586   5.117   0.225   3.276
 2229SOL    HW2 7587   5.067   0.070   3.273
 2230SOL     OW 7588   2.465   5.398   0.858
 2230SOL    HW1 7589   2.559   5.408   0.826
 2230SOL    HW2 7590   2.450   5.459   0.936
 2231SOL     OW 7591   2.557   6.095   1.335
 2231SOL    HW1 7592   2.518   6.037   1.263
 2231SOL    HW2 7593   2.519   6.187   1.327
 2232SOL     OW 7594   6.117   2.866   3.693
 2232SOL    HW1 7595   6.161   2.953   3.674
 2232SOL    HW2 7596   6.074   2.831   3.610
 2233SOL     OW 7597   3.256   1.712   0.032
 2233SOL    HW1 7598   3.309   1.778   0.086
 2233SOL    HW2 7599   3.200   1.761   6.992
 2234SOL     OW 7600   2.812   2.212   1.014
 2234SOL    HW1 7601   2.827   2.237   0.918
 2234SOL    HW2 7602   2.802   2.296   1.068
 2235SOL     OW 7603   2.265   0.392   1.373
 2235SOL    HW1 7604   2.214   0.316   1.333
 2235SOL    HW2 7605   2.253   0.474   1.316
 2236SOL     OW 7606   6.983   3.909   6.947
 2236SOL    HW1 7607   7.013   3.815   6.964
 2236SOL    HW2 7608   6.891   3.908   6.907
 2237SOL     OW 7609   6.340   2.529   4.227
 2237SOL    HW1 7610   6.401   2.530   4.148
 2237SOL    HW2 7611   6.245   2.522   4.196
 2238SOL     OW 7612   6.993   5.726   1.979
 2238SOL    HW1 7613   6.912   5.774   2.011
 2238SOL    HW2 7614   0.043   5.744   2.041
 2239SOL     OW 7615   5.414   5.497   3.168
 2239SOL    HW1 7616   5.498   5.493   3.113
 2239SOL    HW2 7617   5.358   5.573   3.137
 2240SOL     OW 7618   5.818   4.010   2.033
 2240SOL    HW1 7619   5.869   3.932   1.996
 2240SOL    HW2 7620   5.721   3.987   2.040
 2241SOL     OW 7621   0.804   6.834   2.020
 2241SOL    HW1 7622   0.769   6.880   2.101
 2241SOL    HW2 7623   0.892   6.792   2.040
 2242SOL     OW 7624   4.867   2.392   2.546
 2242SOL    HW1 7625   4.837   2.479   2.507
 2242SOL    HW2 7626   4.882   2.326   2.472
 2243SOL     OW 7627   2.807   6.317   5.490
 2243SOL    HW1 7628   2.868   6.328   5.411
 2243SOL    HW2 7629   2.842   6.243   5.549
 2244SOL     OW 7630   2.555   0.934   5.099
 2244SOL    HW1 7631   2.617   0.856   5.107
 2244SOL    HW2 7632   2.578   0.986   5.016
 2245SOL     OW 7633   0.463   1.884   2.238
 2245SOL    HW1 7634   0.432   1.798   2.197
 2245SOL    HW2 7635   0.491   1.868   2.333
 2246SOL     OW 7636   1.495   4.306   4.756
 2246SOL    HW1 7637   1.433   4.353   4.819
 2246SOL    HW2 7638   1.478   4.208   4.758
 2247SOL     OW 7639   1.753   1.488   5.599
 2247SOL    HW1 7640   1.810   1.507   5.679
 2247SOL    HW2 7641   1.781   1.545   5.523
 2248SOL     OW 7642   4.731   4.440   5.243
 2248SOL    HW1 7643   4.805   4.389   5.200
 2248SOL    HW2 7644   4.769   4.497   5.316
 2249SOL     OW 7645   4.622   5.447   4.473
 2249SOL    HW1 7646   4.534   5.477   4.509
 2249SOL    HW2 7647   4.691   5.519   4.488
 2250SOL     OW 7648   5.187   5.385   0.449
 2250SOL    HW1 7649   5.096   5.387   0.407
 2250SOL    HW2 7650   5.227   5.477   0.446
 2251SOL     OW 7651   0.106   0.688   6.224
 2251SOL    HW1 7652   0.056   0.618   6.173
 2251SOL    HW2 7653   0.161   0.645   6.296
 2252SOL     OW 7654   3.528   1.717   5.582
 2252SOL    HW1 7655   3.597   1.701   5.511
 2252SOL    HW2 7656   3.550   1.663   5.663
 2253SOL     OW 7657   1.236   2.436   5.908
 2253SOL    HW1 7658   1.305   2.400   5.970
 2253SOL    HW2 7659   1.260   2.412   5.814
 2254SOL     OW 7660   1.605   3.747   5.703
 2254SOL    HW1 7661   1.688   3.785   5.744
 2254SOL    HW2 7662   1.562   3.684   5.768
 2255SOL     OW 7663   5.538   2.633   0.738
 2255SOL    HW1 7664   5.551   2.534   0.739
 2255SOL    HW2 7665   5.466   2.658   0.802
 2256SOL     OW 7666   3.230   4.846   2.088
 2256SOL    HW1 7667   3.237   4.939   2.051
 2256SOL    HW2 7668   3.321   4.811   2.110
 2257SOL     OW 7669   2.074   3.646   3.860
 2257SOL    HW1 7670   2.074   3.639   3.960
 2257SOL    HW2 7671   2.076   3.555   3.820
 2258SOL     OW 7672   2.381   5.544   5.125
 2258SOL    HW1 7673   2.305   5.573   5.067
 2258SOL    HW2 7674   2.375   5.446   5.142
 2259SOL     OW 7675   5.997   3.562   6.752
 2259SOL    HW1 7676   5.998   3.555   6.852
 2259SOL    HW2 7677   6.031   3.652   6.725
 2260SOL     OW 7678   4.658   4.069   0.913
 2260SOL    HW1 7679   4.743   4.111   0.881
 2260SOL    HW2 7680   4.639   3.987   0.858
 2261SOL     OW 7681   3.457   6.571   5.354
 2261SOL    HW1 7682   3.435   6.473   5.354
 2261SOL    HW2 7683   3.555   6.583   5.340
 2262SOL     OW 7684   3.414   1.831   3.588
 2262SOL    HW1 7685   3.470   1.751   3.609
 2262SOL    HW2 7686   3.428   1.901   3.657
 2263SOL     OW 7687   0.100   4.320   6.008
 2263SOL    HW1 7688   0.173   4.292   6.071
 2263SOL    HW2 7689   0.023   4.257   6.016
 2264SOL     OW 7690   4.077   3.647   4.228
 2264SOL    HW1 7691   4.091   3.630   4.130
 2264SOL    HW2 7692   4.016   3.725   4.239
 2265SOL     OW 7693   0.155   0.333   2.556
 2265SOL    HW1 7694   0.118   0.318   2.464
 2265SOL    HW2 7695   0.153   0.431   2.577
 2266SOL     OW 7696   5.966   0.004   6.805
 2266SOL    HW1 7697   6.004   6.953   6.756
 2266SOL    HW2 7698   5.909   6.999   6.880
 2267SOL     OW 7699   5.202   1.453   5.455
 2267SOL    HW1 7700   5.179   1.406   5.369
 2267SOL    HW2 7701   5.283   1.509   5.441
 2268SOL     OW 7702   6.282   5.185   0.029
 2268SOL    HW1 7703   6.312   5.197   6.962
 2268SOL    HW2 7704   6.346   5.230   0.091
 2269SOL     OW 7705   0.195   5.610   4.403
 2269SOL    HW1 7706   0.118   5.589   4.344
 2269SOL    HW2 7707   0.163   5.619   4.497
 2270SOL     OW 7708   4.033   3.488   2.097
 2270SOL    HW1 7709   4.072   3.550   2.029
 2270SOL    HW2 7710   4.082   3.401   2.096
 2271SOL     OW 7711   6.982   4.081   2.966
 2271SOL    HW1 7712   6.959   4.012   3.035
 2271SOL    HW2 7713   0.042   4.059   2.923
 2272SOL     OW 7714   4.475   2.077   6.071
 2272SOL    HW1 7715   4.543   2.144   6.101
 2272SOL    HW2 7716   4.447   2.097   5.977
 2273SOL     OW 7717   0.460   1.354   3.975
 2273SOL    HW1 7718   0.544   1.405   3.956
 2273SOL    HW2 7719   0.417   1.390   4.058
 2274SOL     OW 7720   1.346   3.549   2.914
 2274SOL    HW1 7721   1.403   3.510   2.987
 2274SOL    HW2 7722   1.252   3.517   2.925
 2275SOL     OW 7723   5.044   6.484   3.448
 2275SOL    HW1 7724   5.014   6.462   3.355
 2275SOL    HW2 7725   5.106   6.413   3.480
 2276SOL     OW 7726   3.736   5.576   1.944
 2276SOL    HW1 7727   3.756   5.524   1.861
 2276SOL    HW2 7728   3.807   5.645   1.958
 2277SOL     OW 7729   3.179   3.147   0.652
 2277SOL    HW1 7730   3.167   3.219   0.720
 2277SOL    HW2 7731   3.250   3.083   0.683
 2278SOL     OW 7732   5.561   6.404   0.908
 2278SOL    HW1 7733   5.550   6.326   0.970
 2278SOL    HW2 7734   5.584   6.370   0.817
 2279SOL     OW 7735   4.990   4.348   5.122
 2279SOL    HW1 7736   5.079   4.312   5.092
 2279SOL    HW2 7737   4.968   4.430   5.070
 2280SOL     OW 7738   5.404   6.671   6.057
 2280SOL    HW1 7739   5.410   6.732   5.978
 2280SOL    HW2 7740   5.394   6.577   6.026
 2281SOL     OW 7741   2.703   2.395   0.507
 2281SOL    HW1 7742   2.708   2.493   0.486
 2281SOL    HW2 7743   2.787   2.367   0.555
 2282SOL     OW 7744   4.128   5.746   2.194
 2282SOL    HW1 7745   4.149   5.649   2.198
 2282SOL    HW2 7746   4.078   5.774   2.275
 2283SOL     OW 7747   6.839   3.497   2.244
 2283SOL    HW1 7748   6.924   3.446   2.255
 2283SOL    HW2 7749   6.787   3.458   2.168
 2284SOL     OW 7750   2.679   2.206   2.145
 2284SOL    HW1 7751   2.615   2.262   2.092
 2284SOL    HW2 7752   2.761   2.260   2.164
 2285SOL     OW 7753   1.397   4.160   6.472
 2285SOL    HW1 7754   1.361   4.077   6.429
 2285SOL    HW2 7755   1.487   4.181   6.433
 2286SOL     OW 7756   5.493   6.783   4.415
 2286SOL    HW1 7757   5.441   6.865   4.389
 2286SOL    HW2 7758   5.456   6.704   4.366
 2287SOL     OW 7759   2.122   2.947   1.552
 2287SOL    HW1 7760   2.089   2.864   1.507
 2287SOL    HW2 7761   2.186   2.922   1.625
 2288SOL     OW 7762   2.005   6.088   4.168
 2288SOL    HW1 7763   2.103   6.075   4.184
 2288SOL    HW2 7764   1.958   6.093   4.256
 2289SOL     OW 7765   4.513   1.891   0.570
 2289SOL    HW1 7766   4.528   1.804   0.523
 2289SOL    HW2 7767   4.597   1.945   0.569
 2290SOL     OW 7768   3.523   3.392   3.186
 2290SOL    HW1 7769   3.602   3.335   3.162
 2290SOL    HW2 7770   3.516   3.400   3.285
 2291SOL     OW 7771   0.828   2.627   6.666
 2291SOL    HW1 7772   0.843   2.547   6.724
 2291SOL    HW2 7773   0.772   2.600   6.587
 2292SOL     OW 7774   5.385   1.757   2.566
 2292SOL    HW1 7775   5.417   1.673   2.610
 2292SOL    HW2 7776   5.343   1.735   2.479
 2293SOL     OW 7777   0.573   0.304   0.347
 2293SOL    HW1 7778   0.479   0.306   0.380
 2293SOL    HW2 7779   0.633   0.273   0.421
 2294SOL     OW 7780   6.581   0.853   5.416
 2294SOL    HW1 7781   6.522   0.926   5.382
 2294SOL    HW2 7782   6.677   0.880   5.409
 2295SOL     OW 7783   5.768   6.101   1.130
 2295SOL    HW1 7784   5.836   6.175   1.132
 2295SOL    HW2 7785   5.794   6.030   1.196
 2296SOL     OW 7786   3.526   4.985   3.706
 2296SOL    HW1 7787   3.568   4.913   3.650
 2296SOL    HW2 7788   3.585   5.066   3.706
 2297SOL     OW 7789   4.378   3.868   5.513
 2297SOL    HW1 7790   4.462   3.841   5.560
 2297SOL    HW2 7791   4.360   3.965   5.531
 2298SOL     OW 7792   3.558   3.781   4.657
 2298SOL    HW1 7793   3.494   3.736   4.593
 2298SOL    HW2 7794   3.512   3.859   4.699
 2299SOL     OW 7795   5.886   3.158   4.758
 2299SOL    HW1 7796   5.882   3.087   4.829
 2299SOL    HW2 7797   5.794   3.196   4.744
 2300SOL     OW 7798   4.998   6.182   2.308
 2300SOL    HW1 7799   5.075   6.235   2.344
 2300SOL    HW2 7800   4.962   6.122   2.379
 2301SOL     OW 7801   3.876   2.959   4.726
 2301SOL    HW1 7802   3.928   3.006   4.655
 2301SOL    HW2 7803   3.934   2.941   4.805
 2302SOL     OW 7804   6.102   3.127   6.518
 2302SOL    HW1 7805   6.126   3.215   6.559
 2302SOL    HW2 7806   6.032   3.140   6.448
 2303SOL     OW 7807   3.091   2.064   6.987
 2303SOL    HW1 7808   3.091   2.136   0.030
 2303SOL    HW2 7809   3.185   2.031   6.974
 2304SOL     OW 7810   6.254   6.197   2.713
 2304SOL    HW1 7811   6.192   6.127   2.749
 2304SOL    HW2 7812   6.258   6.274   2.776
 2305SOL     OW 7813   3.196   0.127   4.315
 2305SOL    HW1 7814   3.219   0.185   4.237
 2305SOL    HW2 7815   3.237   0.164   4.398
 2306SOL     OW 7816   1.125   4.537   4.753
 2306SOL    HW1 7817   1.054   4.591   4.799
 2306SOL    HW2 7818   1.098   4.523   4.657
 2307SOL     OW 7819   6.245   3.253   5.813
 2307SOL    HW1 7820   6.199   3.218   5.731
 2307SOL    HW2 7821   6.238   3.187   5.887
 2308SOL     OW 7822   1.661   4.989   1.964
 2308SOL    HW1 7823   1.674   5.004   1.866
 2308SOL    HW2 7824   1.564   4.998   1.987
 2309SOL     OW 7825   1.441   0.311   5.232
 2309SOL    HW1 7826   1.522   0.364   5.207
 2309SOL    HW2 7827   1.367   0.332   5.167
 2310SOL     OW 7828   4.450   0.203   1.061
 2310SOL    HW1 7829   4.417   0.289   1.023
 2310SOL    HW2 7830   4.390   0.129   1.031
 2311SOL     OW 7831   2.981   5.214   1.420
 2311SOL    HW1 7832   2.962   5.204   1.323
 2311SOL    HW2 7833   2.915   5.161   1.473
 2312SOL     OW 7834   3.234   5.108   1.991
 2312SOL    HW1 7835   3.148   5.158   1.984
 2312SOL    HW2 7836   3.262   5.077   1.900
 2313SOL     OW 7837   4.953   5.880   1.658
 2313SOL    HW1 7838   5.005   5.940   1.719
 2313SOL    HW2 7839   4.870   5.926   1.628
 2314SOL     OW 7840   1.701   4.763   4.483
 2314SOL    HW1 7841   1.774   4.695   4.480
 2314SOL    HW2 7842   1.673   4.777   4.578
 2315SOL     OW 7843   3.858   2.816   6.665
 2315SOL    HW1 7844   3.869   2.878   6.742
 2315SOL    HW2 7845   3.930   2.746   6.667
 2316SOL     OW 7846   5.844   4.461   2.057
 2316SOL    HW1 7847   5.897   4.421   2.132
 2316SOL    HW2 7848   5.848   4.401   1.977
 2317SOL     OW 7849   0.606   5.525   3.466
 2317SOL    HW1 7850   0.636   5.581   3.389
 2317SOL    HW2 7851   0.642   5.564   3.551
 2318SOL     OW 7852   6.433   0.860   4.076
 2318SOL    HW1 7853   6.471   0.921   4.006
 2318SOL    HW2 7854   6.336   0.846   4.058
 2319SOL     OW 7855   0.776   4.861   3.167
 2319SOL    HW1 7856   0.826   4.947   3.174
 2319SOL    HW2 7857   0.829   4.787   3.208
 2320SOL     OW 7858   6.629   5.075   5.351
 2320SOL    HW1 7859   6.563   5.120   5.291
 2320SOL    HW2 7860   6.592   5.069   5.444
 2321SOL     OW 7861   3.548   5.298   5.309
 2321SOL    HW1 7862   3.471   5.324   5.251
 2321SOL    HW2 7863   3.515   5.250   5.390
 2322SOL     OW 7864   3.575   1.158   5.663
 2322SOL    HW1 7865   3.628   1.200   5.736
 2322SOL    HW2 7866   3.635   1.102   5.606
 2323SOL     OW 7867   5.210   4.150   2.082
 2323SOL    HW1 7868   5.244   4.056   2.074
 2323SOL    HW2 7869   5.284   4.210   2.110
 2324SOL     OW 7870   6.969   4.912   3.406
 2324SOL    HW1 7871   6.957   4.990   3.345
 2324SOL    HW2 7872   0.018   4.930   3.469
 2325SOL     OW 7873   0.012   2.000   0.918
 2325SOL    HW1 7874   6.974   1.965   0.985
 2325SOL    HW2 7875   0.057   2.082   0.954
 2326SOL     OW 7876   1.855   4.705   6.515
 2326SOL    HW1 7877   1.759   4.711   6.543
 2326SOL    HW2 7878   1.914   4.717   6.595
 2327SOL     OW 7879   5.630   1.653   3.666
 2327SOL    HW1 7880   5.646   1.584   3.595
 2327SOL    HW2 7881   5.688   1.732   3.650
 2328SOL     OW 7882   5.970   6.713   3.776
 2328SOL    HW1 7883   5.987   6.618   3.750
 2328SOL    HW2 7884   5.888   6.718   3.833
 2329SOL     OW 7885   6.975   5.817   3.424
 2329SOL    HW1 7886   0.005   5.876   3.367
 2329SOL    HW2 7887   6.953   5.733   3.374
 2330SOL     OW 7888   0.412   3.655   2.025
 2330SOL    HW1 7889   0.334   3.597   2.003
 2330SOL    HW2 7890   0.387   3.751   2.012
 2331SOL     OW 7891   0.449   5.049   5.825
 2331SOL    HW1 7892   0.353   5.060   5.854
 2331SOL    HW2 7893   0.464   5.103   5.743
 2332SOL     OW 7894   5.563   2.445   4.583
 2332SOL    HW1 7895   5.565   2.444   4.683
 2332SOL    HW2 7896   5.470   2.466   4.552
 2333SOL     OW 7897   2.478   4.514   3.536
 2333SOL    HW1 7898   2.537   4.548   3.609
 2333SOL    HW2 7899   2.520   4.534   3.448
 2334SOL     OW 7900   3.251   6.975   0.633
 2334SOL    HW1 7901   3.346   6.971   0.664
 2334SOL    HW2 7902   3.249   6.994   0.535
 2335SOL     OW 7903   4.656   5.509   4.197
 2335SOL    HW1 7904   4.569   5.481   4.157
 2335SOL    HW2 7905   4.681   5.445   4.270
 2336SOL     OW 7906   4.438   2.780   5.879
 2336SOL    HW1 7907   4.459   2.766   5.976
 2336SOL    HW2 7908   4.499   2.723   5.823
 2337SOL     OW 7909   5.760   0.568   4.002
 2337SOL    HW1 7910   5.670   0.548   3.963
 2337SOL    HW2 7911   5.799   0.484   4.040
 2338SOL     OW 7912   1.400   6.906   6.390
 2338SOL    HW1 7913   1.402   6.819   6.341
 2338SOL    HW2 7914   1.381   6.980   6.326
 2339SOL     OW 7915   4.221   4.478   6.185
 2339SOL    HW1 7916   4.284   4.556   6.190
 2339SOL    HW2 7917   4.266   4.402   6.137
 2340SOL     OW 7918   3.667   5.204   3.790
 2340SOL    HW1 7919   3.619   5.234   3.708
 2340SOL    HW2 7920   3.654   5.271   3.863
 2341SOL     OW 7921   6.397   5.277   6.825
 2341SOL    HW1 7922   6.350   5.364   6.811
 2341SOL    HW2 7923   6.396   5.225   6.740
 2342SOL     OW 7924   6.354   0.241   5.105
 2342SOL    HW1 7925   6.412   0.253   5.025
 2342SOL    HW2 7926   6.298   0.323   5.118
 2343SOL     OW 7927   0.800   6.869   0.508
 2343SOL    HW1 7928   0.832   6.859   0.603
 2343SOL    HW2 7929   0.844   6.799   0.451
 2344SOL     OW 7930   2.300   1.656   3.443
 2344SOL    HW1 7931   2.273   1.623   3.534
 2344SOL    HW2 7932   2.368   1.594   3.405
 2345SOL     OW 7933   1.649   1.353   3.691
 2345SOL    HW1 7934   1.735   1.378   3.735
 2345SOL    HW2 7935   1.624   1.423   3.623
 2346SOL     OW 7936   5.307   3.639   6.039
 2346SOL    HW1 7937   5.397   3.627   6.081
 2346SOL    HW2 7938   5.236   3.614   6.105
 2347SOL     OW 7939   1.309   3.626   1.110
 2347SOL    HW1 7940   1.344   3.709   1.153
 2347SOL    HW2 7941   1.236   3.649   1.047
 2348SOL     OW 7942   2.583   5.869   1.696
 2348SOL    HW1 7943   2.552   5.900   1.786
 2348SOL    HW2 7944   2.581   5.769   1.692
 2349SOL     OW 7945   4.650   4.831   5.810
 2349SOL    HW1 7946   4.577   4.773   5.846
 2349SOL    HW2 7947   4.643   4.922   5.851
 2350SOL     OW 7948   1.934   5.707   5.226
 2350SOL    HW1 7949   1.891   5.617   5.234
 2350SOL    HW2 7950   2.021   5.698   5.179
 2351SOL     OW 7951   2.628   5.753   3.560
 2351SOL    HW1 7952   2.574   5.695   3.498
 2351SOL    HW2 7953   2.607   5.729   3.655
 2352SOL     OW 7954   6.259   3.967   2.361
 2352SOL    HW1 7955   6.325   4.040   2.345
 2352SOL    HW2 7956   6.168   4.007   2.377
 2353SOL     OW 7957   3.103   3.533   6.235
 2353SOL    HW1 7958   3.145   3.611   6.190
 2353SOL    HW2 7959   3.143   3.523   6.327
 2354SOL     OW 7960   3.772   2.732   1.645
 2354SOL    HW1 7961   3.707   2.664   1.679
 2354SOL    HW2 7962   3.862   2.713   1.684
 2355SOL     OW 7963   6.502   0.260   1.370
 2355SOL    HW1 7964   6.513   0.217   1.459
 2355SOL    HW2 7965   6.579   0.237   1.311
 2356SOL     OW 7966   2.807   4.881   4.049
 2356SOL    HW1 7967   2.734   4.948   4.041
 2356SOL    HW2 7968   2.799   4.834   4.137
 2357SOL     OW 7969   6.351   4.801   0.560
 2357SOL    HW1 7970   6.266   4.776   0.514
 2357SOL    HW2 7971   6.383   4.724   0.615
 2358SOL     OW 7972   3.600   2.037   5.379
 2358SOL    HW1 7973   3.671   2.077   5.321
 2358SOL    HW2 7974   3.515   2.089   5.368
 2359SOL     OW 7975   1.929   1.553   5.812
 2359SOL    HW1 7976   1.952   1.647   5.838
 2359SOL    HW2 7977   2.003   1.514   5.757
 2360SOL     OW 7978   3.609   4.554   6.982
 2360SOL    HW1 7979   3.624   4.455   6.988
 2360SOL    HW2 7980   3.550   4.583   0.030
 2361SOL     OW 7981   4.624   5.565   1.852
 2361SOL    HW1 7982   4.634   5.492   1.785
 2361SOL    HW2 7983   4.607   5.652   1.805
 2362SOL     OW 7984   4.508   5.004   3.862
 2362SOL    HW1 7985   4.597   5.046   3.844
 2362SOL    HW2 7986   4.448   5.018   3.783
 2363SOL     OW 7987   1.587   3.931   0.594
 2363SOL    HW1 7988   1.532   3.855   0.561
 2363SOL    HW2 7989   1.563   4.014   0.544
 2364SOL     OW 7990   3.626   1.276   2.719
 2364SOL    HW1 7991   3.628   1.376   2.713
 2364SOL    HW2 7992   3.679   1.246   2.799
 2365SOL     OW 7993   4.785   4.363   3.511
 2365SOL    HW1 7994   4.696   4.394   3.480
 2365SOL    HW2 7995   4.798   4.388   3.607
 2366SOL     OW 7996   3.073   4.798   5.144
 2366SOL    HW1 7997   3.074   4.854   5.061
 2366SOL    HW2 7998   3.011   4.721   5.132
 2367SOL     OW 7999   5.918   4.890   6.191
 2367SOL    HW1 8000   5.974   4.968   6.219
 2367SOL    HW2 8001   5.946   4.859   6.100
 2368SOL     OW 8002   5.639   0.069   4.715
 2368SOL    HW1 8003   5.676   0.148   4.762
 2368SOL    HW2 8004   5.712   0.004   4.695
 2369SOL     OW 8005   3.258   2.144   4.415
 2369SOL    HW1 8006   3.210   2.231   4.428
 2369SOL    HW2 8007   3.298   2.114   4.502
 2370SOL     OW 8008   5.946   2.510   1.670
 2370SOL    HW1 8009   5.880   2.544   1.603
 2370SOL    HW2 8010   6.006   2.443   1.626
 2371SOL     OW 8011   0.219   6.170   2.731
 2371SOL    HW1 8012   0.269   6.172   2.818
 2371SOL    HW2 8013   0.167   6.255   2.721
 2372SOL     OW 8014   5.954   6.399   6.962
 2372SOL    HW1 8015   6.027   6.363   7.019
 2372SOL    HW2 8016   5.867   6.357   6.989
 2373SOL     OW 8017   6.686   5.282   6.462
 2373SOL    HW1 8018   6.684   5.313   6.557
 2373SOL    HW2 8019   6.684   5.361   6.401
 2374SOL     OW 8020   6.354   6.152   2.471
 2374SOL    HW1 8021   6.421   6.078   2.468
 2374SOL    HW2 8022   6.327   6.168   2.566
 2375SOL     OW 8023   1.471   0.382   4.082
 2375SOL    HW1 8024   1.380   0.354   4.051
 2375SOL    HW2 8025   1.524   0.300   4.105
 2376SOL     OW 8026   5.274   1.975   3.534
 2376SOL    HW1 8027   5.305   2.068   3.554
 2376SOL    HW2 8028   5.190   1.979   3.480
 2377SOL     OW 8029   4.312   4.255   6.062
 2377SOL    HW1 8030   4.289   4.286   5.970
 2377SOL    HW2 8031   4.407   4.222   6.063
 2378SOL     OW 8032   6.900   1.169   0.638
 2378SOL    HW1 8033   6.958   1.225   0.580
 2378SOL    HW2 8034   6.957   1.113   0.699
 2379SOL     OW 8035   6.541   5.182   2.221
 2379SOL    HW1 8036   6.627   5.231   2.236
 2379SOL    HW2 8037   6.524   5.172   2.123
 2380SOL     OW 8038   4.747   5.765   5.779
 2380SOL    HW1 8039   4.836   5.804   5.756
 2380SOL    HW2 8040   4.715   5.707   5.704
 2381SOL     OW 8041   2.282   4.860   4.469
 2381SOL    HW1 8042   2.300   4.891   4.375
 2381SOL    HW2 8043   2.207   4.794   4.468
 2382SOL     OW 8044   6.963   5.898   3.111
 2382SOL    HW1 8045   6.956   5.901   3.012
 2382SOL    HW2 8046   0.008   5.834   3.138
 2383SOL     OW 8047   5.255   5.199   5.720
 2383SOL    HW1 8048   5.207   5.286   5.730
 2383SOL    HW2 8049   5.297   5.174   5.807
 2384SOL     OW 8050   0.590   2.056   2.716
 2384SOL    HW1 8051   0.520   2.016   2.776
 2384SOL    HW2 8052   0.546   2.093   2.634
 2385SOL     OW 8053   0.474   1.486   0.523
 2385SOL    HW1 8054   0.420   1.413   0.482
 2385SOL    HW2 8055   0.439   1.575   0.493
 2386SOL     OW 8056   6.088   5.740   3.903
 2386SOL    HW1 8057   6.120   5.821   3.952
 2386SOL    HW2 8058   5.997   5.714   3.936
 2387SOL     OW 8059   1.244   1.187   3.526
 2387SOL    HW1 8060   1.285   1.101   3.496
 2387SOL    HW2 8061   1.282   1.213   3.615
 2388SOL     OW 8062   6.671   2.511   5.357
 2388SOL    HW1 8063   6.694   2.458   5.276
 2388SOL    HW2 8064   6.581   2.484   5.390
 2389SOL     OW 8065   4.466   4.573   3.891
 2389SOL    HW1 8066   4.406   4.650   3.914
 2389SOL    HW2 8067   4.558   4.608   3.872
 2390SOL     OW 8068   4.487   3.202   5.687
 2390SOL    HW1 8069   4.525   3.115   5.655
 2390SOL    HW2 8070   4.425   3.186   5.764
 2391SOL     OW 8071   3.178   4.267   5.624
 2391SOL    HW1 8072   3.122   4.185   5.616
 2391SOL    HW2 8073   3.120   4.345   5.651
 2392SOL     OW 8074   4.579   4.504   5.544
 2392SOL    HW1 8075   4.612   4.424   5.594
 2392SOL    HW2 8076   4.493   4.536   5.586
 2393SOL     OW 8077   4.250   4.383   1.045
 2393SOL    HW1 8078   4.182   4.312   1.065
 2393SOL    HW2 8079   4.204   4.462   1.005
 2394SOL     OW 8080   0.577   2.627   4.002
 2394SOL    HW1 8081   0.609   2.678   4.082
 2394SOL    HW2 8082   0.511   2.558   4.031
 2395SOL     OW 8083   0.849   2.434   4.783
 2395SOL    HW1 8084   0.885   2.396   4.698
 2395SOL    HW2 8085   0.790   2.512   4.762
 2396SOL     OW 8086   0.474   0.529   5.287
 2396SOL    HW1 8087   0.479   0.591   5.366
 2396SOL    HW2 8088   0.523   0.444   5.308
 2397SOL     OW 8089   0.333   3.990   5.111
 2397SOL    HW1 8090   0.237   3.993   5.082
 2397SOL    HW2 8091   0.387   4.053   5.054
 2398SOL     OW 8092   3.992   6.507   4.371
 2398SOL    HW1 8093   3.910   6.470   4.326
 2398SOL    HW2 8094   4.071   6.450   4.349
 2399SOL     OW 8095   3.173   2.134   3.741
 2399SOL    HW1 8096   3.193   2.094   3.831
 2399SOL    HW2 8097   3.075   2.133   3.725
 2400SOL     OW 8098   1.635   3.742   0.941
 2400SOL    HW1 8099   1.618   3.794   1.025
 2400SOL    HW2 8100   1.730   3.711   0.940
 2401SOL     OW 8101   2.491   0.448   5.735
 2401SOL    HW1 8102   2.523   0.529   5.784
 2401SOL    HW2 8103   2.542   0.368   5.766
 2402SOL     OW 8104   1.516   4.370   1.820
 2402SOL    HW1 8105   1.567   4.406   1.898
 2402SOL    HW2 8106   1.530   4.428   1.741
 2403SOL     OW 8107   3.927   3.162   3.326
 2403SOL    HW1 8108   3.947   3.100   3.250
 2403SOL    HW2 8109   3.899   3.110   3.406
 2404SOL     OW 8110   5.978   0.881   0.935
 2404SOL    HW1 8111   5.953   0.795   0.891
 2404SOL    HW2 8112   5.953   0.957   0.876
 2405SOL     OW 8113   2.612   3.410   0.587
 2405SOL    HW1 8114   2.538   3.343   0.582
 2405SOL    HW2 8115   2.577   3.501   0.566
 2406SOL     OW 8116   2.971   6.323   4.502
 2406SOL    HW1 8117   2.887   6.368   4.533
 2406SOL    HW2 8118   2.960   6.224   4.510
 2407SOL     OW 8119   2.366   0.809   3.272
 2407SOL    HW1 8120   2.282   0.859   3.294
 2407SOL    HW2 8121   2.405   0.845   3.188
 2408SOL     OW 8122   3.761   6.224   5.231
 2408SOL    HW1 8123   3.848   6.231   5.181
 2408SOL    HW2 8124   3.741   6.128   5.249
 2409SOL     OW 8125   1.249   3.253   0.603
 2409SOL    HW1 8126   1.153   3.263   0.578
 2409SOL    HW2 8127   1.280   3.335   0.651
 2410SOL     OW 8128   1.019   2.990   4.864
 2410SOL    HW1 8129   1.005   2.917   4.797
 2410SOL    HW2 8130   1.110   3.030   4.851
 2411SOL     OW 8131   3.223   2.531   0.055
 2411SOL    HW1 8132   3.283   2.536   0.134
 2411SOL    HW2 8133   3.278   2.513   7.000
 2412SOL     OW 8134   3.865   1.996   6.679
 2412SOL    HW1 8135   3.782   2.050   6.696
 2412SOL    HW2 8136   3.944   2.058   6.674
 2413SOL     OW 8137   0.360   3.272   0.171
 2413SOL    HW1 8138   0.401   3.343   0.228
 2413SOL    HW2 8139   0.417   3.257   0.090
 2414SOL     OW 8140   5.881   2.085   5.065
 2414SOL    HW1 8141   5.889   2.152   5.138
 2414SOL    HW2 8142   5.787   2.085   5.030
 2415SOL     OW 8143   2.675   5.886   6.972
 2415SOL    HW1 8144   2.698   5.886   6.874
 2415SOL    HW2 8145   2.607   5.957   6.990
 2416SOL     OW 8146   0.411   3.457   2.497
 2416SOL    HW1 8147   0.365   3.545   2.511
 2416SOL    HW2 8148   0.508   3.473   2.478
 2417SOL     OW 8149   3.059   2.691   1.743
 2417SOL    HW1 8150   2.984   2.745   1.706
 2417SOL    HW2 8151   3.021   2.611   1.791
 2418SOL     OW 8152   4.885   4.172   6.920
 2418SOL    HW1 8153   4.833   4.100   6.874
 2418SOL    HW2 8154   4.879   4.159   7.019
 2419SOL     OW 8155   2.624   6.662   3.411
 2419SOL    HW1 8156   2.713   6.695   3.379
 2419SOL    HW2 8157   2.637   6.612   3.497
 2420SOL     OW 8158   1.426   4.162   2.778
 2420SOL    HW1 8159   1.499   4.120   2.725
 2420SOL    HW2 8160   1.358   4.092   2.802
 2421SOL     OW 8161   2.637   6.724   4.043
 2421SOL    HW1 8162   2.620   6.626   4.040
 2421SOL    HW2 8163   2.626   6.757   4.137
 2422SOL     OW 8164   4.565   5.725   0.907
 2422SOL    HW1 8165   4.526   5.758   0.993
 2422SOL    HW2 8166   4.599   5.632   0.919
 2423SOL     OW 8167   2.664   5.617   3.024
 2423SOL    HW1 8168   2.735   5.562   3.068
 2423SOL    HW2 8169   2.651   5.586   2.929
 2424SOL     OW 8170   5.608   0.057   6.104
 2424SOL    HW1 8171   5.570   7.000   6.143
 2424SOL    HW2 8172   5.559   0.136   6.141
 2425SOL     OW 8173   5.304   5.614   4.679
 2425SOL    HW1 8174   5.351   5.655   4.757
 2425SOL    HW2 8175   5.299   5.679   4.604
 2426SOL     OW 8176   2.184   3.210   5.607
 2426SOL    HW1 8177   2.193   3.200   5.706
 2426SOL    HW2 8178   2.249   3.149   5.561
 2427SOL     OW 8179   5.396   0.426   0.152
 2427SOL    HW1 8180   5.487   0.385   0.148
 2427SOL    HW2 8181   5.400   0.520   0.120
 2428SOL     OW 8182   1.171   0.643   3.057
 2428SOL    HW1 8183   1.186   0.560   3.112
 2428SOL    HW2 8184   1.219   0.720   3.100
 2429SOL     OW 8185   5.591   4.892   1.575
 2429SOL    HW1 8186   5.536   4.859   1.653
 2429SOL    HW2 8187   5.530   4.922   1.502
 2430SOL     OW 8188   5.792   1.179   6.536
 2430SOL    HW1 8189   5.871   1.220   6.583
 2430SOL    HW2 8190   5.763   1.097   6.587
 2431SOL     OW 8191   0.579   2.916   2.011
 2431SOL    HW1 8192   0.545   2.836   1.962
 2431SOL    HW2 8193   0.674   2.932   1.987
 2432SOL     OW 8194   2.628   5.333   1.971
 2432SOL    HW1 8195   2.706   5.390   1.942
 2432SOL    HW2 8196   2.633   5.244   1.926
 2433SOL     OW 8197   6.459   4.093   5.658
 2433SOL    HW1 8198   6.519   4.023   5.698
 2433SOL    HW2 8199   6.514   4.157   5.605
 2434SOL     OW 8200   4.504   0.572   2.733
 2434SOL    HW1 8201   4.440   0.537   2.802
 2434SOL    HW2 8202   4.535   0.663   2.759
 2435SOL     OW 8203   6.448   6.883   6.929
 2435SOL    HW1 8204   6.450   6.785   6.910
 2435SOL    HW2 8205   6.541   6.918   6.934
 2436SOL     OW 8206   1.954   2.162   1.621
 2436SOL    HW1 8207   1.870   2.177   1.570
 2436SOL    HW2 8208   2.000   2.081   1.586
 2437SOL     OW 8209   0.174   4.422   2.724
 2437SOL    HW1 8210   0.204   4.333   2.758
 2437SOL    HW2 8211   0.081   4.440   2.756
 2438SOL     OW 8212   3.530   1.312   4.531
 2438SOL    HW1 8213   3.564   1.346   4.619
 2438SOL    HW2 8214   3.469   1.380   4.491
 2439SOL     OW 8215   1.823   6.817   1.212
 2439SOL    HW1 8216   1.846   6.797   1.116
 2439SOL    HW2 8217   1.811   6.731   1.261
 2440SOL     OW 8218   5.459   1.513   5.384
 2440SOL    HW1 8219   5.478   1.569   5.303
 2440SOL    HW2 8220   5.516   1.431   5.382
 2441SOL     OW 8221   6.418   0.224   0.528
 2441SOL    HW1 8222   6.448   0.214   0.433
 2441SOL    HW2 8223   6.346   0.293   0.532
 2442SOL     OW 8224   4.947   3.332   1.893
 2442SOL    HW1 8225   4.931   3.272   1.971
 2442SOL    HW2 8226   4.931   3.282   1.808
 2443SOL     OW 8227   1.107   2.753   1.833
 2443SOL    HW1 8228   1.190   2.807   1.826
 2443SOL    HW2 8229   1.028   2.814   1.845
 2444SOL     OW 8230   3.627   5.502   2.162
 2444SOL    HW1 8231   3.548   5.561   2.177
 2444SOL    HW2 8232   3.675   5.532   2.079
 2445SOL     OW 8233   0.390   2.803   1.405
 2445SOL    HW1 8234   0.341   2.720   1.431
 2445SOL    HW2 8235   0.405   2.859   1.486
 2446SOL     OW 8236   1.482   5.121   1.271
 2446SOL    HW1 8237   1.513   5.028   1.290
 2446SOL    HW2 8238   1.542   5.186   1.318
 2447SOL     OW 8239   2.347   6.795   6.951
 2447SOL    HW1 8240   2.298   6.880   6.933
 2447SOL    HW2 8241   2.282   6.721   6.967
 2448SOL     OW 8242   6.555   1.803   4.399
 2448SOL    HW1 8243   6.624   1.797   4.471
 2448SOL    HW2 8244   6.597   1.786   4.310
 2449SOL     OW 8245   1.752   3.907   1.999
 2449SOL    HW1 8246   1.767   3.823   2.051
 2449SOL    HW2 8247   1.709   3.884   1.911
 2450SOL     OW 8248   1.476   0.109   5.853
 2450SOL    HW1 8249   1.494   0.205   5.873
 2450SOL    HW2 8250   1.386   0.100   5.811
 2451SOL     OW 8251   0.911   6.883   4.452
 2451SOL    HW1 8252   0.879   6.878   4.547
 2451SOL    HW2 8253   1.010   6.893   4.450
 2452SOL     OW 8254   2.387   1.948   3.753
 2452SOL    HW1 8255   2.440   2.004   3.817
 2452SOL    HW2 8256   2.374   1.997   3.667
 2453SOL     OW 8257   0.558   1.321   6.479
 2453SOL    HW1 8258   0.644   1.324   6.529
 2453SOL    HW2 8259   0.558   1.241   6.418
 2454SOL     OW 8260   3.350   5.658   1.277
 2454SOL    HW1 8261   3.387   5.567   1.294
 2454SOL    HW2 8262   3.322   5.665   1.181
 2455SOL     OW 8263   4.086   2.779   1.023
 2455SOL    HW1 8264   4.097   2.848   0.951
 2455SOL    HW2 8265   4.004   2.724   1.004
 2456SOL     OW 8266   0.675   4.235   6.315
 2456SOL    HW1 8267   0.617   4.154   6.322
 2456SOL    HW2 8268   0.728   4.230   6.230
 2457SOL     OW 8269   4.720   2.324   5.063
 2457SOL    HW1 8270   4.713   2.277   4.975
 2457SOL    HW2 8271   4.737   2.422   5.047
 2458SOL     OW 8272   1.154   0.850   1.851
 2458SOL    HW1 8273   1.109   0.809   1.930
 2458SOL    HW2 8274   1.239   0.894   1.879
 2459SOL     OW 8275   2.730   6.632   0.624
 2459SOL    HW1 8276   2.794   6.708   0.611
 2459SOL    HW2 8277   2.647   6.649   0.571
 2460SOL     OW 8278   1.676   0.822   4.847
 2460SOL    HW1 8279   1.589   0.801   4.893
 2460SOL    HW2 8280   1.742   0.854   4.915
 2461SOL     OW 8281   4.469   0.679   3.743
 2461SOL    HW1 8282   4.477   0.704   3.839
 2461SOL    HW2 8283   4.385   0.625   3.730
 2462SOL     OW 8284   0.322   3.605   0.687
 2462SOL    HW1 8285   0.321   3.505   0.687
 2462SOL    HW2 8286   0.229   3.638   0.672
 2463SOL     OW 8287   6.860   0.735   7.026
 2463SOL    HW1 8288   6.792   0.691   0.057
 2463SOL    HW2 8289   6.837   0.832   7.016
 2464SOL     OW 8290   0.587   2.571   3.092
 2464SOL    HW1 8291   0.505   2.533   3.134
 2464SOL    HW2 8292   0.576   2.670   3.080
 2465SOL     OW 8293   7.020   5.886   5.504
 2465SOL    HW1 8294   0.089   5.895   5.530
 2465SOL    HW2 8295   6.990   5.969   5.456
 2466SOL     OW 8296   0.960   2.589   2.180
 2466SOL    HW1 8297   0.936   2.672   2.129
 2466SOL    HW2 8298   0.878   2.548   2.219
 2467SOL     OW 8299   5.803   2.104   5.487
 2467SOL    HW1 8300   5.844   2.018   5.514
 2467SOL    HW2 8301   5.736   2.088   5.414
 2468SOL     OW 8302   3.255   6.916   5.674
 2468SOL    HW1 8303   3.303   6.834   5.642
 2468SOL    HW2 8304   3.210   6.896   5.760
 2469SOL     OW 8305   3.432   2.546   5.827
 2469SOL    HW1 8306   3.385   2.627   5.862
 2469SOL    HW2 8307   3.385   2.511   5.747
 2470SOL     OW 8308   3.209   4.570   6.003
 2470SOL    HW1 8309   3.169   4.609   5.920
 2470SOL    HW2 8310   3.301   4.606   6.016
 2471SOL     OW 8311   3.480   5.786   1.911
 2471SOL    HW1 8312   3.440   5.753   1.997
 2471SOL    HW2 8313   3.576   5.808   1.925
 2472SOL     OW 8314   4.705   1.874   4.448
 2472SOL    HW1 8315   4.696   1.775   4.451
 2472SOL    HW2 8316   4.790   1.899   4.402
 2473SOL     OW 8317   0.624   4.662   5.043
 2473SOL    HW1 8318   0.650   4.689   5.136
 2473SOL    HW2 8319   0.529   4.630   5.043
 2474SOL     OW 8320   1.693   5.679   1.719
 2474SOL    HW1 8321   1.604   5.723   1.713
 2474SOL    HW2 8322   1.764   5.749   1.728
 2475SOL     OW 8323   5.000   0.647   0.648
 2475SOL    HW1 8324   4.901   0.651   0.657
 2475SOL    HW2 8325   5.027   0.559   0.609
 2476SOL     OW 8326   5.680   0.491   6.913
 2476SOL    HW1 8327   5.647   0.585   6.907
 2476SOL    HW2 8328   5.674   0.460   7.008
 2477SOL     OW 8329   3.681   0.197   3.459
 2477SOL    HW1 8330   3.680   0.288   3.418
 2477SOL    HW2 8331   3.611   0.191   3.530
 2478SOL     OW 8332   4.715   0.631   3.661
 2478SOL    HW1 8333   4.628   0.655   3.702
 2478SOL    HW2 8334   4.711   0.536   3.629
 2479SOL     OW 8335   0.553   3.733   0.236
 2479SOL    HW1 8336   0.484   3.787   0.187
 2479SOL    HW2 8337   0.574   3.777   0.323
 2480SOL     OW 8338   3.275   2.490   1.441
 2480SOL    HW1 8339   3.277   2.397   1.405
 2480SOL    HW2 8340   3.287   2.488   1.540
 2481SOL     OW 8341   3.342   0.116   0.998
 2481SOL    HW1 8342   3.425   0.082   1.041
 2481SOL    HW2 8343   3.310   0.050   0.930
 2482SOL     OW 8344   5.442   3.271   0.033
 2482SOL    HW1 8345   5.446   3.172   0.021
 2482SOL    HW2 8346   5.400   3.313   6.980
 2483SOL     OW 8347   0.867   2.192   1.004
 2483SOL    HW1 8348   0.825   2.244   0.930
 2483SOL    HW2 8349   0.966   2.186   0.990
 2484SOL     OW 8350   5.636   1.450   1.727
 2484SOL    HW1 8351   5.689   1.489   1.802
 2484SOL    HW2 8352   5.685   1.461   1.641
 2485SOL     OW 8353   5.467   2.472   6.344
 2485SOL    HW1 8354   5.557   2.433   6.361
 2485SOL    HW2 8355   5.467   2.520   6.256
 2486SOL     OW 8356   0.603   3.858   5.262
 2486SOL    HW1 8357   0.558   3.908   5.188
 2486SOL    HW2 8358   0.694   3.829   5.232
 2487SOL     OW 8359   4.533   5.892   0.514
 2487SOL    HW1 8360   4.453   5.832   0.519
 2487SOL    HW2 8361   4.566   5.911   0.606
 2488SOL     OW 8362   6.788   3.918   1.293
 2488SOL    HW1 8363   6.873   3.925   1.345
 2488SOL    HW2 8364   6.743   4.007   1.290
 2489SOL     OW 8365   0.273   6.147   4.150
 2489SOL    HW1 8366   0.230   6.210   4.214
 2489SOL    HW2 8367   0.372   6.158   4.154
 2490SOL     OW 8368   3.115   6.412   2.148
 2490SOL    HW1 8369   3.016   6.397   2.149
 2490SOL    HW2 8370   3.143   6.450   2.237
 2491SOL     OW 8371   3.970   4.735   1.431
 2491SOL    HW1 8372   4.010   4.687   1.510
 2491SOL    HW2 8373   4.035   4.733   1.355
 2492SOL     OW 8374   6.447   4.262   0.843
 2492SOL    HW1 8375   6.465   4.264   0.941
 2492SOL    HW2 8376   6.532   4.279   0.793
 2493SOL     OW 8377   0.058   6.274   1.910
 2493SOL    HW1 8378   7.023   6.303   1.983
 2493SOL    HW2 8379   0.105   6.190   1.938
 2494SOL     OW 8380   5.937   3.014   1.685
 2494SOL    HW1 8381   5.978   3.105   1.681
 2494SOL    HW2 8382   5.964   2.962   1.604
 2495SOL     OW 8383   6.626   4.976   3.912
 2495SOL    HW1 8384   6.584   4.963   4.001
 2495SOL    HW2 8385   6.602   5.066   3.876
 2496SOL     OW 8386   6.396   5.187   6.536
 2496SOL    HW1 8387   6.398   5.087   6.549
 2496SOL    HW2 8388   6.476   5.215   6.483
 2497SOL     OW 8389   0.244   6.862   2.152
 2497SOL    HW1 8390   0.280   6.891   2.064
 2497SOL    HW2 8391   0.316   6.869   2.221
 2498SOL     OW 8392   1.927   2.705   5.848
 2498SOL    HW1 8393   1.951   2.772   5.777
 2498SOL    HW2 8394   1.940   2.612   5.812
 2499SOL     OW 8395   6.769   3.319   1.206
 2499SOL    HW1 8396   6.835   3.373   1.258
 2499SOL    HW2 8397   6.684   3.371   1.197
 2500SOL     OW 8398   3.203   4.062   6.850
 2500SOL    HW1 8399   3.146   4.136   6.814
 2500SOL    HW2 8400   3.299   4.077   6.824
 2501SOL     OW 8401   6.068   5.332   0.351
 2501SOL    HW1 8402   6.146   5.270   0.354
 2501SOL    HW2 8403   5.997   5.300   0.414
 2502SOL     OW 8404   3.019   5.683   4.223
 2502SOL    HW1 8405   3.039   5.668   4.127
 2502SOL    HW2 8406   3.009   5.595   4.270
 2503SOL     OW 8407   2.674   0.038   5.115
 2503SOL    HW1 8408   2.751   7.026   5.065
 2503SOL    HW2 8409   2.689   0.025   5.214
 2504SOL     OW 8410   3.103   5.300   2.307
 2504SOL    HW1 8411   3.054   5.300   2.220
 2504SOL    HW2 8412   3.190   5.347   2.297
 2505SOL     OW 8413   6.678   5.997   2.984
 2505SOL    HW1 8414   6.765   6.042   3.004
 2505SOL    HW2 8415   6.676   5.907   3.029
 2506SOL     OW 8416   5.762   4.864   5.733
 2506SOL    HW1 8417   5.812   4.777   5.729
 2506SOL    HW2 8418   5.822   4.935   5.772
 2507SOL     OW 8419   0.036   3.130   0.480
 2507SOL    HW1 8420   0.056   3.057   0.546
 2507SOL    HW2 8421   0.000   3.210   0.529
 2508SOL     OW 8422   3.787   1.701   4.485
 2508SOL    HW1 8423   3.799   1.610   4.446
 2508SOL    HW2 8424   3.746   1.761   4.417
 2509SOL     OW 8425   6.733   3.737   6.123
 2509SOL    HW1 8426   6.763   3.785   6.040
 2509SOL    HW2 8427   6.692   3.649   6.097
 2510SOL     OW 8428   3.073   4.094   1.958
 2510SOL    HW1 8429   2.990   4.120   2.008
 2510SOL    HW2 8430   3.069   4.133   1.866
 2511SOL     OW 8431   3.007   0.900   5.140
 2511SOL    HW1 8432   2.952   0.825   5.178
 2511SOL    HW2 8433   2.957   0.944   5.065
 2512SOL     OW 8434   3.921   5.018   4.735
 2512SOL    HW1 8435   4.002   5.006   4.793
 2512SOL    HW2 8436   3.917   5.112   4.701
 2513SOL     OW 8437   2.310   6.004   6.260
 2513SOL    HW1 8438   2.407   6.014   6.283
 2513SOL    HW2 8439   2.255   6.040   6.336
 2514SOL     OW 8440   1.142   2.914   3.163
 2514SOL    HW1 8441   1.194   2.853   3.222
 2514SOL    HW2 8442   1.144   2.879   3.069
 2515SOL     OW 8443   2.223   1.181   1.034
 2515SOL    HW1 8444   2.300   1.188   0.971
 2515SOL    HW2 8445   2.208   1.086   1.059
 2516SOL     OW 8446   5.890   1.518   3.368
 2516SOL    HW1 8447   5.926   1.597   3.417
 2516SOL    HW2 8448   5.958   1.484   3.304
 2517SOL     OW 8449   1.148   0.624   4.449
 2517SOL    HW1 8450   1.144   0.663   4.357
 2517SOL    HW2 8451   1.129   0.526   4.445
 2518SOL     OW 8452   2.930   4.460   1.243
 2518SOL    HW1 8453   2.860   4.436   1.311
 2518SOL    HW2 8454   2.886   4.483   1.157
 2519SOL     OW 8455   2.445   1.225   0.874
 2519SOL    HW1 8456   2.481   1.175   0.795
 2519SOL    HW2 8457   2.520   1.251   0.935
 2520SOL     OW 8458   3.301   2.776   1.378
 2520SOL    HW1 8459   3.257   2.778   1.288
 2520SOL    HW2 8460   3.317   2.681   1.405
 2521SOL     OW 8461   4.237   1.513   5.344
 2521SOL    HW1 8462   4.225   1.453   5.423
 2521SOL    HW2 8463   4.294   1.467   5.276
 2522SOL     OW 8464   0.875   1.323   5.635
 2522SOL    HW1 8465   0.887   1.418   5.665
 2522SOL    HW2 8466   0.815   1.275   5.699
 2523SOL     OW 8467   2.030   4.352   0.039
 2523SOL    HW1 8468   2.068   4.431   7.018
 2523SOL    HW2 8469   2.074   4.269   0.007
 2524SOL     OW 8470   1.485   6.780   4.249
 2524SOL    HW1 8471   1.496   6.681   4.238
 2524SOL    HW2 8472   1.395   6.807   4.217
 2525SOL     OW 8473   0.757   2.695   4.211
 2525SOL    HW1 8474   0.849   2.733   4.200
 2525SOL    HW2 8475   0.757   2.630   4.287
 2526SOL     OW 8476   0.742   5.586   6.738
 2526SOL    HW1 8477   0.732   5.641   6.821
 2526SOL    HW2 8478   0.816   5.520   6.751
 2527SOL     OW 8479   5.245   5.583   6.576
 2527SOL    HW1 8480   5.189   5.654   6.533
 2527SOL    HW2 8481   5.192   5.498   6.583
 2528SOL     OW 8482   4.876   5.297   6.349
 2528SOL    HW1 8483   4.842   5.289   6.255
 2528SOL    HW2 8484   4.801   5.318   6.411
 2529SOL     OW 8485   0.505   6.717   6.141
 2529SOL    HW1 8486   0.564   6.682   6.214
 2529SOL    HW2 8487   0.485   6.814   6.159
 2530SOL     OW 8488   2.710   5.552   5.440
 2530SOL    HW1 8489   2.696   5.494   5.520
 2530SOL    HW2 8490   2.631   5.613   5.430
 2531SOL     OW 8491   6.743   5.659   6.069
 2531SOL    HW1 8492   6.671   5.706   6.017
 2531SOL    HW2 8493   6.802   5.608   6.006
 2532SOL     OW 8494   0.710   6.630   1.121
 2532SOL    HW1 8495   0.734   6.617   1.025
 2532SOL    HW2 8496   0.646   6.706   1.129
 2533SOL     OW 8497   5.172   0.701   3.041
 2533SOL    HW1 8498   5.260   0.692   2.994
 2533SOL    HW2 8499   5.185   0.742   3.131
 2534SOL     OW 8500   4.537   1.927   1.914
 2534SOL    HW1 8501   4.476   2.006   1.915
 2534SOL    HW2 8502   4.608   1.940   1.844
 2535SOL     OW 8503   3.504   2.626   6.226
 2535SOL    HW1 8504   3.563   2.623   6.307
 2535SOL    HW2 8505   3.559   2.612   6.144
 2536SOL     OW 8506   1.808   0.688   6.550
 2536SOL    HW1 8507   1.859   0.743   6.483
 2536SOL    HW2 8508   1.711   0.689   6.527
 2537SOL     OW 8509   4.247   0.931   0.064
 2537SOL    HW1 8510   4.197   1.012   0.096
 2537SOL    HW2 8511   4.318   0.958   0.000
 2538SOL     OW 8512   6.865   3.597   3.947
 2538SOL    HW1 8513   6.791   3.534   3.969
 2538SOL    HW2 8514   6.850   3.635   3.855
 2539SOL     OW 8515   6.082   1.461   4.456
 2539SOL    HW1 8516   6.063   1.367   4.484
 2539SOL    HW2 8517   6.128   1.460   4.367
 2540SOL     OW 8518   3.902   1.708   3.130
 2540SOL    HW1 8519   3.983   1.762   3.105
 2540SOL    HW2 8520   3.844   1.762   3.191
 2541SOL     OW 8521   3.160   0.167   5.249
 2541SOL    HW1 8522   3.072   0.208   5.226
 2541SOL    HW2 8523   3.146   0.096   5.318
 2542SOL     OW 8524   1.586   4.714   6.547
 2542SOL    HW1 8525   1.535   4.730   6.631
 2542SOL    HW2 8526   1.547   4.636   6.499
 2543SOL     OW 8527   0.988   2.245   4.213
 2543SOL    HW1 8528   1.021   2.313   4.278
 2543SOL    HW2 8529   0.944   2.291   4.135
 2544SOL     OW 8530   0.969   4.853   0.850
 2544SOL    HW1 8531   1.068   4.845   0.858
 2544SOL    HW2 8532   0.933   4.901   0.929
 2545SOL     OW 8533   1.558   6.613   2.634
 2545SOL    HW1 8534   1.530   6.551   2.707
 2545SOL    HW2 8535   1.645   6.655   2.658
 2546SOL     OW 8536   5.966   1.133   0.761
 2546SOL    HW1 8537   6.032   1.207   0.754
 2546SOL    HW2 8538   5.874   1.171   0.774
 2547SOL     OW 8539   6.881   3.863   5.874
 2547SOL    HW1 8540   6.884   3.952   5.829
 2547SOL    HW2 8541   6.973   3.839   5.906
 2548SOL     OW 8542   0.275   6.453   4.003
 2548SOL    HW1 8543   0.279   6.438   3.904
 2548SOL    HW2 8544   0.254   6.367   4.050
 2549SOL     OW 8545   0.741   0.221   1.601
 2549SOL    HW1 8546   0.730   0.272   1.686
 2549SOL    HW2 8547   0.651   0.186   1.572
 2550SOL     OW 8548   5.818   6.412   0.616
 2550SOL    HW1 8549   5.725   6.376   0.618
 2550SOL    HW2 8550   5.880   6.346   0.659
 2551SOL     OW 8551   2.198   4.226   6.646
 2551SOL    HW1 8552   2.100   4.208   6.641
 2551SOL    HW2 8553   2.240   4.159   6.707
 2552SOL     OW 8554   3.066   4.819   3.723
 2552SOL    HW1 8555   3.131   4.755   3.681
 2552SOL    HW2 8556   2.983   4.769   3.747
 2553SOL     OW 8557   4.198   4.019   6.119
 2553SOL    HW1 8558   4.225   4.115   6.113
 2553SOL    HW2 8559   4.247   3.966   6.050
 2554SOL     OW 8560   1.745   1.740   0.839
 2554SOL    HW1 8561   1.818   1.688   0.795
 2554SOL    HW2 8562   1.659   1.725   0.790
 2555SOL     OW 8563   5.263   2.932   5.156
 2555SOL    HW1 8564   5.238   2.931   5.253
 2555SOL    HW2 8565   5.287   3.025   5.128
 2556SOL     OW 8566   3.945   5.881   0.814
 2556SOL    HW1 8567   3.961   5.831   0.729
 2556SOL    HW2 8568   3.862   5.847   0.858
 2557SOL     OW 8569   1.983   4.028   6.323
 2557SOL    HW1 8570   1.963   3.980   6.238
 2557SOL    HW2 8571   2.005   4.124   6.304
 2558SOL     OW 8572   4.973   1.230   5.799
 2558SOL    HW1 8573   5.044   1.198   5.736
 2558SOL    HW2 8574   4.938   1.318   5.767
 2559SOL     OW 8575   0.331   4.798   5.622
 2559SOL    HW1 8576   0.357   4.799   5.718
 2559SOL    HW2 8577   0.232   4.809   5.614
 2560SOL     OW 8578   5.909   2.138   5.925
 2560SOL    HW1 8579   5.941   2.047   5.954
 2560SOL    HW2 8580   5.988   2.197   5.908
 2561SOL     OW 8581   3.004   5.407   4.669
 2561SOL    HW1 8582   2.954   5.320   4.672
 2561SOL    HW2 8583   3.099   5.389   4.645
 2562SOL     OW 8584   1.725   3.484   0.190
 2562SOL    HW1 8585   1.632   3.517   0.203
 2562SOL    HW2 8586   1.785   3.523   0.260
 2563SOL     OW 8587   2.396   1.365   6.875
 2563SOL    HW1 8588   2.486   1.406   6.861
 2563SOL    HW2 8589   2.404   1.287   6.936
 2564SOL     OW 8590   2.260   5.347   1.356
 2564SOL    HW1 8591   2.286   5.330   1.452
 2564SOL    HW2 8592   2.274   5.443   1.334
 2565SOL     OW 8593   1.438   0.883   1.065
 2565SOL    HW1 8594   1.487   0.797   1.049
 2565SOL    HW2 8595   1.503   0.959   1.062
 2566SOL     OW 8596   2.154   6.605   6.969
 2566SOL    HW1 8597   2.059   6.605   6.939
 2566SOL    HW2 8598   2.169   6.533   0.009
 2567SOL     OW 8599   1.846   0.024   0.601
 2567SOL    HW1 8600   1.784   0.103   0.594
 2567SOL    HW2 8601   1.940   0.057   0.603
 2568SOL     OW 8602   4.338   1.837   6.972
 2568SOL    HW1 8603   4.316   1.916   0.001
 2568SOL    HW2 8604   4.315   1.856   6.877
 2569SOL     OW 8605   3.761   0.410   4.059
 2569SOL    HW1 8606   3.760   0.395   3.961
 2569SOL    HW2 8607   3.681   0.466   4.085
 2570SOL     OW 8608   5.715   1.597   5.712
 2570SOL    HW1 8609   5.631   1.617   5.662
 2570SOL    HW2 8610   5.756   1.513   5.676
 2571SOL     OW 8611   1.161   4.830   3.832
 2571SOL    HW1 8612   1.124   4.739   3.820
 2571SOL    HW2 8613   1.225   4.831   3.909
 2572SOL     OW 8614   3.121   5.283   2.643
 2572SOL    HW1 8615   3.064   5.232   2.707
 2572SOL    HW2 8616   3.072   5.294   2.556
 2573SOL     OW 8617   0.010   0.933   1.308
 2573SOL    HW1 8618   0.034   0.901   1.400
 2573SOL    HW2 8619   6.939   0.920   1.293
 2574SOL     OW 8620   6.122   3.398   0.447
 2574SOL    HW1 8621   6.121   3.410   0.546
 2574SOL    HW2 8622   6.088   3.481   0.402
 2575SOL     OW 8623   6.813   5.816   6.920
 2575SOL    HW1 8624   6.815   5.906   6.875
 2575SOL    HW2 8625   6.735   5.811   6.983
 2576SOL     OW 8626   4.977   6.171   3.686
 2576SOL    HW1 8627   4.952   6.210   3.774
 2576SOL    HW2 8628   4.954   6.073   3.686
 2577SOL     OW 8629   2.824   4.743   2.390
 2577SOL    HW1 8630   2.804   4.743   2.292
 2577SOL    HW2 8631   2.923   4.739   2.404
 2578SOL     OW 8632   3.546   1.689   3.957
 2578SOL    HW1 8633   3.552   1.627   4.035
 2578SOL    HW2 8634   3.500   1.643   3.882
 2579SOL     OW 8635   0.848   6.947   3.705
 2579SOL    HW1 8636   0.862   7.013   3.779
 2579SOL    HW2 8637   0.806   6.864   3.742
 2580SOL     OW 8638   2.473   3.066   0.197
 2580SOL    HW1 8639   2.446   3.012   0.117
 2580SOL    HW2 8640   2.541   3.134   0.169
 2581SOL     OW 8641   2.653   0.031   5.679
 2581SOL    HW1 8642   2.725   0.010   5.746
 2581SOL    HW2 8643   2.565   0.034   5.724
 2582SOL     OW 8644   6.918   3.525   1.358
 2582SOL    HW1 8645   6.864   3.543   1.440
 2582SOL    HW2 8646   7.004   3.576   1.363
 2583SOL     OW 8647   6.140   6.691   0.965
 2583SOL    HW1 8648   6.224   6.696   1.019
 2583SOL    HW2 8649   6.072   6.636   1.013
 2584SOL     OW 8650   4.652   4.832   5.510
 2584SOL    HW1 8651   4.657   4.837   5.610
 2584SOL    HW2 8652   4.713   4.760   5.477
 2585SOL     OW 8653   3.606   5.550   6.666
 2585SOL    HW1 8654   3.535   5.562   6.597
 2585SOL    HW2 8655   3.564   5.538   6.756
 2586SOL     OW 8656   1.917   0.442   5.176
 2586SOL    HW1 8657   1.904   0.477   5.269
 2586SOL    HW2 8658   1.850   0.485   5.115
 2587SOL     OW 8659   0.152   1.593   2.757
 2587SOL    HW1 8660   0.168   1.670   2.696
 2587SOL    HW2 8661   0.178   1.618   2.850
 2588SOL     OW 8662   4.288   1.757   5.082
 2588SOL    HW1 8663   4.351   1.828   5.050
 2588SOL    HW2 8664   4.285   1.683   5.016
 2589SOL     OW 8665   1.377   7.017   0.038
 2589SOL    HW1 8666   1.459   6.981   0.083
 2589SOL    HW2 8667   1.396   0.005   6.968
 2590SOL     OW 8668   2.552   5.172   6.913
 2590SOL    HW1 8669   2.636   5.193   6.965
 2590SOL    HW2 8670   2.499   5.256   6.902
 2591SOL     OW 8671   5.989   5.397   4.568
 2591SOL    HW1 8672   6.089   5.397   4.568
 2591SOL    HW2 8673   5.956   5.304   4.556
 2592SOL     OW 8674   2.732   4.501   6.436
 2592SOL    HW1 8675   2.720   4.518   6.338
 2592SOL    HW2 8676   2.684   4.571   6.488
 2593SOL     OW 8677   2.587   5.190   0.568
 2593SOL    HW1 8678   2.526   5.254   0.522
 2593SOL    HW2 8679   2.594   5.213   0.665
 2594SOL     OW 8680   1.576   4.411   4.520
 2594SOL    HW1 8681   1.552   4.360   4.603
 2594SOL    HW2 8682   1.675   4.424   4.517
 2595SOL     OW 8683   1.700   0.828   4.034
 2595SOL    HW1 8684   1.780   0.775   4.059
 2595SOL    HW2 8685   1.717   0.873   3.946
 2596SOL     OW 8686   0.940   2.287   0.569
 2596SOL    HW1 8687   0.980   2.357   0.511
 2596SOL    HW2 8688   0.894   2.330   0.647
 2597SOL     OW 8689   0.478   6.424   6.232
 2597SOL    HW1 8690   0.401   6.429   6.295
 2597SOL    HW2 8691   0.445   6.398   6.141
 2598SOL     OW 8692   5.246   2.515   2.598
 2598SOL    HW1 8693   5.236   2.424   2.637
 2598SOL    HW2 8694   5.222   2.512   2.501
 2599SOL     OW 8695   2.741   0.162   2.516
 2599SOL    HW1 8696   2.793   0.111   2.447
 2599SOL    HW2 8697   2.679   0.225   2.470
 2600SOL     OW 8698   6.330   4.074   4.565
 2600SOL    HW1 8699   6.284   4.034   4.644
 2600SOL    HW2 8700   6.262   4.091   4.493
 2601SOL     OW 8701   1.235   1.820   2.530
 2601SOL    HW1 8702   1.191   1.779   2.450
 2601SOL    HW2 8703   1.283   1.903   2.503
 2602SOL     OW 8704   1.795   5.144   4.196
 2602SOL    HW1 8705   1.836   5.188   4.275
 2602SOL    HW2 8706   1.695   5.146   4.205
 2603SOL     OW 8707   3.029   1.206   2.831
 2603SOL    HW1 8708   2.984   1.234   2.746
 2603SOL    HW2 8709   3.127   1.195   2.814
 2604SOL     OW 8710   5.360   2.241   2.888
 2604SOL    HW1 8711   5.348   2.160   2.946
 2604SOL    HW2 8712   5.355   2.215   2.792
 2605SOL     OW 8713   1.162   3.686   2.093
 2605SOL    HW1 8714   1.190   3.757   2.158
 2605SOL    HW2 8715   1.189   3.714   2.000
 2606SOL     OW 8716   4.086   3.828   1.138
 2606SOL    HW1 8717   4.074   3.838   1.237
 2606SOL    HW2 8718   4.161   3.887   1.108
 2607SOL     OW 8719   2.588   1.874   0.673
 2607SOL    HW1 8720   2.596   1.784   0.630
 2607SOL    HW2 8721   2.588   1.863   0.773
 2608SOL     OW 8722   3.076   5.596   6.546
 2608SOL    HW1 8723   3.053   5.561   6.455
 2608SOL    HW2 8724   3.115   5.523   6.601
 2609SOL     OW 8725   0.705   0.386   1.340
 2609SOL    HW1 8726   0.681   0.322   1.413
 2609SOL    HW2 8727   0.706   0.479   1.376
 2610SOL     OW 8728   1.575   4.712   4.260
 2610SOL    HW1 8729   1.609   4.634   4.208
 2610SOL    HW2 8730   1.640   4.735   4.332
 2611SOL     OW 8731   5.323   6.412   6.489
 2611SOL    HW1 8732   5.363   6.392   6.579
 2611SOL    HW2 8733   5.229   6.445   6.501
 2612SOL     OW 8734   5.644   0.305   5.529
 2612SOL    HW1 8735   5.667   0.372   5.600
 2612SOL    HW2 8736   5.711   0.231   5.530
 2613SOL     OW 8737   0.980   6.028   6.808
 2613SOL    HW1 8738   0.927   6.107   6.777
 2613SOL    HW2 8739   0.993   5.965   6.732
 2614SOL     OW 8740   6.773   0.937   6.562
 2614SOL    HW1 8741   6.846   0.960   6.626
 2614SOL    HW2 8742   6.769   1.006   6.489
 2615SOL     OW 8743   1.127   2.891   0.244
 2615SOL    HW1 8744   1.043   2.867   0.195
 2615SOL    HW2 8745   1.104   2.926   0.334
 2616SOL     OW 8746   1.521   0.290   5.609
 2616SOL    HW1 8747   1.489   0.220   5.546
 2616SOL    HW2 8748   1.621   0.289   5.613
 2617SOL     OW 8749   5.265   6.949   1.015
 2617SOL    HW1 8750   5.243   6.993   1.103
 2617SOL    HW2 8751   5.218   6.861   1.010
 2618SOL     OW 8752   2.245   6.584   6.160
 2618SOL    HW1 8753   2.277   6.564   6.253
 2618SOL    HW2 8754   2.169   6.649   6.164
 2619SOL     OW 8755   5.188   1.178   2.394
 2619SOL    HW1 8756   5.217   1.266   2.433
 2619SOL    HW2 8757   5.205   1.179   2.295
 2620SOL     OW 8758   6.848   6.661   1.559
 2620SOL    HW1 8759   6.818   6.679   1.466
 2620SOL    HW2 8760   6.870   6.563   1.569
 2621SOL     OW 8761   1.760   5.883   2.567
 2621SOL    HW1 8762   1.799   5.848   2.653
 2621SOL    HW2 8763   1.750   5.808   2.502
 2622SOL     OW 8764   3.590   3.408   6.164
 2622SOL    HW1 8765   3.681   3.381   6.134
 2622SOL    HW2 8766   3.578   3.506   6.152
 2623SOL     OW 8767   1.011   6.616   4.011
 2623SOL    HW1 8768   1.051   6.696   3.967
 2623SOL    HW2 8769   1.018   6.626   4.110
 2624SOL     OW 8770   0.274   2.467   4.453
 2624SOL    HW1 8771   0.208   2.524   4.405
 2624SOL    HW2 8772   0.358   2.519   4.467
 2625SOL     OW 8773   1.428   5.210   5.178
 2625SOL    HW1 8774   1.429   5.146   5.100
 2625SOL    HW2 8775   1.365   5.285   5.158
 2626SOL     OW 8776   6.858   5.078   6.336
 2626SOL    HW1 8777   6.800   5.157   6.356
 2626SOL    HW2 8778   6.948   5.110   6.306
 2627SOL     OW 8779   1.974   6.861   5.615
 2627SOL    HW1 8780   1.958   6.957   5.589
 2627SOL    HW2 8781   2.044   6.822   5.557
 2628SOL     OW 8782   1.692   4.459   2.012
 2628SOL    HW1 8783   1.720   4.552   1.988
 2628SOL    HW2 8784   1.728   4.435   2.102
 2629SOL     OW 8785   3.070   3.919   3.541
 2629SOL    HW1 8786   3.036   3.891   3.452
 2629SOL    HW2 8787   3.030   3.861   3.612
 2630SOL     OW 8788   4.380   0.468   4.261
 2630SOL    HW1 8789   4.391   0.562   4.293
 2630SOL    HW2 8790   4.395   0.405   4.337
 2631SOL     OW 8791   5.731   0.985   0.393
 2631SOL    HW1 8792   5.717   0.990   0.294
 2631SOL    HW2 8793   5.642   0.986   0.438
 2632SOL     OW 8794   5.638   4.624   2.049
 2632SOL    HW1 8795   5.728   4.582   2.056
 2632SOL    HW2 8796   5.605   4.648   2.140
 2633SOL     OW 8797   0.223   3.039   6.313
 2633SOL    HW1 8798   0.290   2.965   6.307
 2633SOL    HW2 8799   0.131   3.000   6.322
 2634SOL     OW 8800   6.177   0.499   5.437
 2634SOL    HW1 8801   6.184   0.505   5.337
 2634SOL    HW2 8802   6.263   0.527   5.479
 2635SOL     OW 8803   5.798   5.101   3.746
 2635SOL    HW1 8804   5.886   5.059   3.724
 2635SOL    HW2 8805   5.781   5.177   3.684
 2636SOL     OW 8806   4.111   6.981   5.780
 2636SOL    HW1 8807   4.181   6.938   5.837
 2636SOL    HW2 8808   4.031   6.922   5.776
 2637SOL     OW 8809   1.360   1.778   3.243
 2637SOL    HW1 8810   1.289   1.847   3.237
 2637SOL    HW2 8811   1.407   1.770   3.155
 2638SOL     OW 8812   1.025   6.613   4.274
 2638SOL    HW1 8813   1.086   6.616   4.353
 2638SOL    HW2 8814   0.930   6.607   4.305
 2639SOL     OW 8815   4.125   4.736   5.186
 2639SOL    HW1 8816   4.091   4.809   5.245
 2639SOL    HW2 8817   4.110   4.759   5.090
 2640SOL     OW 8818   1.395   6.309   4.696
 2640SOL    HW1 8819   1.302   6.276   4.714
 2640SOL    HW2 8820   1.431   6.264   4.615
 2641SOL     OW 8821   5.691   2.569   6.819
 2641SOL    HW1 8822   5.782   2.594   6.785
 2641SOL    HW2 8823   5.624   2.577   6.744
 2642SOL     OW 8824   6.451   1.674   3.601
 2642SOL    HW1 8825   6.532   1.618   3.589
 2642SOL    HW2 8826   6.401   1.643   3.682
 2643SOL     OW 8827   1.904   5.073   3.699
 2643SOL    HW1 8828   1.929   4.989   3.747
 2643SOL    HW2 8829   1.915   5.060   3.601
 2644SOL     OW 8830   5.494   4.980   4.471
 2644SOL    HW1 8831   5.528   4.923   4.396
 2644SOL    HW2 8832   5.395   4.992   4.461
 2645SOL     OW 8833   5.069   5.458   2.913
 2645SOL    HW1 8834   5.067   5.493   2.820
 2645SOL    HW2 8835   4.985   5.405   2.930
 2646SOL     OW 8836   0.260   3.317   6.208
 2646SOL    HW1 8837   0.243   3.233   6.260
 2646SOL    HW2 8838   0.296   3.294   6.117
 2647SOL     OW 8839   5.329   0.602   1.496
 2647SOL    HW1 8840   5.246   0.656   1.512
 2647SOL    HW2 8841   5.375   0.586   1.583
 2648SOL     OW 8842   0.831   6.711   5.739
 2648SOL    HW1 8843   0.923   6.695   5.775
 2648SOL    HW2 8844   0.764   6.666   5.799
 2649SOL     OW 8845   5.459   2.495   1.976
 2649SOL    HW1 8846   5.506   2.561   2.035
 2649SOL    HW2 8847   5.525   2.453   1.913
 2650SOL     OW 8848   3.521   6.345   4.289
 2650SOL    HW1 8849   3.513   6.439   4.254
 2650SOL    HW2 8850   3.429   6.305   4.295
 2651SOL     OW 8851   3.916   2.027   4.987
 2651SOL    HW1 8852   3.996   2.086   5.000
 2651SOL    HW2 8853   3.887   2.031   4.891
 2652SOL     OW 8854   4.914   4.829   5.739
 2652SOL    HW1 8855   4.928   4.920   5.698
 2652SOL    HW2 8856   4.825   4.826   5.783
 2653SOL     OW 8857   2.547   5.788   0.409
 2653SOL    HW1 8858   2.596   5.838   0.338
 2653SOL    HW2 8859   2.519   5.851   0.481
 2654SOL     OW 8860   6.110   0.469   1.028
 2654SOL    HW1 8861   6.162   0.543   0.984
 2654SOL    HW2 8862   6.131   0.467   1.126
 2655SOL     OW 8863   4.745   6.118   2.488
 2655SOL    HW1 8864   4.715   6.190   2.550
 2655SOL    HW2 8865   4.719   6.142   2.394
 2656SOL     OW 8866   3.930   6.301   3.141
 2656SOL    HW1 8867   3.951   6.205   3.156
 2656SOL    HW2 8868   4.015   6.352   3.128
 2657SOL     OW 8869   1.223   4.060   6.905
 2657SOL    HW1 8870   1.282   3.981   6.888
 2657SOL    HW2 8871   1.128   4.030   6.912
 2658SOL     OW 8872   4.269   5.208   6.600
 2658SOL    HW1 8873   4.351   5.184   6.651
 2658SOL    HW2 8874   4.216   5.126   6.580
 2659SOL     OW 8875   0.148   1.996   4.633
 2659SOL    HW1 8876   0.159   2.091   4.661
 2659SOL    HW2 8877   0.141   1.938   4.714
 2660SOL     OW 8878   1.033   1.912   1.894
 2660SOL    HW1 8879   0.989   1.857   1.964
 2660SOL    HW2 8880   1.082   1.853   1.830
 2661SOL     OW 8881   1.645   1.115   0.332
 2661SOL    HW1 8882   1.697   1.033   0.355
 2661SOL    HW2 8883   1.586   1.140   0.409
 2662SOL     OW 8884   2.669   0.816   2.164
 2662SOL    HW1 8885   2.753   0.803   2.216
 2662SOL    HW2 8886   2.672   0.761   2.081
 2663SOL     OW 8887   4.464   6.626   0.600
 2663SOL    HW1 8888   4.488   6.712   0.554
 2663SOL    HW2 8889   4.482   6.549   0.539
 2664SOL     OW 8890   4.454   3.593   5.836
 2664SOL    HW1 8891   4.380   3.655   5.864
 2664SOL    HW2 8892   4.442   3.569   5.740
 2665SOL     OW 8893   2.087   3.576   4.409
 2665SOL    HW1 8894   2.086   3.668   4.449
 2665SOL    HW2 8895   2.070   3.508   4.480
 2666SOL     OW 8896   1.777   3.551   1.856
 2666SOL    HW1 8897   1.827   3.467   1.835
 2666SOL    HW2 8898   1.712   3.570   1.783
 2667SOL     OW 8899   6.327   3.583   4.708
 2667SOL    HW1 8900   6.348   3.490   4.740
 2667SOL    HW2 8901   6.229   3.600   4.719
 2668SOL     OW 8902   6.463   1.053   3.879
 2668SOL    HW1 8903   6.372   1.067   3.839
 2668SOL    HW2 8904   6.533   1.078   3.812
 2669SOL     OW 8905   2.370   0.444   0.353
 2669SOL    HW1 8906   2.461   0.445   0.394
 2669SOL    HW2 8907   2.320   0.364   0.384
 2670SOL     OW 8908   0.118   0.011   6.837
 2670SOL    HW1 8909   0.148   7.007   6.747
 2670SOL    HW2 8910   0.106   6.958   6.897
 2671SOL     OW 8911   4.753   4.411   6.317
 2671SOL    HW1 8912   4.826   4.369   6.371
 2671SOL    HW2 8913   4.664   4.384   6.355
 2672SOL     OW 8914   3.377   0.670   1.783
 2672SOL    HW1 8915   3.437   0.747   1.760
 2672SOL    HW2 8916   3.396   0.593   1.723
 2673SOL     OW 8917   4.276   0.458   2.910
 2673SOL    HW1 8918   4.300   0.458   3.007
 2673SOL    HW2 8919   4.211   0.385   2.891
 2674SOL     OW 8920   6.935   4.897   2.044
 2674SOL    HW1 8921   6.933   4.797   2.043
 2674SOL    HW2 8922   6.852   4.933   2.003
 2675SOL     OW 8923   5.704   0.125   3.767
 2675SOL    HW1 8924   5.774   0.118   3.697
 2675SOL    HW2 8925   5.741   0.097   3.855
 2676SOL     OW 8926   3.848   4.052   2.961
 2676SOL    HW1 8927   3.925   4.110   2.935
 2676SOL    HW2 8928   3.844   3.973   2.900
 2677SOL     OW 8929   2.194   4.883   1.381
 2677SOL    HW1 8930   2.250   4.879   1.464
 2677SOL    HW2 8931   2.253   4.891   1.301
 2678SOL     OW 8932   5.071   2.034   2.907
 2678SOL    HW1 8933   5.047   1.991   2.994
 2678SOL    HW2 8934   5.163   2.007   2.880
 2679SOL     OW 8935   2.365   4.419   3.236
 2679SOL    HW1 8936   2.294   4.351   3.251
 2679SOL    HW2 8937   2.341   4.504   3.283
 2680SOL     OW 8938   6.428   1.099   0.450
 2680SOL    HW1 8939   6.469   1.024   0.398
 2680SOL    HW2 8940   6.450   1.186   0.405
 2681SOL     OW 8941   1.936   2.037   5.313
 2681SOL    HW1 8942   1.861   2.099   5.333
 2681SOL    HW2 8943   2.013   2.088   5.273
 2682SOL     OW 8944   3.991   4.000   1.785
 2682SOL    HW1 8945   3.954   4.005   1.878
 2682SOL    HW2 8946   3.935   4.056   1.724
 2683SOL     OW 8947   2.452   4.512   2.283
 2683SOL    HW1 8948   2.506   4.556   2.355
 2683SOL    HW2 8949   2.497   4.523   2.195
 2684SOL     OW 8950   6.121   6.650   3.075
 2684SOL    HW1 8951   6.063   6.584   3.121
 2684SOL    HW2 8952   6.099   6.653   2.978
 2685SOL     OW 8953   1.703   5.685   5.715
 2685SOL    HW1 8954   1.789   5.734   5.700
 2685SOL    HW2 8955   1.633   5.720   5.652
 2686SOL     OW 8956   0.555   1.532   4.893
 2686SOL    HW1 8957   0.649   1.507   4.915
 2686SOL    HW2 8958   0.493   1.495   4.962
 2687SOL     OW 8959   4.003   1.391   1.497
 2687SOL    HW1 8960   4.080   1.440   1.539
 2687SOL    HW2 8961   3.965   1.326   1.563
 2688SOL     OW 8962   3.742   3.041   6.189
 2688SOL    HW1 8963   3.776   2.969   6.250
 2688SOL    HW2 8964   3.771   3.021   6.095
 2689SOL     OW 8965   1.061   3.454   2.863
 2689SOL    HW1 8966   0.998   3.412   2.928
 2689SOL    HW2 8967   1.014   3.527   2.814
 2690SOL     OW 8968   4.368   1.983   5.648
 2690SOL    HW1 8969   4.291   1.937   5.603
 2690SOL    HW2 8970   4.441   1.998   5.582
 2691SOL     OW 8971   6.594   4.487   3.729
 2691SOL    HW1 8972   6.670   4.448   3.781
 2691SOL    HW2 8973   6.547   4.555   3.784
 2692SOL     OW 8974   2.649   5.489   2.763
 2692SOL    HW1 8975   2.634   5.393   2.742
 2692SOL    HW2 8976   2.739   5.518   2.729
 2693SOL     OW 8977   2.200   5.502   3.282
 2693SOL    HW1 8978   2.153   5.584   3.250
 2693SOL    HW2 8979   2.238   5.452   3.204
 2694SOL     OW 8980   2.949   6.981   3.481
 2694SOL    HW1 8981   2.953   6.965   3.580
 2694SOL    HW2 8982   2.886   6.915   3.439
 2695SOL     OW 8983   0.285   5.539   3.444
 2695SOL    HW1 8984   0.374   5.513   3.481
 2695SOL    HW2 8985   0.288   5.635   3.415
 2696SOL     OW 8986   5.256   4.181   6.644
 2696SOL    HW1 8987   5.350   4.149   6.647
 2696SOL    HW2 8988   5.247   4.252   6.573
 2697SOL     OW 8989   4.057   2.112   0.001
 2697SOL    HW1 8990   4.072   2.135   6.932
 2697SOL    HW2 8991   3.971   2.061   0.010
 2698SOL     OW 8992   1.686   4.419   6.184
 2698SOL    HW1 8993   1.587   4.417   6.171
 2698SOL    HW2 8994   1.729   4.356   6.119
 2699SOL     OW 8995   3.361   6.801   1.920
 2699SOL    HW1 8996   3.442   6.742   1.917
 2699SOL    HW2 8997   3.283   6.750   1.956
 2700SOL     OW 8998   3.744   1.767   1.984
 2700SOL    HW1 8999   3.821   1.803   2.036
 2700SOL    HW2 9000   3.708   1.838   1.924
 2701SOL     OW 9001   5.433   3.137   5.548
 2701SOL    HW1 9002   5.458   3.090   5.632
 2701SOL    HW2 9003   5.419   3.069   5.475
 2702SOL     OW 9004   2.625   1.199   4.566
 2702SOL    HW1 9005   2.723   1.219   4.569
 2702SOL    HW2 9006   2.605   1.119   4.623
 2703SOL     OW 9007   1.531   6.665   2.196
 2703SOL    HW1 9008   1.504   6.666   2.100
 2703SOL    HW2 9009   1.554   6.757   2.225
 2704SOL     OW 9010   5.078   0.015   4.171
 2704SOL    HW1 9011   5.177   0.029   4.165
 2704SOL    HW2 9012   5.040   0.076   4.240
 2705SOL     OW 9013   0.040   0.227   5.390
 2705SOL    HW1 9014   0.058   0.221   5.292
 2705SOL    HW2 9015   7.025   0.142   5.421
 2706SOL     OW 9016   0.016   3.877   3.239
 2706SOL    HW1 9017   6.976   3.949   3.256
 2706SOL    HW2 9018   0.103   3.917   3.210
 2707SOL     OW 9019   3.467   0.421   3.135
 2707SOL    HW1 9020   3.382   0.381   3.169
 2707SOL    HW2 9021   3.446   0.501   3.078
 2708SOL     OW 9022   6.121   3.283   7.007
 2708SOL    HW1 9023   6.023   3.295   6.991
 2708SOL    HW2 9024   6.164   3.371   7.024
 2709SOL     OW 9025   4.773   1.225   4.653
 2709SOL    HW1 9026   4.679   1.202   4.677
 2709SOL    HW2 9027   4.815   1.148   4.606
 2710SOL     OW 9028   1.567   3.086   4.154
 2710SOL    HW1 9029   1.599   3.002   4.110
 2710SOL    HW2 9030   1.637   3.118   4.218
 2711SOL     OW 9031   3.646   1.795   2.231
 2711SOL    HW1 9032   3.621   1.892   2.236
 2711SOL    HW2 9033   3.675   1.773   2.138
 2712SOL     OW 9034   3.925   5.774   1.983
 2712SOL    HW1 9035   3.991   5.739   2.050
 2712SOL    HW2 9036   3.971   5.784   1.894
 2713SOL     OW 9037   3.618   4.759   6.554
 2713SOL    HW1 9038   3.572   4.765   6.465
 2713SOL    HW2 9039   3.561   4.705   6.617
 2714SOL     OW 9040   2.880   4.759   6.394
 2714SOL    HW1 9041   2.817   4.758   6.316
 2714SOL    HW2 9042   2.929   4.672   6.398
 2715SOL     OW 9043   4.223   0.918   0.415
 2715SOL    HW1 9044   4.169   0.968   0.482
 2715SOL    HW2 9045   4.216   0.820   0.433
 2716SOL     OW 9046   3.919   1.418   3.497
 2716SOL    HW1 9047   3.978   1.448   3.422
 2716SOL    HW2 9048   3.905   1.319   3.491
 2717SOL     OW 9049   0.919   0.732   2.928
 2717SOL    HW1 9050   0.980   0.682   2.989
 2717SOL    HW2 9051   0.970   0.804   2.881
 2718SOL     OW 9052   0.219   0.746   5.951
 2718SOL    HW1 9053   0.200   0.750   6.049
 2718SOL    HW2 9054   0.155   0.805   5.902
 2719SOL     OW 9055   2.063   3.718   2.130
 2719SOL    HW1 9056   2.125   3.789   2.094
 2719SOL    HW2 9057   2.098   3.628   2.105
 2720SOL     OW 9058   2.363   6.527   6.394
 2720SOL    HW1 9059   2.435   6.555   6.331
 2720SOL    HW2 9060   2.403   6.476   6.470
 2721SOL     OW 9061   3.278   5.963   1.836
 2721SOL    HW1 9062   3.331   6.029   1.782
 2721SOL    HW2 9063   3.340   5.901   1.884
 2722SOL     OW 9064   4.677   6.457   0.201
 2722SOL    HW1 9065   4.767   6.418   0.221
 2722SOL    HW2 9066   4.632   6.402   0.131
 2723SOL     OW 9067   3.459   6.180   6.445
 2723SOL    HW1 9068   3.530   6.235   6.489
 2723SOL    HW2 9069   3.369   6.214   6.473
 2724SOL     OW 9070   0.692   6.101   0.626
 2724SOL    HW1 9071   0.656   6.053   0.546
 2724SOL    HW2 9072   0.792   6.100   0.624
 2725SOL     OW 9073   5.962   4.060   5.195
 2725SOL    HW1 9074   6.006   4.142   5.159
 2725SOL    HW2 9075   6.029   3.985   5.198
 2726SOL     OW 9076   6.696   1.551   1.912
 2726SOL    HW1 9077   6.780   1.529   1.960
 2726SOL    HW2 9078   6.653   1.631   1.954
 2727SOL     OW 9079   2.050   4.654   4.333
 2727SOL    HW1 9080   2.050   4.751   4.358
 2727SOL    HW2 9081   2.049   4.645   4.233
 2728SOL     OW 9082   5.033   5.752   5.823
 2728SOL    HW1 9083   5.012   5.664   5.782
 2728SOL    HW2 9084   4.984   5.761   5.910
 2729SOL     OW 9085   5.363   6.368   6.225
 2729SOL    HW1 9086   5.319   6.412   6.147
 2729SOL    HW2 9087   5.327   6.406   6.310
 2730SOL     OW 9088   0.856   6.136   2.349
 2730SOL    HW1 9089   0.904   6.222   2.328
 2730SOL    HW2 9090   0.920   6.060   2.341
 2731SOL     OW 9091   3.525   3.508   4.041
 2731SOL    HW1 9092   3.475   3.474   3.961
 2731SOL    HW2 9093   3.581   3.435   4.079
 2732SOL     OW 9094   5.646   0.993   1.903
 2732SOL    HW1 9095   5.731   1.043   1.885
 2732SOL    HW2 9096   5.667   0.907   1.950
 2733SOL     OW 9097   1.182   6.709   6.555
 2733SOL    HW1 9098   1.108   6.730   6.490
 2733SOL    HW2 9099   1.200   6.788   6.612
 2734SOL     OW 9100   3.502   6.343   1.329
 2734SOL    HW1 9101   3.594   6.310   1.351
 2734SOL    HW2 9102   3.469   6.401   1.403
 2735SOL     OW 9103   0.673   1.435   1.836
 2735SOL    HW1 9104   0.715   1.454   1.746
 2735SOL    HW2 9105   0.574   1.434   1.826
 2736SOL     OW 9106   5.272   4.639   2.888
 2736SOL    HW1 9107   5.178   4.668   2.903
 2736SOL    HW2 9108   5.314   4.696   2.818
 2737SOL     OW 9109   2.450   1.569   5.973
 2737SOL    HW1 9110   2.477   1.634   5.902
 2737SOL    HW2 9111   2.355   1.587   6.000
 2738SOL     OW 9112   5.652   6.415   1.800
 2738SOL    HW1 9113   5.589   6.472   1.853
 2738SOL    HW2 9114   5.706   6.473   1.738
 2739SOL     OW 9115   0.154   5.743   1.724
 2739SOL    HW1 9116   0.109   5.749   1.813
 2739SOL    HW2 9117   0.110   5.671   1.669
 2740SOL     OW 9118   6.570   5.538   3.601
 2740SOL    HW1 9119   6.610   5.494   3.520
 2740SOL    HW2 9120   6.642   5.574   3.659
 2741SOL     OW 9121   1.207   1.467   5.103
 2741SOL    HW1 9122   1.187   1.521   5.185
 2741SOL    HW2 9123   1.132   1.477   5.038
 2742SOL     OW 9124   2.958   5.314   1.690
 2742SOL    HW1 9125   3.019   5.391   1.711
 2742SOL    HW2 9126   2.965   5.292   1.592
 2743SOL     OW 9127   5.243   3.738   2.890
 2743SOL    HW1 9128   5.151   3.732   2.851
 2743SOL    HW2 9129   5.305   3.680   2.838
 2744SOL     OW 9130   3.585   3.845   3.167
 2744SOL    HW1 9131   3.528   3.927   3.170
 2744SOL    HW2 9132   3.678   3.868   3.192
 2745SOL     OW 9133   0.532   6.851   6.671
 2745SOL    HW1 9134   0.574   6.780   6.727
 2745SOL    HW2 9135   0.455   6.892   6.722
 2746SOL     OW 9136   1.871   1.110   3.330
 2746SOL    HW1 9137   1.918   1.133   3.245
 2746SOL    HW2 9138   1.781   1.073   3.310
 2747SOL     OW 9139   3.873   5.458   0.968
 2747SOL    HW1 9140   3.839   5.400   1.042
 2747SOL    HW2 9141   3.829   5.432   0.883
 2748SOL     OW 9142   4.623   6.896   1.638
 2748SOL    HW1 9143   4.537   6.882   1.588
 2748SOL    HW2 9144   4.677   6.812   1.636
 2749SOL     OW 9145   2.777   3.307   7.007
 2749SOL    HW1 9146   2.861   3.253   6.999
 2749SOL    HW2 9147   2.721   3.270   0.054
 2750SOL     OW 9148   2.032   5.944   2.108
 2750SOL    HW1 9149   2.030   5.898   2.197
 2750SOL    HW2 9150   2.100   6.017   2.109
 2751SOL     OW 9151   6.284   3.300   0.698
 2751SOL    HW1 9152   6.359   3.337   0.753
 2751SOL    HW2 9153   6.317   3.281   0.605
 2752SOL     OW 9154   3.878   5.138   6.706
 2752SOL    HW1 9155   3.785   5.105   6.720
 2752SOL    HW2 9156   3.886   5.175   6.613
 2753SOL     OW 9157   6.285   5.852   5.593
 2753SOL    HW1 9158   6.223   5.912   5.644
 2753SOL    HW2 9159   6.285   5.879   5.496
 2754SOL     OW 9160   0.841   0.159   6.159
 2754SOL    HW1 9161   0.765   0.135   6.099
 2754SOL    HW2 9162   0.927   0.142   6.112
 2755SOL     OW 9163   2.389   0.200   2.036
 2755SOL    HW1 9164   2.351   0.173   1.948
 2755SOL    HW2 9165   2.488   0.206   2.029
 2756SOL     OW 9166   5.070   6.337   0.399
 2756SOL    HW1 9167   5.126   6.415   0.370
 2756SOL    HW2 9168   5.052   6.344   0.497
 2757SOL     OW 9169   0.722   5.051   1.502
 2757SOL    HW1 9170   0.792   5.085   1.440
 2757SOL    HW2 9171   0.631   5.069   1.464
 2758SOL     OW 9172   5.118   0.593   5.419
 2758SOL    HW1 9173   5.085   0.687   5.427
 2758SOL    HW2 9174   5.185   0.588   5.344
 2759SOL     OW 9175   5.774   5.847   5.145
 2759SOL    HW1 9176   5.702   5.849   5.214
 2759SOL    HW2 9177   5.806   5.752   5.132
 2760SOL     OW 9178   2.886   5.432   3.082
 2760SOL    HW1 9179   2.862   5.341   3.048
 2760SOL    HW2 9180   2.977   5.458   3.047
 2761SOL     OW 9181   2.303   6.126   3.030
 2761SOL    HW1 9182   2.378   6.180   2.990
 2761SOL    HW2 9183   2.335   6.082   3.114
 2762SOL     OW 9184   0.839   6.899   5.217
 2762SOL    HW1 9185   0.878   6.968   5.278
 2762SOL    HW2 9186   0.844   6.931   5.122
 2763SOL     OW 9187   5.779   1.612   2.784
 2763SOL    HW1 9188   5.753   1.650   2.874
 2763SOL    HW2 9189   5.878   1.614   2.775
 2764SOL     OW 9190   6.663   0.821   1.945
 2764SOL    HW1 9191   6.685   0.815   2.042
 2764SOL    HW2 9192   6.690   0.736   1.899
 2765SOL     OW 9193   6.256   1.104   1.894
 2765SOL    HW1 9194   6.161   1.083   1.917
 2765SOL    HW2 9195   6.308   1.019   1.886
 2766SOL     OW 9196   5.907   1.040   2.346
 2766SOL    HW1 9197   5.930   0.946   2.322
 2766SOL    HW2 9198   5.867   1.086   2.267
 2767SOL     OW 9199   5.688   4.298   6.605
 2767SOL    HW1 9200   5.726   4.324   6.517
 2767SOL    HW2 9201   5.615   4.361   6.630
 2768SOL     OW 9202   5.377   1.139   6.930
 2768SOL    HW1 9203   5.309   1.212   6.945
 2768SOL    HW2 9204   5.426   1.156   6.845
 2769SOL     OW 9205   0.385   4.120   1.735
 2769SOL    HW1 9206   0.354   4.208   1.702
 2769SOL    HW2 9207   0.346   4.047   1.680
 2770SOL     OW 9208   0.334   5.559   1.679
 2770SOL    HW1 9209   0.276   5.507   1.616
 2770SOL    HW2 9210   0.286   5.642   1.707
 2771SOL     OW 9211   5.056   1.215   1.469
 2771SOL    HW1 9212   5.100   1.167   1.545
 2771SOL    HW2 9213   5.106   1.197   1.385
 2772SOL     OW 9214   3.202   2.427   6.728
 2772SOL    HW1 9215   3.182   2.467   6.638
 2772SOL    HW2 9216   3.235   2.498   6.789
 2773SOL     OW 9217   3.731   3.870   6.370
 2773SOL    HW1 9218   3.825   3.873   6.338
 2773SOL    HW2 9219   3.680   3.948   6.334
 2774SOL     OW 9220   5.738   3.364   1.900
 2774SOL    HW1 9221   5.695   3.363   1.809
 2774SOL    HW2 9222   5.668   3.378   1.969
 2775SOL     OW 9223   6.820   5.608   1.468
 2775SOL    HW1 9224   6.910   5.567   1.455
 2775SOL    HW2 9225   6.824   5.675   1.542
 2776SOL     OW 9226   2.708   6.170   6.296
 2776SOL    HW1 9227   2.675   6.230   6.224
 2776SOL    HW2 9228   2.799   6.198   6.324
 2777SOL     OW 9229   3.341   1.425   2.655
 2777SOL    HW1 9230   3.359   1.330   2.680
 2777SOL    HW2 9231   3.412   1.484   2.694
 2778SOL     OW 9232   2.205   2.434   5.747
 2778SOL    HW1 9233   2.288   2.484   5.722
 2778SOL    HW2 9234   2.125   2.493   5.734
 2779SOL     OW 9235   5.721   0.392   0.160
 2779SOL    HW1 9236   5.722   0.339   0.245
 2779SOL    HW2 9237   5.814   0.418   0.135
 2780SOL     OW 9238   5.028   5.401   6.660
 2780SOL    HW1 9239   5.034   5.456   6.743
 2780SOL    HW2 9240   4.932   5.388   6.635
 2781SOL     OW 9241   5.619   4.472   0.997
 2781SOL    HW1 9242   5.580   4.482   0.905
 2781SOL    HW2 9243   5.654   4.379   1.008
 2782SOL     OW 9244   2.697   2.477   6.221
 2782SOL    HW1 9245   2.646   2.541   6.277
 2782SOL    HW2 9246   2.636   2.403   6.191
 2783SOL     OW 9247   0.045   5.043   5.374
 2783SOL    HW1 9248   0.080   5.137   5.374
 2783SOL    HW2 9249   0.111   4.983   5.329
 2784SOL     OW 9250   2.341   1.944   1.430
 2784SOL    HW1 9251   2.302   2.009   1.365
 2784SOL    HW2 9252   2.299   1.957   1.520
 2785SOL     OW 9253   6.300   0.590   0.890
 2785SOL    HW1 9254   6.358   0.548   0.820
 2785SOL    HW2 9255   6.328   0.685   0.904
 2786SOL     OW 9256   4.142   6.606   1.399
 2786SOL    HW1 9257   4.153   6.681   1.334
 2786SOL    HW2 9258   4.134   6.644   1.492
 2787SOL     OW 9259   2.576   2.995   5.849
 2787SOL    HW1 9260   2.578   3.036   5.758
 2787SOL    HW2 9261   2.654   2.934   5.861
 2788SOL     OW 9262   1.348   3.743   0.771
 2788SOL    HW1 9263   1.425   3.776   0.826
 2788SOL    HW2 9264   1.341   3.798   0.687
 2789SOL     OW 9265   0.637   2.324   4.186
 2789SOL    HW1 9266   0.626   2.224   4.190
 2789SOL    HW2 9267   0.721   2.346   4.137
 2790SOL     OW 9268   4.038   5.430   2.671
 2790SOL    HW1 9269   4.057   5.397   2.763
 2790SOL    HW2 9270   4.011   5.526   2.675
 2791SOL     OW 9271   1.837   3.243   4.849
 2791SOL    HW1 9272   1.933   3.238   4.874
 2791SOL    HW2 9273   1.815   3.167   4.787
 2792SOL     OW 9274   0.584   1.920   5.687
 2792SOL    HW1 9275   0.583   1.833   5.637
 2792SOL    HW2 9276   0.670   1.929   5.737
 2793SOL     OW 9277   4.422   1.349   3.309
 2793SOL    HW1 9278   4.453   1.360   3.404
 2793SOL    HW2 9279   4.501   1.332   3.250
 2794SOL     OW 9280   1.051   0.389   0.912
 2794SOL    HW1 9281   0.955   0.411   0.892
 2794SOL    HW2 9282   1.058   0.349   1.003
 2795SOL     OW 9283   2.632   3.895   0.967
 2795SOL    HW1 9284   2.573   3.847   0.902
 2795SOL    HW2 9285   2.681   3.968   0.919
 2796SOL     OW 9286   5.209   4.018   2.642
 2796SOL    HW1 9287   5.243   4.071   2.564
 2796SOL    HW2 9288   5.285   3.969   2.684
 2797SOL     OW 9289   4.805   4.738   4.880
 2797SOL    HW1 9290   4.718   4.728   4.926
 2797SOL    HW2 9291   4.790   4.773   4.787
 2798SOL     OW 9292   0.702   3.223   4.179
 2798SOL    HW1 9293   0.640   3.207   4.102
 2798SOL    HW2 9294   0.651   3.218   4.265
 2799SOL     OW 9295   6.395   4.898   6.059
 2799SOL    HW1 9296   6.307   4.927   6.095
 2799SOL    HW2 9297   6.385   4.808   6.017
 2800SOL     OW 9298   3.005   4.593   6.733
 2800SOL    HW1 9299   3.036   4.655   6.804
 2800SOL    HW2 9300   2.955   4.517   6.774
 2801SOL     OW 9301   5.779   5.701   1.748
 2801SOL    HW1 9302   5.864   5.702   1.800
 2801SOL    HW2 9303   5.722   5.625   1.779
 2802SOL     OW 9304   4.535   1.336   5.832
 2802SOL    HW1 9305   4.535   1.239   5.810
 2802SOL    HW2 9306   4.464   1.382   5.779
 2803SOL     OW 9307   3.226   6.278   6.478
 2803SOL    HW1 9308   3.164   6.270   6.400
 2803SOL    HW2 9309   3.183   6.331   6.550
 2804SOL     OW 9310   6.777   4.442   3.460
 2804SOL    HW1 9311   6.787   4.514   3.529
 2804SOL    HW2 9312   6.851   4.376   3.470
 2805SOL     OW 9313   5.304   3.109   0.398
 2805SOL    HW1 9314   5.267   3.134   0.309
 2805SOL    HW2 9315   5.402   3.092   0.389
 2806SOL     OW 9316   6.475   5.125   3.266
 2806SOL    HW1 9317   6.491   5.029   3.241
 2806SOL    HW2 9318   6.555   5.179   3.242
 2807SOL     OW 9319   4.456   4.967   3.226
 2807SOL    HW1 9320   4.376   4.922   3.265
 2807SOL    HW2 9321   4.518   4.899   3.187
 2808SOL     OW 9322   5.475   1.207   4.104
 2808SOL    HW1 9323   5.462   1.257   4.190
 2808SOL    HW2 9324   5.399   1.142   4.092
 2809SOL     OW 9325   5.069   2.449   0.901
 2809SOL    HW1 9326   5.070   2.548   0.892
 2809SOL    HW2 9327   4.975   2.416   0.891
 2810SOL     OW 9328   2.382   6.682   5.018
 2810SOL    HW1 9329   2.300   6.661   5.072
 2810SOL    HW2 9330   2.404   6.779   5.028
 2811SOL     OW 9331   0.182   2.046   3.512
 2811SOL    HW1 9332   0.264   2.019   3.461
 2811SOL    HW2 9333   0.180   1.996   3.599
 2812SOL     OW 9334   4.787   3.993   1.925
 2812SOL    HW1 9335   4.756   4.039   2.008
 2812SOL    HW2 9336   4.812   4.061   1.856
 2813SOL     OW 9337   6.080   0.633   6.430
 2813SOL    HW1 9338   6.023   0.648   6.348
 2813SOL    HW2 9339   6.119   0.542   6.427
 2814SOL     OW 9340   4.802   4.080   5.502
 2814SOL    HW1 9341   4.847   4.061   5.414
 2814SOL    HW2 9342   4.871   4.079   5.575
 2815SOL     OW 9343   0.328   1.171   4.920
 2815SOL    HW1 9344   0.283   1.161   4.831
 2815SOL    HW2 9345   0.285   1.109   4.986
 2816SOL     OW 9346   5.303   6.623   3.996
 2816SOL    HW1 9347   5.256   6.674   4.067
 2816SOL    HW2 9348   5.401   6.627   4.011
 2817SOL     OW 9349   1.178   1.527   1.487
 2817SOL    HW1 9350   1.278   1.518   1.482
 2817SOL    HW2 9351   1.145   1.479   1.568
 2818SOL     OW 9352   6.691   4.838   5.693
 2818SOL    HW1 9353   6.621   4.901   5.727
 2818SOL    HW2 9354   6.754   4.887   5.633
 2819SOL     OW 9355   6.780   2.614   1.073
 2819SOL    HW1 9356   6.744   2.570   1.156
 2819SOL    HW2 9357   6.847   2.683   1.099
 2820SOL     OW 9358   6.744   3.383   3.514
 2820SOL    HW1 9359   6.787   3.365   3.603
 2820SOL    HW2 9360   6.781   3.319   3.446
 2821SOL     OW 9361   1.123   4.209   4.921
 2821SOL    HW1 9362   1.209   4.250   4.953
 2821SOL    HW2 9363   1.120   4.113   4.949
 2822SOL     OW 9364   4.719   2.189   6.902
 2822SOL    HW1 9365   4.684   2.252   6.972
 2822SOL    HW2 9366   4.671   2.207   6.816
 2823SOL     OW 9367   1.749   6.292   2.844
 2823SOL    HW1 9368   1.845   6.316   2.835
 2823SOL    HW2 9369   1.739   6.193   2.852
 2824SOL     OW 9370   3.199   1.520   5.834
 2824SOL    HW1 9371   3.245   1.524   5.745
 2824SOL    HW2 9372   3.128   1.589   5.838
 2825SOL     OW 9373   6.579   6.246   1.054
 2825SOL    HW1 9374   6.587   6.195   0.968
 2825SOL    HW2 9375   6.630   6.332   1.046
 2826SOL     OW 9376   4.942   1.419   4.772
 2826SOL    HW1 9377   4.891   1.485   4.828
 2826SOL    HW2 9378   4.877   1.355   4.729
 2827SOL     OW 9379   5.835   1.272   5.157
 2827SOL    HW1 9380   5.777   1.194   5.182
 2827SOL    HW2 9381   5.861   1.264   5.061
 2828SOL     OW 9382   4.120   1.288   5.791
 2828SOL    HW1 9383   4.040   1.299   5.733
 2828SOL    HW2 9384   4.095   1.303   5.886
 2829SOL     OW 9385   2.828   6.980   5.891
 2829SOL    HW1 9386   2.755   6.961   5.955
 2829SOL    HW2 9387   2.844   6.899   5.833
 2830SOL     OW 9388   4.248   3.560   6.952
 2830SOL    HW1 9389   4.190   3.496   6.902
 2830SOL    HW2 9390   4.209   3.577   0.015
 2831SOL     OW 9391   5.889   6.044   4.425
 2831SOL    HW1 9392   5.939   6.084   4.347
 2831SOL    HW2 9393   5.791   6.063   4.415
 2832SOL     OW 9394   0.656   1.172   2.372
 2832SOL    HW1 9395   0.662   1.086   2.321
 2832SOL    HW2 9396   0.590   1.232   2.328
 2833SOL     OW 9397   5.894   2.927   1.928
 2833SOL    HW1 9398   5.924   2.832   1.927
 2833SOL    HW2 9399   5.891   2.961   1.834
 2834SOL     OW 9400   3.485   1.485   5.071
 2834SOL    HW1 9401   3.497   1.398   5.023
 2834SOL    HW2 9402   3.574   1.515   5.106
 2835SOL     OW 9403   0.493   0.167   2.513
 2835SOL    HW1 9404   0.443   0.141   2.595
 2835SOL    HW2 9405   0.516   0.264   2.518
 2836SOL     OW 9406   6.806   0.406   1.498
 2836SOL    HW1 9407   6.721   0.448   1.530
 2836SOL    HW2 9408   6.799   0.306   1.508
 2837SOL     OW 9409   5.329   3.915   3.994
 2837SOL    HW1 9410   5.341   3.880   3.901
 2837SOL    HW2 9411   5.354   4.012   3.997
 2838SOL     OW 9412   3.019   5.062   2.728
 2838SOL    HW1 9413   2.936   5.011   2.749
 2838SOL    HW2 9414   3.021   5.083   2.630
 2839SOL     OW 9415   5.341   1.785   1.347
 2839SOL    HW1 9416   5.304   1.844   1.275
 2839SOL    HW2 9417   5.280   1.788   1.426
 2840SOL     OW 9418   6.349   1.254   5.540
 2840SOL    HW1 9419   6.352   1.321   5.465
 2840SOL    HW2 9420   6.415   1.280   5.610
 2841SOL     OW 9421   0.581   5.930   0.846
 2841SOL    HW1 9422   0.620   5.962   0.759
 2841SOL    HW2 9423   0.643   5.955   0.921
 2842SOL     OW 9424   6.618   3.643   3.222
 2842SOL    HW1 9425   6.601   3.609   3.315
 2842SOL    HW2 9426   6.596   3.572   3.156
 2843SOL     OW 9427   4.071   0.750   4.555
 2843SOL    HW1 9428   4.078   0.819   4.627
 2843SOL    HW2 9429   4.096   0.791   4.468
 2844SOL     OW 9430   0.336   4.181   6.499
 2844SOL    HW1 9431   0.275   4.117   6.545
 2844SOL    HW2 9432   0.294   4.271   6.496
 2845SOL     OW 9433   0.053   4.791   6.216
 2845SOL    HW1 9434   0.079   4.777   6.120
 2845SOL    HW2 9435   0.135   4.789   6.273
 2846SOL     OW 9436   4.745   1.827   6.448
 2846SOL    HW1 9437   4.685   1.835   6.368
 2846SOL    HW2 9438   4.713   1.754   6.508
 2847SOL     OW 9439   5.958   4.356   4.253
 2847SOL    HW1 9440   5.926   4.312   4.337
 2847SOL    HW2 9441   5.883   4.359   4.187
 2848SOL     OW 9442   1.114   4.894   4.650
 2848SOL    HW1 9443   1.021   4.899   4.613
 2848SOL    HW2 9444   1.175   4.951   4.595
 2849SOL     OW 9445   2.796   1.820   1.103
 2849SOL    HW1 9446   2.763   1.834   1.009
 2849SOL    HW2 9447   2.746   1.881   1.165
 2850SOL     OW 9448   3.486   0.166   0.416
 2850SOL    HW1 9449   3.569   0.126   0.376
 2850SOL    HW2 9450   3.512   0.238   0.481
 2851SOL     OW 9451   1.191   4.421   5.594
 2851SOL    HW1 9452   1.241   4.347   5.639
 2851SOL    HW2 9453   1.157   4.485   5.663
 2852SOL     OW 9454   6.887   3.361   6.665
 2852SOL    HW1 9455   6.817   3.299   6.700
 2852SOL    HW2 9456   6.942   3.314   6.596
 2853SOL     OW 9457   3.247   3.272   0.917
 2853SOL    HW1 9458   3.333   3.232   0.947
 2853SOL    HW2 9459   3.194   3.301   0.997
 2854SOL     OW 9460   2.417   0.788   3.556
 2854SOL    HW1 9461   2.390   0.788   3.460
 2854SOL    HW2 9462   2.510   0.824   3.564
 2855SOL     OW 9463   2.079   0.719   5.235
 2855SOL    HW1 9464   1.994   0.768   5.217
 2855SOL    HW2 9465   2.153   0.760   5.182
 2856SOL     OW 9466   2.560   2.716   5.329
 2856SOL    HW1 9467   2.481   2.677   5.375
 2856SOL    HW2 9468   2.531   2.792   5.271
 2857SOL     OW 9469   3.038   2.530   1.270
 2857SOL    HW1 9470   2.963   2.474   1.304
 2857SOL    HW2 9471   3.109   2.537   1.340
 2858SOL     OW 9472   6.248   3.160   2.742
 2858SOL    HW1 9473   6.225   3.066   2.717
 2858SOL    HW2 9474   6.310   3.198   2.673
 2859SOL     OW 9475   5.429   0.440   0.775
 2859SOL    HW1 9476   5.443   0.524   0.721
 2859SOL    HW2 9477   5.383   0.463   0.861
 2860SOL     OW 9478   4.165   1.528   2.030
 2860SOL    HW1 9479   4.093   1.523   2.100
 2860SOL    HW2 9480   4.195   1.623   2.021
 2861SOL     OW 9481   3.236   5.711   5.415
 2861SOL    HW1 9482   3.179   5.771   5.471
 2861SOL    HW2 9483   3.332   5.721   5.442
 2862SOL     OW 9484   5.726   0.972   4.151
 2862SOL    HW1 9485   5.797   0.906   4.128
 2862SOL    HW2 9486   5.716   1.037   4.075
 2863SOL     OW 9487   6.703   1.649   6.818
 2863SOL    HW1 9488   6.675   1.574   6.878
 2863SOL    HW2 9489   6.660   1.638   6.729
 2864SOL     OW 9490   4.044   1.002   0.609
 2864SOL    HW1 9491   3.945   0.999   0.628
 2864SOL    HW2 9492   4.089   1.057   0.680
 2865SOL     OW 9493   4.533   4.643   5.187
 2865SOL    HW1 9494   4.489   4.606   5.105
 2865SOL    HW2 9495   4.596   4.574   5.224
 2866SOL     OW 9496   0.326   6.215   6.381
 2866SOL    HW1 9497   0.385   6.144   6.343
 2866SOL    HW2 9498   0.243   6.174   6.417
 2867SOL     OW 9499   5.977   4.335   3.731
 2867SOL    HW1 9500   6.006   4.288   3.647
 2867SOL    HW2 9501   6.024   4.423   3.738
 2868SOL     OW 9502   1.223   3.696   5.239
 2868SOL    HW1 9503   1.158   3.625   5.266
 2868SOL    HW2 9504   1.296   3.655   5.185
 2869SOL     OW 9505   5.991   0.795   1.881
 2869SOL    HW1 9506   6.004   0.743   1.797
 2869SOL    HW2 9507   5.978   0.892   1.860
 2870SOL     OW 9508   6.028   2.487   2.904
 2870SOL    HW1 9509   6.044   2.435   2.820
 2870SOL    HW2 9510   5.959   2.557   2.887
 2871SOL     OW 9511   1.766   2.199   6.185
 2871SOL    HW1 9512   1.798   2.285   6.145
 2871SOL    HW2 9513   1.682   2.171   6.139
 2872SOL     OW 9514   2.547   0.617   3.301
 2872SOL    HW1 9515   2.477   0.687   3.284
 2872SOL    HW2 9516   2.592   0.636   3.388
 2873SOL     OW 9517   0.206   5.213   2.166
 2873SOL    HW1 9518   0.164   5.135   2.212
 2873SOL    HW2 9519   0.191   5.204   2.067
 2874SOL     OW 9520   5.565   3.159   2.049
 2874SOL    HW1 9521   5.533   3.106   1.970
 2874SOL    HW2 9522   5.510   3.242   2.057
 2875SOL     OW 9523   3.881   5.640   6.334
 2875SOL    HW1 9524   3.920   5.598   6.416
 2875SOL    HW2 9525   3.904   5.585   6.254
 2876SOL     OW 9526   0.353   0.924   1.757
 2876SOL    HW1 9527   0.349   0.836   1.805
 2876SOL    HW2 9528   0.360   0.998   1.824
 2877SOL     OW 9529   2.998   2.773   5.351
 2877SOL    HW1 9530   2.904   2.767   5.384
 2877SOL    HW2 9531   3.033   2.865   5.365
 2878SOL     OW 9532   2.538   4.575   5.316
 2878SOL    HW1 9533   2.498   4.601   5.228
 2878SOL    HW2 9534   2.467   4.542   5.377
 2879SOL     OW 9535   4.778   4.353   0.635
 2879SOL    HW1 9536   4.842   4.329   0.562
 2879SOL    HW2 9537   4.715   4.277   0.651
 2880SOL     OW 9538   1.014   6.201   1.706
 2880SOL    HW1 9539   0.994   6.285   1.655
 2880SOL    HW2 9540   1.055   6.134   1.644
 2881SOL     OW 9541   6.852   6.118   0.760
 2881SOL    HW1 9542   6.933   6.174   0.782
 2881SOL    HW2 9543   6.772   6.177   0.755
 2882SOL     OW 9544   0.441   3.259   2.955
 2882SOL    HW1 9545   0.391   3.291   2.874
 2882SOL    HW2 9546   0.377   3.213   3.017
 2883SOL     OW 9547   3.926   0.283   2.214
 2883SOL    HW1 9548   3.879   0.348   2.274
 2883SOL    HW2 9549   3.901   0.190   2.239
 2884SOL     OW 9550   1.106   5.758   3.282
 2884SOL    HW1 9551   1.121   5.786   3.377
 2884SOL    HW2 9552   1.057   5.670   3.280
 2885SOL     OW 9553   0.856   2.479   2.732
 2885SOL    HW1 9554   0.935   2.421   2.754
 2885SOL    HW2 9555   0.782   2.461   2.797
 2886SOL     OW 9556   2.337   1.999   6.436
 2886SOL    HW1 9557   2.349   1.984   6.338
 2886SOL    HW2 9558   2.418   1.968   6.485
 2887SOL     OW 9559   1.268   0.510   5.137
 2887SOL    HW1 9560   1.209   0.536   5.213
 2887SOL    HW2 9561   1.218   0.523   5.051
 2888SOL     OW 9562   5.732   4.958   6.959
 2888SOL    HW1 9563   5.769   5.050   6.969
 2888SOL    HW2 9564   5.792   4.892   7.004
 2889SOL     OW 9565   0.307   0.292   1.507
 2889SOL    HW1 9566   0.289   0.383   1.543
 2889SOL    HW2 9567   0.299   0.292   1.408
 2890SOL     OW 9568   4.345   0.744   2.103
 2890SOL    HW1 9569   4.419   0.763   2.039
 2890SOL    HW2 9570   4.330   0.645   2.108
 2891SOL     OW 9571   2.567   4.600   3.828
 2891SOL    HW1 9572   2.526   4.509   3.836
 2891SOL    HW2 9573   2.549   4.652   3.912
 2892SOL     OW 9574   4.403   3.826   6.933
 2892SOL    HW1 9575   4.447   3.865   6.853
 2892SOL    HW2 9576   4.435   3.732   6.946
 2893SOL     OW 9577   2.217   0.120   4.990
 2893SOL    HW1 9578   2.169   0.038   4.959
 2893SOL    HW2 9579   2.168   0.159   5.068
 2894SOL     OW 9580   3.499   2.768   0.112
 2894SOL    HW1 9581   3.494   2.686   0.055
 2894SOL    HW2 9582   3.523   2.847   0.056
 2895SOL     OW 9583   3.717   3.581   6.363
 2895SOL    HW1 9584   3.712   3.681   6.360
 2895SOL    HW2 9585   3.645   3.545   6.422
 2896SOL     OW 9586   2.163   4.999   0.301
 2896SOL    HW1 9587   2.201   5.033   0.387
 2896SOL    HW2 9588   2.122   5.074   0.250
 2897SOL     OW 9589   2.729   6.256   3.577
 2897SOL    HW1 9590   2.794   6.208   3.636
 2897SOL    HW2 9591   2.680   6.324   3.632
 2898SOL     OW 9592   3.520   5.251   1.770
 2898SOL    HW1 9593   3.544   5.289   1.858
 2898SOL    HW2 9594   3.521   5.151   1.775
 2899SOL     OW 9595   6.964   0.024   0.070
 2899SOL    HW1 9596   6.871   0.059   0.084
 2899SOL    HW2 9597   0.003   0.096   0.092
 2900SOL     OW 9598   1.157   5.093   5.707
 2900SOL    HW1 9599   1.121   5.161   5.771
 2900SOL    HW2 9600   1.123   5.002   5.732
 2901SOL     OW 9601   2.842   0.470   2.030
 2901SOL    HW1 9602   2.773   0.517   1.976
 2901SOL    HW2 9603   2.874   0.530   2.103
 2902SOL     OW 9604   5.499   6.151   1.104
 2902SOL    HW1 9605   5.468   6.115   1.016
 2902SOL    HW2 9606   5.597   6.133   1.114
 2903SOL     OW 9607   2.651   1.391   2.093
 2903SOL    HW1 9608   2.642   1.476   2.145
 2903SOL    HW2 9609   2.560   1.360   2.065
 2904SOL     OW 9610   1.889   2.736   5.518
 2904SOL    HW1 9611   1.843   2.648   5.532
 2904SOL    HW2 9612   1.823   2.810   5.525
 2905SOL     OW 9613   1.627   1.879   1.724
 2905SOL    HW1 9614   1.543   1.869   1.777
 2905SOL    HW2 9615   1.696   1.815   1.759
 2906SOL     OW 9616   5.795   5.414   2.294
 2906SOL    HW1 9617   5.703   5.439   2.325
 2906SOL    HW2 9618   5.802   5.315   2.287
 2907SOL     OW 9619   6.813   1.407   4.614
 2907SOL    HW1 9620   6.797   1.455   4.527
 2907SOL    HW2 9621   6.788   1.466   4.690
 2908SOL     OW 9622   3.533   5.801   4.140
 2908SOL    HW1 9623   3.583   5.884   4.166
 2908SOL    HW2 9624   3.438   5.825   4.121
 2909SOL     OW 9625   1.443   5.293   4.730
 2909SOL    HW1 9626   1.504   5.353   4.780
 2909SOL    HW2 9627   1.496   5.241   4.663
 2910SOL     OW 9628   4.256   6.479   5.995
 2910SOL    HW1 9629   4.231   6.419   5.919
 2910SOL    HW2 9630   4.215   6.444   6.079
 2911SOL     OW 9631   1.772   4.907   3.215
 2911SOL    HW1 9632   1.678   4.873   3.213
 2911SOL    HW2 9633   1.771   5.006   3.228
 2912SOL     OW 9634   2.358   6.207   0.510
 2912SOL    HW1 9635   2.421   6.279   0.483
 2912SOL    HW2 9636   2.409   6.125   0.536
 2913SOL     OW 9637   1.779   3.499   2.754
 2913SOL    HW1 9638   1.700   3.556   2.731
 2913SOL    HW2 9639   1.788   3.426   2.686
 2914SOL     OW 9640   5.606   5.153   5.916
 2914SOL    HW1 9641   5.558   5.239   5.937
 2914SOL    HW2 9642   5.609   5.096   5.998
 2915SOL     OW 9643   4.114   1.486   4.157
 2915SOL    HW1 9644   4.126   1.577   4.119
 2915SOL    HW2 9645   4.182   1.424   4.117
 2916SOL     OW 9646   5.889   5.425   5.385
 2916SOL    HW1 9647   5.811   5.424   5.448
 2916SOL    HW2 9648   5.895   5.337   5.339
 2917SOL     OW 9649   4.534   0.749   1.921
 2917SOL    HW1 9650   4.604   0.678   1.913
 2917SOL    HW2 9651   4.464   0.736   1.850
 2918SOL     OW 9652   0.670   3.530   4.017
 2918SOL    HW1 9653   0.640   3.563   3.928
 2918SOL    HW2 9654   0.590   3.510   4.074
 2919SOL     OW 9655   6.127   6.061   0.478
 2919SOL    HW1 9656   6.199   6.007   0.435
 2919SOL    HW2 9657   6.091   6.011   0.557
 2920SOL     OW 9658   4.120   1.912   2.657
 2920SOL    HW1 9659   4.209   1.892   2.699
 2920SOL    HW2 9660   4.088   1.830   2.608
 2921SOL     OW 9661   0.303   0.929   2.551
 2921SOL    HW1 9662   0.317   1.024   2.525
 2921SOL    HW2 9663   0.246   0.924   2.633
 2922SOL     OW 9664   4.956   0.081   5.325
 2922SOL    HW1 9665   5.054   0.088   5.345
 2922SOL    HW2 9666   4.909   0.037   5.402
 2923SOL     OW 9667   6.455   4.777   2.436
 2923SOL    HW1 9668   6.417   4.842   2.501
 2923SOL    HW2 9669   6.496   4.700   2.486
 2924SOL     OW 9670   0.452   1.301   5.281
 2924SOL    HW1 9671   0.538   1.265   5.246
 2924SOL    HW2 9672   0.410   1.361   5.213
 2925SOL     OW 9673   5.728   3.417   1.457
 2925SOL    HW1 9674   5.728   3.452   1.363
 2925SOL    HW2 9675   5.820   3.425   1.495
 2926SOL     OW 9676   0.015   2.184   4.861
 2926SOL    HW1 9677   0.065   2.114   4.911
 2926SOL    HW2 9678   0.080   2.253   4.828
 2927SOL     OW 9679   1.211   3.017   2.191
 2927SOL    HW1 9680   1.256   2.938   2.150
 2927SOL    HW2 9681   1.149   2.987   2.263
 2928SOL     OW 9682   6.250   0.410   0.450
 2928SOL    HW1 9683   6.197   0.481   0.497
 2928SOL    HW2 9684   6.210   0.394   0.360
 2929SOL     OW 9685   0.153   0.127   6.372
 2929SOL    HW1 9686   0.104   0.054   6.419
 2929SOL    HW2 9687   0.211   0.176   6.437
 2930SOL     OW 9688   4.726   0.191   4.381
 2930SOL    HW1 9689   4.773   0.104   4.397
 2930SOL    HW2 9690   4.660   0.181   4.306
 2931SOL     OW 9691   4.609   6.675   6.674
 2931SOL    HW1 9692   4.589   6.773   6.672
 2931SOL    HW2 9693   4.524   6.625   6.692
 2932SOL     OW 9694   1.139   3.894   1.213
 2932SOL    HW1 9695   1.235   3.893   1.241
 2932SOL    HW2 9696   1.134   3.909   1.114
 2933SOL     OW 9697   5.120   2.378   3.796
 2933SOL    HW1 9698   5.202   2.403   3.744
 2933SOL    HW2 9699   5.148   2.328   3.879
 2934SOL     OW 9700   2.612   0.647   0.083
 2934SOL    HW1 9701   2.709   0.660   0.062
 2934SOL    HW2 9702   2.574   0.733   0.118
 2935SOL     OW 9703   5.724   2.515   1.050
 2935SOL    HW1 9704   5.723   2.432   1.107
 2935SOL    HW2 9705   5.746   2.490   0.956
 2936SOL     OW 9706   4.849   5.861   0.148
 2936SOL    HW1 9707   4.813   5.827   0.235
 2936SOL    HW2 9708   4.803   5.946   0.124
 2937SOL     OW 9709   3.507   5.787   0.228
 2937SOL    HW1 9710   3.508   5.844   0.146
 2937SOL    HW2 9711   3.423   5.804   0.279
 2938SOL     OW 9712   5.010   5.670   5.386
 2938SOL    HW1 9713   5.016   5.735   5.311
 2938SOL    HW2 9714   5.021   5.577   5.351
 2939SOL     OW 9715   6.890   6.301   5.569
 2939SOL    HW1 9716   6.885   6.277   5.666
 2939SOL    HW2 9717   6.928   6.393   5.559
 2940SOL     OW 9718   5.298   7.005   5.176
 2940SOL    HW1 9719   5.304   0.003   5.273
 2940SOL    HW2 9720   5.291   0.061   5.121
 2941SOL     OW 9721   1.126   2.067   5.367
 2941SOL    HW1 9722   1.211   2.032   5.328
 2941SOL    HW2 9723   1.134   2.072   5.467
 2942SOL     OW 9724   3.432   6.762   2.243
 2942SOL    HW1 9725   3.418   6.776   2.341
 2942SOL    HW2 9726   3.421   6.849   2.195
 2943SOL     OW 9727   6.062   3.479   3.701
 2943SOL    HW1 9728   6.019   3.393   3.675
 2943SOL    HW2 9729   6.161   3.466   3.706
 2944SOL     OW 9730   4.062   5.542   5.143
 2944SOL    HW1 9731   3.965   5.524   5.128
 2944SOL    HW2 9732   4.116   5.476   5.091
 2945SOL     OW 9733   3.089   3.112   3.184
 2945SOL    HW1 9734   3.093   3.157   3.095
 2945SOL    HW2 9735   3.021   3.156   3.241
 2946SOL     OW 9736   6.698   5.944   6.142
 2946SOL    HW1 9737   6.694   5.852   6.104
 2946SOL    HW2 9738   6.613   5.965   6.190
 2947SOL     OW 9739   6.373   4.248   0.326
 2947SOL    HW1 9740   6.376   4.210   0.234
 2947SOL    HW2 9741   6.407   4.342   0.324
 2948SOL     OW 9742   5.869   4.221   4.457
 2948SOL    HW1 9743   5.870   4.271   4.544
 2948SOL    HW2 9744   5.852   4.124   4.474
 2949SOL     OW 9745   1.401   6.720   0.347
 2949SOL    HW1 9746   1.332   6.769   0.293
 2949SOL    HW2 9747   1.377   6.623   0.351
 2950SOL     OW 9748   5.150   3.275   4.626
 2950SOL    HW1 9749   5.197   3.209   4.685
 2950SOL    HW2 9750   5.156   3.245   4.531
 2951SOL     OW 9751   0.524   1.512   1.111
 2951SOL    HW1 9752   0.580   1.464   1.179
 2951SOL    HW2 9753   0.459   1.448   1.070
 2952SOL     OW 9754   1.622   4.030   2.581
 2952SOL    HW1 9755   1.616   3.960   2.510
 2952SOL    HW2 9756   1.704   4.015   2.636
 2953SOL     OW 9757   4.387   2.801   1.638
 2953SOL    HW1 9758   4.487   2.810   1.629
 2953SOL    HW2 9759   4.346   2.892   1.643
 2954SOL     OW 9760   6.740   6.592   3.305
 2954SOL    HW1 9761   6.810   6.562   3.240
 2954SOL    HW2 9762   6.778   6.593   3.397
 2955SOL     OW 9763   1.005   3.005   0.477
 2955SOL    HW1 9764   1.026   2.987   0.573
 2955SOL    HW2 9765   0.908   3.024   0.467
 2956SOL     OW 9766   0.194   4.989   3.149
 2956SOL    HW1 9767   0.195   4.964   3.245
 2956SOL    HW2 9768   0.254   4.928   3.097
 2957SOL     OW 9769   0.641   3.762   1.660
 2957SOL    HW1 9770   0.700   3.705   1.603
 2957SOL    HW2 9771   0.563   3.708   1.692
 2958SOL     OW 9772   1.597   4.251   5.938
 2958SOL    HW1 9773   1.511   4.213   5.903
 2958SOL    HW2 9774   1.648   4.180   5.987
 2959SOL     OW 9775   4.395   5.842   6.500
 2959SOL    HW1 9776   4.464   5.903   6.460
 2959SOL    HW2 9777   4.308   5.855   6.453
 2960SOL     OW 9778   1.971   1.366   6.899
 2960SOL    HW1 9779   2.039   1.440   6.902
 2960SOL    HW2 9780   1.962   1.326   6.990
 2961SOL     OW 9781   5.549   3.560   3.831
 2961SOL    HW1 9782   5.562   3.461   3.832
 2961SOL    HW2 9783   5.500   3.586   3.748
 2962SOL     OW 9784   4.740   0.683   3.350
 2962SOL    HW1 9785   4.739   0.716   3.444
 2962SOL    HW2 9786   4.721   0.759   3.288
 2963SOL     OW 9787   2.460   1.725   5.123
 2963SOL    HW1 9788   2.449   1.678   5.035
 2963SOL    HW2 9789   2.467   1.658   5.196
 2964SOL     OW 9790   2.507   6.479   1.084
 2964SOL    HW1 9791   2.447   6.546   1.041
 2964SOL    HW2 9792   2.474   6.460   1.177
 2965SOL     OW 9793   0.365   1.419   5.949
 2965SOL    HW1 9794   0.267   1.440   5.949
 2965SOL    HW2 9795   0.418   1.503   5.939
 2966SOL     OW 9796   5.219   5.012   4.143
 2966SOL    HW1 9797   5.126   5.046   4.159
 2966SOL    HW2 9798   5.276   5.088   4.111
 2967SOL     OW 9799   6.024   2.996   3.001
 2967SOL    HW1 9800   6.028   3.068   2.932
 2967SOL    HW2 9801   5.932   2.990   3.039
 2968SOL     OW 9802   0.673   4.014   4.162
 2968SOL    HW1 9803   0.706   4.020   4.068
 2968SOL    HW2 9804   0.625   3.927   4.175
 2969SOL     OW 9805   4.730   2.180   4.823
 2969SOL    HW1 9806   4.656   2.172   4.757
 2969SOL    HW2 9807   4.772   2.090   4.837
 2970SOL     OW 9808   0.658   4.525   6.035
 2970SOL    HW1 9809   0.750   4.541   5.998
 2970SOL    HW2 9810   0.616   4.448   5.987
 2971SOL     OW 9811   5.633   2.373   3.061
 2971SOL    HW1 9812   5.575   2.293   3.074
 2971SOL    HW2 9813   5.729   2.347   3.072
 2972SOL     OW 9814   6.614   3.501   6.087
 2972SOL    HW1 9815   6.649   3.418   6.043
 2972SOL    HW2 9816   6.521   3.518   6.057
 2973SOL     OW 9817   4.632   6.362   3.935
 2973SOL    HW1 9818   4.702   6.293   3.955
 2973SOL    HW2 9819   4.670   6.432   3.876
 2974SOL     OW 9820   6.954   4.348   2.983
 2974SOL    HW1 9821   6.855   4.340   2.992
 2974SOL    HW2 9822   6.997   4.260   3.002
 2975SOL     OW 9823   0.222   0.549   5.146
 2975SOL    HW1 9824   0.162   0.533   5.223
 2975SOL    HW2 9825   0.316   0.559   5.178
 2976SOL     OW 9826   3.816   0.942   2.741
 2976SOL    HW1 9827   3.718   0.922   2.746
 2976SOL    HW2 9828   3.862   0.871   2.690
 2977SOL     OW 9829   2.990   6.849   4.022
 2977SOL    HW1 9830   3.034   6.762   4.042
 2977SOL    HW2 9831   2.980   6.901   4.107
 2978SOL     OW 9832   5.380   5.027   0.147
 2978SOL    HW1 9833   5.478   5.041   0.135
 2978SOL    HW2 9834   5.333   5.116   0.148
 2979SOL     OW 9835   3.702   0.439   2.822
 2979SOL    HW1 9836   3.794   0.479   2.821
 2979SOL    HW2 9837   3.696   0.371   2.895
 2980SOL     OW 9838   0.383   5.788   4.415
 2980SOL    HW1 9839   0.325   5.707   4.406
 2980SOL    HW2 9840   0.479   5.761   4.401
 2981SOL     OW 9841   1.613   1.033   5.463
 2981SOL    HW1 9842   1.538   1.054   5.401
 2981SOL    HW2 9843   1.624   0.934   5.470
 2982SOL     OW 9844   4.864   5.990   2.043
 2982SOL    HW1 9845   4.927   5.912   2.047
 2982SOL    HW2 9846   4.877   6.039   1.956
 2983SOL     OW 9847   6.857   1.166   4.099
 2983SOL    HW1 9848   6.859   1.069   4.075
 2983SOL    HW2 9849   6.927   1.215   4.047
 2984SOL     OW 9850   5.998   5.423   1.805
 2984SOL    HW1 9851   5.914   5.371   1.792
 2984SOL    HW2 9852   6.038   5.447   1.717
 2985SOL     OW 9853   6.874   2.197   3.445
 2985SOL    HW1 9854   6.822   2.282   3.448
 2985SOL    HW2 9855   6.814   2.122   3.416
 2986SOL     OW 9856   1.552   3.358   5.179
 2986SOL    HW1 9857   1.634   3.396   5.222
 2986SOL    HW2 9858   1.515   3.423   5.114
 2987SOL     OW 9859   4.380   2.119   4.426
 2987SOL    HW1 9860   4.392   2.041   4.364
 2987SOL    HW2 9861   4.309   2.179   4.390
 2988SOL     OW 9862   1.290   0.217   1.566
 2988SOL    HW1 9863   1.232   0.295   1.540
 2988SOL    HW2 9864   1.253   0.133   1.525
 2989SOL     OW 9865   0.110   4.859   1.037
 2989SOL    HW1 9866   0.068   4.904   1.116
 2989SOL    HW2 9867   0.141   4.928   0.972
 2990SOL     OW 9868   3.728   1.513   1.433
 2990SOL    HW1 9869   3.810   1.457   1.440
 2990SOL    HW2 9870   3.753   1.610   1.431
 2991SOL     OW 9871   0.051   3.730   0.376
 2991SOL    HW1 9872   0.062   3.688   0.466
 2991SOL    HW2 9873   0.026   3.827   0.387
 2992SOL     OW 9874   3.622   5.097   6.459
 2992SOL    HW1 9875   3.535   5.140   6.432
 2992SOL    HW2 9876   3.625   5.004   6.422
 2993SOL     OW 9877   1.187   5.467   1.322
 2993SOL    HW1 9878   1.184   5.495   1.226
 2993SOL    HW2 9879   1.283   5.459   1.352
 2994SOL     OW 9880   5.088   6.834   0.020
 2994SOL    HW1 9881   5.027   6.764   0.057
 2994SOL    HW2 9882   5.183   6.804   0.029
 2995SOL     OW 9883   1.578   1.893   6.598
 2995SOL    HW1 9884   1.552   1.979   6.554
 2995SOL    HW2 9885   1.655   1.910   6.660
 2996SOL     OW 9886   4.364   5.271   5.970
 2996SOL    HW1 9887   4.439   5.258   5.905
 2996SOL    HW2 9888   4.287   5.315   5.923
 2997SOL     OW 9889   5.700   6.642   0.914
 2997SOL    HW1 9890   5.656   6.555   0.894
 2997SOL    HW2 9891   5.637   6.717   0.891
 2998SOL     OW 9892   6.232   5.326   4.041
 2998SOL    HW1 9893   6.306   5.279   3.992
 2998SOL    HW2 9894   6.151   5.330   3.984
 2999SOL     OW 9895   3.291   6.935   2.726
 2999SOL    HW1 9896   3.272   6.860   2.790
 2999SOL    HW2 9897   3.214   6.998   2.724
 3000SOL     OW 9898   1.346   3.208   5.775
 3000SOL    HW1 9899   1.388   3.172   5.858
 3000SOL    HW2 9900   1.416   3.216   5.704
 3001SOL     OW 9901   5.083   0.611   6.031
 3001SOL    HW1 9902   5.049   0.519   6.010
 3001SOL    HW2 9903   5.012   0.678   6.010
 3002SOL     OW 9904   4.282   0.119   5.640
 3002SOL    HW1 9905   4.232   0.175   5.574
 3002SOL    HW2 9906   4.223   0.044   5.671
 3003SOL     OW 9907   3.108   6.819   5.886
 3003SOL    HW1 9908   3.167   6.786   5.959
 3003SOL    HW2 9909   3.018   6.777   5.894
 3004SOL     OW 9910   6.102   3.120   4.175
 3004SOL    HW1 9911   6.147   3.169   4.249
 3004SOL    HW2 9912   6.169   3.067   4.124
 3005SOL     OW 9913   3.827   3.091   1.068
 3005SOL    HW1 9914   3.870   3.037   1.141
 3005SOL    HW2 9915   3.736   3.120   1.098
 3006SOL     OW 9916   5.216   0.892   1.003
 3006SOL    HW1 9917   5.263   0.909   1.090
 3006SOL    HW2 9918   5.129   0.847   1.021
 3007SOL     OW 9919   6.188   4.756   3.190
 3007SOL    HW1 9920   6.117   4.800   3.135
 3007SOL    HW2 9921   6.253   4.825   3.222
 3008SOL     OW 9922   3.446   6.709   5.628
 3008SOL    HW1 9923   3.463   6.652   5.548
 3008SOL    HW2 9924   3.403   6.653   5.700
 3009SOL     OW 9925   1.263   6.589   3.041
 3009SOL    HW1 9926   1.275   6.619   2.947
 3009SOL    HW2 9927   1.255   6.669   3.101
 3010SOL     OW 9928   3.756   6.112   2.417
 3010SOL    HW1 9929   3.681   6.163   2.374
 3010SOL    HW2 9930   3.742   6.108   2.516
 3011SOL     OW 9931   5.867   6.905   7.020
 3011SOL    HW1 9932   5.852   6.917   0.091
 3011SOL    HW2 9933   5.906   6.814   7.003
 3012SOL     OW 9934   0.138   3.843   3.799
 3012SOL    HW1 9935   0.043   3.843   3.767
 3012SOL    HW2 9936   0.198   3.815   3.724
 3013SOL     OW 9937   6.143   5.371   2.252
 3013SOL    HW1 9938   6.186   5.429   2.321
 3013SOL    HW2 9939   6.083   5.305   2.296
 3014SOL     OW 9940   4.727   1.140   3.850
 3014SOL    HW1 9941   4.627   1.145   3.850
 3014SOL    HW2 9942   4.756   1.055   3.806
 3015SOL     OW 9943   2.983   2.234   0.559
 3015SOL    HW1 9944   3.047   2.306   0.531
 3015SOL    HW2 9945   2.986   2.160   0.492
 3016SOL     OW 9946   3.643   6.778   3.576
 3016SOL    HW1 9947   3.731   6.754   3.618
 3016SOL    HW2 9948   3.572   6.780   3.646
 3017SOL     OW 9949   0.701   6.025   1.296
 3017SOL    HW1 9950   0.683   5.936   1.337
 3017SOL    HW2 9951   0.634   6.091   1.331
 3018SOL     OW 9952   3.896   6.784   6.738
 3018SOL    HW1 9953   3.943   6.871   6.750
 3018SOL    HW2 9954   3.884   6.740   6.827
 3019SOL     OW 9955   3.645   0.186   1.055
 3019SOL    HW1 9956   3.714   0.167   1.125
 3019SOL    HW2 9957   3.581   0.256   1.088
 3020SOL     OW 9958   2.565   3.267   1.459
 3020SOL    HW1 9959   2.571   3.202   1.383
 3020SOL    HW2 9960   2.601   3.356   1.429
 3021SOL     OW 9961   1.971   2.467   0.079
 3021SOL    HW1 9962   1.919   2.397   0.031
 3021SOL    HW2 9963   2.069   2.450   0.067
 3022SOL     OW 9964   4.929   6.671   2.837
 3022SOL    HW1 9965   4.970   6.703   2.922
 3022SOL    HW2 9966   4.838   6.709   2.827
 3023SOL     OW 9967   4.836   5.652   2.899
 3023SOL    HW1 9968   4.912   5.712   2.874
 3023SOL    HW2 9969   4.825   5.580   2.831
 3024SOL     OW 9970   2.986   1.116   0.221
 3024SOL    HW1 9971   2.984   1.023   0.183
 3024SOL    HW2 9972   2.895   1.140   0.255
 3025SOL     OW 9973   2.345   2.862   1.159
 3025SOL    HW1 9974   2.307   2.786   1.107
 3025SOL    HW2 9975   2.402   2.919   1.099
 3026SOL     OW 9976   1.959   3.254   0.778
 3026SOL    HW1 9977   1.955   3.283   0.873
 3026SOL    HW2 9978   2.038   3.296   0.733
 3027SOL     OW 9979   1.713   1.758   3.607
 3027SOL    HW1 9980   1.668   1.847   3.599
 3027SOL    HW2 9981   1.646   1.685   3.590
 3028SOL     OW 9982   1.711   5.898   6.128
 3028SOL    HW1 9983   1.633   5.841   6.100
 3028SOL    HW2 9984   1.793   5.842   6.133
 3029SOL     OW 9985   6.115   5.611   5.181
 3029SOL    HW1 9986   6.121   5.559   5.266
 3029SOL    HW2 9987   6.092   5.706   5.202
 3030SOL     OW 9988   1.317   1.816   5.454
 3030SOL    HW1 9989   1.239   1.778   5.403
 3030SOL    HW2 9990   1.363   1.742   5.504
 3031SOL     OW 9991   0.032   4.151   6.388
 3031SOL    HW1 9992   0.053   4.128   6.483
 3031SOL    HW2 9993   6.965   4.123   6.367
 3032SOL     OW 9994   5.257   0.651   5.790
 3032SOL    HW1 9995   5.178   0.653   5.852
 3032SOL    HW2 9996   5.332   0.703   5.831
 3033SOL     OW 9997   0.361   3.721   6.849
 3033SOL    HW1 9998   0.392   3.773   6.769
 3033SOL    HW2 9999   0.324   3.633   6.819
 3034SOL     OW10000   3.073   6.050   4.275
 3034SOL    HW110001   3.171   6.033   4.279
 3034SOL    HW210002   3.038   6.066   4.367
 3035SOL     OW10003   5.556   1.538   0.113
 3035SOL    HW110004   5.576   1.460   0.171
 3035SOL    HW210005   5.579   1.516   0.018
 3036SOL     OW10006   0.983   4.117   6.534
 3036SOL    HW110007   0.993   4.018   6.542
 3036SOL    HW210008   0.889   4.143   6.557
 3037SOL     OW10009   6.876   6.122   5.344
 3037SOL    HW110010   6.892   6.157   5.436
 3037SOL    HW210011   6.897   6.193   5.276
 3038SOL     OW10012   5.149   6.760   5.858
 3038SOL    HW110013   5.227   6.748   5.796
 3038SOL    HW210014   5.170   6.832   5.924
 3039SOL     OW10015   0.722   3.938   1.860
 3039SOL    HW110016   0.676   3.871   1.801
 3039SOL    HW210017   0.671   4.025   1.857
 3040SOL     OW10018   2.836   3.648   6.685
 3040SOL    HW110019   2.765   3.718   6.679
 3040SOL    HW210020   2.865   3.621   6.594
 3041SOL     OW10021   1.786   2.167   5.733
 3041SOL    HW110022   1.714   2.120   5.784
 3041SOL    HW210023   1.872   2.162   5.783
 3042SOL     OW10024   4.631   0.510   1.977
 3042SOL    HW110025   4.646   0.548   2.068
 3042SOL    HW210026   4.688   0.429   1.964
 3043SOL     OW10027   1.069   5.607   0.381
 3043SOL    HW110028   1.164   5.594   0.407
 3043SOL    HW210029   1.061   5.603   0.281
 3044SOL     OW10030   3.459   4.531   6.340
 3044SOL    HW110031   3.496   4.622   6.325
 3044SOL    HW210032   3.363   4.530   6.313
 3045SOL     OW10033   5.322   1.952   2.783
 3045SOL    HW110034   5.369   2.023   2.731
 3045SOL    HW210035   5.317   1.869   2.728
 3046SOL     OW10036   1.696   2.567   5.572
 3046SOL    HW110037   1.693   2.468   5.557
 3046SOL    HW210038   1.613   2.596   5.621
 3047SOL     OW10039   6.237   5.523   2.448
 3047SOL    HW110040   6.264   5.493   2.539
 3047SOL    HW210041   6.150   5.571   2.453
 3048SOL     OW10042   3.128   3.042   1.146
 3048SOL    HW110043   3.191   2.992   1.086
 3048SOL    HW210044   3.118   2.993   1.233
 3049SOL     OW10045   0.912   0.567   1.548
 3049SOL    HW110046   0.999   0.611   1.526
 3049SOL    HW210047   0.928   0.487   1.605
 3050SOL     OW10048   4.426   5.894   3.630
 3050SOL    HW110049   4.509   5.877   3.683
 3050SOL    HW210050   4.431   5.984   3.588
 3051SOL     OW10051   2.803   5.243   0.017
 3051SOL    HW110052   2.885   5.233   6.989
 3051SOL    HW210053   2.810   5.325   0.073
 3052SOL     OW10054   3.573   6.852   3.176
 3052SOL    HW110055   3.600   6.791   3.102
 3052SOL    HW210056   3.654   6.898   3.213
 3053SOL     OW10057   5.721   6.221   0.190
 3053SOL    HW110058   5.642   6.232   0.251
 3053SOL    HW210059   5.753   6.127   0.194
 3054SOL     OW10060   0.547   3.458   0.262
 3054SOL    HW110061   0.539   3.551   0.297
 3054SOL    HW210062   0.587   3.460   0.171
 3055SOL     OW10063   5.997   6.181   3.688
 3055SOL    HW110064   6.091   6.150   3.704
 3055SOL    HW210065   5.939   6.103   3.668
 3056SOL     OW10066   6.485   0.444   0.751
 3056SOL    HW110067   6.567   0.402   0.789
 3056SOL    HW210068   6.511   0.503   0.674
 3057SOL     OW10069   5.970   4.826   3.044
 3057SOL    HW110070   5.937   4.888   2.973
 3057SOL    HW210071   5.902   4.755   3.060
 3058SOL     OW10072   6.253   5.504   0.849
 3058SOL    HW110073   6.211   5.414   0.842
 3058SOL    HW210074   6.341   5.504   0.801
 3059SOL     OW10075   1.188   2.644   5.288
 3059SOL    HW110076   1.165   2.637   5.191
 3059SOL    HW210077   1.283   2.670   5.299
 3060SOL     OW10078   0.094   6.387   1.516
 3060SOL    HW110079   0.015   6.346   1.562
 3060SOL    HW210080   0.149   6.314   1.475
 3061SOL     OW10081   0.227   0.477   5.433
 3061SOL    HW110082   0.233   0.539   5.512
 3061SOL    HW210083   0.312   0.481   5.381
 3062SOL     OW10084   2.552   6.145   0.892
 3062SOL    HW110085   2.594   6.106   0.810
 3062SOL    HW210086   2.556   6.245   0.888
 3063SOL     OW10087   1.654   5.256   1.428
 3063SOL    HW110088   1.712   5.327   1.468
 3063SOL    HW210089   1.693   5.166   1.446
 3064SOL     OW10090   6.267   3.911   3.255
 3064SOL    HW110091   6.361   3.909   3.220
 3064SOL    HW210092   6.204   3.911   3.177
 3065SOL     OW10093   1.587   0.714   6.798
 3065SOL    HW110094   1.506   0.769   6.818
 3065SOL    HW210095   1.660   0.772   6.763
 3066SOL     OW10096   6.336   4.851   1.201
 3066SOL    HW110097   6.410   4.790   1.172
 3066SOL    HW210098   6.368   4.945   1.196
 3067SOL     OW10099   4.770   6.835   4.166
 3067SOL    HW110100   4.835   6.791   4.103
 3067SOL    HW210101   4.746   6.925   4.130
 3068SOL     OW10102   5.926   5.213   1.255
 3068SOL    HW110103   5.997   5.145   1.240
 3068SOL    HW210104   5.965   5.305   1.242
 3069SOL     OW10105   0.322   5.483   2.014
 3069SOL    HW110106   0.267   5.420   1.959
 3069SOL    HW210107   0.363   5.433   2.090
 3070SOL     OW10108   2.786   1.367   3.476
 3070SOL    HW110109   2.827   1.368   3.567
 3070SOL    HW210110   2.725   1.288   3.468
 3071SOL     OW10111   5.968   7.024   3.735
 3071SOL    HW110112   5.984   6.930   3.765
 3071SOL    HW210113   6.050   0.052   3.750
 3072SOL     OW10114   0.456   6.845   2.317
 3072SOL    HW110115   0.535   6.882   2.270
 3072SOL    HW210116   0.484   6.766   2.372
 3073SOL     OW10117   1.052   3.485   5.272
 3073SOL    HW110118   1.031   3.408   5.213
 3073SOL    HW210119   0.991   3.484   5.352
 3074SOL     OW10120   4.020   3.334   6.375
 3074SOL    HW110121   4.029   3.236   6.392
 3074SOL    HW210122   3.968   3.348   6.290
 3075SOL     OW10123   1.507   5.886   1.239
 3075SOL    HW110124   1.503   5.787   1.225
 3075SOL    HW210125   1.462   5.910   1.324
 3076SOL     OW10126   6.510   0.336   4.852
 3076SOL    HW110127   6.553   0.314   4.765
 3076SOL    HW210128   6.568   0.399   4.904
 3077SOL     OW10129   5.730   4.636   4.271
 3077SOL    HW110130   5.774   4.699   4.207
 3077SOL    HW210131   5.781   4.550   4.274
 3078SOL     OW10132   1.689   3.657   2.094
 3078SOL    HW110133   1.747   3.639   2.015
 3078SOL    HW210134   1.642   3.574   2.122
 3079SOL     OW10135   6.879   2.194   5.226
 3079SOL    HW110136   6.805   2.253   5.192
 3079SOL    HW210137   6.959   2.250   5.246
 3080SOL     OW10138   6.432   5.195   0.731
 3080SOL    HW110139   6.506   5.129   0.713
 3080SOL    HW210140   6.348   5.163   0.687
 3081SOL     OW10141   0.849   4.141   5.480
 3081SOL    HW110142   0.890   4.105   5.564
 3081SOL    HW210143   0.878   4.235   5.466
 3082SOL     OW10144   3.300   0.184   2.480
 3082SOL    HW110145   3.359   0.205   2.558
 3082SOL    HW210146   3.333   0.232   2.399
 3083SOL     OW10147   3.350   0.583   2.048
 3083SOL    HW110148   3.343   0.616   1.954
 3083SOL    HW210149   3.446   0.585   2.077
 3084SOL     OW10150   5.550   5.409   4.642
 3084SOL    HW110151   5.592   5.318   4.646
 3084SOL    HW210152   5.580   5.463   4.720
 3085SOL     OW10153   6.869   5.773   2.873
 3085SOL    HW110154   6.935   5.709   2.833
 3085SOL    HW210155   6.871   5.859   2.823
 3086SOL     OW10156   4.787   1.759   3.165
 3086SOL    HW110157   4.828   1.788   3.251
 3086SOL    HW210158   4.726   1.831   3.131
 3087SOL     OW10159   6.137   3.947   2.978
 3087SOL    HW110160   6.112   3.853   2.953
 3087SOL    HW210161   6.055   4.001   2.992
 3088SOL     OW10162   2.336   4.386   5.472
 3088SOL    HW110163   2.405   4.346   5.533
 3088SOL    HW210164   2.302   4.316   5.410
 3089SOL     OW10165   1.468   2.496   0.320
 3089SOL    HW110166   1.420   2.583   0.312
 3089SOL    HW210167   1.564   2.513   0.342
 3090SOL     OW10168   1.569   1.880   1.191
 3090SOL    HW110169   1.502   1.948   1.161
 3090SOL    HW210170   1.524   1.793   1.207
 3091SOL     OW10171   2.223   6.674   0.715
 3091SOL    HW110172   2.228   6.587   0.763
 3091SOL    HW210173   2.314   6.704   0.688
 3092SOL     OW10174   6.074   6.870   1.200
 3092SOL    HW110175   6.088   6.922   1.116
 3092SOL    HW210176   6.020   6.788   1.180
 3093SOL     OW10177   6.178   5.483   5.694
 3093SOL    HW110178   6.217   5.437   5.774
 3093SOL    HW210179   6.082   5.506   5.713
 3094SOL     OW10180   3.104   5.936   5.530
 3094SOL    HW110181   3.040   5.963   5.458
 3094SOL    HW210182   3.055   5.892   5.604
 3095SOL     OW10183   2.915   4.889   4.696
 3095SOL    HW110184   2.948   4.868   4.605
 3095SOL    HW210185   2.860   4.813   4.730
 3096SOL     OW10186   0.569   0.449   4.844
 3096SOL    HW110187   0.485   0.500   4.862
 3096SOL    HW210188   0.546   0.353   4.825
 3097SOL     OW10189   0.755   2.783   0.367
 3097SOL    HW110190   0.752   2.883   0.362
 3097SOL    HW210191   0.662   2.746   0.368
 3098SOL     OW10192   2.438   3.192   0.559
 3098SOL    HW110193   2.365   3.234   0.505
 3098SOL    HW210194   2.485   3.123   0.505
 3099SOL     OW10195   0.668   5.738   5.758
 3099SOL    HW110196   0.767   5.729   5.768
 3099SOL    HW210197   0.621   5.683   5.827
 3100SOL     OW10198   6.799   6.766   6.676
 3100SOL    HW110199   6.712   6.719   6.664
 3100SOL    HW210200   6.782   6.862   6.696
 3101SOL     OW10201   5.290   6.961   6.504
 3101SOL    HW110202   5.204   6.990   6.546
 3101SOL    HW210203   5.270   6.903   6.425
 3102SOL     OW10204   1.691   4.036   0.854
 3102SOL    HW110205   1.686   3.977   0.935
 3102SOL    HW210206   1.642   3.992   0.779
 3103SOL     OW10207   4.048   2.722   1.694
 3103SOL    HW110208   4.105   2.703   1.773
 3103SOL    HW210209   4.069   2.658   1.620
 3104SOL     OW10210   5.654   5.860   4.081
 3104SOL    HW110211   5.656   5.815   4.170
 3104SOL    HW210212   5.564   5.903   4.068
 3105SOL     OW10213   5.695   6.407   4.258
 3105SOL    HW110214   5.764   6.458   4.206
 3105SOL    HW210215   5.674   6.322   4.210
 3106SOL     OW10216   6.779   2.887   2.744
 3106SOL    HW110217   6.848   2.926   2.804
 3106SOL    HW210218   6.769   2.789   2.764
 3107SOL     OW10219   3.027   0.301   3.639
 3107SOL    HW110220   2.997   0.283   3.732
 3107SOL    HW210221   2.948   0.312   3.579
 3108SOL     OW10222   2.115   0.872   3.806
 3108SOL    HW110223   2.046   0.874   3.879
 3108SOL    HW210224   2.099   0.947   3.743
 3109SOL     OW10225   5.184   6.189   3.297
 3109SOL    HW110226   5.281   6.200   3.276
 3109SOL    HW210227   5.130   6.207   3.215
 3110SOL     OW10228   1.387   3.171   2.763
 3110SOL    HW110229   1.295   3.199   2.737
 3110SOL    HW210230   1.382   3.103   2.836
 3111SOL     OW10231   0.135   4.967   3.556
 3111SOL    HW110232   0.233   4.982   3.547
 3111SOL    HW210233   0.110   4.964   3.653
 3112SOL     OW10234   4.653   3.999   6.827
 3112SOL    HW110235   4.719   3.965   6.760
 3112SOL    HW210236   4.565   4.013   6.782
 3113SOL     OW10237   2.418   6.659   3.262
 3113SOL    HW110238   2.432   6.672   3.164
 3113SOL    HW210239   2.503   6.678   3.311
 3114SOL     OW10240   6.265   4.595   0.905
 3114SOL    HW110241   6.233   4.617   0.813
 3114SOL    HW210242   6.357   4.632   0.918
 3115SOL     OW10243   3.582   4.258   0.493
 3115SOL    HW110244   3.514   4.186   0.509
 3115SOL    HW210245   3.536   4.338   0.453
 3116SOL     OW10246   6.457   2.176   0.239
 3116SOL    HW110247   6.410   2.224   0.165
 3116SOL    HW210248   6.527   2.116   0.201
 3117SOL     OW10249   4.021   3.328   4.977
 3117SOL    HW110250   3.974   3.242   5.000
 3117SOL    HW210251   4.105   3.336   5.031
 3118SOL     OW10252   6.091   4.149   0.508
 3118SOL    HW110253   6.131   4.179   0.421
 3118SOL    HW210254   6.125   4.206   0.582
 3119SOL     OW10255   1.726   4.410   5.100
 3119SOL    HW110256   1.708   4.419   5.198
 3119SOL    HW210257   1.799   4.344   5.085
 3120SOL     OW10258   3.018   5.615   4.826
 3120SOL    HW110259   2.996   5.543   4.761
 3120SOL    HW210260   3.026   5.576   4.918
 3121SOL     OW10261   6.757   1.247   2.633
 3121SOL    HW110262   6.835   1.183   2.630
 3121SOL    HW210263   6.684   1.207   2.688
 3122SOL     OW10264   2.924   5.720   6.758
 3122SOL    HW110265   2.963   5.698   6.669
 3122SOL    HW210266   2.914   5.637   6.812
 3123SOL     OW10267   3.735   6.420   3.607
 3123SOL    HW110268   3.648   6.375   3.627
 3123SOL    HW210269   3.730   6.465   3.518
 3124SOL     OW10270   4.495   1.275   5.541
 3124SOL    HW110271   4.398   1.250   5.545
 3124SOL    HW210272   4.551   1.198   5.570
 3125SOL     OW10273   6.332   1.825   6.216
 3125SOL    HW110274   6.355   1.895   6.283
 3125SOL    HW210275   6.379   1.845   6.129
 3126SOL     OW10276   4.326   5.999   0.065
 3126SOL    HW110277   4.414   5.951   0.073
 3126SOL    HW210278   4.273   5.984   0.148
 3127SOL     OW10279   0.809   1.774   4.227
 3127SOL    HW110280   0.835   1.824   4.144
 3127SOL    HW210281   0.840   1.680   4.219
 3128SOL     OW10282   2.176   1.232   0.674
 3128SOL    HW110283   2.196   1.215   0.770
 3128SOL    HW210284   2.081   1.209   0.655
 3129SOL     OW10285   6.601   3.926   5.367
 3129SOL    HW110286   6.670   3.964   5.428
 3129SOL    HW210287   6.525   3.890   5.421
 3130SOL     OW10288   2.035   4.328   1.942
 3130SOL    HW110289   2.024   4.383   2.025
 3130SOL    HW210290   1.948   4.324   1.893
 3131SOL     OW10291   0.012   3.476   2.615
 3131SOL    HW110292   0.105   3.466   2.578
 3131SOL    HW210293   0.016   3.524   2.703
 3132SOL     OW10294   5.608   6.321   5.473
 3132SOL    HW110295   5.569   6.230   5.462
 3132SOL    HW210296   5.638   6.356   5.385
 3133SOL     OW10297   3.279   1.910   3.084
 3133SOL    HW110298   3.234   1.912   2.995
 3133SOL    HW210299   3.240   1.836   3.140
 3134SOL     OW10300   4.719   3.520   1.749
 3134SOL    HW110301   4.723   3.422   1.732
 3134SOL    HW210302   4.807   3.551   1.784
 3135SOL     OW10303   3.454   2.066   3.747
 3135SOL    HW110304   3.360   2.100   3.737
 3135SOL    HW210305   3.463   2.019   3.835
 3136SOL     OW10306   6.178   6.313   5.435
 3136SOL    HW110307   6.263   6.278   5.395
 3136SOL    HW210308   6.200   6.366   5.518
 3137SOL     OW10309   5.821   2.030   4.130
 3137SOL    HW110310   5.829   1.933   4.108
 3137SOL    HW210311   5.742   2.044   4.190
 3138SOL     OW10312   6.359   1.565   4.924
 3138SOL    HW110313   6.341   1.575   4.826
 3138SOL    HW210314   6.273   1.569   4.974
 3139SOL     OW10315   4.886   6.098   5.290
 3139SOL    HW110316   4.789   6.120   5.294
 3139SOL    HW210317   4.939   6.183   5.298
 3140SOL     OW10318   6.701   6.308   6.689
 3140SOL    HW110319   6.656   6.316   6.778
 3140SOL    HW210320   6.690   6.394   6.639
 3141SOL     OW10321   1.340   5.563   0.447
 3141SOL    HW110322   1.427   5.571   0.398
 3141SOL    HW210323   1.328   5.469   0.478
 3142SOL     OW10324   4.437   6.444   6.410
 3142SOL    HW110325   4.402   6.360   6.452
 3142SOL    HW210326   4.400   6.523   6.460
 3143SOL     OW10327   6.480   1.435   0.400
 3143SOL    HW110328   6.460   1.482   0.486
 3143SOL    HW210329   6.512   1.501   0.333
 3144SOL     OW10330   2.179   3.209   6.473
 3144SOL    HW110331   2.247   3.192   6.544
 3144SOL    HW210332   2.088   3.191   6.510
 3145SOL     OW10333   3.211   5.683   2.684
 3145SOL    HW110334   3.121   5.724   2.671
 3145SOL    HW210335   3.266   5.742   2.742
 3146SOL     OW10336   1.101   0.171   3.267
 3146SOL    HW110337   1.149   0.132   3.345
 3146SOL    HW210338   1.069   0.098   3.206
 3147SOL     OW10339   4.935   3.957   0.295
 3147SOL    HW110340   4.953   3.987   0.202
 3147SOL    HW210341   4.865   3.885   0.294
 3148SOL     OW10342   3.832   5.300   4.645
 3148SOL    HW110343   3.754   5.269   4.699
 3148SOL    HW210344   3.806   5.379   4.590
 3149SOL     OW10345   3.483   0.754   5.706
 3149SOL    HW110346   3.431   0.809   5.771
 3149SOL    HW210347   3.424   0.684   5.667
 3150SOL     OW10348   5.928   6.326   4.744
 3150SOL    HW110349   5.855   6.324   4.814
 3150SOL    HW210350   5.889   6.353   4.656
 3151SOL     OW10351   4.410   1.282   6.171
 3151SOL    HW110352   4.464   1.365   6.160
 3151SOL    HW210353   4.470   1.202   6.171
 3152SOL     OW10354   0.761   5.998   1.038
 3152SOL    HW110355   0.713   6.005   1.125
 3152SOL    HW210356   0.829   5.925   1.043
 3153SOL     OW10357   6.916   4.327   2.204
 3153SOL    HW110358   6.951   4.233   2.196
 3153SOL    HW210359   6.816   4.324   2.210
 3154SOL     OW10360   5.532   2.175   6.100
 3154SOL    HW110361   5.619   2.141   6.064
 3154SOL    HW210362   5.524   2.273   6.081
 3155SOL     OW10363   5.813   5.536   0.911
 3155SOL    HW110364   5.732   5.496   0.868
 3155SOL    HW210365   5.856   5.600   0.847
 3156SOL     OW10366   3.489   3.702   3.515
 3156SOL    HW110367   3.576   3.708   3.564
 3156SOL    HW210368   3.424   3.649   3.569
 3157SOL     OW10369   2.268   4.160   3.919
 3157SOL    HW110370   2.235   4.065   3.923
 3157SOL    HW210371   2.248   4.197   3.828
 3158SOL     OW10372   4.746   6.803   1.206
 3158SOL    HW110373   4.750   6.872   1.279
 3158SOL    HW210374   4.744   6.849   1.117
 3159SOL     OW10375   5.193   5.407   0.021
 3159SOL    HW110376   5.171   5.312   0.042
 3159SOL    HW210377   5.142   5.468   0.083
 3160SOL     OW10378   4.827   4.203   0.165
 3160SOL    HW110379   4.756   4.193   0.235
 3160SOL    HW210380   4.871   4.293   0.175
 3161SOL     OW10381   1.471   1.512   3.032
 3161SOL    HW110382   1.497   1.507   2.936
 3161SOL    HW210383   1.371   1.505   3.039
 3162SOL     OW10384   0.548   5.219   6.385
 3162SOL    HW110385   0.551   5.129   6.430
 3162SOL    HW210386   0.585   5.288   6.447
 3163SOL     OW10387   2.821   4.087   6.325
 3163SOL    HW110388   2.855   4.119   6.237
 3163SOL    HW210389   2.896   4.045   6.376
 3164SOL     OW10390   5.201   4.674   0.278
 3164SOL    HW110391   5.256   4.607   0.227
 3164SOL    HW210392   5.145   4.727   0.215
 3165SOL     OW10393   0.098   0.950   1.591
 3165SOL    HW110394   0.164   0.885   1.629
 3165SOL    HW210395   0.102   1.035   1.643
 3166SOL     OW10396   5.526   3.288   6.426
 3166SOL    HW110397   5.557   3.369   6.476
 3166SOL    HW210398   5.603   3.250   6.374
 3167SOL     OW10399   0.203   5.209   1.877
 3167SOL    HW110400   0.124   5.256   1.838
 3167SOL    HW210401   0.287   5.241   1.832
 3168SOL     OW10402   5.429   3.698   1.259
 3168SOL    HW110403   5.375   3.618   1.284
 3168SOL    HW210404   5.474   3.682   1.171
 3169SOL     OW10405   1.211   2.389   5.380
 3169SOL    HW110406   1.225   2.480   5.341
 3169SOL    HW210407   1.114   2.377   5.401
 3170SOL     OW10408   4.469   0.764   0.221
 3170SOL    HW110409   4.436   0.856   0.202
 3170SOL    HW210410   4.397   0.698   0.198
 3171SOL     OW10411   5.762   6.242   3.169
 3171SOL    HW110412   5.668   6.243   3.205
 3171SOL    HW210413   5.824   6.208   3.240
 3172SOL     OW10414   6.260   0.353   4.639
 3172SOL    HW110415   6.347   0.349   4.687
 3172SOL    HW210416   6.185   0.343   4.705
 3173SOL     OW10417   2.489   0.260   1.277
 3173SOL    HW110418   2.428   0.314   1.336
 3173SOL    HW210419   2.531   0.321   1.209
 3174SOL     OW10420   2.222   2.897   6.316
 3174SOL    HW110421   2.200   2.811   6.270
 3174SOL    HW210422   2.137   2.945   6.339
 3175SOL     OW10423   0.676   6.584   0.819
 3175SOL    HW110424   0.613   6.506   0.820
 3175SOL    HW210425   0.754   6.563   0.759
 3176SOL     OW10426   0.620   4.585   6.723
 3176SOL    HW110427   0.709   4.539   6.717
 3176SOL    HW210428   0.592   4.615   6.631
 3177SOL     OW10429   5.745   5.825   5.680
 3177SOL    HW110430   5.793   5.898   5.631
 3177SOL    HW210431   5.742   5.848   5.777
 3178SOL     OW10432   0.993   3.472   1.358
 3178SOL    HW110433   0.912   3.439   1.405
 3178SOL    HW210434   0.976   3.564   1.321
 3179SOL     OW10435   1.826   1.372   2.875
 3179SOL    HW110436   1.803   1.465   2.902
 3179SOL    HW210437   1.793   1.355   2.782
 3180SOL     OW10438   5.742   0.536   5.958
 3180SOL    HW110439   5.807   0.606   5.930
 3180SOL    HW210440   5.779   0.484   6.035
 3181SOL     OW10441   0.831   1.193   2.940
 3181SOL    HW110442   0.885   1.276   2.951
 3181SOL    HW210443   0.885   1.124   2.892
 3182SOL     OW10444   2.039   5.419   5.282
 3182SOL    HW110445   2.052   5.325   5.312
 3182SOL    HW210446   1.942   5.435   5.262
 3183SOL     OW10447   3.322   3.186   1.548
 3183SOL    HW110448   3.325   3.247   1.627
 3183SOL    HW210449   3.298   3.094   1.577
 3184SOL     OW10450   2.465   1.902   1.830
 3184SOL    HW110451   2.397   1.970   1.803
 3184SOL    HW210452   2.549   1.917   1.778
 3185SOL     OW10453   6.763   6.993   5.730
 3185SOL    HW110454   6.676   7.017   5.772
 3185SOL    HW210455   6.835   0.024   5.768
 3186SOL     OW10456   2.873   1.207   2.230
 3186SOL    HW110457   2.782   1.240   2.204
 3186SOL    HW210458   2.927   1.284   2.266
 3187SOL     OW10459   3.675   4.894   0.122
 3187SOL    HW110460   3.772   4.888   0.102
 3187SOL    HW210461   3.657   4.859   0.214
 3188SOL     OW10462   4.189   6.404   3.128
 3188SOL    HW110463   4.227   6.451   3.207
 3188SOL    HW210464   4.237   6.316   3.116
 3189SOL     OW10465   0.775   6.443   2.572
 3189SOL    HW110466   0.741   6.493   2.493
 3189SOL    HW210467   0.699   6.422   2.634
 3190SOL     OW10468   0.715   5.686   2.168
 3190SOL    HW110469   0.796   5.699   2.111
 3190SOL    HW210470   0.634   5.686   2.110
 3191SOL     OW10471   3.993   0.995   1.176
 3191SOL    HW110472   3.914   0.940   1.201
 3191SOL    HW210473   3.978   1.038   1.087
 3192SOL     OW10474   0.602   3.210   2.599
 3192SOL    HW110475   0.510   3.172   2.608
 3192SOL    HW210476   0.657   3.188   2.679
 3193SOL     OW10477   4.437   3.132   6.274
 3193SOL    HW110478   4.356   3.076   6.257
 3193SOL    HW210479   4.415   3.203   6.340
 3194SOL     OW10480   7.016   3.387   6.255
 3194SOL    HW110481   0.087   3.400   6.267
 3194SOL    HW210482   6.994   3.392   6.158
 3195SOL     OW10483   0.931   3.276   3.454
 3195SOL    HW110484   0.966   3.261   3.362
 3195SOL    HW210485   0.997   3.331   3.506
 3196SOL     OW10486   6.417   0.263   5.541
 3196SOL    HW110487   6.388   0.223   5.628
 3196SOL    HW210488   6.418   0.363   5.550
 3197SOL     OW10489   0.893   4.515   3.696
 3197SOL    HW110490   0.956   4.526   3.773
 3197SOL    HW210491   0.833   4.437   3.713
 3198SOL     OW10492   6.673   1.455   7.012
 3198SOL    HW110493   6.674   1.365   0.030
 3198SOL    HW210494   6.666   1.527   0.054
 3199SOL     OW10495   4.413   2.274   2.185
 3199SOL    HW110496   4.339   2.252   2.248
 3199SOL    HW210497   4.389   2.355   2.132
 3200SOL     OW10498   6.831   1.502   1.551
 3200SOL    HW110499   6.860   1.546   1.635
 3200SOL    HW210500   6.911   1.482   1.494
 3201SOL     OW10501   4.444   4.553   2.756
 3201SOL    HW110502   4.376   4.619   2.724
 3201SOL    HW210503   4.496   4.517   2.679
 3202SOL     OW10504   1.897   5.903   1.775
 3202SOL    HW110505   1.968   5.880   1.842
 3202SOL    HW210506   1.931   5.885   1.683
 3203SOL     OW10507   6.503   6.752   2.106
 3203SOL    HW110508   6.599   6.779   2.099
 3203SOL    HW210509   6.483   6.720   2.198
 3204SOL     OW10510   6.357   5.414   1.797
 3204SOL    HW110511   6.300   5.402   1.715
 3204SOL    HW210512   6.318   5.360   1.872
 3205SOL     OW10513   0.595   3.591   3.714
 3205SOL    HW110514   0.667   3.546   3.661
 3205SOL    HW210515   0.506   3.566   3.676
 3206SOL     OW10516   0.980   0.143   6.581
 3206SOL    HW110517   1.038   0.107   6.508
 3206SOL    HW210518   0.892   0.096   6.580
 3207SOL     OW10519   0.314   1.363   4.220
 3207SOL    HW110520   0.368   1.321   4.293
 3207SOL    HW210521   0.279   1.451   4.250
 3208SOL     OW10522   5.548   6.585   5.147
 3208SOL    HW110523   5.585   6.672   5.179
 3208SOL    HW210524   5.448   6.586   5.157
 3209SOL     OW10525   2.130   0.692   3.588
 3209SOL    HW110526   2.126   0.753   3.667
 3209SOL    HW210527   2.119   0.745   3.504
 3210SOL     OW10528   0.288   4.475   3.145
 3210SOL    HW110529   0.224   4.499   3.072
 3210SOL    HW210530   0.304   4.556   3.202
 3211SOL     OW10531   1.760   4.721   2.029
 3211SOL    HW110532   1.823   4.727   2.106
 3211SOL    HW210533   1.690   4.792   2.037
 3212SOL     OW10534   4.721   2.116   5.883
 3212SOL    HW110535   4.785   2.043   5.858
 3212SOL    HW210536   4.769   2.203   5.882
 3213SOL     OW10537   6.599   6.300   1.903
 3213SOL    HW110538   6.653   6.263   1.979
 3213SOL    HW210539   6.606   6.400   1.904
 3214SOL     OW10540   4.522   5.689   6.181
 3214SOL    HW110541   4.528   5.780   6.140
 3214SOL    HW210542   4.609   5.665   6.223
 3215SOL     OW10543   5.998   1.352   6.570
 3215SOL    HW110544   5.999   1.434   6.627
 3215SOL    HW210545   6.082   1.300   6.583
 3216SOL     OW10546   5.186   6.379   4.321
 3216SOL    HW110547   5.219   6.457   4.373
 3216SOL    HW210548   5.125   6.410   4.249
 3217SOL     OW10549   6.960   3.987   1.536
 3217SOL    HW110550   6.993   3.975   1.629
 3217SOL    HW210551   6.873   4.036   1.537
 3218SOL     OW10552   2.881   0.532   2.428
 3218SOL    HW110553   2.898   0.455   2.489
 3218SOL    HW210554   2.920   0.615   2.469
 3219SOL     OW10555   6.687   0.254   3.735
 3219SOL    HW110556   6.685   0.315   3.814
 3219SOL    HW210557   6.711   0.305   3.653
 3220SOL     OW10558   6.155   3.181   5.574
 3220SOL    HW110559   6.112   3.266   5.545
 3220SOL    HW210560   6.209   3.144   5.499
 3221SOL     OW10561   2.646   0.085   3.163
 3221SOL    HW110562   2.595   0.159   3.207
 3221SOL    HW210563   2.744   0.097   3.180
 3222SOL     OW10564   5.825   2.681   2.893
 3222SOL    HW110565   5.837   2.780   2.884
 3222SOL    HW210566   5.798   2.659   2.986
 3223SOL     OW10567   2.511   4.987   5.133
 3223SOL    HW110568   2.492   4.980   5.035
 3223SOL    HW210569   2.606   4.960   5.150
 3224SOL     OW10570   4.125   5.216   0.438
 3224SOL    HW110571   4.208   5.217   0.494
 3224SOL    HW210572   4.122   5.297   0.379
 3225SOL     OW10573   2.578   3.603   0.122
 3225SOL    HW110574   2.674   3.599   0.093
 3225SOL    HW210575   2.531   3.676   0.072
 3226SOL     OW10576   1.110   0.174   4.229
 3226SOL    HW110577   1.051   0.095   4.211
 3226SOL    HW210578   1.171   0.188   4.151
 3227SOL     OW10579   2.514   1.210   6.156
 3227SOL    HW110580   2.548   1.239   6.245
 3227SOL    HW210581   2.529   1.112   6.145
 3228SOL     OW10582   5.321   3.445   5.163
 3228SOL    HW110583   5.281   3.449   5.255
 3228SOL    HW210584   5.251   3.413   5.099
 3229SOL     OW10585   4.018   2.301   5.323
 3229SOL    HW110586   4.066   2.372   5.272
 3229SOL    HW210587   4.078   2.264   5.394
 3230SOL     OW10588   0.960   0.448   3.680
 3230SOL    HW110589   0.998   0.504   3.607
 3230SOL    HW210590   0.866   0.422   3.657
 3231SOL     OW10591   6.099   5.722   1.187
 3231SOL    HW110592   6.177   5.729   1.125
 3231SOL    HW210593   6.070   5.626   1.193
 3232SOL     OW10594   2.252   4.678   3.576
 3232SOL    HW110595   2.211   4.690   3.486
 3232SOL    HW210596   2.344   4.639   3.567
 3233SOL     OW10597   0.672   4.180   1.730
 3233SOL    HW110598   0.696   4.219   1.641
 3233SOL    HW210599   0.579   4.145   1.727
 3234SOL     OW10600   6.957   1.607   5.293
 3234SOL    HW110601   6.991   1.700   5.279
 3234SOL    HW210602   6.898   1.581   5.217
 3235SOL     OW10603   5.470   0.320   2.306
 3235SOL    HW110604   5.520   0.319   2.393
 3235SOL    HW210605   5.462   0.227   2.271
 3236SOL     OW10606   0.927   2.952   1.917
 3236SOL    HW110607   0.881   3.008   1.987
 3236SOL    HW210608   0.958   3.010   1.842
 3237SOL     OW10609   3.466   0.417   4.675
 3237SOL    HW110610   3.393   0.484   4.668
 3237SOL    HW210611   3.504   0.419   4.768
 3238SOL     OW10612   6.991   6.600   6.789
 3238SOL    HW110613   6.985   6.632   6.884
 3238SOL    HW210614   6.915   6.636   6.736
 3239SOL     OW10615   0.257   6.364   5.420
 3239SOL    HW110616   0.236   6.399   5.511
 3239SOL    HW210617   0.310   6.431   5.369
 3240SOL     OW10618   1.145   1.484   4.408
 3240SOL    HW110619   1.173   1.467   4.502
 3240SOL    HW210620   1.152   1.581   4.388
 3241SOL     OW10621   5.577   0.898   4.367
 3241SOL    HW110622   5.646   0.929   4.301
 3241SOL    HW210623   5.486   0.917   4.330
 3242SOL     OW10624   3.603   6.613   0.046
 3242SOL    HW110625   3.599   6.592   0.144
 3242SOL    HW210626   3.698   6.609   0.015
 3243SOL     OW10627   3.324   5.515   0.551
 3243SOL    HW110628   3.230   5.513   0.518
 3243SOL    HW210629   3.341   5.601   0.599
 3244SOL     OW10630   2.639   6.278   6.050
 3244SOL    HW110631   2.541   6.296   6.062
 3244SOL    HW210632   2.656   6.251   5.955
 3245SOL     OW10633   3.817   2.397   6.194
 3245SOL    HW110634   3.889   2.376   6.128
 3245SOL    HW210635   3.828   2.491   6.227
 3246SOL     OW10636   5.192   6.283   3.560
 3246SOL    HW110637   5.216   6.241   3.472
 3246SOL    HW210638   5.121   6.228   3.604
 3247SOL     OW10639   0.379   2.422   4.832
 3247SOL    HW110640   0.460   2.373   4.798
 3247SOL    HW210641   0.390   2.441   4.929
 3248SOL     OW10642   5.908   3.735   2.217
 3248SOL    HW110643   5.993   3.778   2.187
 3248SOL    HW210644   5.923   3.687   2.303
 3249SOL     OW10645   2.179   4.385   5.123
 3249SOL    HW110646   2.240   4.325   5.071
 3249SOL    HW210647   2.105   4.331   5.163
 3250SOL     OW10648   4.138   6.529   1.687
 3250SOL    HW110649   4.068   6.505   1.755
 3250SOL    HW210650   4.217   6.469   1.699
 3251SOL     OW10651   3.116   1.152   3.213
 3251SOL    HW110652   3.206   1.196   3.207
 3251SOL    HW210653   3.106   1.086   3.139
 3252SOL     OW10654   3.423   2.135   3.153
 3252SOL    HW110655   3.383   2.050   3.120
 3252SOL    HW210656   3.357   2.210   3.141
 3253SOL     OW10657   4.858   3.351   1.195
 3253SOL    HW110658   4.838   3.320   1.102
 3253SOL    HW210659   4.877   3.272   1.253
 3254SOL     OW10660   5.962   5.056   2.641
 3254SOL    HW110661   6.056   5.070   2.671
 3254SOL    HW210662   5.904   5.129   2.678
 3255SOL     OW10663   3.739   4.403   0.658
 3255SOL    HW110664   3.698   4.327   0.609
 3255SOL    HW210665   3.668   4.451   0.709
 3256SOL     OW10666   6.655   6.092   5.604
 3256SOL    HW110667   6.734   6.149   5.621
 3256SOL    HW210668   6.632   6.093   5.507
 3257SOL     OW10669   2.114   2.069   0.796
 3257SOL    HW110670   2.031   2.114   0.764
 3257SOL    HW210671   2.189   2.088   0.732
 3258SOL     OW10672   5.745   6.833   1.521
 3258SOL    HW110673   5.715   6.802   1.431
 3258SOL    HW210674   5.832   6.882   1.512
 3259SOL     OW10675   5.943   6.160   3.388
 3259SOL    HW110676   5.969   6.164   3.485
 3259SOL    HW210677   5.940   6.064   3.358
 3260SOL     OW10678   1.000   2.628   7.005
 3260SOL    HW110679   0.990   2.727   7.014
 3260SOL    HW210680   1.015   2.605   6.909
 3261SOL     OW10681   4.288   0.245   3.219
 3261SOL    HW110682   4.384   0.272   3.224
 3261SOL    HW210683   4.243   0.264   3.306
 3262SOL     OW10684   3.562   1.618   3.623
 3262SOL    HW110685   3.597   1.569   3.543
 3262SOL    HW210686   3.517   1.554   3.685
 3263SOL     OW10687   3.095   5.663   1.991
 3263SOL    HW110688   3.023   5.717   1.946
 3263SOL    HW210689   3.154   5.724   2.043
 3264SOL     OW10690   5.060   5.130   6.368
 3264SOL    HW110691   5.014   5.041   6.375
 3264SOL    HW210692   4.994   5.203   6.383
 3265SOL     OW10693   4.386   0.524   6.750
 3265SOL    HW110694   4.427   0.526   6.841
 3265SOL    HW210695   4.440   0.582   6.688
 3266SOL     OW10696   0.691   1.630   5.814
 3266SOL    HW110697   0.634   1.579   5.750
 3266SOL    HW210698   0.634   1.662   5.890
 3267SOL     OW10699   3.815   2.253   1.352
 3267SOL    HW110700   3.750   2.262   1.427
 3267SOL    HW210701   3.847   2.343   1.324
 3268SOL     OW10702   0.375   4.537   6.420
 3268SOL    HW110703   0.471   4.560   6.437
 3268SOL    HW210704   0.366   4.493   6.330
 3269SOL     OW10705   4.467   3.513   0.772
 3269SOL    HW110706   4.558   3.478   0.751
 3269SOL    HW210707   4.474   3.603   0.814
 3270SOL     OW10708   0.925   5.872   4.701
 3270SOL    HW110709   0.866   5.822   4.638
 3270SOL    HW210710   0.891   5.861   4.794
 3271SOL     OW10711   5.701   1.926   1.221
 3271SOL    HW110712   5.654   1.837   1.216
 3271SOL    HW210713   5.788   1.916   1.269
 3272SOL     OW10714   5.927   6.699   0.256
 3272SOL    HW110715   5.887   6.785   0.288
 3272SOL    HW210716   6.010   6.680   0.308
 3273SOL     OW10717   6.849   0.048   2.399
 3273SOL    HW110718   6.775   0.000   2.352
 3273SOL    HW210719   6.812   0.101   2.475
 3274SOL     OW10720   3.932   1.744   6.216
 3274SOL    HW110721   3.853   1.692   6.246
 3274SOL    HW210722   4.000   1.747   6.290
 3275SOL     OW10723   3.202   0.862   6.972
 3275SOL    HW110724   3.167   0.791   6.911
 3275SOL    HW210725   3.229   0.942   6.918
 3276SOL     OW10726   3.421   6.409   0.007
 3276SOL    HW110727   3.345   6.461   0.047
 3276SOL    HW210728   3.497   6.472   7.015
 3277SOL     OW10729   7.007   6.657   5.186
 3277SOL    HW110730   6.994   6.582   5.121
 3277SOL    HW210731   0.075   6.659   5.217
 3278SOL     OW10732   1.036   0.984   7.015
 3278SOL    HW110733   1.134   1.001   7.004
 3278SOL    HW210734   0.992   1.064   0.029
 3279SOL     OW10735   2.268   0.316   0.950
 3279SOL    HW110736   2.353   0.308   0.899
 3279SOL    HW210737   2.241   0.412   0.955
 3280SOL     OW10738   1.427   5.320   5.961
 3280SOL    HW110739   1.434   5.270   5.875
 3280SOL    HW210740   1.490   5.281   6.028
 3281SOL     OW10741   3.098   5.999   0.149
 3281SOL    HW110742   3.098   5.946   0.065
 3281SOL    HW210743   3.170   6.068   0.144
 3282SOL     OW10744   2.005   5.427   3.048
 3282SOL    HW110745   1.988   5.523   3.067
 3282SOL    HW210746   2.104   5.411   3.041
 3283SOL     OW10747   2.083   0.224   3.587
 3283SOL    HW110748   1.988   0.200   3.566
 3283SOL    HW210749   2.136   0.141   3.604
 3284SOL     OW10750   0.213   3.966   6.894
 3284SOL    HW110751   0.116   3.950   6.911
 3284SOL    HW210752   0.262   3.879   6.895
 3285SOL     OW10753   6.378   2.212   4.235
 3285SOL    HW110754   6.434   2.275   4.288
 3285SOL    HW210755   6.312   2.264   4.180
 3286SOL     OW10756   4.014   4.922   5.347
 3286SOL    HW110757   3.994   5.020   5.355
 3286SOL    HW210758   4.010   4.880   5.438
 3287SOL     OW10759   1.010   5.250   1.104
 3287SOL    HW110760   0.931   5.224   1.048
 3287SOL    HW210761   1.016   5.191   1.184
 3288SOL     OW10762   0.946   6.649   0.387
 3288SOL    HW110763   1.005   6.660   0.467
 3288SOL    HW210764   0.975   6.713   0.315
 3289SOL     OW10765   1.231   5.831   4.387
 3289SOL    HW110766   1.276   5.830   4.476
 3289SOL    HW210767   1.283   5.887   4.323
 3290SOL     OW10768   6.698   5.243   1.795
 3290SOL    HW110769   6.607   5.205   1.810
 3290SOL    HW210770   6.742   5.260   1.883
 3291SOL     OW10771   2.500   0.027   1.179
 3291SOL    HW110772   2.491   0.124   1.200
 3291SOL    HW210773   2.478   0.012   1.082
 3292SOL     OW10774   0.831   6.094   5.873
 3292SOL    HW110775   0.774   6.125   5.797
 3292SOL    HW210776   0.927   6.109   5.851
 3293SOL     OW10777   6.629   0.594   2.964
 3293SOL    HW110778   6.574   0.570   2.883
 3293SOL    HW210779   6.708   0.534   2.969
 3294SOL     OW10780   0.287   6.995   0.187
 3294SOL    HW110781   0.292   0.025   0.105
 3294SOL    HW210782   0.197   6.951   0.192
 3295SOL     OW10783   1.127   2.266   6.625
 3295SOL    HW110784   1.030   2.243   6.618
 3295SOL    HW210785   1.142   2.323   6.706
 3296SOL     OW10786   0.547   6.279   2.243
 3296SOL    HW110787   0.478   6.290   2.171
 3296SOL    HW210788   0.638   6.295   2.205
 3297SOL     OW10789   3.060   2.448   5.805
 3297SOL    HW110790   2.983   2.398   5.844
 3297SOL    HW210791   3.142   2.390   5.807
 3298SOL     OW10792   5.982   3.063   3.375
 3298SOL    HW110793   6.050   2.997   3.343
 3298SOL    HW210794   5.898   3.015   3.399
 3299SOL     OW10795   1.583   0.404   4.872
 3299SOL    HW110796   1.519   0.452   4.813
 3299SOL    HW210797   1.568   0.305   4.864
 3300SOL     OW10798   6.443   0.238   4.305
 3300SOL    HW110799   6.362   0.217   4.361
 3300SOL    HW210800   6.510   0.287   4.361
 3301SOL     OW10801   0.546   3.702   3.001
 3301SOL    HW110802   0.584   3.794   2.995
 3301SOL    HW210803   0.567   3.664   3.091
 3302SOL     OW10804   0.874   5.096   3.974
 3302SOL    HW110805   0.873   5.024   3.904
 3302SOL    HW210806   0.962   5.144   3.970
 3303SOL     OW10807   3.801   3.973   3.317
 3303SOL    HW110808   3.790   3.934   3.408
 3303SOL    HW210809   3.874   3.924   3.268
 3304SOL     OW10810   0.711   6.424   4.211
 3304SOL    HW110811   0.710   6.517   4.245
 3304SOL    HW210812   0.758   6.421   4.122
 3305SOL     OW10813   1.567   1.251   1.815
 3305SOL    HW110814   1.597   1.158   1.792
 3305SOL    HW210815   1.632   1.293   1.878
 3306SOL     OW10816   1.290   3.728   2.471
 3306SOL    HW110817   1.262   3.762   2.561
 3306SOL    HW210818   1.257   3.634   2.460
 3307SOL     OW10819   0.211   5.740   0.638
 3307SOL    HW110820   0.282   5.736   0.709
 3307SOL    HW210821   0.138   5.802   0.668
 3308SOL     OW10822   4.350   5.764   0.727
 3308SOL    HW110823   4.313   5.855   0.744
 3308SOL    HW210824   4.427   5.747   0.788
 3309SOL     OW10825   0.649   5.351   2.784
 3309SOL    HW110826   0.649   5.294   2.701
 3309SOL    HW210827   0.716   5.424   2.773
 3310SOL     OW10828   1.712   6.568   1.284
 3310SOL    HW110829   1.757   6.481   1.302
 3310SOL    HW210830   1.685   6.572   1.188
 3311SOL     OW10831   3.754   6.071   0.631
 3311SOL    HW110832   3.854   6.070   0.621
 3311SOL    HW210833   3.717   5.984   0.598
 3312SOL     OW10834   2.233   3.754   0.124
 3312SOL    HW110835   2.237   3.670   0.179
 3312SOL    HW210836   2.299   3.748   0.050
 3313SOL     OW10837   6.829   5.568   4.435
 3313SOL    HW110838   6.901   5.537   4.374
 3313SOL    HW210839   6.743   5.577   4.384
 3314SOL     OW10840   0.708   3.330   6.287
 3314SOL    HW110841   0.675   3.273   6.212
 3314SOL    HW210842   0.807   3.319   6.296
 3315SOL     OW10843   0.071   2.939   3.133
 3315SOL    HW110844   0.010   2.963   3.058
 3315SOL    HW210845   0.019   2.892   3.205
 3316SOL     OW10846   4.284   0.448   0.541
 3316SOL    HW110847   4.244   0.453   0.632
 3316SOL    HW210848   4.240   0.515   0.481
 3317SOL     OW10849   4.490   2.389   1.470
 3317SOL    HW110850   4.516   2.485   1.473
 3317SOL    HW210851   4.505   2.347   1.559
 3318SOL     OW10852   2.587   5.560   4.897
 3318SOL    HW110853   2.535   5.521   4.973
 3318SOL    HW210854   2.679   5.520   4.895
 3319SOL     OW10855   0.361   5.446   5.308
 3319SOL    HW110856   0.310   5.530   5.325
 3319SOL    HW210857   0.448   5.468   5.265
 3320SOL     OW10858   6.924   1.677   6.247
 3320SOL    HW110859   6.833   1.645   6.222
 3320SOL    HW210860   6.930   1.687   6.347
 3321SOL     OW10861   3.225   4.032   3.778
 3321SOL    HW110862   3.217   4.017   3.680
 3321SOL    HW210863   3.154   3.981   3.826
 3322SOL     OW10864   4.355   2.011   1.541
 3322SOL    HW110865   4.287   2.072   1.582
 3322SOL    HW210866   4.308   1.937   1.493
 3323SOL     OW10867   2.530   5.364   0.290
 3323SOL    HW110868   2.535   5.458   0.259
 3323SOL    HW210869   2.619   5.319   0.277
 3324SOL     OW10870   0.636   2.639   0.726
 3324SOL    HW110871   0.718   2.638   0.669
 3324SOL    HW210872   0.658   2.679   0.815
 3325SOL     OW10873   1.995   3.350   0.413
 3325SOL    HW110874   2.013   3.398   0.327
 3325SOL    HW210875   1.995   3.252   0.397
 3326SOL     OW10876   6.505   0.299   2.085
 3326SOL    HW110877   6.524   0.321   2.181
 3326SOL    HW210878   6.535   0.206   2.066
 3327SOL     OW10879   3.082   6.956   1.666
 3327SOL    HW110880   3.046   6.961   1.760
 3327SOL    HW210881   3.181   6.942   1.669
 3328SOL     OW10882   4.525   0.858   3.143
 3328SOL    HW110883   4.512   0.828   3.048
 3328SOL    HW210884   4.440   0.847   3.193
 3329SOL     OW10885   4.890   1.073   5.182
 3329SOL    HW110886   4.924   1.056   5.275
 3329SOL    HW210887   4.916   1.165   5.153
 3330SOL     OW10888   6.754   5.358   3.148
 3330SOL    HW110889   6.751   5.294   3.072
 3330SOL    HW210890   6.722   5.448   3.117
 3331SOL     OW10891   2.050   3.507   2.768
 3331SOL    HW110892   2.097   3.432   2.719
 3331SOL    HW210893   1.951   3.495   2.759
 3332SOL     OW10894   3.327   4.973   1.093
 3332SOL    HW110895   3.246   4.990   1.036
 3332SOL    HW210896   3.408   5.010   1.048
 3333SOL     OW10897   2.484   3.094   1.657
 3333SOL    HW110898   2.503   3.156   1.580
 3333SOL    HW210899   2.558   3.027   1.665
 3334SOL     OW10900   2.218   2.214   1.960
 3334SOL    HW110901   2.210   2.156   2.041
 3334SOL    HW210902   2.134   2.268   1.950
 3335SOL     OW10903   3.853   4.607   5.617
 3335SOL    HW110904   3.844   4.576   5.712
 3335SOL    HW210905   3.772   4.661   5.592
 3336SOL     OW10906   5.209   5.318   4.247
 3336SOL    HW110907   5.161   5.385   4.191
 3336SOL    HW210908   5.267   5.365   4.313
 3337SOL     OW10909   3.285   3.365   3.035
 3337SOL    HW110910   3.266   3.355   3.133
 3337SOL    HW210911   3.383   3.377   3.022
 3338SOL     OW10912   2.661   2.726   1.571
 3338SOL    HW110913   2.598   2.708   1.496
 3338SOL    HW210914   2.696   2.639   1.607
 3339SOL     OW10915   1.899   0.164   6.185
 3339SOL    HW110916   1.903   0.209   6.274
 3339SOL    HW210917   1.893   0.065   6.197
 3340SOL     OW10918   4.003   0.527   4.103
 3340SOL    HW110919   3.920   0.474   4.085
 3340SOL    HW210920   3.998   0.566   4.194
 3341SOL     OW10921   1.299   3.925   2.930
 3341SOL    HW110922   1.394   3.894   2.930
 3341SOL    HW210923   1.251   3.887   2.851
 3342SOL     OW10924   6.978   1.102   2.660
 3342SOL    HW110925   6.936   1.049   2.734
 3342SOL    HW210926   0.048   1.116   2.680
 3343SOL     OW10927   4.488   5.212   0.025
 3343SOL    HW110928   4.391   5.222   0.047
 3343SOL    HW210929   4.543   5.252   0.099
 3344SOL     OW10930   0.861   3.125   2.136
 3344SOL    HW110931   0.767   3.159   2.137
 3344SOL    HW210932   0.891   3.109   2.230
 3345SOL     OW10933   6.258   5.502   6.748
 3345SOL    HW110934   6.289   5.595   6.770
 3345SOL    HW210935   6.246   5.494   6.649
 3346SOL     OW10936   1.285   1.132   6.998
 3346SOL    HW110937   1.256   1.221   6.963
 3346SOL    HW210938   1.317   1.143   0.066
 3347SOL     OW10939   0.157   3.957   6.011
 3347SOL    HW110940   0.256   3.939   6.006
 3347SOL    HW210941   0.109   3.870   6.027
 3348SOL     OW10942   3.082   4.044   5.898
 3348SOL    HW110943   3.035   3.971   5.849
 3348SOL    HW210944   3.171   4.012   5.929
 3349SOL     OW10945   1.634   5.206   3.491
 3349SOL    HW110946   1.583   5.154   3.561
 3349SOL    HW210947   1.732   5.194   3.507
 3350SOL     OW10948   1.828   4.489   4.422
 3350SOL    HW110949   1.797   4.432   4.346
 3350SOL    HW210950   1.887   4.561   4.387
 3351SOL     OW10951   5.294   0.869   1.632
 3351SOL    HW110952   5.262   0.961   1.656
 3351SOL    HW210953   5.387   0.875   1.597
 3352SOL     OW10954   5.943   0.731   6.849
 3352SOL    HW110955   6.041   0.711   6.842
 3352SOL    HW210956   5.909   0.762   6.760
 3353SOL     OW10957   4.067   0.403   1.133
 3353SOL    HW110958   4.032   0.497   1.129
 3353SOL    HW210959   4.027   0.357   1.212
 3354SOL     OW10960   2.935   4.177   6.099
 3354SOL    HW110961   2.996   4.126   6.039
 3354SOL    HW210962   2.918   4.268   6.060
 3355SOL     OW10963   1.776   0.579   4.734
 3355SOL    HW110964   1.728   0.648   4.788
 3355SOL    HW210965   1.764   0.489   4.777
 3356SOL     OW10966   1.586   0.875   6.050
 3356SOL    HW110967   1.597   0.963   6.096
 3356SOL    HW210968   1.597   0.801   6.116
 3357SOL     OW10969   2.985   3.163   2.197
 3357SOL    HW110970   3.058   3.193   2.258
 3357SOL    HW210971   2.933   3.091   2.241
 3358SOL     OW10972   6.914   0.780   1.650
 3358SOL    HW110973   6.826   0.804   1.609
 3358SOL    HW210974   6.985   0.841   1.615
 3359SOL     OW10975   0.763   6.939   4.703
 3359SOL    HW110976   0.691   6.962   4.638
 3359SOL    HW210977   0.752   6.844   4.733
 3360SOL     OW10978   1.428   3.510   4.553
 3360SOL    HW110979   1.452   3.600   4.515
 3360SOL    HW210980   1.334   3.488   4.528
 3361SOL     OW10981   6.083   6.840   4.882
 3361SOL    HW110982   6.161   6.778   4.874
 3361SOL    HW210983   6.110   6.932   4.857
 3362SOL     OW10984   3.746   0.416   3.799
 3362SOL    HW110985   3.673   0.474   3.762
 3362SOL    HW210986   3.804   0.383   3.724
 3363SOL     OW10987   5.468   4.040   0.216
 3363SOL    HW110988   5.478   3.941   0.204
 3363SOL    HW210989   5.405   4.058   0.291
 3364SOL     OW10990   1.726   3.469   3.541
 3364SOL    HW110991   1.727   3.566   3.518
 3364SOL    HW210992   1.807   3.446   3.595
 3365SOL     OW10993   1.749   4.019   3.473
 3365SOL    HW110994   1.719   4.080   3.547
 3365SOL    HW210995   1.799   3.942   3.511
 3366SOL     OW10996   6.143   3.904   4.784
 3366SOL    HW110997   6.080   3.854   4.723
 3366SOL    HW210998   6.157   3.852   4.868
 3367SOL     OW10999   3.846   4.005   3.775
 3367SOL    HW111000   3.834   4.091   3.725
 3367SOL    HW211001   3.889   3.938   3.716
 3368SOL     OW11002   1.851   0.905   1.966
 3368SOL    HW111003   1.868   0.841   1.891
 3368SOL    HW211004   1.926   0.972   1.971
 3369SOL     OW11005   4.968   2.044   1.075
 3369SOL    HW111006   4.930   2.131   1.043
 3369SOL    HW211007   4.893   1.979   1.088
 3370SOL     OW11008   0.463   5.525   2.719
 3370SOL    HW111009   0.496   5.592   2.787
 3370SOL    HW211010   0.512   5.439   2.732
 3371SOL     OW11011   2.173   2.813   2.279
 3371SOL    HW111012   2.260   2.770   2.303
 3371SOL    HW211013   2.175   2.842   2.184
 3372SOL     OW11014   6.345   3.813   2.644
 3372SOL    HW111015   6.305   3.905   2.642
 3372SOL    HW211016   6.351   3.777   2.550
 3373SOL     OW11017   6.921   3.385   1.863
 3373SOL    HW111018   6.931   3.285   1.869
 3373SOL    HW211019   6.836   3.407   1.814
 3374SOL     OW11020   0.545   6.180   4.170
 3374SOL    HW111021   0.573   6.267   4.212
 3374SOL    HW211022   0.592   6.105   4.215
 3375SOL     OW11023   0.357   5.823   6.071
 3375SOL    HW111024   0.402   5.736   6.092
 3375SOL    HW211025   0.356   5.837   5.972
 3376SOL     OW11026   3.126   3.121   3.843
 3376SOL    HW111027   3.135   3.066   3.926
 3376SOL    HW211028   3.200   3.098   3.780
 3377SOL     OW11029   6.780   4.856   3.685
 3377SOL    HW111030   6.759   4.897   3.774
 3377SOL    HW211031   6.726   4.902   3.614
 3378SOL     OW11032   0.986   6.439   0.146
 3378SOL    HW111033   0.992   6.522   0.202
 3378SOL    HW211034   1.032   6.363   0.193
 3379SOL     OW11035   6.421   4.041   3.680
 3379SOL    HW111036   6.322   4.039   3.669
 3379SOL    HW211037   6.458   3.949   3.672
 3380SOL     OW11038   2.452   4.895   0.240
 3380SOL    HW111039   2.395   4.973   0.214
 3380SOL    HW211040   2.404   4.810   0.216
 3381SOL     OW11041   2.027   3.668   6.357
 3381SOL    HW111042   1.974   3.669   6.272
 3381SOL    HW211043   2.124   3.673   6.335
 3382SOL     OW11044   6.666   3.627   0.894
 3382SOL    HW111045   6.680   3.641   0.992
 3382SOL    HW211046   6.656   3.715   0.848
 3383SOL     OW11047   4.362   4.971   0.370
 3383SOL    HW111048   4.311   4.974   0.284
 3383SOL    HW211049   4.353   5.058   0.417
 3384SOL     OW11050   3.064   4.036   6.455
 3384SOL    HW111051   3.118   3.954   6.470
 3384SOL    HW211052   3.053   4.086   6.541
 3385SOL     OW11053   6.977   2.242   4.063
 3385SOL    HW111054   0.018   2.297   4.112
 3385SOL    HW211055   6.971   2.151   4.105
 3386SOL     OW11056   0.198   4.942   4.871
 3386SOL    HW111057   0.115   4.994   4.890
 3386SOL    HW211058   0.245   4.920   4.956
 3387SOL     OW11059   6.493   0.976   3.110
 3387SOL    HW111060   6.493   0.922   3.026
 3387SOL    HW211061   6.495   0.914   3.189
 3388SOL     OW11062   6.740   3.676   1.159
 3388SOL    HW111063   6.753   3.774   1.174
 3388SOL    HW211064   6.802   3.624   1.218
 3389SOL     OW11065   5.372   6.060   6.879
 3389SOL    HW111066   5.380   5.969   6.920
 3389SOL    HW211067   5.433   6.123   6.927
 3390SOL     OW11068   2.856   5.934   6.220
 3390SOL    HW111069   2.799   6.009   6.187
 3390SOL    HW211070   2.804   5.849   6.220
 3391SOL     OW11071   5.749   3.717   3.918
 3391SOL    HW111072   5.670   3.657   3.904
 3391SOL    HW211073   5.724   3.790   3.982
 3392SOL     OW11074   5.159   0.352   5.932
 3392SOL    HW111075   5.095   0.358   5.855
 3392SOL    HW211076   5.248   0.385   5.903
 3393SOL     OW11077   4.410   6.145   0.457
 3393SOL    HW111078   4.467   6.063   0.468
 3393SOL    HW211079   4.317   6.125   0.488
 3394SOL     OW11080   2.464   4.965   1.315
 3394SOL    HW111081   2.443   4.934   1.408
 3394SOL    HW211082   2.492   5.061   1.318
 3395SOL     OW11083   2.282   6.712   3.478
 3395SOL    HW111084   2.289   6.633   3.539
 3395SOL    HW211085   2.336   6.695   3.395
 3396SOL     OW11086   4.414   0.709   4.019
 3396SOL    HW111087   4.372   0.719   4.110
 3396SOL    HW211088   4.498   0.655   4.027
 3397SOL     OW11089   2.390   5.826   6.857
 3397SOL    HW111090   2.333   5.894   6.812
 3397SOL    HW211091   2.383   5.837   6.957
 3398SOL     OW11092   6.194   2.586   4.807
 3398SOL    HW111093   6.155   2.627   4.725
 3398SOL    HW211094   6.294   2.580   4.797
 3399SOL     OW11095   6.665   6.036   1.775
 3399SOL    HW111096   6.610   6.115   1.803
 3399SOL    HW211097   6.698   5.988   1.856
 3400SOL     OW11098   4.170   2.800   5.816
 3400SOL    HW111099   4.174   2.875   5.750
 3400SOL    HW211100   4.263   2.777   5.845
 3401SOL     OW11101   6.029   4.129   5.785
 3401SOL    HW111102   6.127   4.116   5.766
 3401SOL    HW211103   5.992   4.197   5.723
 3402SOL     OW11104   6.647   3.208   0.957
 3402SOL    HW111105   6.710   3.229   1.032
 3402SOL    HW211106   6.622   3.292   0.910
 3403SOL     OW11107   5.481   6.795   6.880
 3403SOL    HW111108   5.535   6.879   6.889
 3403SOL    HW211109   5.455   6.782   6.785
 3404SOL     OW11110   5.221   4.350   4.704
 3404SOL    HW111111   5.204   4.447   4.688
 3404SOL    HW211112   5.307   4.338   4.754
 3405SOL     OW11113   4.924   6.364   0.171
 3405SOL    HW111114   4.964   6.308   0.099
 3405SOL    HW211115   4.971   6.345   0.257
 3406SOL     OW11116   2.577   5.416   1.678
 3406SOL    HW111117   2.574   5.322   1.645
 3406SOL    HW211118   2.505   5.470   1.634
 3407SOL     OW11119   0.776   3.882   6.784
 3407SOL    HW111120   0.700   3.892   6.720
 3407SOL    HW211121   0.860   3.917   6.741
 3408SOL     OW11122   5.159   0.727   3.525
 3408SOL    HW111123   5.106   0.667   3.584
 3408SOL    HW211124   5.246   0.749   3.570
 3409SOL     OW11125   4.421   0.714   0.998
 3409SOL    HW111126   4.387   0.755   1.082
 3409SOL    HW211127   4.521   0.715   0.997
 3410SOL     OW11128   6.060   0.218   3.249
 3410SOL    HW111129   5.961   0.205   3.247
 3410SOL    HW211130   6.081   0.316   3.244
 3411SOL     OW11131   6.097   3.295   6.263
 3411SOL    HW111132   6.059   3.387   6.253
 3411SOL    HW211133   6.187   3.301   6.305
 3412SOL     OW11134   5.541   3.367   1.679
 3412SOL    HW111135   5.474   3.297   1.656
 3412SOL    HW211136   5.598   3.386   1.599
 3413SOL     OW11137   6.844   1.130   0.214
 3413SOL    HW111138   6.900   1.060   0.258
 3413SOL    HW211139   6.828   1.205   0.279
 3414SOL     OW11140   3.112   4.247   1.287
 3414SOL    HW111141   3.027   4.297   1.272
 3414SOL    HW211142   3.116   4.168   1.226
 3415SOL     OW11143   2.257   1.307   6.030
 3415SOL    HW111144   2.346   1.296   6.075
 3415SOL    HW211145   2.208   1.384   6.071
 3416SOL     OW11146   6.486   6.942   6.620
 3416SOL    HW111147   6.406   6.894   6.658
 3416SOL    HW211148   6.523   6.890   6.544
 3417SOL     OW11149   6.150   6.364   3.325
 3417SOL    HW111150   6.072   6.302   3.335
 3417SOL    HW211151   6.204   6.364   3.409
 3418SOL     OW11152   3.935   5.170   1.055
 3418SOL    HW111153   3.914   5.083   1.098
 3418SOL    HW211154   4.012   5.213   1.103
 3419SOL     OW11155   2.683   5.387   5.656
 3419SOL    HW111156   2.728   5.426   5.736
 3419SOL    HW211157   2.615   5.320   5.686
 3420SOL     OW11158   4.808   1.781   2.552
 3420SOL    HW111159   4.770   1.692   2.577
 3420SOL    HW211160   4.876   1.809   2.619
 3421SOL     OW11161   0.420   2.212   5.061
 3421SOL    HW111162   0.345   2.147   5.064
 3421SOL    HW211163   0.502   2.167   5.026
 3422SOL     OW11164   2.087   6.095   0.980
 3422SOL    HW111165   2.080   6.193   1.001
 3422SOL    HW211166   2.137   6.084   0.894
 3423SOL     OW11167   1.480   4.824   5.390
 3423SOL    HW111168   1.465   4.836   5.488
 3423SOL    HW211169   1.448   4.733   5.363
 3424SOL     OW11170   5.041   1.439   2.041
 3424SOL    HW111171   5.020   1.424   1.945
 3424SOL    HW211172   4.970   1.496   2.082
 3425SOL     OW11173   6.346   3.378   6.383
 3425SOL    HW111174   6.438   3.340   6.376
 3425SOL    HW211175   6.341   3.438   6.463
 3426SOL     OW11176   6.612   3.088   6.384
 3426SOL    HW111177   6.570   3.094   6.474
 3426SOL    HW211178   6.660   3.173   6.363
 3427SOL     OW11179   0.732   2.147   0.446
 3427SOL    HW111180   0.694   2.056   0.462
 3427SOL    HW211181   0.820   2.155   0.494
 3428SOL     OW11182   4.211   6.586   5.069
 3428SOL    HW111183   4.145   6.583   5.144
 3428SOL    HW211184   4.221   6.680   5.036
 3429SOL     OW11185   5.290   6.948   1.499
 3429SOL    HW111186   5.369   6.970   1.555
 3429SOL    HW211187   5.296   6.852   1.470
 3430SOL     OW11188   2.212   4.590   5.639
 3430SOL    HW111189   2.250   4.523   5.576
 3430SOL    HW211190   2.126   4.557   5.677
 3431SOL     OW11191   0.640   4.877   2.612
 3431SOL    HW111192   0.690   4.797   2.579
 3431SOL    HW211193   0.567   4.900   2.547
 3432SOL     OW11194   0.833   4.262   0.101
 3432SOL    HW111195   0.784   4.200   0.041
 3432SOL    HW211196   0.839   4.353   0.059
 3433SOL     OW11197   3.071   1.006   6.760
 3433SOL    HW111198   2.990   0.981   6.706
 3433SOL    HW211199   3.153   0.983   6.708
 3434SOL     OW11200   3.592   2.582   1.766
 3434SOL    HW111201   3.495   2.559   1.780
 3434SOL    HW211202   3.649   2.510   1.807
 3435SOL     OW11203   2.167   1.440   0.916
 3435SOL    HW111204   2.099   1.433   0.842
 3435SOL    HW211205   2.177   1.350   0.960
 3436SOL     OW11206   3.320   6.982   6.021
 3436SOL    HW111207   3.281   6.901   6.064
 3436SOL    HW211208   3.390   6.955   5.955
 3437SOL     OW11209   1.326   0.119   6.148
 3437SOL    HW111210   1.322   0.217   6.130
 3437SOL    HW211211   1.420   0.087   6.138
 3438SOL     OW11212   1.991   3.898   0.907
 3438SOL    HW111213   2.026   3.926   0.817
 3438SOL    HW211214   1.945   3.976   0.950
 3439SOL     OW11215   2.357   5.622   1.320
 3439SOL    HW111216   2.272   5.673   1.312
 3439SOL    HW211217   2.397   5.637   1.410
 3440SOL     OW11218   3.682   4.022   5.205
 3440SOL    HW111219   3.671   3.956   5.279
 3440SOL    HW211220   3.732   4.102   5.239
 3441SOL     OW11221   5.418   4.808   6.210
 3441SOL    HW111222   5.460   4.718   6.197
 3441SOL    HW211223   5.353   4.803   6.285
 3442SOL     OW11224   2.740   3.513   1.103
 3442SOL    HW111225   2.692   3.459   1.034
 3442SOL    HW211226   2.838   3.515   1.081
 3443SOL     OW11227   0.316   6.088   2.304
 3443SOL    HW111228   0.337   5.992   2.290
 3443SOL    HW211229   0.401   6.139   2.319
 3444SOL     OW11230   6.046   4.002   6.152
 3444SOL    HW111231   6.091   4.053   6.079
 3444SOL    HW211232   6.015   4.065   6.223
 3445SOL     OW11233   6.491   4.664   3.898
 3445SOL    HW111234   6.474   4.753   3.855
 3445SOL    HW211235   6.516   4.677   3.994
 3446SOL     OW11236   4.474   0.977   1.506
 3446SOL    HW111237   4.419   0.924   1.442
 3446SOL    HW211238   4.467   1.074   1.483
 3447SOL     OW11239   5.282   0.743   6.351
 3447SOL    HW111240   5.293   0.805   6.273
 3447SOL    HW211241   5.330   0.657   6.332
 3448SOL     OW11242   1.851   4.723   5.067
 3448SOL    HW111243   1.760   4.680   5.067
 3448SOL    HW211244   1.850   4.799   5.132
 3449SOL     OW11245   0.028   4.538   5.804
 3449SOL    HW111246   7.025   4.569   5.714
 3449SOL    HW211247   0.030   4.439   5.807
 3450SOL     OW11248   2.389   6.565   1.319
 3450SOL    HW111249   2.413   6.501   1.392
 3450SOL    HW211250   2.440   6.650   1.331
 3451SOL     OW11251   2.043   1.545   1.534
 3451SOL    HW111252   2.122   1.571   1.479
 3451SOL    HW211253   2.055   1.579   1.628
 3452SOL     OW11254   4.534   1.173   4.792
 3452SOL    HW111255   4.549   1.076   4.809
 3452SOL    HW211256   4.437   1.191   4.781
 3453SOL     OW11257   3.991   6.532   6.566
 3453SOL    HW111258   3.941   6.607   6.609
 3453SOL    HW211259   4.039   6.566   6.485
 3454SOL     OW11260   6.951   2.820   1.156
 3454SOL    HW111261   0.020   2.837   1.135
 3454SOL    HW211262   6.938   2.820   1.255
 3455SOL     OW11263   0.347   3.230   5.922
 3455SOL    HW111264   0.309   3.147   5.881
 3455SOL    HW211265   0.362   3.299   5.850
 3456SOL     OW11266   5.304   5.462   3.542
 3456SOL    HW111267   5.326   5.475   3.639
 3456SOL    HW211268   5.325   5.367   3.516
 3457SOL     OW11269   3.166   4.216   6.254
 3457SOL    HW111270   3.115   4.140   6.292
 3457SOL    HW211271   3.161   4.213   6.154
 3458SOL     OW11272   4.411   1.162   2.260
 3458SOL    HW111273   4.441   1.114   2.177
 3458SOL    HW211274   4.427   1.103   2.339
 3459SOL     OW11275   5.535   5.995   2.433
 3459SOL    HW111276   5.496   6.086   2.448
 3459SOL    HW211277   5.609   6.000   2.366
 3460SOL     OW11278   3.997   1.765   5.027
 3460SOL    HW111279   4.096   1.752   5.032
 3460SOL    HW211280   3.977   1.863   5.020
 3461SOL     OW11281   5.398   4.913   4.956
 3461SOL    HW111282   5.389   4.819   4.987
 3461SOL    HW211283   5.337   4.928   4.877
 3462SOL     OW11284   1.335   3.356   6.422
 3462SOL    HW111285   1.275   3.349   6.501
 3462SOL    HW211286   1.411   3.417   6.443
 3463SOL     OW11287   5.263   4.099   0.025
 3463SOL    HW111288   5.200   4.129   0.097
 3463SOL    HW211289   5.353   4.082   0.065
 3464SOL     OW11290   0.262   4.357   4.615
 3464SOL    HW111291   0.255   4.261   4.643
 3464SOL    HW211292   0.170   4.394   4.598
 3465SOL     OW11293   0.961   1.496   2.187
 3465SOL    HW111294   0.941   1.484   2.089
 3465SOL    HW211295   1.042   1.442   2.211
 3466SOL     OW11296   6.714   3.383   5.555
 3466SOL    HW111297   6.733   3.341   5.467
 3466SOL    HW211298   6.790   3.364   5.618
 3467SOL     OW11299   2.040   2.705   6.302
 3467SOL    HW111300   2.002   2.795   6.280
 3467SOL    HW211301   1.970   2.650   6.348
 3468SOL     OW11302   4.176   6.589   2.913
 3468SOL    HW111303   4.215   6.518   2.972
 3468SOL    HW211304   4.149   6.668   2.968
 3469SOL     OW11305   4.999   3.597   1.890
 3469SOL    HW111306   4.967   3.503   1.898
 3469SOL    HW211307   5.070   3.602   1.819
 3470SOL     OW11308   6.824   5.574   1.032
 3470SOL    HW111309   6.784   5.515   0.962
 3470SOL    HW211310   6.766   5.572   1.114
 3471SOL     OW11311   4.410   0.323   4.474
 3471SOL    HW111312   4.385   0.227   4.472
 3471SOL    HW211313   4.509   0.332   4.477
 3472SOL     OW11314   4.258   1.188   5.009
 3472SOL    HW111315   4.297   1.177   5.100
 3472SOL    HW211316   4.287   1.112   4.951
 3473SOL     OW11317   4.563   0.134   4.170
 3473SOL    HW111318   4.472   0.111   4.138
 3473SOL    HW211319   4.631   0.108   4.100
 3474SOL     OW11320   5.115   4.247   0.886
 3474SOL    HW111321   5.140   4.340   0.860
 3474SOL    HW211322   5.121   4.238   0.986
 3475SOL     OW11323   1.904   6.394   4.714
 3475SOL    HW111324   1.925   6.452   4.636
 3475SOL    HW211325   1.806   6.398   4.734
 3476SOL     OW11326   4.828   1.261   4.347
 3476SOL    HW111327   4.788   1.277   4.257
 3476SOL    HW211328   4.825   1.346   4.400
 3477SOL     OW11329   4.450   5.389   2.060
 3477SOL    HW111330   4.498   5.473   2.038
 3477SOL    HW211331   4.407   5.397   2.150
 3478SOL     OW11332   4.492   4.934   6.745
 3478SOL    HW111333   4.496   4.859   6.679
 3478SOL    HW211334   4.521   4.901   6.834
 3479SOL     OW11335   1.318   6.946   1.694
 3479SOL    HW111336   1.324   7.010   1.618
 3479SOL    HW211337   1.296   6.855   1.659
 3480SOL     OW11338   1.323   1.078   3.956
 3480SOL    HW111339   1.253   1.134   4.001
 3480SOL    HW211340   1.400   1.065   4.017
 3481SOL     OW11341   2.436   0.081   6.816
 3481SOL    HW111342   2.491   0.164   6.810
 3481SOL    HW211343   2.468   0.015   6.747
 3482SOL     OW11344   0.853   1.839   1.323
 3482SOL    HW111345   0.807   1.859   1.236
 3482SOL    HW211346   0.850   1.921   1.381
 3483SOL     OW11347   4.271   1.656   0.603
 3483SOL    HW111348   4.179   1.618   0.597
 3483SOL    HW211349   4.284   1.698   0.693
 3484SOL     OW11350   3.028   3.522   3.634
 3484SOL    HW111351   2.981   3.529   3.546
 3484SOL    HW211352   3.036   3.426   3.660
 3485SOL     OW11353   6.692   1.598   4.746
 3485SOL    HW111354   6.660   1.641   4.830
 3485SOL    HW211355   6.700   1.667   4.674
 3486SOL     OW11356   5.035   1.633   3.338
 3486SOL    HW111357   5.048   1.689   3.256
 3486SOL    HW211358   5.110   1.566   3.343
 3487SOL     OW11359   0.279   0.391   6.989
 3487SOL    HW111360   0.235   0.459   0.021
 3487SOL    HW211361   0.373   0.420   6.971
 3488SOL     OW11362   6.053   3.169   3.609
 3488SOL    HW111363   6.027   3.115   3.529
 3488SOL    HW211364   5.974   3.179   3.670
 3489SOL     OW11365   2.254   6.629   0.257
 3489SOL    HW111366   2.327   6.583   0.206
 3489SOL    HW211367   2.258   6.727   0.241
 3490SOL     OW11368   4.075   2.486   1.502
 3490SOL    HW111369   4.126   2.420   1.447
 3490SOL    HW211370   4.006   2.437   1.557
 3491SOL     OW11371   6.707   2.734   5.166
 3491SOL    HW111372   6.695   2.656   5.228
 3491SOL    HW211373   6.787   2.786   5.193
 3492SOL     OW11374   5.621   4.973   6.128
 3492SOL    HW111375   5.564   4.892   6.140
 3492SOL    HW211376   5.714   4.953   6.158
 3493SOL     OW11377   0.194   4.598   1.046
 3493SOL    HW111378   0.169   4.694   1.040
 3493SOL    HW211379   0.271   4.587   1.110
 3494SOL     OW11380   2.678   5.957   1.072
 3494SOL    HW111381   2.652   6.042   1.027
 3494SOL    HW211382   2.774   5.961   1.100
 3495SOL     OW11383   5.220   4.624   0.831
 3495SOL    HW111384   5.201   4.583   0.742
 3495SOL    HW211385   5.133   4.649   0.875
 3496SOL     OW11386   1.109   4.427   0.199
 3496SOL    HW111387   1.209   4.434   0.196
 3496SOL    HW211388   1.080   4.334   0.176
 3497SOL     OW11389   4.344   6.320   3.633
 3497SOL    HW111390   4.377   6.408   3.667
 3497SOL    HW211391   4.244   6.323   3.625
 3498SOL     OW11392   1.863   1.788   1.313
 3498SOL    HW111393   1.777   1.742   1.338
 3498SOL    HW211394   1.857   1.819   1.218
 3499SOL     OW11395   5.999   3.706   4.629
 3499SOL    HW111396   6.047   3.738   4.548
 3499SOL    HW211397   5.964   3.613   4.612
 3500SOL     OW11398   6.793   2.727   0.698
 3500SOL    HW111399   6.812   2.789   0.774
 3500SOL    HW211400   6.713   2.759   0.648
 3501SOL     OW11401   0.796   4.382   4.176
 3501SOL    HW111402   0.823   4.309   4.113
 3501SOL    HW211403   0.833   4.363   4.267
 3502SOL     OW11404   1.106   4.063   1.905
 3502SOL    HW111405   1.095   4.105   1.815
 3502SOL    HW211406   1.204   4.054   1.925
 3503SOL     OW11407   3.722   6.519   3.913
 3503SOL    HW111408   3.722   6.441   3.850
 3503SOL    HW211409   3.815   6.535   3.946
 3504SOL     OW11410   2.145   2.986   2.570
 3504SOL    HW111411   2.182   2.982   2.477
 3504SOL    HW211412   2.050   2.956   2.569
 3505SOL     OW11413   4.224   5.711   5.262
 3505SOL    HW111414   4.314   5.668   5.250
 3505SOL    HW211415   4.153   5.650   5.228
 3506SOL     OW11416   5.697   4.908   2.265
 3506SOL    HW111417   5.777   4.912   2.325
 3506SOL    HW211418   5.682   4.997   2.223
 3507SOL     OW11419   0.316   0.660   6.450
 3507SOL    HW111420   0.386   0.633   6.384
 3507SOL    HW211421   0.246   0.589   6.455
 3508SOL     OW11422   6.592   3.440   0.533
 3508SOL    HW111423   6.662   3.397   0.475
 3508SOL    HW211424   6.618   3.428   0.629
 3509SOL     OW11425   6.648   0.008   0.915
 3509SOL    HW111426   6.608   0.046   0.999
 3509SOL    HW211427   6.648   6.935   0.921
 3510SOL     OW11428   1.728   2.591   1.809
 3510SOL    HW111429   1.718   2.512   1.748
 3510SOL    HW211430   1.656   2.589   1.879
 3511SOL     OW11431   0.741   0.802   5.411
 3511SOL    HW111432   0.804   0.783   5.487
 3511SOL    HW211433   0.770   0.750   5.331
 3512SOL     OW11434   2.968   3.397   0.958
 3512SOL    HW111435   2.947   3.300   0.970
 3512SOL    HW211436   3.023   3.429   1.036
 3513SOL     OW11437   6.019   4.245   1.630
 3513SOL    HW111438   6.086   4.256   1.703
 3513SOL    HW211439   5.929   4.272   1.663
 3514SOL     OW11440   1.720   6.832   1.863
 3514SOL    HW111441   1.794   6.771   1.834
 3514SOL    HW211442   1.647   6.778   1.904
 3515SOL     OW11443   3.450   6.164   2.684
 3515SOL    HW111444   3.428   6.185   2.589
 3515SOL    HW211445   3.515   6.088   2.687
 3516SOL     OW11446   3.662   1.011   0.473
 3516SOL    HW111447   3.602   1.091   0.468
 3516SOL    HW211448   3.733   1.019   0.403
 3517SOL     OW11449   1.201   0.577   6.601
 3517SOL    HW111450   1.239   0.490   6.630
 3517SOL    HW211451   1.128   0.561   6.534
 3518SOL     OW11452   4.732   3.358   5.604
 3518SOL    HW111453   4.662   3.289   5.587
 3518SOL    HW211454   4.703   3.417   5.679
 3519SOL     OW11455   2.896   6.449   0.853
 3519SOL    HW111456   2.969   6.509   0.821
 3519SOL    HW211457   2.900   6.441   0.952
 3520SOL     OW11458   3.509   5.611   1.679
 3520SOL    HW111459   3.582   5.543   1.681
 3520SOL    HW211460   3.503   5.656   1.768
 3521SOL     OW11461   5.330   2.188   6.560
 3521SOL    HW111462   5.379   2.184   6.648
 3521SOL    HW211463   5.395   2.175   6.486
 3522SOL     OW11464   2.933   5.610   1.418
 3522SOL    HW111465   2.922   5.545   1.493
 3522SOL    HW211466   2.977   5.565   1.341
 3523SOL     OW11467   2.430   5.154   5.494
 3523SOL    HW111468   2.497   5.204   5.439
 3523SOL    HW211469   2.478   5.090   5.555
 3524SOL     OW11470   2.509   6.822   1.327
 3524SOL    HW111471   2.486   6.908   1.283
 3524SOL    HW211472   2.581   6.776   1.275
 3525SOL     OW11473   1.813   3.306   2.537
 3525SOL    HW111474   1.909   3.281   2.552
 3525SOL    HW211475   1.764   3.227   2.499
 3526SOL     OW11476   2.834   6.759   3.178
 3526SOL    HW111477   2.921   6.746   3.132
 3526SOL    HW211478   2.779   6.825   3.127
 3527SOL     OW11479   5.098   3.130   5.831
 3527SOL    HW111480   5.043   3.200   5.877
 3527SOL    HW211481   5.056   3.040   5.844
 3528SOL     OW11482   1.269   6.891   4.135
 3528SOL    HW111483   1.192   6.863   4.077
 3528SOL    HW211484   1.313   6.971   4.095
 3529SOL     OW11485   3.450   6.043   6.942
 3529SOL    HW111486   3.401   6.092   6.869
 3529SOL    HW211487   3.490   5.959   6.904
 3530SOL     OW11488   1.345   5.532   3.040
 3530SOL    HW111489   1.412   5.510   2.969
 3530SOL    HW211490   1.279   5.599   3.006
 3531SOL     OW11491   4.747   3.623   6.729
 3531SOL    HW111492   4.689   3.586   6.801
 3531SOL    HW211493   4.734   3.722   6.723
 3532SOL     OW11494   1.946   6.860   0.445
 3532SOL    HW111495   1.867   6.805   0.418
 3532SOL    HW211496   1.917   6.935   0.504
 3533SOL     OW11497   1.034   1.205   4.117
 3533SOL    HW111498   1.111   1.250   4.161
 3533SOL    HW211499   0.961   1.190   4.184
 3534SOL     OW11500   5.076   0.542   4.490
 3534SOL    HW111501   5.069   0.447   4.521
 3534SOL    HW211502   5.160   0.583   4.524
 3535SOL     OW11503   4.044   6.173   6.890
 3535SOL    HW111504   3.971   6.133   6.835
 3535SOL    HW211505   4.006   6.243   6.950
 3536SOL     OW11506   1.198   3.875   3.182
 3536SOL    HW111507   1.167   3.963   3.218
 3536SOL    HW211508   1.219   3.885   3.084
 3537SOL     OW11509   1.958   5.053   0.882
 3537SOL    HW111510   1.956   5.133   0.941
 3537SOL    HW211511   2.042   5.001   0.899
 3538SOL     OW11512   3.105   1.087   3.489
 3538SOL    HW111513   3.122   0.990   3.501
 3538SOL    HW211514   3.128   1.114   3.395
 3539SOL     OW11515   5.124   6.180   6.665
 3539SOL    HW111516   5.208   6.137   6.631
 3539SOL    HW211517   5.049   6.163   6.601
 3540SOL     OW11518   3.190   4.302   5.962
 3540SOL    HW111519   3.180   4.396   5.994
 3540SOL    HW211520   3.109   4.277   5.909
 3541SOL     OW11521   2.165   3.026   1.299
 3541SOL    HW111522   2.229   2.956   1.267
 3541SOL    HW211523   2.117   2.992   1.381
 3542SOL     OW11524   5.584   1.469   6.808
 3542SOL    HW111525   5.670   1.433   6.844
 3542SOL    HW211526   5.539   1.398   6.753
 3543SOL     OW11527   0.811   2.177   3.906
 3543SOL    HW111528   0.820   2.276   3.895
 3543SOL    HW211529   0.823   2.133   3.817
 3544SOL     OW11530   3.153   4.206   0.057
 3544SOL    HW111531   3.210   4.148   7.025
 3544SOL    HW211532   3.164   4.302   0.031
 3545SOL     OW11533   3.986   0.193   0.977
 3545SOL    HW111534   3.956   0.111   1.025
 3545SOL    HW211535   4.027   0.257   1.042
 3546SOL     OW11536   6.424   4.127   2.652
 3546SOL    HW111537   6.479   4.044   2.648
 3546SOL    HW211538   6.331   4.105   2.680
 3547SOL     OW11539   1.083   3.750   4.610
 3547SOL    HW111540   1.015   3.761   4.682
 3547SOL    HW211541   1.084   3.832   4.552
 3548SOL     OW11542   5.847   0.655   5.132
 3548SOL    HW111543   5.897   0.720   5.189
 3548SOL    HW211544   5.863   0.677   5.035
 3549SOL     OW11545   2.826   6.464   0.158
 3549SOL    HW111546   2.900   6.401   0.136
 3549SOL    HW211547   2.753   6.454   0.091
 3550SOL     OW11548   5.224   1.169   5.138
 3550SOL    HW111549   5.282   1.167   5.057
 3550SOL    HW211550   5.148   1.233   5.123
 3551SOL     OW11551   4.644   2.133   4.542
 3551SOL    HW111552   4.682   2.056   4.491
 3551SOL    HW211553   4.550   2.150   4.512
 3552SOL     OW11554   6.372   6.966   3.670
 3552SOL    HW111555   6.353   6.954   3.572
 3552SOL    HW211556   6.347   0.031   3.698
 3553SOL     OW11557   6.056   5.719   6.875
 3553SOL    HW111558   6.042   5.625   6.844
 3553SOL    HW211559   6.091   5.774   6.800
 3554SOL     OW11560   5.758   4.324   0.018
 3554SOL    HW111561   5.772   4.230   7.011
 3554SOL    HW211562   5.672   4.359   7.010
 3555SOL     OW11563   3.109   1.629   4.775
 3555SOL    HW111564   3.073   1.711   4.818
 3555SOL    HW211565   3.204   1.643   4.748
 3556SOL     OW11566   5.684   0.759   0.002
 3556SOL    HW111567   5.757   0.761   6.960
 3556SOL    HW211568   5.657   0.852   0.024
 3557SOL     OW11569   5.792   0.407   1.358
 3557SOL    HW111570   5.726   0.476   1.328
 3557SOL    HW211571   5.879   0.451   1.380
 3558SOL     OW11572   3.627   5.785   2.308
 3558SOL    HW111573   3.580   5.837   2.379
 3558SOL    HW211574   3.643   5.843   2.228
 3559SOL     OW11575   4.648   0.006   6.188
 3559SOL    HW111576   4.692   0.089   6.222
 3559SOL    HW211577   4.594   6.992   6.262
 3560SOL     OW11578   2.050   5.522   4.139
 3560SOL    HW111579   2.088   5.430   4.147
 3560SOL    HW211580   2.009   5.533   4.048
 3561SOL     OW11581   4.449   3.529   5.331
 3561SOL    HW111582   4.409   3.616   5.301
 3561SOL    HW211583   4.532   3.511   5.279
 3562SOL     OW11584   2.158   1.802   6.558
 3562SOL    HW111585   2.086   1.832   6.496
 3562SOL    HW211586   2.242   1.854   6.539
 3563SOL     OW11587   6.238   2.872   6.169
 3563SOL    HW111588   6.277   2.949   6.219
 3563SOL    HW211589   6.170   2.825   6.226
 3564SOL     OW11590   5.945   3.427   2.121
 3564SOL    HW111591   5.857   3.419   2.168
 3564SOL    HW211592   5.930   3.422   2.022
 3565SOL     OW11593   3.885   5.915   4.701
 3565SOL    HW111594   3.841   5.905   4.790
 3565SOL    HW211595   3.930   5.829   4.677
 3566SOL     OW11596   1.029   6.760   4.992
 3566SOL    HW111597   0.984   6.834   4.942
 3566SOL    HW211598   1.114   6.793   5.032
 3567SOL     OW11599   7.003   2.956   6.386
 3567SOL    HW111600   0.009   2.900   6.462
 3567SOL    HW211601   6.965   2.896   6.315
 3568SOL     OW11602   5.385   4.125   6.298
 3568SOL    HW111603   5.434   4.042   6.324
 3568SOL    HW211604   5.370   4.183   6.378
 3569SOL     OW11605   1.386   0.768   4.357
 3569SOL    HW111606   1.300   0.820   4.360
 3569SOL    HW211607   1.366   0.671   4.365
 3570SOL     OW11608   5.304   1.711   3.644
 3570SOL    HW111609   5.385   1.715   3.702
 3570SOL    HW211610   5.302   1.792   3.585
 3571SOL     OW11611   6.362   6.552   5.325
 3571SOL    HW111612   6.389   6.488   5.396
 3571SOL    HW211613   6.332   6.638   5.367
 3572SOL     OW11614   6.566   5.916   4.699
 3572SOL    HW111615   6.522   5.895   4.612
 3572SOL    HW211616   6.499   5.953   4.763
 3573SOL     OW11617   1.382   1.853   1.858
 3573SOL    HW111618   1.324   1.776   1.829
 3573SOL    HW211619   1.333   1.939   1.841
 3574SOL     OW11620   6.333   3.522   0.254
 3574SOL    HW111621   6.348   3.532   0.352
 3574SOL    HW211622   6.421   3.527   0.206
 3575SOL     OW11623   6.182   5.821   1.821
 3575SOL    HW111624   6.139   5.910   1.808
 3575SOL    HW211625   6.121   5.761   1.873
 3576SOL     OW11626   0.959   1.926   6.389
 3576SOL    HW111627   1.034   1.886   6.336
 3576SOL    HW211628   0.963   2.025   6.381
 3577SOL     OW11629   1.660   2.788   0.301
 3577SOL    HW111630   1.589   2.857   0.291
 3577SOL    HW211631   1.670   2.736   0.216
 3578SOL     OW11632   3.545   5.079   0.990
 3578SOL    HW111633   3.552   5.177   1.011
 3578SOL    HW211634   3.575   5.063   0.896
 3579SOL     OW11635   0.446   4.166   4.948
 3579SOL    HW111636   0.486   4.257   4.958
 3579SOL    HW211637   0.377   4.167   4.876
 3580SOL     OW11638   6.976   2.052   1.992
 3580SOL    HW111639   6.995   2.144   2.027
 3580SOL    HW211640   7.022   1.985   2.051
 3581SOL     OW11641   6.091   0.507   3.309
 3581SOL    HW111642   6.024   0.553   3.368
 3581SOL    HW211643   6.183   0.538   3.333
 3582SOL     OW11644   0.298   0.494   6.091
 3582SOL    HW111645   0.265   0.575   6.043
 3582SOL    HW211646   0.343   0.521   6.176
 3583SOL     OW11647   2.251   5.567   0.195
 3583SOL    HW111648   2.203   5.479   0.197
 3583SOL    HW211649   2.332   5.559   0.137
 3584SOL     OW11650   5.145   6.999   5.609
 3584SOL    HW111651   5.114   0.012   5.695
 3584SOL    HW211652   5.231   0.015   5.581
 3585SOL     OW11653   2.816   4.722   3.809
 3585SOL    HW111654   2.737   4.660   3.805
 3585SOL    HW211655   2.818   4.766   3.899
 3586SOL     OW11656   6.691   2.119   6.373
 3586SOL    HW111657   6.637   2.201   6.350
 3586SOL    HW211658   6.689   2.056   6.296
 3587SOL     OW11659   4.128   0.129   6.120
 3587SOL    HW111660   4.202   0.170   6.173
 3587SOL    HW211661   4.151   0.133   6.022
 3588SOL     OW11662   2.336   1.620   5.655
 3588SOL    HW111663   2.337   1.695   5.722
 3588SOL    HW211664   2.420   1.567   5.662
 3589SOL     OW11665   3.162   0.488   5.164
 3589SOL    HW111666   3.176   0.394   5.193
 3589SOL    HW211667   3.158   0.548   5.244
 3590SOL     OW11668   1.717   5.127   6.664
 3590SOL    HW111669   1.628   5.087   6.642
 3590SOL    HW211670   1.749   5.181   6.586
 3591SOL     OW11671   4.918   2.292   6.152
 3591SOL    HW111672   4.980   2.299   6.230
 3591SOL    HW211673   4.890   2.384   6.123
 3592SOL     OW11674   4.929   2.877   1.916
 3592SOL    HW111675   4.997   2.908   1.983
 3592SOL    HW211676   4.837   2.895   1.951
 3593SOL     OW11677   1.518   4.828   3.266
 3593SOL    HW111678   1.442   4.888   3.289
 3593SOL    HW211679   1.503   4.786   3.176
 3594SOL     OW11680   3.178   0.950   4.220
 3594SOL    HW111681   3.184   1.024   4.288
 3594SOL    HW211682   3.265   0.900   4.218
 3595SOL     OW11683   2.667   6.095   5.149
 3595SOL    HW111684   2.647   6.049   5.063
 3595SOL    HW211685   2.682   6.193   5.132
 3596SOL     OW11686   6.709   3.011   3.147
 3596SOL    HW111687   6.772   2.967   3.211
 3596SOL    HW211688   6.617   2.977   3.163
 3597SOL     OW11689   3.982   5.999   3.224
 3597SOL    HW111690   4.047   5.923   3.225
 3597SOL    HW211691   3.894   5.968   3.261
 3598SOL     OW11692   0.846   0.158   0.259
 3598SOL    HW111693   0.879   0.104   0.337
 3598SOL    HW211694   0.896   0.133   0.177
 3599SOL     OW11695   0.016   1.969   4.264
 3599SOL    HW111696   7.010   1.974   4.358
 3599SOL    HW211697   0.085   2.040   4.248
 3600SOL     OW11698   5.923   0.645   0.814
 3600SOL    HW111699   5.989   0.613   0.746
 3600SOL    HW211700   5.922   0.583   0.892
 3601SOL     OW11701   6.399   3.851   5.516
 3601SOL    HW111702   6.378   3.941   5.553
 3601SOL    HW211703   6.390   3.782   5.588
 3602SOL     OW11704   2.028   1.776   0.187
 3602SOL    HW111705   1.949   1.718   0.207
 3602SOL    HW211706   2.008   1.836   0.110
 3603SOL     OW11707   4.076   4.842   4.959
 3603SOL    HW111708   4.071   4.941   4.949
 3603SOL    HW211709   4.147   4.806   4.898
 3604SOL     OW11710   0.658   3.329   3.157
 3604SOL    HW111711   0.588   3.357   3.091
 3604SOL    HW211712   0.634   3.239   3.195
 3605SOL     OW11713   6.230   3.302   6.716
 3605SOL    HW111714   6.239   3.396   6.682
 3605SOL    HW211715   6.189   3.303   6.807
 3606SOL     OW11716   1.050   4.506   5.098
 3606SOL    HW111717   1.042   4.417   5.052
 3606SOL    HW211718   0.996   4.574   5.049
 3607SOL     OW11719   4.754   6.855   0.266
 3607SOL    HW111720   4.823   6.902   0.210
 3607SOL    HW211721   4.663   6.871   0.228
 3608SOL     OW11722   1.075   2.320   2.786
 3608SOL    HW111723   1.079   2.221   2.800
 3608SOL    HW211724   1.115   2.342   2.697
 3609SOL     OW11725   6.601   0.257   4.608
 3609SOL    HW111726   6.663   0.328   4.575
 3609SOL    HW211727   6.645   0.168   4.598
 3610SOL     OW11728   1.406   5.949   5.081
 3610SOL    HW111729   1.409   5.966   5.180
 3610SOL    HW211730   1.464   6.015   5.034
 3611SOL     OW11731   3.793   5.464   5.061
 3611SOL    HW111732   3.772   5.366   5.068
 3611SOL    HW211733   3.749   5.501   4.980
 3612SOL     OW11734   1.775   0.258   1.423
 3612SOL    HW111735   1.694   0.312   1.447
 3612SOL    HW211736   1.809   0.211   1.504
 3613SOL     OW11737   4.857   5.692   6.958
 3613SOL    HW111738   4.831   5.749   0.009
 3613SOL    HW211739   4.887   5.750   6.882
 3614SOL     OW11740   3.643   2.893   3.040
 3614SOL    HW111741   3.605   2.984   3.026
 3614SOL    HW211742   3.580   2.825   3.003
 3615SOL     OW11743   6.914   6.629   6.459
 3615SOL    HW111744   6.903   6.677   6.546
 3615SOL    HW211745   6.985   6.674   6.405
 3616SOL     OW11746   6.820   1.151   4.650
 3616SOL    HW111747   6.813   1.249   4.635
 3616SOL    HW211748   6.871   1.133   4.734
 3617SOL     OW11749   6.545   0.785   6.872
 3617SOL    HW111750   6.616   0.824   6.932
 3617SOL    HW211751   6.535   0.842   6.791
 3618SOL     OW11752   2.580   1.349   5.892
 3618SOL    HW111753   2.516   1.426   5.897
 3618SOL    HW211754   2.586   1.306   5.982
 3619SOL     OW11755   5.852   2.392   4.196
 3619SOL    HW111756   5.870   2.482   4.237
 3619SOL    HW211757   5.756   2.368   4.211
 3620SOL     OW11758   6.173   0.721   4.067
 3620SOL    HW111759   6.176   0.663   3.985
 3620SOL    HW211760   6.184   0.664   4.148
 3621SOL     OW11761   1.856   3.900   5.808
 3621SOL    HW111762   1.933   3.915   5.870
 3621SOL    HW211763   1.891   3.887   5.715
 3622SOL     OW11764   0.871   2.747   1.439
 3622SOL    HW111765   0.828   2.671   1.391
 3622SOL    HW211766   0.804   2.791   1.499
 3623SOL     OW11767   6.916   5.259   4.191
 3623SOL    HW111768   6.984   5.211   4.248
 3623SOL    HW211769   6.833   5.203   4.184
 3624SOL     OW11770   2.803   0.325   1.649
 3624SOL    HW111771   2.715   0.283   1.627
 3624SOL    HW211772   2.792   0.424   1.653
 3625SOL     OW11773   6.891   3.036   4.742
 3625SOL    HW111774   6.931   3.033   4.650
 3625SOL    HW211775   6.964   3.029   4.810
 3626SOL     OW11776   2.570   3.791   5.312
 3626SOL    HW111777   2.506   3.853   5.268
 3626SOL    HW211778   2.530   3.699   5.316
 3627SOL     OW11779   3.059   3.839   4.373
 3627SOL    HW111780   2.999   3.813   4.448
 3627SOL    HW211781   3.031   3.790   4.290
 3628SOL     OW11782   3.438   5.135   2.661
 3628SOL    HW111783   3.405   5.224   2.692
 3628SOL    HW211784   3.410   5.065   2.727
 3629SOL     OW11785   6.257   2.602   5.209
 3629SOL    HW111786   6.198   2.681   5.197
 3629SOL    HW211787   6.286   2.595   5.305
 3630SOL     OW11788   6.054   1.911   4.285
 3630SOL    HW111789   6.147   1.941   4.308
 3630SOL    HW211790   6.038   1.924   4.188
 3631SOL     OW11791   2.293   1.073   4.713
 3631SOL    HW111792   2.321   1.070   4.617
 3631SOL    HW211793   2.258   1.164   4.735
 3632SOL     OW11794   4.480   0.260   6.690
 3632SOL    HW111795   4.421   0.225   6.617
 3632SOL    HW211796   4.451   0.352   6.715
 3633SOL     OW11797   1.969   3.186   5.887
 3633SOL    HW111798   1.896   3.180   5.955
 3633SOL    HW211799   1.929   3.196   5.796
 3634SOL     OW11800   1.756   5.779   5.027
 3634SOL    HW111801   1.809   5.752   5.108
 3634SOL    HW211802   1.660   5.755   5.041
 3635SOL     OW11803   2.750   1.418   5.450
 3635SOL    HW111804   2.830   1.368   5.415
 3635SOL    HW211805   2.779   1.510   5.477
 3636SOL     OW11806   1.054   5.634   5.940
 3636SOL    HW111807   1.138   5.605   5.985
 3636SOL    HW211808   0.981   5.643   6.009
 3637SOL     OW11809   5.469   1.462   2.055
 3637SOL    HW111810   5.494   1.460   2.152
 3637SOL    HW211811   5.494   1.375   2.013
 3638SOL     OW11812   6.919   4.989   4.392
 3638SOL    HW111813   6.973   5.073   4.403
 3638SOL    HW211814   6.976   4.919   4.348
 3639SOL     OW11815   1.941   4.949   6.742
 3639SOL    HW111816   1.893   4.987   6.663
 3639SOL    HW211817   1.905   4.988   6.826
 3640SOL     OW11818   3.524   5.648   0.919
 3640SOL    HW111819   3.619   5.667   0.941
 3640SOL    HW211820   3.504   5.682   0.827
 3641SOL     OW11821   2.271   0.847   5.096
 3641SOL    HW111822   2.226   0.870   5.010
 3641SOL    HW211823   2.364   0.884   5.095
 3642SOL     OW11824   5.789   6.992   4.276
 3642SOL    HW111825   5.770   6.911   4.331
 3642SOL    HW211826   5.888   7.002   4.265
 3643SOL     OW11827   2.712   4.739   4.876
 3643SOL    HW111828   2.775   4.720   4.952
 3643SOL    HW211829   2.624   4.769   4.912
 3644SOL     OW11830   6.867   0.678   0.596
 3644SOL    HW111831   6.800   0.753   0.596
 3644SOL    HW211832   6.942   0.701   0.658
 3645SOL     OW11833   3.672   0.683   3.480
 3645SOL    HW111834   3.649   0.741   3.403
 3645SOL    HW211835   3.746   0.724   3.533
 3646SOL     OW11836   6.977   4.643   5.561
 3646SOL    HW111837   7.003   4.689   5.476
 3646SOL    HW211838   6.884   4.610   5.554
 3647SOL     OW11839   2.473   3.083   1.050
 3647SOL    HW111840   2.386   3.126   1.028
 3647SOL    HW211841   2.537   3.097   0.974
 3648SOL     OW11842   2.949   6.588   2.423
 3648SOL    HW111843   2.912   6.495   2.416
 3648SOL    HW211844   2.994   6.599   2.511
 3649SOL     OW11845   3.284   3.616   1.433
 3649SOL    HW111846   3.237   3.687   1.381
 3649SOL    HW211847   3.377   3.645   1.452
 3650SOL     OW11848   0.459   6.579   1.418
 3650SOL    HW111849   0.512   6.494   1.417
 3650SOL    HW211850   0.517   6.655   1.447
 3651SOL     OW11851   1.877   5.806   2.846
 3651SOL    HW111852   1.945   5.796   2.774
 3651SOL    HW211853   1.905   5.753   2.926
 3652SOL     OW11854   4.643   5.191   3.208
 3652SOL    HW111855   4.728   5.145   3.235
 3652SOL    HW211856   4.565   5.144   3.249
 3653SOL     OW11857   0.116   2.358   3.419
 3653SOL    HW111858   0.106   2.368   3.320
 3653SOL    HW211859   0.075   2.272   3.449
 3654SOL     OW11860   1.616   6.640   1.541
 3654SOL    HW111861   1.678   6.635   1.463
 3654SOL    HW211862   1.598   6.549   1.576
 3655SOL     OW11863   1.750   0.533   4.468
 3655SOL    HW111864   1.771   0.529   4.566
 3655SOL    HW211865   1.771   0.624   4.433
 3656SOL     OW11866   1.885   2.816   1.983
 3656SOL    HW111867   1.978   2.783   1.999
 3656SOL    HW211868   1.850   2.779   1.897
 3657SOL     OW11869   3.892   5.834   1.223
 3657SOL    HW111870   3.963   5.839   1.293
 3657SOL    HW211871   3.818   5.775   1.255
 3658SOL     OW11872   1.838   6.317   6.159
 3658SOL    HW111873   1.849   6.317   6.258
 3658SOL    HW211874   1.778   6.241   6.132
 3659SOL     OW11875   2.556   4.481   0.339
 3659SOL    HW111876   2.596   4.412   0.278
 3659SOL    HW211877   2.457   4.467   0.345
 3660SOL     OW11878   4.801   5.597   1.550
 3660SOL    HW111879   4.876   5.598   1.616
 3660SOL    HW211880   4.830   5.641   1.465
 3661SOL     OW11881   4.661   0.763   0.394
 3661SOL    HW111882   4.581   0.770   0.334
 3661SOL    HW211883   4.717   0.686   0.367
 3662SOL     OW11884   3.405   0.188   5.134
 3662SOL    HW111885   3.460   0.116   5.176
 3662SOL    HW211886   3.317   0.194   5.181
 3663SOL     OW11887   1.237   2.779   6.783
 3663SOL    HW111888   1.175   2.807   6.710
 3663SOL    HW211889   1.276   2.689   6.762
 3664SOL     OW11890   4.956   1.021   1.115
 3664SOL    HW111891   5.045   1.042   1.156
 3664SOL    HW211892   4.884   1.069   1.165
 3665SOL     OW11893   0.647   0.190   5.519
 3665SOL    HW111894   0.564   0.181   5.575
 3665SOL    HW211895   0.668   0.102   5.477
 3666SOL     OW11896   1.573   4.496   4.050
 3666SOL    HW111897   1.670   4.471   4.038
 3666SOL    HW211898   1.550   4.570   3.986
 3667SOL     OW11899   6.437   1.246   6.132
 3667SOL    HW111900   6.442   1.318   6.202
 3667SOL    HW211901   6.516   1.185   6.140
 3668SOL     OW11902   1.068   5.918   2.349
 3668SOL    HW111903   1.100   5.963   2.433
 3668SOL    HW211904   1.128   5.943   2.273
 3669SOL     OW11905   6.661   2.712   3.414
 3669SOL    HW111906   6.629   2.618   3.401
 3669SOL    HW211907   6.584   2.775   3.408
 3670SOL     OW11908   2.105   5.898   5.947
 3670SOL    HW111909   2.179   5.941   5.997
 3670SOL    HW211910   2.039   5.967   5.917
 3671SOL     OW11911   1.158   0.297   2.773
 3671SOL    HW111912   1.189   0.243   2.695
 3671SOL    HW211913   1.212   0.273   2.854
 3672SOL     OW11914   6.567   0.607   0.510
 3672SOL    HW111915   6.482   0.659   0.505
 3672SOL    HW211916   6.617   0.616   0.423
 3673SOL     OW11917   5.275   0.354   6.592
 3673SOL    HW111918   5.352   0.318   6.645
 3673SOL    HW211919   5.191   0.350   6.647
 3674SOL     OW11920   1.042   6.329   0.803
 3674SOL    HW111921   1.058   6.341   0.901
 3674SOL    HW211922   0.979   6.399   0.770
 3675SOL     OW11923   1.922   2.443   5.362
 3675SOL    HW111924   1.866   2.485   5.291
 3675SOL    HW211925   1.971   2.365   5.323
 3676SOL     OW11926   2.896   5.894   3.562
 3676SOL    HW111927   2.963   5.900   3.636
 3676SOL    HW211928   2.831   5.821   3.582
 3677SOL     OW11929   6.331   6.863   4.519
 3677SOL    HW111930   6.303   6.905   4.433
 3677SOL    HW211931   6.323   6.931   4.593
 3678SOL     OW11932   1.202   1.416   3.359
 3678SOL    HW111933   1.233   1.339   3.414
 3678SOL    HW211934   1.260   1.496   3.378
 3679SOL     OW11935   0.610   0.944   2.228
 3679SOL    HW111936   0.600   0.879   2.303
 3679SOL    HW211937   0.614   0.894   2.141
 3680SOL     OW11938   6.806   2.889   4.363
 3680SOL    HW111939   6.772   2.981   4.383
 3680SOL    HW211940   6.827   2.881   4.266
 3681SOL     OW11941   0.173   6.444   5.710
 3681SOL    HW111942   0.219   6.516   5.762
 3681SOL    HW211943   0.082   6.475   5.683
 3682SOL     OW11944   6.597   1.619   6.522
 3682SOL    HW111945   6.676   1.680   6.526
 3682SOL    HW211946   6.620   1.539   6.467
 3683SOL     OW11947   5.415   6.547   4.275
 3683SOL    HW111948   5.342   6.486   4.245
 3683SOL    HW211949   5.500   6.495   4.288
 3684SOL     OW11950   1.668   3.327   1.310
 3684SOL    HW111951   1.577   3.305   1.344
 3684SOL    HW211952   1.706   3.247   1.263
 3685SOL     OW11953   6.350   6.394   6.386
 3685SOL    HW111954   6.426   6.329   6.384
 3685SOL    HW211955   6.329   6.423   6.293
 3686SOL     OW11956   5.947   4.610   1.711
 3686SOL    HW111957   6.003   4.608   1.794
 3686SOL    HW211958   5.951   4.701   1.670
 3687SOL     OW11959   3.804   0.792   0.192
 3687SOL    HW111960   3.789   0.851   0.113
 3687SOL    HW211961   3.715   0.758   0.226
 3688SOL     OW11962   1.197   3.159   0.169
 3688SOL    HW111963   1.163   3.065   0.173
 3688SOL    HW211964   1.143   3.217   0.229
 3689SOL     OW11965   1.857   0.579   3.952
 3689SOL    HW111966   1.793   0.502   3.960
 3689SOL    HW211967   1.914   0.583   4.034
 3690SOL     OW11968   5.965   6.995   5.731
 3690SOL    HW111969   6.037   6.926   5.745
 3690SOL    HW211970   5.885   6.971   5.785
 3691SOL     OW11971   3.063   2.822   6.637
 3691SOL    HW111972   3.131   2.866   6.695
 3691SOL    HW211973   3.090   2.727   6.620
 3692SOL     OW11974   1.765   0.024   5.460
 3692SOL    HW111975   1.672   0.046   5.431
 3692SOL    HW211976   1.787   6.957   5.432
 3693SOL     OW11977   3.097   2.221   3.088
 3693SOL    HW111978   3.035   2.293   3.118
 3693SOL    HW211979   3.101   2.148   3.156
 3694SOL     OW11980   1.947   6.066   3.382
 3694SOL    HW111981   2.040   6.104   3.381
 3694SOL    HW211982   1.907   6.077   3.291
 3695SOL     OW11983   1.996   1.819   2.138
 3695SOL    HW111984   2.063   1.890   2.116
 3695SOL    HW211985   2.030   1.730   2.109
 3696SOL     OW11986   4.086   6.910   6.232
 3696SOL    HW111987   4.099   7.006   6.209
 3696SOL    HW211988   4.047   6.862   6.154
 3697SOL     OW11989   6.503   0.383   3.993
 3697SOL    HW111990   6.471   0.289   4.006
 3697SOL    HW211991   6.446   0.429   3.926
 3698SOL     OW11992   2.706   0.908   5.881
 3698SOL    HW111993   2.800   0.898   5.915
 3698SOL    HW211994   2.701   0.985   5.818
 3699SOL     OW11995   0.469   4.003   2.733
 3699SOL    HW111996   0.530   4.077   2.701
 3699SOL    HW211997   0.521   3.918   2.737
 3700SOL     OW11998   0.011   6.989   4.017
 3700SOL    HW111999   0.030   0.059   4.029
 3700SOL    HW212000   0.089   6.945   3.972
 3701SOL     OW12001   6.501   1.358   4.682
 3701SOL    HW112002   6.501   1.321   4.589
 3701SOL    HW212003   6.580   1.418   4.693
 3702SOL     OW12004   3.517   1.077   0.166
 3702SOL    HW112005   3.584   1.065   0.092
 3702SOL    HW212006   3.548   1.149   0.227
 3703SOL     OW12007   4.254   4.689   6.584
 3703SOL    HW112008   4.221   4.640   6.665
 3703SOL    HW212009   4.353   4.698   6.589
 3704SOL     OW12010   2.364   0.142   2.671
 3704SOL    HW112011   2.343   0.239   2.657
 3704SOL    HW212012   2.451   0.134   2.720
 3705SOL     OW12013   5.424   0.825   3.686
 3705SOL    HW112014   5.511   0.820   3.637
 3705SOL    HW212015   5.409   0.919   3.718
 3706SOL     OW12016   2.050   2.567   3.821
 3706SOL    HW112017   2.086   2.486   3.776
 3706SOL    HW212018   2.064   2.559   3.920
 3707SOL     OW12019   4.529   2.847   5.253
 3707SOL    HW112020   4.461   2.831   5.325
 3707SOL    HW212021   4.499   2.802   5.169
 3708SOL     OW12022   5.533   0.508   6.361
 3708SOL    HW112023   5.443   0.482   6.395
 3708SOL    HW212024   5.579   0.427   6.324
 3709SOL     OW12025   3.469   0.748   6.438
 3709SOL    HW112026   3.541   0.807   6.402
 3709SOL    HW212027   3.454   0.671   6.376
 3710SOL     OW12028   0.020   4.797   0.528
 3710SOL    HW112029   0.097   4.859   0.545
 3710SOL    HW212030   0.006   4.738   0.607
 3711SOL     OW12031   6.483   5.267   2.706
 3711SOL    HW112032   6.581   5.261   2.723
 3711SOL    HW212033   6.440   5.179   2.728
 3712SOL     OW12034   1.539   0.109   0.388
 3712SOL    HW112035   1.447   0.075   0.408
 3712SOL    HW212036   1.580   0.145   0.472
 3713SOL     OW12037   3.613   5.814   5.667
 3713SOL    HW112038   3.607   5.904   5.711
 3713SOL    HW212039   3.564   5.747   5.722
 3714SOL     OW12040   3.796   0.694   4.597
 3714SOL    HW112041   3.893   0.720   4.600
 3714SOL    HW212042   3.772   0.646   4.682
 3715SOL     OW12043   5.482   4.357   4.812
 3715SOL    HW112044   5.547   4.401   4.750
 3715SOL    HW212045   5.529   4.286   4.865
 3716SOL     OW12046   7.007   0.433   4.324
 3716SOL    HW112047   0.004   0.530   4.335
 3716SOL    HW212048   0.044   0.391   4.259
 3717SOL     OW12049   6.412   6.721   1.105
 3717SOL    HW112050   6.420   6.660   1.183
 3717SOL    HW212051   6.472   6.690   1.031
 3718SOL     OW12052   1.656   5.551   0.396
 3718SOL    HW112053   1.680   5.496   0.476
 3718SOL    HW212054   1.653   5.493   0.315
 3719SOL     OW12055   3.955   4.854   5.602
 3719SOL    HW112056   3.911   4.896   5.682
 3719SOL    HW212057   3.937   4.756   5.602
 3720SOL     OW12058   5.787   1.660   5.973
 3720SOL    HW112059   5.758   1.652   5.877
 3720SOL    HW212060   5.795   1.569   6.014
 3721SOL     OW12061   5.010   4.379   0.454
 3721SOL    HW112062   5.082   4.431   0.500
 3721SOL    HW212063   4.999   4.415   0.361
 3722SOL     OW12064   6.563   5.912   2.489
 3722SOL    HW112065   6.530   5.830   2.443
 3722SOL    HW212066   6.595   5.889   2.581
 3723SOL     OW12067   5.011   0.685   1.005
 3723SOL    HW112068   4.938   0.705   0.939
 3723SOL    HW212069   5.004   0.590   1.034
 3724SOL     OW12070   1.538   5.663   6.130
 3724SOL    HW112071   1.523   5.627   6.037
 3724SOL    HW212072   1.601   5.603   6.179
 3725SOL     OW12073   0.158   6.095   6.573
 3725SOL    HW112074   0.094   6.019   6.563
 3725SOL    HW212075   0.106   6.180   6.588
 3726SOL     OW12076   5.377   4.076   1.580
 3726SOL    HW112077   5.388   4.150   1.514
 3726SOL    HW212078   5.296   4.022   1.557
 3727SOL     OW12079   2.253   3.450   5.171
 3727SOL    HW112080   2.291   3.526   5.119
 3727SOL    HW212081   2.232   3.480   5.264
 3728SOL     OW12082   1.529   3.475   6.564
 3728SOL    HW112083   1.506   3.415   6.640
 3728SOL    HW212084   1.625   3.502   6.570
 3729SOL     OW12085   0.734   2.093   3.420
 3729SOL    HW112086   0.673   2.049   3.486
 3729SOL    HW212087   0.716   2.056   3.329
 3730SOL     OW12088   3.341   0.861   0.225
 3730SOL    HW112089   3.307   0.801   0.153
 3730SOL    HW212090   3.400   0.930   0.185
 3731SOL     OW12091   4.214   0.021   0.142
 3731SOL    HW112092   4.297   0.072   0.120
 3731SOL    HW212093   4.233   6.950   0.137
 3732SOL     OW12094   2.222   3.800   5.251
 3732SOL    HW112095   2.244   3.799   5.349
 3732SOL    HW212096   2.296   3.845   5.201
 3733SOL     OW12097   2.912   3.757   1.432
 3733SOL    HW112098   2.970   3.786   1.508
 3733SOL    HW212099   2.822   3.732   1.466
 3734SOL     OW12100   5.278   0.873   2.694
 3734SOL    HW112101   5.329   0.836   2.772
 3734SOL    HW212102   5.247   0.798   2.636
 3735SOL     OW12103   3.148   2.105   2.374
 3735SOL    HW112104   3.102   2.154   2.448
 3735SOL    HW212105   3.112   2.136   2.286
 3736SOL     OW12106   6.078   2.293   0.756
 3736SOL    HW112107   6.164   2.268   0.801
 3736SOL    HW212108   6.045   2.215   0.702
 3737SOL     OW12109   4.814   6.540   3.612
 3737SOL    HW112110   4.732   6.508   3.565
 3737SOL    HW212111   4.894   6.495   3.574
 3738SOL     OW12112   0.158   6.911   3.541
 3738SOL    HW112113   0.159   6.955   3.451
 3738SOL    HW212114   0.216   6.962   3.604
 3739SOL     OW12115   0.689   4.406   2.313
 3739SOL    HW112116   0.590   4.414   2.297
 3739SOL    HW212117   0.711   4.312   2.340
 3740SOL     OW12118   5.538   1.228   0.152
 3740SOL    HW112119   5.484   1.207   0.071
 3740SOL    HW212120   5.477   1.253   0.227
 3741SOL     OW12121   4.072   2.397   0.044
 3741SOL    HW112122   3.998   2.428   0.104
 3741SOL    HW212123   4.060   2.299   0.025
 3742SOL     OW12124   3.437   2.991   5.522
 3742SOL    HW112125   3.396   2.918   5.467
 3742SOL    HW212126   3.452   2.958   5.615
 3743SOL     OW12127   0.006   5.010   6.882
 3743SOL    HW112128   0.058   5.063   6.815
 3743SOL    HW212129   7.000   4.925   6.839
 3744SOL     OW12130   0.628   5.636   3.731
 3744SOL    HW112131   0.691   5.712   3.742
 3744SOL    HW212132   0.571   5.627   3.813
 3745SOL     OW12133   4.458   5.724   2.615
 3745SOL    HW112134   4.517   5.788   2.664
 3745SOL    HW212135   4.513   5.669   2.553
 3746SOL     OW12136   4.504   1.455   2.023
 3746SOL    HW112137   4.422   1.437   2.077
 3746SOL    HW212138   4.486   1.433   1.927
 3747SOL     OW12139   3.279   0.609   0.084
 3747SOL    HW112140   3.265   0.640   7.017
 3747SOL    HW212141   3.237   0.520   0.096
 3748SOL     OW12142   5.802   1.073   2.593
 3748SOL    HW112143   5.838   1.067   2.500
 3748SOL    HW212144   5.870   1.116   2.652
 3749SOL     OW12145   1.244   6.991   5.411
 3749SOL    HW112146   1.179   6.958   5.479
 3749SOL    HW212147   1.233   0.063   5.401
 3750SOL     OW12148   0.157   4.009   0.653
 3750SOL    HW112149   0.251   3.976   0.651
 3750SOL    HW212150   0.157   4.108   0.660
 3751SOL     OW12151   0.904   4.092   2.819
 3751SOL    HW112152   0.822   4.140   2.789
 3751SOL    HW212153   0.985   4.141   2.789
 3752SOL     OW12154   5.881   0.331   6.090
 3752SOL    HW112155   5.909   0.303   5.999
 3752SOL    HW212156   5.831   0.257   6.134
 3753SOL     OW12157   6.580   6.873   4.289
 3753SOL    HW112158   6.666   6.897   4.244
 3753SOL    HW212159   6.579   6.774   4.308
 3754SOL     OW12160   2.122   1.497   0.611
 3754SOL    HW112161   2.129   1.571   0.679
 3754SOL    HW212162   2.158   1.413   0.650
 3755SOL     OW12163   3.055   5.174   3.316
 3755SOL    HW112164   3.031   5.270   3.325
 3755SOL    HW212165   3.073   5.134   3.406
 3756SOL     OW12166   2.113   6.405   0.139
 3756SOL    HW112167   2.063   6.360   0.213
 3756SOL    HW212168   2.164   6.483   0.175
 3757SOL     OW12169   6.694   4.735   1.246
 3757SOL    HW112170   6.786   4.708   1.216
 3757SOL    HW212171   6.685   4.835   1.239
 3758SOL     OW12172   1.934   6.924   3.494
 3758SOL    HW112173   1.862   6.857   3.472
 3758SOL    HW212174   1.945   6.929   3.594
 3759SOL     OW12175   5.216   0.367   4.175
 3759SOL    HW112176   5.128   0.361   4.222
 3759SOL    HW212177   5.280   0.418   4.232
 3760SOL     OW12178   0.361   1.325   3.146
 3760SOL    HW112179   0.401   1.293   3.060
 3760SOL    HW212180   0.378   1.424   3.155
 3761SOL     OW12181   5.651   1.152   3.906
 3761SOL    HW112182   5.616   1.203   3.985
 3761SOL    HW212183   5.730   1.199   3.868
 3762SOL     OW12184   0.157   2.622   2.888
 3762SOL    HW112185   0.199   2.698   2.937
 3762SOL    HW212186   0.139   2.547   2.951
 3763SOL     OW12187   0.644   4.416   0.900
 3763SOL    HW112188   0.550   4.383   0.895
 3763SOL    HW212189   0.683   4.419   0.808
 3764SOL     OW12190   2.271   0.762   2.856
 3764SOL    HW112191   2.339   0.689   2.862
 3764SOL    HW212192   2.304   0.842   2.906
 3765SOL     OW12193   5.631   2.593   2.155
 3765SOL    HW112194   5.697   2.524   2.125
 3765SOL    HW212195   5.680   2.674   2.185
 3766SOL     OW12196   1.131   3.613   3.255
 3766SOL    HW112197   1.180   3.688   3.210
 3766SOL    HW212198   1.095   3.645   3.343
 3767SOL     OW12199   0.946   4.725   6.311
 3767SOL    HW112200   0.939   4.662   6.388
 3767SOL    HW212201   0.855   4.740   6.272
 3768SOL     OW12202   0.935   0.074   3.921
 3768SOL    HW112203   0.929   7.022   3.982
 3768SOL    HW212204   0.878   0.148   3.956
 3769SOL     OW12205   5.680   5.093   5.185
 3769SOL    HW112206   5.581   5.091   5.199
 3769SOL    HW212207   5.726   5.048   5.262
 3770SOL     OW12208   1.935   1.060   1.059
 3770SOL    HW112209   1.978   1.100   1.140
 3770SOL    HW212210   1.949   1.121   0.980
 3771SOL     OW12211   6.430   5.350   0.169
 3771SOL    HW112212   6.388   5.382   0.254
 3771SOL    HW212213   6.460   5.429   0.115
 3772SOL     OW12214   1.493   6.083   0.486
 3772SOL    HW112215   1.574   6.136   0.465
 3772SOL    HW212216   1.512   5.986   0.472
 3773SOL     OW12217   5.290   4.377   6.455
 3773SOL    HW112218   5.370   4.388   6.514
 3773SOL    HW212219   5.279   4.458   6.398
 3774SOL     OW12220   6.730   4.974   1.514
 3774SOL    HW112221   6.738   5.052   1.452
 3774SOL    HW212222   6.709   5.008   1.606
 3775SOL     OW12223   4.285   4.958   4.526
 3775SOL    HW112224   4.205   4.975   4.583
 3775SOL    HW212225   4.311   4.862   4.532
 3776SOL     OW12226   3.521   2.916   5.769
 3776SOL    HW112227   3.604   2.861   5.770
 3776SOL    HW212228   3.540   3.006   5.809
 3777SOL     OW12229   2.932   6.026   4.037
 3777SOL    HW112230   2.858   5.965   4.065
 3777SOL    HW212231   3.006   6.022   4.105
 3778SOL     OW12232   3.317   5.453   5.954
 3778SOL    HW112233   3.355   5.491   6.039
 3778SOL    HW212234   3.230   5.407   5.975
 3779SOL     OW12235   7.000   4.665   0.110
 3779SOL    HW112236   6.971   4.582   0.159
 3779SOL    HW212237   0.028   4.722   0.172
 3780SOL     OW12238   5.637   4.066   1.706
 3780SOL    HW112239   5.692   4.041   1.626
 3780SOL    HW212240   5.541   4.076   1.679
 3781SOL     OW12241   2.974   6.289   4.900
 3781SOL    HW112242   2.898   6.298   4.835
 3781SOL    HW212243   2.990   6.193   4.920
 3782SOL     OW12244   5.139   6.071   1.774
 3782SOL    HW112245   5.117   6.056   1.870
 3782SOL    HW212246   5.092   6.153   1.741
 3783SOL     OW12247   5.076   5.463   4.672
 3783SOL    HW112248   5.055   5.423   4.583
 3783SOL    HW212249   5.169   5.500   4.671
 3784SOL     OW12250   6.442   2.028   3.983
 3784SOL    HW112251   6.443   2.120   4.021
 3784SOL    HW212252   6.529   2.010   3.937
 3785SOL     OW12253   1.867   3.441   4.097
 3785SOL    HW112254   1.802   3.448   4.174
 3785SOL    HW212255   1.926   3.522   4.097
 3786SOL     OW12256   2.373   2.665   4.654
 3786SOL    HW112257   2.337   2.696   4.742
 3786SOL    HW212258   2.443   2.595   4.670
 3787SOL     OW12259   4.280   6.953   3.404
 3787SOL    HW112260   4.370   6.991   3.420
 3787SOL    HW212261   4.277   6.858   3.436
 3788SOL     OW12262   6.542   3.462   5.086
 3788SOL    HW112263   6.507   3.444   5.178
 3788SOL    HW212264   6.466   3.460   5.021
 3789SOL     OW12265   1.501   2.454   2.538
 3789SOL    HW112266   1.542   2.366   2.560
 3789SOL    HW212267   1.553   2.498   2.465
 3790SOL     OW12268   0.592   6.800   1.500
 3790SOL    HW112269   0.538   6.787   1.584
 3790SOL    HW212270   0.677   6.848   1.522
 3791SOL     OW12271   4.962   1.099   5.434
 3791SOL    HW112272   5.038   1.120   5.495
 3791SOL    HW212273   4.919   1.185   5.404
 3792SOL     OW12274   6.989   0.712   4.327
 3792SOL    HW112275   0.010   0.711   4.416
 3792SOL    HW212276   6.926   0.789   4.325
 3793SOL     OW12277   4.641   5.129   0.716
 3793SOL    HW112278   4.564   5.070   0.697
 3793SOL    HW212279   4.719   5.101   0.660
 3794SOL     OW12280   0.546   3.922   6.682
 3794SOL    HW112281   0.580   3.949   6.592
 3794SOL    HW212282   0.512   4.003   6.731
 3795SOL     OW12283   1.653   6.355   1.566
 3795SOL    HW112284   1.553   6.363   1.570
 3795SOL    HW212285   1.680   6.318   1.476
 3796SOL     OW12286   4.683   1.588   6.929
 3796SOL    HW112287   4.654   1.493   6.932
 3796SOL    HW212288   4.650   1.630   6.844
 3797SOL     OW12289   1.254   4.667   2.307
 3797SOL    HW112290   1.201   4.600   2.359
 3797SOL    HW212291   1.197   4.746   2.286
 3798SOL     OW12292   1.531   6.210   3.173
 3798SOL    HW112293   1.485   6.165   3.250
 3798SOL    HW212294   1.610   6.155   3.146
 3799SOL     OW12295   6.991   1.431   3.265
 3799SOL    HW112296   0.030   1.424   3.190
 3799SOL    HW212297   6.924   1.357   3.257
 3800SOL     OW12298   5.293   2.517   2.880
 3800SOL    HW112299   5.319   2.420   2.872
 3800SOL    HW212300   5.357   2.573   2.829
 3801SOL     OW12301   5.966   1.207   2.110
 3801SOL    HW112302   6.037   1.278   2.108
 3801SOL    HW212303   5.886   1.240   2.159
 3802SOL     OW12304   6.387   2.801   2.165
 3802SOL    HW112305   6.378   2.885   2.112
 3802SOL    HW212306   6.321   2.733   2.131
 3803SOL     OW12307   3.156   3.372   3.973
 3803SOL    HW112308   3.145   3.290   3.917
 3803SOL    HW212309   3.067   3.396   4.013
 3804SOL     OW12310   4.174   6.007   2.705
 3804SOL    HW112311   4.225   5.976   2.785
 3804SOL    HW212312   4.189   6.105   2.691
 3805SOL     OW12313   2.817   2.424   0.087
 3805SOL    HW112314   2.779   2.479   0.162
 3805SOL    HW212315   2.903   2.382   0.117
 3806SOL     OW12316   3.466   4.432   1.384
 3806SOL    HW112317   3.513   4.347   1.361
 3806SOL    HW212318   3.404   4.416   1.461
 3807SOL     OW12319   2.015   4.132   4.633
 3807SOL    HW112320   1.944   4.072   4.598
 3807SOL    HW212321   1.977   4.223   4.652
 3808SOL     OW12322   3.248   6.983   6.331
 3808SOL    HW112323   3.340   7.004   6.300
 3808SOL    HW212324   3.194   0.041   6.334
 3809SOL     OW12325   5.093   2.245   1.273
 3809SOL    HW112326   5.183   2.225   1.233
 3809SOL    HW212327   5.036   2.163   1.266
 3810SOL     OW12328   5.829   2.420   2.116
 3810SOL    HW112329   5.925   2.434   2.136
 3810SOL    HW212330   5.817   2.335   2.064
 3811SOL     OW12331   0.608   5.478   5.153
 3811SOL    HW112332   0.636   5.572   5.133
 3811SOL    HW212333   0.681   5.415   5.127
 3812SOL     OW12334   4.873   6.194   1.333
 3812SOL    HW112335   4.847   6.290   1.344
 3812SOL    HW212336   4.837   6.160   1.246
 3813SOL     OW12337   6.103   4.321   0.128
 3813SOL    HW112338   6.093   4.234   0.177
 3813SOL    HW212339   6.192   4.324   0.083
 3814SOL     OW12340   6.808   0.406   4.874
 3814SOL    HW112341   6.795   0.362   4.963
 3814SOL    HW212342   6.831   0.337   4.806
 3815SOL     OW12343   6.356   3.640   5.831
 3815SOL    HW112344   6.340   3.705   5.906
 3815SOL    HW212345   6.297   3.560   5.844
 3816SOL     OW12346   0.404   5.777   6.896
 3816SOL    HW112347   0.399   5.842   6.820
 3816SOL    HW212348   0.312   5.754   6.926
 3817SOL     OW12349   5.100   4.170   1.770
 3817SOL    HW112350   5.153   4.087   1.752
 3817SOL    HW212351   5.129   4.210   1.857
 3818SOL     OW12352   6.150   0.014   3.083
 3818SOL    HW112353   6.122   0.103   3.119
 3818SOL    HW212354   6.157   0.019   2.984
 3819SOL     OW12355   0.015   4.218   3.938
 3819SOL    HW112356   0.094   4.176   3.983
 3819SOL    HW212357   0.037   4.234   3.842
 3820SOL     OW12358   4.508   6.900   4.826
 3820SOL    HW112359   4.415   6.929   4.848
 3820SOL    HW212360   4.510   6.801   4.811
 3821SOL     OW12361   1.473   0.504   0.317
 3821SOL    HW112362   1.495   0.575   0.250
 3821SOL    HW212363   1.445   0.421   0.269
 3822SOL     OW12364   4.704   0.950   1.665
 3822SOL    HW112365   4.782   0.969   1.607
 3822SOL    HW212366   4.620   0.953   1.610
 3823SOL     OW12367   4.623   6.121   6.878
 3823SOL    HW112368   4.627   6.088   6.972
 3823SOL    HW212369   4.577   6.053   6.820
 3824SOL     OW12370   2.144   3.050   0.155
 3824SOL    HW112371   2.172   2.959   0.123
 3824SOL    HW212372   2.137   3.048   0.255
 3825SOL     OW12373   1.237   3.812   5.604
 3825SOL    HW112374   1.244   3.785   5.700
 3825SOL    HW212375   1.307   3.880   5.583
 3826SOL     OW12376   5.827   3.999   3.415
 3826SOL    HW112377   5.780   4.034   3.334
 3826SOL    HW212378   5.924   4.020   3.410
 3827SOL     OW12379   1.309   1.196   1.793
 3827SOL    HW112380   1.402   1.230   1.776
 3827SOL    HW212381   1.298   1.106   1.751
 3828SOL     OW12382   3.990   3.905   3.980
 3828SOL    HW112383   3.908   3.945   3.939
 3828SOL    HW212384   4.069   3.962   3.958
 3829SOL     OW12385   1.169   3.813   2.705
 3829SOL    HW112386   1.093   3.749   2.716
 3829SOL    HW212387   1.138   3.895   2.659
 3830SOL     OW12388   6.485   1.278   4.418
 3830SOL    HW112389   6.438   1.209   4.363
 3830SOL    HW212390   6.550   1.327   4.361
 3831SOL     OW12391   4.249   1.940   3.562
 3831SOL    HW112392   4.292   2.026   3.534
 3831SOL    HW212393   4.150   1.950   3.558
 3832SOL     OW12394   6.653   0.716   3.663
 3832SOL    HW112395   6.748   0.709   3.630
 3832SOL    HW212396   6.638   0.807   3.701
 3833SOL     OW12397   0.408   1.700   5.840
 3833SOL    HW112398   0.349   1.738   5.911
 3833SOL    HW212399   0.448   1.774   5.787
 3834SOL     OW12400   4.531   4.045   0.312
 3834SOL    HW112401   4.537   3.962   0.366
 3834SOL    HW212402   4.471   4.030   0.233
 3835SOL     OW12403   4.343   5.493   4.529
 3835SOL    HW112404   4.328   5.582   4.572
 3835SOL    HW212405   4.275   5.427   4.563
 3836SOL     OW12406   0.429   6.224   5.699
 3836SOL    HW112407   0.508   6.206   5.757
 3836SOL    HW212408   0.356   6.158   5.720
 3837SOL     OW12409   4.299   4.956   5.195
 3837SOL    HW112410   4.332   4.965   5.289
 3837SOL    HW212411   4.240   4.875   5.189
 3838SOL     OW12412   1.131   1.530   3.780
 3838SOL    HW112413   1.066   1.527   3.704
 3838SOL    HW212414   1.208   1.469   3.761
 3839SOL     OW12415   3.965   0.573   3.270
 3839SOL    HW112416   3.919   0.495   3.227
 3839SOL    HW212417   3.986   0.550   3.365
 3840SOL     OW12418   2.394   0.954   6.846
 3840SOL    HW112419   2.412   1.029   6.783
 3840SOL    HW212420   2.304   0.914   6.826
 3841SOL     OW12421   6.225   4.235   4.083
 3841SOL    HW112422   6.148   4.297   4.097
 3841SOL    HW212423   6.271   4.258   3.997
 3842SOL     OW12424   2.182   2.906   5.192
 3842SOL    HW112425   2.129   2.885   5.110
 3842SOL    HW212426   2.263   2.959   5.166
 3843SOL     OW12427   5.304   2.424   7.021
 3843SOL    HW112428   5.392   2.393   6.983
 3843SOL    HW212429   5.272   2.357   0.062
 3844SOL     OW12430   1.199   6.061   0.487
 3844SOL    HW112431   1.155   5.976   0.517
 3844SOL    HW212432   1.297   6.056   0.506
 3845SOL     OW12433   1.709   5.949   0.791
 3845SOL    HW112434   1.614   5.963   0.763
 3845SOL    HW212435   1.715   5.954   0.891
 3846SOL     OW12436   1.100   2.691   3.533
 3846SOL    HW112437   1.148   2.695   3.445
 3846SOL    HW212438   1.162   2.656   3.603
 3847SOL     OW12439   6.664   1.036   6.164
 3847SOL    HW112440   6.611   0.973   6.106
 3847SOL    HW212441   6.727   1.089   6.106
 3848SOL     OW12442   5.251   3.785   2.172
 3848SOL    HW112443   5.346   3.796   2.200
 3848SOL    HW212444   5.204   3.724   2.235
 3849SOL     OW12445   6.833   5.659   6.710
 3849SOL    HW112446   6.759   5.665   6.643
 3849SOL    HW212447   6.820   5.728   6.781
 3850SOL     OW12448   2.664   2.465   1.373
 3850SOL    HW112449   2.755   2.429   1.356
 3850SOL    HW212450   2.641   2.532   1.302
 3851SOL     OW12451   0.442   5.934   2.751
 3851SOL    HW112452   0.397   5.860   2.803
 3851SOL    HW212453   0.376   6.007   2.735
 3852SOL     OW12454   3.328   6.027   5.664
 3852SOL    HW112455   3.257   5.993   5.602
 3852SOL    HW212456   3.413   6.041   5.614
 3853SOL     OW12457   2.569   1.017   3.782
 3853SOL    HW112458   2.536   0.959   3.707
 3853SOL    HW212459   2.652   1.064   3.753
 3854SOL     OW12460   2.037   2.455   2.808
 3854SOL    HW112461   1.974   2.523   2.770
 3854SOL    HW212462   1.992   2.367   2.814
 3855SOL     OW12463   3.912   0.188   0.708
 3855SOL    HW112464   3.921   0.239   0.623
 3855SOL    HW212465   3.975   0.225   0.776
 3856SOL     OW12466   0.757   1.743   6.334
 3856SOL    HW112467   0.669   1.789   6.347
 3856SOL    HW212468   0.831   1.808   6.350
 3857SOL     OW12469   2.050   1.358   5.229
 3857SOL    HW112470   2.119   1.384   5.161
 3857SOL    HW212471   2.049   1.426   5.303
 3858SOL     OW12472   4.300   0.983   4.834
 3858SOL    HW112473   4.280   1.010   4.740
 3858SOL    HW212474   4.381   0.925   4.836
 3859SOL     OW12475   5.580   0.518   1.629
 3859SOL    HW112476   5.553   0.444   1.567
 3859SOL    HW212477   5.518   0.521   1.706
 3860SOL     OW12478   1.379   0.463   4.349
 3860SOL    HW112479   1.425   0.439   4.264
 3860SOL    HW212480   1.323   0.386   4.379
 3861SOL     OW12481   4.333   5.737   1.926
 3861SOL    HW112482   4.290   5.750   2.015
 3861SOL    HW212483   4.429   5.764   1.931
 3862SOL     OW12484   1.061   6.834   3.599
 3862SOL    HW112485   1.016   6.777   3.530
 3862SOL    HW212486   0.991   6.875   3.658
 3863SOL     OW12487   4.707   0.653   0.649
 3863SOL    HW112488   4.684   0.711   0.571
 3863SOL    HW212489   4.647   0.574   0.651
 3864SOL     OW12490   2.680   0.335   4.341
 3864SOL    HW112491   2.773   0.369   4.352
 3864SOL    HW212492   2.627   0.400   4.286
 3865SOL     OW12493   3.872   0.591   0.003
 3865SOL    HW112494   3.841   0.505   0.044
 3865SOL    HW212495   3.886   0.659   0.075
 3866SOL     OW12496   2.479   2.713   6.883
 3866SOL    HW112497   2.404   2.691   6.819
 3866SOL    HW212498   2.559   2.659   6.859
 3867SOL     OW12499   0.840   3.899   2.574
 3867SOL    HW112500   0.774   3.837   2.615
 3867SOL    HW212501   0.866   3.969   2.642
 3868SOL     OW12502   3.904   1.153   6.620
 3868SOL    HW112503   3.887   1.056   6.636
 3868SOL    HW212504   3.816   1.201   6.614
 3869SOL     OW12505   6.422   3.190   2.964
 3869SOL    HW112506   6.390   3.114   3.020
 3869SOL    HW212507   6.375   3.189   2.876
 3870SOL     OW12508   6.662   0.412   3.504
 3870SOL    HW112509   6.697   0.352   3.432
 3870SOL    HW212510   6.650   0.504   3.466
 3871SOL     OW12511   3.480   5.398   3.711
 3871SOL    HW112512   3.502   5.487   3.673
 3871SOL    HW212513   3.438   5.341   3.640
 3872SOL     OW12514   3.297   3.472   4.268
 3872SOL    HW112515   3.321   3.536   4.195
 3872SOL    HW212516   3.381   3.441   4.313
 3873SOL     OW12517   4.495   2.340   0.562
 3873SOL    HW112518   4.520   2.422   0.509
 3873SOL    HW212519   4.569   2.273   0.555
 3874SOL     OW12520   3.808   0.357   0.434
 3874SOL    HW112521   3.725   0.344   0.489
 3874SOL    HW212522   3.839   0.452   0.443
 3875SOL     OW12523   1.418   2.230   5.333
 3875SOL    HW112524   1.360   2.306   5.365
 3875SOL    HW212525   1.378   2.189   5.252
 3876SOL     OW12526   4.275   6.369   1.406
 3876SOL    HW112527   4.222   6.453   1.391
 3876SOL    HW212528   4.368   6.383   1.373
 3877SOL     OW12529   0.132   2.216   0.528
 3877SOL    HW112530   0.143   2.117   0.521
 3877SOL    HW212531   0.177   2.261   0.451
 3878SOL     OW12532   4.377   6.930   3.901
 3878SOL    HW112533   4.387   6.881   3.988
 3878SOL    HW212534   4.280   6.943   3.881
 3879SOL     OW12535   4.887   4.998   0.004
 3879SOL    HW112536   4.904   4.996   6.933
 3879SOL    HW212537   4.790   4.981   0.022
 3880SOL     OW12538   5.288   4.670   4.309
 3880SOL    HW112539   5.367   4.729   4.292
 3880SOL    HW212540   5.309   4.578   4.275
 3881SOL     OW12541   1.350   3.948   0.167
 3881SOL    HW112542   1.440   3.908   0.150
 3881SOL    HW212543   1.303   3.962   0.080
 3882SOL     OW12544   0.949   1.694   0.671
 3882SOL    HW112545   0.887   1.760   0.714
 3882SOL    HW212546   0.949   1.706   0.572
 3883SOL     OW12547   4.476   6.130   3.518
 3883SOL    HW112548   4.425   6.190   3.580
 3883SOL    HW212549   4.559   6.177   3.487
 3884SOL     OW12550   1.356   5.839   3.472
 3884SOL    HW112551   1.293   5.796   3.536
 3884SOL    HW212552   1.384   5.772   3.402
 3885SOL     OW12553   5.642   6.926   3.090
 3885SOL    HW112554   5.600   7.012   3.060
 3885SOL    HW212555   5.697   6.943   3.172
 3886SOL     OW12556   4.176   6.601   5.671
 3886SOL    HW112557   4.137   6.588   5.763
 3886SOL    HW212558   4.263   6.553   5.664
 3887SOL     OW12559   0.433   6.203   1.218
 3887SOL    HW112560   0.490   6.249   1.286
 3887SOL    HW212561   0.338   6.201   1.250
 3888SOL     OW12562   6.275   6.025   4.421
 3888SOL    HW112563   6.310   6.103   4.369
 3888SOL    HW212564   6.281   5.942   4.366
 3889SOL     OW12565   6.384   2.952   0.008
 3889SOL    HW112566   6.414   3.024   0.071
 3889SOL    HW212567   6.457   2.885   7.024
 3890SOL     OW12568   5.733   3.985   4.568
 3890SOL    HW112569   5.746   3.931   4.485
 3890SOL    HW212570   5.641   3.968   4.604
 3891SOL     OW12571   5.639   4.593   3.996
 3891SOL    HW112572   5.564   4.603   3.930
 3891SOL    HW212573   5.603   4.602   4.089
 3892SOL     OW12574   0.044   2.338   1.277
 3892SOL    HW112575   7.015   2.394   1.216
 3892SOL    HW212576   0.130   2.314   1.230
 3893SOL     OW12577   4.546   3.341   1.539
 3893SOL    HW112578   4.560   3.372   1.445
 3893SOL    HW212579   4.505   3.414   1.593
 3894SOL     OW12580   5.030   0.225   6.718
 3894SOL    HW112581   4.935   0.231   6.688
 3894SOL    HW212582   5.044   0.141   6.770
 3895SOL     OW12583   1.505   6.817   5.470
 3895SOL    HW112584   1.580   6.864   5.424
 3895SOL    HW212585   1.429   6.806   5.407
 3896SOL     OW12586   0.696   0.782   0.176
 3896SOL    HW112587   0.686   0.849   0.249
 3896SOL    HW212588   0.723   0.694   0.215
 3897SOL     OW12589   4.621   5.872   2.000
 3897SOL    HW112590   4.558   5.895   2.075
 3897SOL    HW212591   4.707   5.921   2.013
 3898SOL     OW12592   3.794   2.305   6.644
 3898SOL    HW112593   3.712   2.307   6.701
 3898SOL    HW212594   3.775   2.259   6.558
 3899SOL     OW12595   4.796   0.241   5.920
 3899SOL    HW112596   4.875   0.302   5.922
 3899SOL    HW212597   4.776   0.208   6.012
 3900SOL     OW12598   5.372   3.557   3.612
 3900SOL    HW112599   5.288   3.599   3.579
 3900SOL    HW212600   5.434   3.540   3.535
 3901SOL     OW12601   2.792   0.487   6.473
 3901SOL    HW112602   2.725   0.509   6.544
 3901SOL    HW212603   2.780   0.550   6.396
 3902SOL     OW12604   5.879   3.246   2.362
 3902SOL    HW112605   5.918   3.210   2.278
 3902SOL    HW212606   5.804   3.309   2.340
 3903SOL     OW12607   3.661   6.391   6.797
 3903SOL    HW112608   3.690   6.297   6.813
 3903SOL    HW212609   3.722   6.453   6.846
 3904SOL     OW12610   0.798   0.679   6.801
 3904SOL    HW112611   0.715   0.714   6.758
 3904SOL    HW212612   0.862   0.754   6.816
 3905SOL     OW12613   0.116   6.425   6.151
 3905SOL    HW112614   0.032   6.397   6.105
 3905SOL    HW212615   0.161   6.496   6.098
 3906SOL     OW12616   6.003   6.128   5.340
 3906SOL    HW112617   5.981   6.127   5.242
 3906SOL    HW212618   6.061   6.206   5.361
 3907SOL     OW12619   6.226   2.095   3.236
 3907SOL    HW112620   6.201   2.048   3.151
 3907SOL    HW212621   6.145   2.103   3.294
 3908SOL     OW12622   0.782   2.359   6.773
 3908SOL    HW112623   0.712   2.313   6.828
 3908SOL    HW212624   0.824   2.294   6.711
 3909SOL     OW12625   4.904   5.650   4.753
 3909SOL    HW112626   4.976   5.587   4.723
 3909SOL    HW212627   4.945   5.723   4.809
 3910SOL     OW12628   3.292   3.747   2.563
 3910SOL    HW112629   3.208   3.790   2.596
 3910SOL    HW212630   3.327   3.798   2.485
 3911SOL     OW12631   6.035   1.902   4.927
 3911SOL    HW112632   6.132   1.925   4.934
 3911SOL    HW212633   5.980   1.976   4.966
 3912SOL     OW12634   5.652   1.983   5.265
 3912SOL    HW112635   5.555   1.991   5.240
 3912SOL    HW212636   5.682   1.889   5.252
 3913SOL     OW12637   1.101   0.075   6.348
 3913SOL    HW112638   1.173   0.049   6.285
 3913SOL    HW212639   1.046   0.149   6.309
 3914SOL     OW12640   2.870   0.074   0.233
 3914SOL    HW112641   2.922   7.016   0.226
 3914SOL    HW212642   2.911   0.143   0.173
 3915SOL     OW12643   4.908   5.231   0.974
 3915SOL    HW112644   4.811   5.205   0.974
 3915SOL    HW212645   4.941   5.237   1.068
 3916SOL     OW12646   0.945   0.037   2.709
 3916SOL    HW112647   1.001   0.120   2.717
 3916SOL    HW212648   0.985   6.991   2.764
 3917SOL     OW12649   1.212   6.857   0.213
 3917SOL    HW112650   1.113   6.863   0.199
 3917SOL    HW212651   1.259   6.898   0.136
 3918SOL     OW12652   5.257   4.577   1.547
 3918SOL    HW112653   5.353   4.581   1.520
 3918SOL    HW212654   5.225   4.482   1.539
 3919SOL     OW12655   4.150   0.047   0.584
 3919SOL    HW112656   4.082   0.044   0.657
 3919SOL    HW212657   4.104   0.050   0.495
 3920SOL     OW12658   2.256   3.434   0.508
 3920SOL    HW112659   2.289   3.481   0.427
 3920SOL    HW212660   2.162   3.403   0.493
 3921SOL     OW12661   0.749   3.849   1.355
 3921SOL    HW112662   0.687   3.928   1.358
 3921SOL    HW212663   0.806   3.848   1.438
 3922SOL     OW12664   0.069   3.584   1.896
 3922SOL    HW112665   0.036   3.659   1.953
 3922SOL    HW212666   0.012   3.503   1.911
 3923SOL     OW12667   0.749   0.859   0.555
 3923SOL    HW112668   0.722   0.763   0.542
 3923SOL    HW212669   0.847   0.862   0.577
 3924SOL     OW12670   6.128   4.597   4.245
 3924SOL    HW112671   6.147   4.628   4.152
 3924SOL    HW212672   6.080   4.509   4.242
 3925SOL     OW12673   1.384   4.820   1.651
 3925SOL    HW112674   1.383   4.919   1.664
 3925SOL    HW212675   1.474   4.784   1.676
 3926SOL     OW12676   4.326   4.621   2.410
 3926SOL    HW112677   4.311   4.679   2.490
 3926SOL    HW212678   4.303   4.672   2.327
 3927SOL     OW12679   6.764   3.019   6.047
 3927SOL    HW112680   6.715   3.038   6.133
 3927SOL    HW212681   6.734   2.931   6.011
 3928SOL     OW12682   4.648   6.048   0.095
 3928SOL    HW112683   4.587   5.972   0.118
 3928SOL    HW212684   4.618   6.130   0.144
 3929SOL     OW12685   0.928   0.304   4.961
 3929SOL    HW112686   0.937   0.279   4.865
 3929SOL    HW212687   1.015   0.341   4.994
 3930SOL     OW12688   2.531   2.102   3.920
 3930SOL    HW112689   2.627   2.130   3.920
 3930SOL    HW212690   2.501   2.084   4.013
 3931SOL     OW12691   0.413   1.464   1.726
 3931SOL    HW112692   0.454   1.518   1.653
 3931SOL    HW212693   0.342   1.518   1.772
 3932SOL     OW12694   0.332   3.120   4.324
 3932SOL    HW112695   0.291   3.031   4.343
 3932SOL    HW212696   0.264   3.192   4.339
 3933SOL     OW12697   1.783   0.301   5.934
 3933SOL    HW112698   1.832   0.290   6.020
 3933SOL    HW212699   1.736   0.216   5.911
 3934SOL     OW12700   5.941   0.239   5.843
 3934SOL    HW112701   5.962   0.301   5.767
 3934SOL    HW212702   5.999   0.158   5.836
 3935SOL     OW12703   3.560   0.369   0.864
 3935SOL    HW112704   3.469   0.397   0.894
 3935SOL    HW212705   3.593   0.294   0.922
 3936SOL     OW12706   6.520   5.792   4.447
 3936SOL    HW112707   6.523   5.697   4.477
 3936SOL    HW212708   6.442   5.805   4.386
 3937SOL     OW12709   0.427   1.821   2.549
 3937SOL    HW112710   0.411   1.919   2.537
 3937SOL    HW212711   0.512   1.807   2.600
 3938SOL     OW12712   0.438   1.601   3.144
 3938SOL    HW112713   0.519   1.615   3.201
 3938SOL    HW212714   0.358   1.642   3.189
 3939SOL     OW12715   2.733   1.734   2.562
 3939SOL    HW112716   2.733   1.694   2.471
 3939SOL    HW212717   2.828   1.746   2.593
 3940SOL     OW12718   4.037   3.343   1.573
 3940SOL    HW112719   3.984   3.277   1.521
 3940SOL    HW212720   4.101   3.295   1.633
 3941SOL     OW12721   4.706   5.100   5.903
 3941SOL    HW112722   4.701   5.151   5.989
 3941SOL    HW212723   4.766   5.148   5.840
 3942SOL     OW12724   6.503   6.615   6.913
 3942SOL    HW112725   6.561   6.616   6.995
 3942SOL    HW212726   6.448   6.532   6.913
 3943SOL     OW12727   0.559   3.224   4.437
 3943SOL    HW112728   0.551   3.177   4.525
 3943SOL    HW212729   0.484   3.195   4.378
 3944SOL     OW12730   4.710   2.560   4.898
 3944SOL    HW112731   4.664   2.576   4.811
 3944SOL    HW212732   4.797   2.610   4.899
 3945SOL     OW12733   6.837   1.742   0.654
 3945SOL    HW112734   6.920   1.788   0.682
 3945SOL    HW212735   6.786   1.800   0.590
 3946SOL     OW12736   4.911   4.364   3.957
 3946SOL    HW112737   4.997   4.413   3.952
 3946SOL    HW212738   4.847   4.414   4.015
 3947SOL     OW12739   4.511   6.414   0.446
 3947SOL    HW112740   4.481   6.319   0.454
 3947SOL    HW212741   4.578   6.421   0.372
 3948SOL     OW12742   6.656   4.285   1.540
 3948SOL    HW112743   6.577   4.346   1.533
 3948SOL    HW212744   6.691   4.287   1.634
 3949SOL     OW12745   4.841   5.540   3.132
 3949SOL    HW112746   4.815   5.593   3.052
 3949SOL    HW212747   4.898   5.596   3.192
 3950SOL     OW12748   1.453   5.465   1.371
 3950SOL    HW112749   1.513   5.514   1.308
 3950SOL    HW212750   1.505   5.393   1.417
 3951SOL     OW12751   4.563   0.611   1.298
 3951SOL    HW112752   4.472   0.640   1.326
 3951SOL    HW212753   4.626   0.621   1.375
 3952SOL     OW12754   0.261   2.399   1.127
 3952SOL    HW112755   0.173   2.440   1.100
 3952SOL    HW212756   0.331   2.470   1.128
 3953SOL     OW12757   3.754   3.390   1.962
 3953SOL    HW112758   3.759   3.291   1.944
 3953SOL    HW212759   3.840   3.433   1.936
 3954SOL     OW12760   4.294   5.536   5.619
 3954SOL    HW112761   4.314   5.634   5.619
 3954SOL    HW212762   4.216   5.517   5.559
 3955SOL     OW12763   3.582   1.994   5.658
 3955SOL    HW112764   3.626   2.019   5.572
 3955SOL    HW212765   3.514   1.922   5.640
 3956SOL     OW12766   1.475   1.015   2.388
 3956SOL    HW112767   1.482   0.975   2.480
 3956SOL    HW212768   1.474   0.942   2.320
 3957SOL     OW12769   4.130   0.028   4.689
 3957SOL    HW112770   4.039   0.066   4.674
 3957SOL    HW212771   4.184   0.037   4.605
 3958SOL     OW12772   6.104   2.562   4.100
 3958SOL    HW112773   6.051   2.620   4.163
 3958SOL    HW212774   6.049   2.482   4.075
 3959SOL     OW12775   4.782   5.006   0.446
 3959SOL    HW112776   4.829   5.055   0.373
 3959SOL    HW212777   4.849   4.955   0.500
 3960SOL     OW12778   5.354   1.528   5.062
 3960SOL    HW112779   5.420   1.602   5.068
 3960SOL    HW212780   5.267   1.563   5.028
 3961SOL     OW12781   5.308   0.804   3.284
 3961SOL    HW112782   5.272   0.750   3.360
 3961SOL    HW212783   5.405   0.782   3.271
 3962SOL     OW12784   0.664   4.993   5.995
 3962SOL    HW112785   0.667   5.077   6.050
 3962SOL    HW212786   0.581   4.993   5.939
 3963SOL     OW12787   5.308   6.410   2.117
 3963SOL    HW112788   5.277   6.467   2.040
 3963SOL    HW212789   5.335   6.470   2.192
 3964SOL     OW12790   4.719   4.357   3.203
 3964SOL    HW112791   4.671   4.362   3.116
 3964SOL    HW212792   4.786   4.283   3.200
 3965SOL     OW12793   5.060   3.559   4.274
 3965SOL    HW112794   5.048   3.514   4.186
 3965SOL    HW212795   5.134   3.626   4.267
 3966SOL     OW12796   3.656   5.864   6.950
 3966SOL    HW112797   3.642   5.863   6.851
 3966SOL    HW212798   3.714   5.788   6.977
 3967SOL     OW12799   2.661   4.291   1.189
 3967SOL    HW112800   2.590   4.224   1.169
 3967SOL    HW212801   2.686   4.286   1.286
 3968SOL     OW12802   4.553   0.453   0.650
 3968SOL    HW112803   4.460   0.459   0.613
 3968SOL    HW212804   4.563   0.366   0.700
 3969SOL     OW12805   1.330   5.646   1.884
 3969SOL    HW112806   1.352   5.683   1.794
 3969SOL    HW212807   1.267   5.707   1.931
 3970SOL     OW12808   5.860   5.666   2.183
 3970SOL    HW112809   5.780   5.705   2.137
 3970SOL    HW212810   5.833   5.582   2.232
 3971SOL     OW12811   2.534   5.896   4.177
 3971SOL    HW112812   2.624   5.900   4.219
 3971SOL    HW212813   2.536   5.941   4.087
 3972SOL     OW12814   1.292   3.858   6.399
 3972SOL    HW112815   1.259   3.812   6.482
 3972SOL    HW212816   1.214   3.892   6.346
 3973SOL     OW12817   1.005   5.829   1.071
 3973SOL    HW112818   0.991   5.852   0.975
 3973SOL    HW212819   1.014   5.730   1.081
 3974SOL     OW12820   1.720   0.638   6.207
 3974SOL    HW112821   1.671   0.642   6.294
 3974SOL    HW212822   1.806   0.589   6.219
 3975SOL     OW12823   5.198   2.036   6.273
 3975SOL    HW112824   5.122   2.007   6.331
 3975SOL    HW212825   5.284   2.025   6.322
 3976SOL     OW12826   1.819   6.180   2.482
 3976SOL    HW112827   1.910   6.207   2.511
 3976SOL    HW212828   1.800   6.086   2.511
 3977SOL     OW12829   1.255   3.731   6.654
 3977SOL    HW112830   1.210   3.642   6.646
 3977SOL    HW212831   1.289   3.743   6.748
 3978SOL     OW12832   6.704   4.742   3.146
 3978SOL    HW112833   6.719   4.721   3.050
 3978SOL    HW212834   6.698   4.657   3.199
 3979SOL     OW12835   3.628   0.938   6.287
 3979SOL    HW112836   3.627   0.925   6.188
 3979SOL    HW212837   3.719   0.916   6.322
 3980SOL     OW12838   6.259   6.515   6.595
 3980SOL    HW112839   6.216   6.446   6.653
 3980SOL    HW212840   6.295   6.472   6.512
 3981SOL     OW12841   4.671   5.955   0.769
 3981SOL    HW112842   4.656   5.865   0.811
 3981SOL    HW212843   4.637   6.026   0.831
 3982SOL     OW12844   2.376   6.863   2.297
 3982SOL    HW112845   2.438   6.829   2.226
 3982SOL    HW212846   2.336   6.950   2.268
 3983SOL     OW12847   4.722   5.416   3.744
 3983SOL    HW112848   4.730   5.428   3.645
 3983SOL    HW212849   4.632   5.378   3.766
 3984SOL     OW12850   6.037   1.579   2.751
 3984SOL    HW112851   6.063   1.603   2.657
 3984SOL    HW212852   6.118   1.587   2.810
 3985SOL     OW12853   3.830   5.476   6.782
 3985SOL    HW112854   3.764   5.512   6.716
 3985SOL    HW212855   3.800   5.386   6.813
 3986SOL     OW12856   4.806   1.479   3.111
 3986SOL    HW112857   4.813   1.559   3.171
 3986SOL    HW212858   4.891   1.427   3.116
 3987SOL     OW12859   3.496   4.958   4.497
 3987SOL    HW112860   3.563   4.887   4.519
 3987SOL    HW212861   3.443   4.931   4.417
 3988SOL     OW12862   4.143   5.787   0.403
 3988SOL    HW112863   4.099   5.721   0.342
 3988SOL    HW212864   4.230   5.749   0.436
 3989SOL     OW12865   6.086   2.246   0.439
 3989SOL    HW112866   6.163   2.203   0.391
 3989SOL    HW212867   6.018   2.177   0.463
 3990SOL     OW12868   5.151   2.248   1.558
 3990SOL    HW112869   5.205   2.306   1.497
 3990SOL    HW212870   5.192   2.247   1.649
 3991SOL     OW12871   0.785   1.375   2.629
 3991SOL    HW112872   0.878   1.339   2.632
 3991SOL    HW212873   0.721   1.304   2.601
 3992SOL     OW12874   3.375   1.925   0.723
 3992SOL    HW112875   3.391   1.992   0.796
 3992SOL    HW212876   3.283   1.887   0.732
 3993SOL     OW12877   1.191   3.121   1.942
 3993SOL    HW112878   1.106   3.147   1.896
 3993SOL    HW212879   1.170   3.080   2.031
 3994SOL     OW12880   2.594   6.945   4.740
 3994SOL    HW112881   2.634   6.863   4.699
 3994SOL    HW212882   2.562   6.924   4.832
 3995SOL     OW12883   1.831   3.440   5.474
 3995SOL    HW112884   1.790   3.529   5.492
 3995SOL    HW212885   1.860   3.435   5.378
 3996SOL     OW12886   6.862   6.723   5.415
 3996SOL    HW112887   6.766   6.709   5.388
 3996SOL    HW212888   6.921   6.689   5.342
 3997SOL     OW12889   5.455   1.299   4.380
 3997SOL    HW112890   5.505   1.238   4.442
 3997SOL    HW212891   5.471   1.394   4.406
 3998SOL     OW12892   3.485   1.947   3.995
 3998SOL    HW112893   3.471   1.961   4.093
 3998SOL    HW212894   3.511   1.852   3.978
 3999SOL     OW12895   6.065   2.706   4.545
 3999SOL    HW112896   6.080   2.759   4.463
 3999SOL    HW212897   5.973   2.666   4.542
 4000SOL     OW12898   3.200   6.606   3.793
 4000SOL    HW112899   3.286   6.590   3.841
 4000SOL    HW212900   3.203   6.694   3.747
 4001SOL     OW12901   2.044   1.967   3.779
 4001SOL    HW112902   2.035   2.028   3.857
 4001SOL    HW212903   2.140   1.943   3.765
 4002SOL     OW12904   2.463   3.548   1.601
 4002SOL    HW112905   2.414   3.600   1.670
 4002SOL    HW212906   2.493   3.460   1.640
 4003SOL     OW12907   3.339   0.006   4.776
 4003SOL    HW112908   3.276   6.973   4.727
 4003SOL    HW212909   3.379   0.072   4.713
 4004SOL     OW12910   6.961   2.498   4.974
 4004SOL    HW112911   6.995   2.546   4.893
 4004SOL    HW212912   7.015   2.415   4.989
 4005SOL     OW12913   4.572   6.389   6.803
 4005SOL    HW112914   4.576   6.294   6.834
 4005SOL    HW212915   4.531   6.445   6.876
 4006SOL     OW12916   3.913   5.347   2.222
 4006SOL    HW112917   3.881   5.252   2.218
 4006SOL    HW212918   3.838   5.407   2.248
 4007SOL     OW12919   0.031   2.638   7.016
 4007SOL    HW112920   0.067   2.645   0.082
 4007SOL    HW212921   0.066   2.713   6.961
 4008SOL     OW12922   2.755   2.355   4.787
 4008SOL    HW112923   2.826   2.382   4.852
 4008SOL    HW212924   2.774   2.263   4.753
 4009SOL     OW12925   3.997   3.757   2.294
 4009SOL    HW112926   3.903   3.723   2.285
 4009SOL    HW212927   4.034   3.776   2.203
 4010SOL     OW12928   2.846   3.311   0.641
 4010SOL    HW112929   2.853   3.285   0.737
 4010SOL    HW212930   2.757   3.354   0.624
 4011SOL     OW12931   1.016   2.098   1.594
 4011SOL    HW112932   0.974   2.144   1.672
 4011SOL    HW212933   1.112   2.124   1.588
 4012SOL     OW12934   6.643   3.910   2.642
 4012SOL    HW112935   6.705   3.834   2.663
 4012SOL    HW212936   6.693   3.996   2.648
 4013SOL     OW12937   4.542   2.173   4.060
 4013SOL    HW112938   4.466   2.149   4.000
 4013SOL    HW212939   4.510   2.239   4.129
 4014SOL     OW12940   5.736   6.140   2.922
 4014SOL    HW112941   5.688   6.059   2.955
 4014SOL    HW212942   5.758   6.200   2.999
 4015SOL     OW12943   5.067   4.179   5.364
 4015SOL    HW112944   5.075   4.236   5.283
 4015SOL    HW212945   5.023   4.231   5.438
 4016SOL     OW12946   3.151   5.932   6.106
 4016SOL    HW112947   3.160   6.017   6.054
 4016SOL    HW212948   3.055   5.919   6.132
 4017SOL     OW12949   6.555   6.036   6.804
 4017SOL    HW112950   6.653   6.050   6.812
 4017SOL    HW212951   6.509   6.124   6.797
 4018SOL     OW12952   4.049   5.828   1.456
 4018SOL    HW112953   4.147   5.808   1.459
 4018SOL    HW212954   4.031   5.919   1.493
 4019SOL     OW12955   5.075   4.690   3.809
 4019SOL    HW112956   5.068   4.741   3.723
 4019SOL    HW212957   5.100   4.753   3.883
 4020SOL     OW12958   5.442   2.324   5.831
 4020SOL    HW112959   5.532   2.280   5.833
 4020SOL    HW212960   5.371   2.254   5.836
 4021SOL     OW12961   3.426   4.806   5.637
 4021SOL    HW112962   3.348   4.867   5.653
 4021SOL    HW212963   3.400   4.713   5.661
 4022SOL     OW12964   5.308   0.670   0.493
 4022SOL    HW112965   5.299   0.754   0.438
 4022SOL    HW212966   5.306   0.694   0.590
 4023SOL     OW12967   5.971   1.269   5.400
 4023SOL    HW112968   5.971   1.260   5.300
 4023SOL    HW212969   5.967   1.178   5.441
 4024SOL     OW12970   4.340   4.792   3.972
 4024SOL    HW112971   4.408   4.864   3.958
 4024SOL    HW212972   4.299   4.801   4.063
 4025SOL     OW12973   0.561   4.241   3.310
 4025SOL    HW112974   0.480   4.251   3.368
 4025SOL    HW212975   0.610   4.157   3.335
 4026SOL     OW12976   5.240   6.100   4.239
 4026SOL    HW112977   5.206   6.188   4.272
 4026SOL    HW212978   5.207   6.027   4.298
 4027SOL     OW12979   4.283   5.456   1.865
 4027SOL    HW112980   4.330   5.406   1.937
 4027SOL    HW212981   4.296   5.554   1.878
 4028SOL     OW12982   2.167   1.366   4.369
 4028SOL    HW112983   2.077   1.360   4.325
 4028SOL    HW212984   2.156   1.362   4.468
 4029SOL     OW12985   1.760   4.742   4.757
 4029SOL    HW112986   1.723   4.787   4.838
 4029SOL    HW212987   1.765   4.643   4.774
 4030SOL     OW12988   0.267   2.242   5.579
 4030SOL    HW112989   0.262   2.312   5.650
 4030SOL    HW212990   0.275   2.285   5.489
 4031SOL     OW12991   4.130   5.641   3.794
 4031SOL    HW112992   4.115   5.723   3.849
 4031SOL    HW212993   4.162   5.566   3.852
 4032SOL     OW12994   5.082   0.285   4.589
 4032SOL    HW112995   5.088   0.185   4.579
 4032SOL    HW212996   5.059   0.307   4.683
 4033SOL     OW12997   2.992   3.778   5.565
 4033SOL    HW112998   3.012   3.806   5.471
 4033SOL    HW212999   3.035   3.690   5.584
 4034SOL     OW13000   0.131   2.381   3.691
 4034SOL    HW113001   0.150   2.362   3.595
 4034SOL    HW213002   0.033   2.370   3.709
 4035SOL     OW13003   6.704   4.392   0.544
 4035SOL    HW113004   6.728   4.487   0.521
 4035SOL    HW213005   6.610   4.375   0.516
 4036SOL     OW13006   6.957   0.217   2.698
 4036SOL    HW113007   6.975   0.126   2.734
 4036SOL    HW213008   0.010   0.250   2.649
 4037SOL     OW13009   0.392   3.919   0.143
 4037SOL    HW113010   0.326   3.936   0.070
 4037SOL    HW213011   0.371   3.978   0.221
 4038SOL     OW13012   5.888   4.757   3.945
 4038SOL    HW113013   5.810   4.696   3.956
 4038SOL    HW213014   5.906   4.771   3.848
 4039SOL     OW13015   4.829   6.271   0.898
 4039SOL    HW113016   4.754   6.326   0.934
 4039SOL    HW213017   4.860   6.206   0.968
 4040SOL     OW13018   3.958   6.055   1.614
 4040SOL    HW113019   4.000   6.093   1.697
 4040SOL    HW213020   3.995   6.102   1.534
 4041SOL     OW13021   1.458   6.510   4.058
 4041SOL    HW113022   1.548   6.527   4.098
 4041SOL    HW213023   1.433   6.585   3.998
 4042SOL     OW13024   6.161   5.312   1.989
 4042SOL    HW113025   6.091   5.349   1.928
 4042SOL    HW213026   6.135   5.329   2.084
 4043SOL     OW13027   6.374   2.492   1.158
 4043SOL    HW113028   6.434   2.460   1.085
 4043SOL    HW213029   6.316   2.566   1.124
 4044SOL     OW13030   6.663   5.900   3.691
 4044SOL    HW113031   6.654   5.923   3.788
 4044SOL    HW213032   6.654   5.801   3.679
 4045SOL     OW13033   2.631   6.229   5.785
 4045SOL    HW113034   2.542   6.190   5.810
 4045SOL    HW213035   2.617   6.312   5.731
 4046SOL     OW13036   1.475   3.060   1.182
 4046SOL    HW113037   1.482   2.969   1.224
 4046SOL    HW213038   1.382   3.095   1.192
 4047SOL     OW13039   2.732   4.082   0.802
 4047SOL    HW113040   2.795   4.159   0.811
 4047SOL    HW213041   2.733   4.049   0.708
 4048SOL     OW13042   5.719   1.054   1.278
 4048SOL    HW113043   5.654   0.978   1.278
 4048SOL    HW213044   5.803   1.025   1.231
 4049SOL     OW13045   5.678   0.607   4.577
 4049SOL    HW113046   5.690   0.589   4.480
 4049SOL    HW213047   5.639   0.698   4.590
 4050SOL     OW13048   2.981   0.372   0.693
 4050SOL    HW113049   2.894   0.345   0.651
 4050SOL    HW213050   2.975   0.362   0.792
 4051SOL     OW13051   3.033   4.043   0.578
 4051SOL    HW113052   3.095   3.965   0.563
 4051SOL    HW213053   2.939   4.010   0.588
 4052SOL     OW13054   1.167   6.395   1.419
 4052SOL    HW113055   1.083   6.426   1.463
 4052SOL    HW213056   1.146   6.326   1.351
 4053SOL     OW13057   3.571   4.908   3.432
 4053SOL    HW113058   3.663   4.889   3.398
 4053SOL    HW213059   3.559   5.007   3.444
 4054SOL     OW13060   5.238   2.240   0.862
 4054SOL    HW113061   5.178   2.175   0.817
 4054SOL    HW213062   5.187   2.323   0.885
 4055SOL     OW13063   3.235   2.123   0.300
 4055SOL    HW113064   3.251   2.149   0.395
 4055SOL    HW213065   3.140   2.094   0.289
 4056SOL     OW13066   4.028   3.509   0.429
 4056SOL    HW113067   4.074   3.421   0.442
 4056SOL    HW213068   3.965   3.525   0.504
 4057SOL     OW13069   5.223   2.541   6.448
 4057SOL    HW113070   5.216   2.523   6.546
 4057SOL    HW213071   5.314   2.516   6.416
 4058SOL     OW13072   0.679   0.295   4.482
 4058SOL    HW113073   0.652   0.391   4.476
 4058SOL    HW213074   0.644   0.256   4.568
 4059SOL     OW13075   0.214   2.293   4.645
 4059SOL    HW113076   0.284   2.313   4.713
 4059SOL    HW213077   0.230   2.347   4.563
 4060SOL     OW13078   4.495   5.598   3.568
 4060SOL    HW113079   4.558   5.583   3.492
 4060SOL    HW213080   4.462   5.692   3.566
 4061SOL     OW13081   2.864   3.211   1.430
 4061SOL    HW113082   2.767   3.185   1.432
 4061SOL    HW213083   2.919   3.135   1.464
 4062SOL     OW13084   2.448   7.023   2.979
 4062SOL    HW113085   2.507   0.030   3.053
 4062SOL    HW213086   2.444   6.923   2.983
 4063SOL     OW13087   3.078   5.320   5.984
 4063SOL    HW113088   3.052   5.227   6.012
 4063SOL    HW213089   2.999   5.368   5.948
 4064SOL     OW13090   6.803   6.937   4.100
 4064SOL    HW113091   6.900   6.957   4.082
 4064SOL    HW213092   6.747   6.978   4.029
 4065SOL     OW13093   6.045   5.030   6.988
 4065SOL    HW113094   6.004   4.969   0.029
 4065SOL    HW213095   6.068   5.117   0.004
 4066SOL     OW13096   6.133   5.019   1.991
 4066SOL    HW113097   6.068   5.027   1.916
 4066SOL    HW213098   6.153   5.110   2.028
 4067SOL     OW13099   6.175   0.842   2.081
 4067SOL    HW113100   6.252   0.856   2.019
 4067SOL    HW213101   6.098   0.804   2.030
 4068SOL     OW13102   6.341   0.625   3.417
 4068SOL    HW113103   6.408   0.679   3.365
 4068SOL    HW213104   6.343   0.653   3.513
 4069SOL     OW13105   6.667   5.594   1.258
 4069SOL    HW113106   6.573   5.565   1.276
 4069SOL    HW213107   6.725   5.566   1.334
 4070SOL     OW13108   0.920   3.374   3.061
 4070SOL    HW113109   0.989   3.328   3.117
 4070SOL    HW213110   0.837   3.388   3.115
 4071SOL     OW13111   1.889   6.809   4.009
 4071SOL    HW113112   1.947   6.745   4.060
 4071SOL    HW213113   1.947   6.879   3.966
 4072SOL     OW13114   0.864   0.549   4.355
 4072SOL    HW113115   0.852   0.558   4.256
 4072SOL    HW213116   0.919   0.625   4.390
 4073SOL     OW13117   2.224   5.123   0.529
 4073SOL    HW113118   2.258   5.216   0.544
 4073SOL    HW213119   2.281   5.058   0.580
 4074SOL     OW13120   1.576   2.625   0.669
 4074SOL    HW113121   1.547   2.530   0.682
 4074SOL    HW213122   1.645   2.629   0.596
 4075SOL     OW13123   5.268   1.061   4.026
 4075SOL    HW113124   5.284   1.065   3.927
 4075SOL    HW213125   5.170   1.065   4.044
 4076SOL     OW13126   1.733   2.541   3.717
 4076SOL    HW113127   1.783   2.480   3.656
 4076SOL    HW213128   1.681   2.486   3.783
 4077SOL     OW13129   2.611   1.736   0.918
 4077SOL    HW113130   2.684   1.670   0.898
 4077SOL    HW213131   2.526   1.705   0.874
 4078SOL     OW13132   5.475   3.957   2.237
 4078SOL    HW113133   5.449   4.034   2.295
 4078SOL    HW213134   5.480   3.987   2.142
 4079SOL     OW13135   0.452   0.991   3.822
 4079SOL    HW113136   0.418   1.057   3.754
 4079SOL    HW213137   0.407   1.009   3.910
 4080SOL     OW13138   3.956   3.032   2.493
 4080SOL    HW113139   3.999   3.121   2.509
 4080SOL    HW213140   3.960   3.010   2.396
 4081SOL     OW13141   2.269   2.550   6.411
 4081SOL    HW113142   2.184   2.603   6.403
 4081SOL    HW213143   2.318   2.579   6.493
 4082SOL     OW13144   1.204   2.872   5.611
 4082SOL    HW113145   1.302   2.854   5.610
 4082SOL    HW213146   1.185   2.955   5.664
 4083SOL     OW13147   5.759   4.665   3.116
 4083SOL    HW113148   5.666   4.649   3.150
 4083SOL    HW213149   5.825   4.627   3.181
 4084SOL     OW13150   4.755   0.057   3.352
 4084SOL    HW113151   4.832   0.006   3.391
 4084SOL    HW213152   4.785   0.148   3.325
 4085SOL     OW13153   4.017   4.863   2.338
 4085SOL    HW113154   3.917   4.865   2.344
 4085SOL    HW213155   4.049   4.769   2.342
 4086SOL     OW13156   6.152   5.075   6.279
 4086SOL    HW113157   6.114   5.106   6.366
 4086SOL    HW213158   6.250   5.095   6.275
 4087SOL     OW13159   2.324   0.465   1.868
 4087SOL    HW113160   2.354   0.476   1.773
 4087SOL    HW213161   2.289   0.372   1.881
 4088SOL     OW13162   0.217   1.837   4.831
 4088SOL    HW113163   0.175   1.749   4.851
 4088SOL    HW213164   0.316   1.826   4.824
 4089SOL     OW13165   1.144   0.429   3.244
 4089SOL    HW113166   1.111   0.446   3.337
 4089SOL    HW213167   1.164   0.331   3.233
 4090SOL     OW13168   2.985   1.745   6.061
 4090SOL    HW113169   2.929   1.774   6.138
 4090SOL    HW213170   2.932   1.684   6.002
 4091SOL     OW13171   3.381   5.937   1.283
 4091SOL    HW113172   3.426   5.965   1.367
 4091SOL    HW213173   3.364   5.838   1.286
 4092SOL     OW13174   5.555   2.980   4.053
 4092SOL    HW113175   5.472   2.992   4.107
 4092SOL    HW213176   5.613   3.062   4.064
 4093SOL     OW13177   5.347   4.595   3.898
 4093SOL    HW113178   5.248   4.590   3.882
 4093SOL    HW213179   5.393   4.622   3.813
 4094SOL     OW13180   6.663   5.856   0.133
 4094SOL    HW113181   6.600   5.785   0.162
 4094SOL    HW213182   6.612   5.935   0.100
 4095SOL     OW13183   0.842   5.299   0.243
 4095SOL    HW113184   0.800   5.209   0.229
 4095SOL    HW213185   0.783   5.370   0.204
 4096SOL     OW13186   0.469   0.773   6.821
 4096SOL    HW113187   0.380   0.746   6.784
 4096SOL    HW213188   0.527   0.808   6.748
 4097SOL     OW13189   6.497   4.669   4.979
 4097SOL    HW113190   6.566   4.697   5.047
 4097SOL    HW213191   6.502   4.570   4.966
 4098SOL     OW13192   1.887   4.238   2.765
 4098SOL    HW113193   1.845   4.153   2.796
 4098SOL    HW213194   1.850   4.315   2.818
 4099SOL     OW13195   4.797   4.188   6.564
 4099SOL    HW113196   4.737   4.261   6.598
 4099SOL    HW213197   4.757   4.147   6.483
 4100SOL     OW13198   1.541   0.969   4.207
 4100SOL    HW113199   1.601   0.916   4.147
 4100SOL    HW213200   1.499   0.908   4.275
 4101SOL     OW13201   6.473   5.683   0.118
 4101SOL    HW113202   6.515   5.614   0.059
 4101SOL    HW213203   6.374   5.669   0.120
 4102SOL     OW13204   1.621   0.175   7.005
 4102SOL    HW113205   1.667   0.210   6.923
 4102SOL    HW213206   1.644   0.232   0.057
 4103SOL     OW13207   1.874   6.312   3.781
 4103SOL    HW113208   1.915   6.400   3.755
 4103SOL    HW213209   1.820   6.277   3.706
 4104SOL     OW13210   1.840   5.842   4.592
 4104SOL    HW113211   1.836   5.744   4.613
 4104SOL    HW213212   1.904   5.857   4.517
 4105SOL     OW13213   4.636   0.658   1.596
 4105SOL    HW113214   4.626   0.758   1.598
 4105SOL    HW213215   4.732   0.634   1.613
 4106SOL     OW13216   1.059   0.944   3.151
 4106SOL    HW113217   1.157   0.928   3.160
 4106SOL    HW213218   1.011   0.856   3.147
 4107SOL     OW13219   1.026   0.365   0.312
 4107SOL    HW113220   0.934   0.326   0.316
 4107SOL    HW213221   1.073   0.330   0.230
 4108SOL     OW13222   6.443   5.624   5.631
 4108SOL    HW113223   6.372   5.560   5.662
 4108SOL    HW213224   6.404   5.715   5.621
 4109SOL     OW13225   5.831   5.949   3.686
 4109SOL    HW113226   5.733   5.962   3.672
 4109SOL    HW213227   5.856   5.854   3.668
 4110SOL     OW13228   4.901   2.814   0.438
 4110SOL    HW113229   4.962   2.888   0.467
 4110SOL    HW213230   4.938   2.726   0.468
 4111SOL     OW13231   6.556   3.742   4.235
 4111SOL    HW113232   6.598   3.663   4.281
 4111SOL    HW213233   6.621   3.818   4.235
 4112SOL     OW13234   4.345   6.208   5.205
 4112SOL    HW113235   4.295   6.122   5.218
 4112SOL    HW213236   4.328   6.268   5.283
 4113SOL     OW13237   4.326   5.384   4.282
 4113SOL    HW113238   4.294   5.290   4.294
 4113SOL    HW213239   4.327   5.430   4.371
 4114SOL     OW13240   0.236   1.122   1.317
 4114SOL    HW113241   0.189   1.174   1.246
 4114SOL    HW213242   0.181   1.042   1.342
 4115SOL     OW13243   4.135   5.929   4.090
 4115SOL    HW113244   4.175   5.926   3.998
 4115SOL    HW213245   4.185   5.994   4.146
 4116SOL     OW13246   4.893   3.997   2.279
 4116SOL    HW113247   4.913   3.933   2.205
 4116SOL    HW213248   4.954   4.076   2.271
 4117SOL     OW13249   1.391   1.686   3.902
 4117SOL    HW113250   1.358   1.592   3.895
 4117SOL    HW213251   1.481   1.687   3.944
 4118SOL     OW13252   0.170   6.360   0.273
 4118SOL    HW113253   0.125   6.303   0.343
 4118SOL    HW213254   0.129   6.451   0.274
 4119SOL     OW13255   0.368   0.183   4.304
 4119SOL    HW113256   0.316   0.219   4.227
 4119SOL    HW213257   0.376   0.253   4.375
 4120SOL     OW13258   1.946   0.840   6.361
 4120SOL    HW113259   2.037   0.865   6.394
 4120SOL    HW213260   1.937   0.865   6.264
 4121SOL     OW13261   6.812   6.752   2.567
 4121SOL    HW113262   6.864   6.783   2.646
 4121SOL    HW213263   6.734   6.697   2.597
 4122SOL     OW13264   0.630   4.202   2.624
 4122SOL    HW113265   0.667   4.172   2.536
 4122SOL    HW213266   0.656   4.297   2.640
 4123SOL     OW13267   4.660   4.941   1.334
 4123SOL    HW113268   4.715   4.992   1.401
 4123SOL    HW213269   4.567   4.976   1.335
 4124SOL     OW13270   5.818   5.604   0.234
 4124SOL    HW113271   5.833   5.684   0.292
 4124SOL    HW213272   5.838   5.627   0.139
 4125SOL     OW13273   6.063   2.053   1.032
 4125SOL    HW113274   5.971   2.022   1.010
 4125SOL    HW213275   6.125   1.975   1.036
 4126SOL     OW13276   1.351   3.223   2.302
 4126SOL    HW113277   1.434   3.195   2.254
 4126SOL    HW213278   1.282   3.151   2.294
 4127SOL     OW13279   4.589   1.883   4.731
 4127SOL    HW113280   4.654   1.882   4.655
 4127SOL    HW213281   4.505   1.837   4.703
 4128SOL     OW13282   0.981   2.922   0.014
 4128SOL    HW113283   1.019   2.963   6.959
 4128SOL    HW213284   0.918   2.986   0.058
 4129SOL     OW13285   2.702   2.667   0.242
 4129SOL    HW113286   2.703   2.667   0.342
 4129SOL    HW213287   2.780   2.720   0.208
 4130SOL     OW13288   6.037   3.256   0.854
 4130SOL    HW113289   6.021   3.351   0.880
 4130SOL    HW213290   6.107   3.252   0.782
 4131SOL     OW13291   4.654   6.866   3.149
 4131SOL    HW113292   4.596   6.894   3.072
 4131SOL    HW213293   4.674   6.946   3.205
 4132SOL     OW13294   0.424   5.180   3.927
 4132SOL    HW113295   0.391   5.168   3.834
 4132SOL    HW213296   0.520   5.208   3.926
 4133SOL     OW13297   5.631   0.425   2.528
 4133SOL    HW113298   5.673   0.500   2.477
 4133SOL    HW213299   5.702   0.366   2.566
 4134SOL     OW13300   1.538   3.765   1.481
 4134SOL    HW113301   1.443   3.739   1.465
 4134SOL    HW213302   1.599   3.706   1.428
 4135SOL     OW13303   6.422   0.625   2.131
 4135SOL    HW113304   6.499   0.685   2.156
 4135SOL    HW213305   6.336   0.671   2.153
 4136SOL     OW13306   1.448   4.862   1.023
 4136SOL    HW113307   1.383   4.872   1.098
 4136SOL    HW213308   1.540   4.878   1.056
 4137SOL     OW13309   1.188   2.409   0.734
 4137SOL    HW113310   1.174   2.508   0.740
 4137SOL    HW213311   1.223   2.385   0.644
 4138SOL     OW13312   5.122   7.004   6.835
 4138SOL    HW113313   5.203   0.024   6.870
 4138SOL    HW213314   5.088   6.939   6.903
 4139SOL     OW13315   2.127   4.172   2.861
 4139SOL    HW113316   2.152   4.079   2.837
 4139SOL    HW213317   2.038   4.194   2.822
 4140SOL     OW13318   1.897   0.836   6.100
 4140SOL    HW113319   1.992   0.806   6.095
 4140SOL    HW213320   1.836   0.757   6.087
 4141SOL     OW13321   4.967   0.290   6.157
 4141SOL    HW113322   5.021   0.279   6.074
 4141SOL    HW213323   5.021   0.336   6.227
 4142SOL     OW13324   1.095   5.260   2.092
 4142SOL    HW113325   1.163   5.333   2.089
 4142SOL    HW213326   1.088   5.225   2.186
 4143SOL     OW13327   5.705   3.176   6.745
 4143SOL    HW113328   5.745   3.165   6.836
 4143SOL    HW213329   5.674   3.087   6.711
 4144SOL     OW13330   6.200   0.914   0.654
 4144SOL    HW113331   6.194   0.936   0.751
 4144SOL    HW213332   6.109   0.921   0.612
 4145SOL     OW13333   6.973   7.003   1.791
 4145SOL    HW113334   6.955   0.030   1.874
 4145SOL    HW213335   0.016   0.022   1.737
 4146SOL     OW13336   5.160   6.048   2.589
 4146SOL    HW113337   5.148   6.117   2.518
 4146SOL    HW213338   5.257   6.025   2.598
 4147SOL     OW13339   4.380   4.948   6.371
 4147SOL    HW113340   4.382   5.034   6.320
 4147SOL    HW213341   4.448   4.951   6.445
 4148SOL     OW13342   2.107   1.482   5.642
 4148SOL    HW113343   2.172   1.546   5.682
 4148SOL    HW213344   2.155   1.423   5.577
 4149SOL     OW13345   1.937   3.206   6.579
 4149SOL    HW113346   1.845   3.177   6.552
 4149SOL    HW213347   1.932   3.291   6.632
 4150SOL     OW13348   5.283   1.767   6.623
 4150SOL    HW113349   5.219   1.843   6.632
 4150SOL    HW213350   5.376   1.802   6.611
 4151SOL     OW13351   3.278   5.869   4.081
 4151SOL    HW113352   3.201   5.807   4.068
 4151SOL    HW213353   3.284   5.894   4.178
 4152SOL     OW13354   3.103   4.534   1.446
 4152SOL    HW113355   3.179   4.584   1.405
 4152SOL    HW213356   3.046   4.494   1.374
 4153SOL     OW13357   0.037   5.854   1.288
 4153SOL    HW113358   0.085   5.771   1.318
 4153SOL    HW213359   0.055   5.869   1.190
 4154SOL     OW13360   1.307   6.372   3.807
 4154SOL    HW113361   1.302   6.321   3.893
 4154SOL    HW213362   1.364   6.322   3.741
 4155SOL     OW13363   0.725   0.650   1.765
 4155SOL    HW113364   0.768   0.641   1.675
 4155SOL    HW213365   0.694   0.561   1.796
 4156SOL     OW13366   0.670   5.249   6.153
 4156SOL    HW113367   0.608   5.305   6.097
 4156SOL    HW213368   0.630   5.236   6.244
 4157SOL     OW13369   6.116   6.107   1.496
 4157SOL    HW113370   6.114   6.205   1.519
 4157SOL    HW213371   6.046   6.059   1.548
 4158SOL     OW13372   1.141   2.760   1.423
 4158SOL    HW113373   1.042   2.774   1.424
 4158SOL    HW213374   1.185   2.826   1.483
 4159SOL     OW13375   3.330   0.196   4.061
 4159SOL    HW113376   3.288   0.108   4.041
 4159SOL    HW213377   3.281   0.268   4.012
 4160SOL     OW13378   6.693   0.124   0.044
 4160SOL    HW113379   6.623   0.113   7.001
 4160SOL    HW213380   6.721   0.220   0.048
 4161SOL     OW13381   3.379   3.338   1.779
 4161SOL    HW113382   3.425   3.321   1.866
 4161SOL    HW213383   3.328   3.424   1.784
 4162SOL     OW13384   5.368   5.741   1.777
 4162SOL    HW113385   5.315   5.664   1.740
 4162SOL    HW213386   5.459   5.708   1.804
 4163SOL     OW13387   3.744   5.917   1.712
 4163SOL    HW113388   3.736   5.936   1.809
 4163SOL    HW213389   3.821   5.970   1.674
 4164SOL     OW13390   6.642   0.726   5.636
 4164SOL    HW113391   6.620   0.780   5.556
 4164SOL    HW213392   6.674   0.787   5.709
 4165SOL     OW13393   4.822   0.964   4.664
 4165SOL    HW113394   4.760   0.905   4.717
 4165SOL    HW213395   4.894   0.908   4.624
 4166SOL     OW13396   5.937   1.367   1.293
 4166SOL    HW113397   5.985   1.292   1.249
 4166SOL    HW213398   5.993   1.405   1.366
 4167SOL     OW13399   3.577   5.545   4.201
 4167SOL    HW113400   3.570   5.640   4.172
 4167SOL    HW213401   3.562   5.485   4.122
 4168SOL     OW13402   5.274   3.553   6.835
 4168SOL    HW113403   5.319   3.641   6.818
 4168SOL    HW213404   5.331   3.479   6.802
 4169SOL     OW13405   4.840   2.949   5.719
 4169SOL    HW113406   4.852   2.965   5.621
 4169SOL    HW213407   4.751   2.907   5.736
 4170SOL     OW13408   0.045   2.634   4.404
 4170SOL    HW113409   0.008   2.626   4.311
 4170SOL    HW213410   6.997   2.634   4.470
 4171SOL     OW13411   0.456   2.286   0.078
 4171SOL    HW113412   0.483   2.280   7.009
 4171SOL    HW213413   0.537   2.296   0.135
 4172SOL     OW13414   2.633   4.497   0.774
 4172SOL    HW113415   2.614   4.581   0.724
 4172SOL    HW213416   2.700   4.443   0.724
 4173SOL     OW13417   4.627   2.270   6.645
 4173SOL    HW113418   4.724   2.268   6.621
 4173SOL    HW213419   4.597   2.364   6.653
 4174SOL     OW13420   3.288   0.630   4.962
 4174SOL    HW113421   3.238   0.582   5.034
 4174SOL    HW213422   3.254   0.602   4.872
 4175SOL     OW13423   0.594   4.172   6.830
 4175SOL    HW113424   0.667   4.186   6.763
 4175SOL    HW213425   0.518   4.234   6.809
 4176SOL     OW13426   5.223   0.012   6.029
 4176SOL    HW113427   5.315   7.012   6.001
 4176SOL    HW213428   5.219   0.111   6.041
 4177SOL     OW13429   3.991   4.790   2.799
 4177SOL    HW113430   4.024   4.771   2.892
 4177SOL    HW213431   3.892   4.798   2.799
 4178SOL     OW13432   4.211   5.616   1.230
 4178SOL    HW113433   4.189   5.574   1.142
 4178SOL    HW213434   4.146   5.585   1.299
 4179SOL     OW13435   5.466   2.817   5.794
 4179SOL    HW113436   5.503   2.736   5.749
 4179SOL    HW213437   5.541   2.871   5.833
 4180SOL     OW13438   4.157   4.172   0.329
 4180SOL    HW113439   4.143   4.076   0.306
 4180SOL    HW213440   4.139   4.230   0.250
 4181SOL     OW13441   4.797   6.484   4.787
 4181SOL    HW113442   4.784   6.552   4.860
 4181SOL    HW213443   4.711   6.468   4.740
 4182SOL     OW13444   0.149   6.428   4.837
 4182SOL    HW113445   0.239   6.455   4.802
 4182SOL    HW213446   0.124   6.340   4.798
 4183SOL     OW13447   3.751   1.897   1.066
 4183SOL    HW113448   3.753   1.865   1.161
 4183SOL    HW213449   3.770   1.995   1.064
 4184SOL     OW13450   3.502   5.654   3.626
 4184SOL    HW113451   3.532   5.733   3.680
 4184SOL    HW213452   3.412   5.673   3.587
 4185SOL     OW13453   5.752   2.994   3.055
 4185SOL    HW113454   5.713   3.002   2.964
 4185SOL    HW213455   5.695   2.934   3.111
 4186SOL     OW13456   1.566   6.465   0.707
 4186SOL    HW113457   1.615   6.382   0.679
 4186SOL    HW213458   1.473   6.442   0.736
 4187SOL     OW13459   1.838   3.516   6.465
 4187SOL    HW113460   1.899   3.581   6.419
 4187SOL    HW213461   1.888   3.468   6.537
 4188SOL     OW13462   4.417   0.057   0.574
 4188SOL    HW113463   4.447   0.118   0.647
 4188SOL    HW213464   4.319   0.068   0.559
 4189SOL     OW13465   5.001   4.885   4.015
 4189SOL    HW113466   5.091   4.907   4.053
 4189SOL    HW213467   4.932   4.944   4.057
 4190SOL     OW13468   6.934   6.071   1.039
 4190SOL    HW113469   6.890   6.000   1.094
 4190SOL    HW213470   6.886   6.080   0.952
 4191SOL     OW13471   4.780   4.596   6.602
 4191SOL    HW113472   4.880   4.602   6.599
 4191SOL    HW213473   4.753   4.525   6.666
 4192SOL     OW13474   1.257   3.597   1.529
 4192SOL    HW113475   1.264   3.520   1.466
 4192SOL    HW213476   1.275   3.565   1.622
 4193SOL     OW13477   0.463   0.525   0.963
 4193SOL    HW113478   0.478   0.501   0.867
 4193SOL    HW213479   0.550   0.545   1.006
 4194SOL     OW13480   4.554   1.283   5.282
 4194SOL    HW113481   4.549   1.185   5.259
 4194SOL    HW213482   4.539   1.295   5.380
 4195SOL     OW13483   3.554   6.050   1.081
 4195SOL    HW113484   3.532   6.073   0.987
 4195SOL    HW213485   3.474   6.009   1.125
 4196SOL     OW13486   6.385   3.046   2.062
 4196SOL    HW113487   6.303   3.087   2.024
 4196SOL    HW213488   6.466   3.093   2.027
 4197SOL     OW13489   3.843   0.896   6.721
 4197SOL    HW113490   3.849   0.897   6.821
 4197SOL    HW213491   3.795   0.814   6.691
 4198SOL     OW13492   6.406   1.947   2.437
 4198SOL    HW113493   6.368   2.027   2.390
 4198SOL    HW213494   6.482   1.976   2.495
 4199SOL     OW13495   0.603   4.054   5.807
 4199SOL    HW113496   0.528   4.008   5.854
 4199SOL    HW213497   0.597   4.035   5.709
 4200SOL     OW13498   4.800   1.136   3.439
 4200SOL    HW113499   4.842   1.068   3.498
 4200SOL    HW213500   4.765   1.092   3.357
 4201SOL     OW13501   5.792   6.278   3.917
 4201SOL    HW113502   5.852   6.203   3.890
 4201SOL    HW213503   5.702   6.266   3.874
 4202SOL     OW13504   4.991   3.986   1.010
 4202SOL    HW113505   4.946   4.055   0.954
 4202SOL    HW213506   4.970   4.004   1.107
 4203SOL     OW13507   6.347   5.663   6.483
 4203SOL    HW113508   6.326   5.582   6.429
 4203SOL    HW213509   6.263   5.702   6.520
 4204SOL     OW13510   2.473   3.465   6.623
 4204SOL    HW113511   2.508   3.440   6.532
 4204SOL    HW213512   2.534   3.428   6.693
 4205SOL     OW13513   3.711   6.632   5.437
 4205SOL    HW113514   3.743   6.543   5.469
 4205SOL    HW213515   3.776   6.670   5.372
 4206SOL     OW13516   1.478   2.313   4.652
 4206SOL    HW113517   1.574   2.285   4.648
 4206SOL    HW213518   1.448   2.312   4.748
 4207SOL     OW13519   1.584   2.336   2.261
 4207SOL    HW113520   1.639   2.413   2.228
 4207SOL    HW213521   1.487   2.360   2.254
 4208SOL     OW13522   2.021   3.430   4.700
 4208SOL    HW113523   2.072   3.381   4.771
 4208SOL    HW213524   1.961   3.497   4.744
 4209SOL     OW13525   6.780   6.553   2.322
 4209SOL    HW113526   6.760   6.630   2.260
 4209SOL    HW213527   6.862   6.574   2.374
 4210SOL     OW13528   4.088   3.797   4.879
 4210SOL    HW113529   4.025   3.822   4.953
 4210SOL    HW213530   4.104   3.876   4.821
 4211SOL     OW13531   4.357   2.384   5.454
 4211SOL    HW113532   4.436   2.360   5.510
 4211SOL    HW213533   4.278   2.329   5.484
 4212SOL     OW13534   0.283   2.643   3.606
 4212SOL    HW113535   0.294   2.703   3.685
 4212SOL    HW213536   0.251   2.553   3.635
 4213SOL     OW13537   3.202   0.785   3.579
 4213SOL    HW113538   3.301   0.800   3.576
 4213SOL    HW213539   3.174   0.725   3.504
 4214SOL     OW13540   0.389   5.869   3.850
 4214SOL    HW113541   0.452   5.924   3.905
 4214SOL    HW213542   0.407   5.885   3.753
 4215SOL     OW13543   4.626   6.498   5.286
 4215SOL    HW113544   4.553   6.553   5.326
 4215SOL    HW213545   4.664   6.437   5.356
 4216SOL     OW13546   2.545   5.958   1.983
 4216SOL    HW113547   2.568   6.054   1.968
 4216SOL    HW213548   2.608   5.918   2.049
 4217SOL     OW13549   1.062   0.544   2.635
 4217SOL    HW113550   1.104   0.485   2.703
 4217SOL    HW213551   0.976   0.581   2.671
 4218SOL     OW13552   3.023   1.562   1.589
 4218SOL    HW113553   3.088   1.628   1.627
 4218SOL    HW213554   2.930   1.588   1.616
 4219SOL     OW13555   4.580   5.834   3.184
 4219SOL    HW113556   4.491   5.878   3.184
 4219SOL    HW213557   4.638   5.875   3.255
 4220SOL     OW13558   5.265   2.373   1.823
 4220SOL    HW113559   5.168   2.397   1.818
 4220SOL    HW213560   5.315   2.444   1.873
 4221SOL     OW13561   0.666   6.041   0.128
 4221SOL    HW113562   0.574   6.075   0.108
 4221SOL    HW213563   0.705   6.094   0.203
 4222SOL     OW13564   4.808   2.782   3.806
 4222SOL    HW113565   4.814   2.881   3.822
 4222SOL    HW213566   4.740   2.743   3.867
 4223SOL     OW13567   4.114   3.773   2.032
 4223SOL    HW113568   4.025   3.797   1.992
 4223SOL    HW213569   4.185   3.828   1.989
 4224SOL     OW13570   4.895   3.642   4.490
 4224SOL    HW113571   4.960   3.628   4.416
 4224SOL    HW213572   4.897   3.563   4.552
 4225SOL     OW13573   0.111   1.852   5.339
 4225SOL    HW113574   0.034   1.879   5.396
 4225SOL    HW213575   0.193   1.900   5.369
 4226SOL     OW13576   1.476   5.525   4.931
 4226SOL    HW113577   1.455   5.584   4.853
 4226SOL    HW213578   1.462   5.576   5.016
 4227SOL     OW13579   5.612   5.378   2.515
 4227SOL    HW113580   5.559   5.293   2.509
 4227SOL    HW213581   5.579   5.432   2.594
 4228SOL     OW13582   1.551   5.009   4.330
 4228SOL    HW113583   1.477   4.946   4.357
 4228SOL    HW213584   1.519   5.067   4.256
 4229SOL     OW13585   6.257   5.059   5.337
 4229SOL    HW113586   6.287   4.964   5.329
 4229SOL    HW213587   6.158   5.065   5.323
 4230SOL     OW13588   0.431   0.594   2.307
 4230SOL    HW113589   0.444   0.517   2.369
 4230SOL    HW213590   0.412   0.559   2.215
 4231SOL     OW13591   5.745   1.829   5.530
 4231SOL    HW113592   5.799   1.790   5.455
 4231SOL    HW213593   5.735   1.761   5.602
 4232SOL     OW13594   1.547   5.833   3.723
 4232SOL    HW113595   1.503   5.760   3.775
 4232SOL    HW213596   1.518   5.829   3.628
 4233SOL     OW13597   4.933   5.134   3.539
 4233SOL    HW113598   4.981   5.147   3.626
 4233SOL    HW213599   4.837   5.112   3.557
 4234SOL     OW13600   2.959   5.685   6.069
 4234SOL    HW113601   2.870   5.698   6.113
 4234SOL    HW213602   2.957   5.720   5.976
 4235SOL     OW13603   0.570   5.964   5.639
 4235SOL    HW113604   0.639   6.035   5.651
 4235SOL    HW213605   0.591   5.886   5.697
 4236SOL     OW13606   0.228   5.532   2.886
 4236SOL    HW113607   0.259   5.546   2.792
 4236SOL    HW213608   0.140   5.486   2.886
 4237SOL     OW13609   6.892   4.627   3.660
 4237SOL    HW113610   6.864   4.565   3.734
 4237SOL    HW213611   6.856   4.719   3.678
 4238SOL     OW13612   2.478   6.658   2.807
 4238SOL    HW113613   2.529   6.637   2.890
 4238SOL    HW213614   2.537   6.646   2.727
 4239SOL     OW13615   4.465   1.104   3.901
 4239SOL    HW113616   4.421   1.193   3.914
 4239SOL    HW213617   4.419   1.054   3.829
 4240SOL     OW13618   0.077   6.523   1.170
 4240SOL    HW113619   0.084   6.572   1.257
 4240SOL    HW213620   0.030   6.437   1.183
 4241SOL     OW13621   6.430   2.979   0.671
 4241SOL    HW113622   6.422   2.965   0.770
 4241SOL    HW213623   6.343   2.957   0.628
 4242SOL     OW13624   2.033   1.490   3.583
 4242SOL    HW113625   2.114   1.515   3.635
 4242SOL    HW213626   1.952   1.531   3.625
 4243SOL     OW13627   4.926   0.099   2.999
 4243SOL    HW113628   4.978   0.047   3.066
 4243SOL    HW213629   4.871   0.169   3.045
 4244SOL     OW13630   3.553   3.569   2.262
 4244SOL    HW113631   3.639   3.530   2.228
 4244SOL    HW213632   3.573   3.648   2.319
 4245SOL     OW13633   6.011   2.066   6.518
 4245SOL    HW113634   6.001   1.969   6.537
 4245SOL    HW213635   6.093   2.100   6.563
 4246SOL     OW13636   0.895   3.672   1.618
 4246SOL    HW113637   0.985   3.704   1.586
 4246SOL    HW213638   0.870   3.721   1.701
 4247SOL     OW13639   0.406   5.280   4.863
 4247SOL    HW113640   0.397   5.367   4.815
 4247SOL    HW213641   0.501   5.251   4.861
 4248SOL     OW13642   1.756   2.955   5.526
 4248SOL    HW113643   1.742   2.969   5.428
 4248SOL    HW213644   1.822   3.022   5.560
 4249SOL     OW13645   5.535   3.894   6.302
 4249SOL    HW113646   5.446   3.850   6.310
 4249SOL    HW213647   5.599   3.833   6.255
 4250SOL     OW13648   0.052   4.595   3.004
 4250SOL    HW113649   0.002   4.513   2.978
 4250SOL    HW213650   0.018   4.628   3.092
 4251SOL     OW13651   5.755   4.421   0.730
 4251SOL    HW113652   5.746   4.519   0.745
 4251SOL    HW213653   5.729   4.399   0.636
 4252SOL     OW13654   0.464   5.627   5.594
 4252SOL    HW113655   0.458   5.677   5.507
 4252SOL    HW213656   0.555   5.639   5.633
 4253SOL     OW13657   4.479   6.850   2.223
 4253SOL    HW113658   4.431   6.898   2.297
 4253SOL    HW213659   4.413   6.803   2.165
 4254SOL     OW13660   2.387   4.749   1.074
 4254SOL    HW113661   2.456   4.822   1.082
 4254SOL    HW213662   2.410   4.675   1.136
 4255SOL     OW13663   0.614   2.688   4.888
 4255SOL    HW113664   0.553   2.728   4.819
 4255SOL    HW213665   0.569   2.611   4.932
 4256SOL     OW13666   2.099   0.099   1.439
 4256SOL    HW113667   2.106   0.130   1.345
 4256SOL    HW213668   2.067   0.004   1.442
 4257SOL     OW13669   4.018   1.794   4.674
 4257SOL    HW113670   3.964   1.751   4.603
 4257SOL    HW213671   4.033   1.729   4.749
 4258SOL     OW13672   5.428   6.610   2.410
 4258SOL    HW113673   5.332   6.629   2.390
 4258SOL    HW213674   5.434   6.544   2.484
 4259SOL     OW13675   2.249   2.431   0.124
 4259SOL    HW113676   2.323   2.368   0.101
 4259SOL    HW213677   2.278   2.525   0.104
 4260SOL     OW13678   4.899   5.681   3.635
 4260SOL    HW113679   4.888   5.635   3.547
 4260SOL    HW213680   4.825   5.654   3.696
 4261SOL     OW13681   1.495   6.681   1.936
 4261SOL    HW113682   1.407   6.695   1.890
 4261SOL    HW213683   1.546   6.608   1.890
 4262SOL     OW13684   0.813   5.152   6.664
 4262SOL    HW113685   0.735   5.092   6.681
 4262SOL    HW213686   0.849   5.186   6.751
 4263SOL     OW13687   2.864   4.973   5.480
 4263SOL    HW113688   2.945   4.929   5.441
 4263SOL    HW213689   2.858   5.067   5.447
 4264SOL     OW13690   0.605   0.784   1.152
 4264SOL    HW113691   0.507   0.799   1.169
 4264SOL    HW213692   0.650   0.760   1.238
 4265SOL     OW13693   6.782   1.554   0.845
 4265SOL    HW113694   6.731   1.480   0.802
 4265SOL    HW213695   6.801   1.626   0.778
 4266SOL     OW13696   2.321   5.365   0.571
 4266SOL    HW113697   2.308   5.456   0.530
 4266SOL    HW213698   2.336   5.375   0.669
 4267SOL     OW13699   1.720   3.701   4.952
 4267SOL    HW113700   1.812   3.740   4.948
 4267SOL    HW213701   1.662   3.757   5.010
 4268SOL     OW13702   2.132   0.805   0.661
 4268SOL    HW113703   2.137   0.712   0.625
 4268SOL    HW213704   2.122   0.869   0.585
 4269SOL     OW13705   3.290   3.171   0.277
 4269SOL    HW113706   3.287   3.073   0.255
 4269SOL    HW213707   3.216   3.218   0.229
 4270SOL     OW13708   3.336   2.885   4.746
 4270SOL    HW113709   3.321   2.925   4.656
 4270SOL    HW213710   3.433   2.895   4.771
 4271SOL     OW13711   0.741   7.009   6.551
 4271SOL    HW113712   0.741   6.990   6.453
 4271SOL    HW213713   0.661   6.968   6.593
 4272SOL     OW13714   0.212   4.611   4.812
 4272SOL    HW113715   0.188   4.528   4.762
 4272SOL    HW213716   0.189   4.691   4.756
 4273SOL     OW13717   5.379   6.635   5.722
 4273SOL    HW113718   5.372   6.553   5.780
 4273SOL    HW213719   5.414   6.609   5.632
 4274SOL     OW13720   1.602   6.526   3.633
 4274SOL    HW113721   1.701   6.519   3.640
 4274SOL    HW213722   1.575   6.622   3.637
 4275SOL     OW13723   0.775   6.814   6.041
 4275SOL    HW113724   0.808   6.852   6.127
 4275SOL    HW213725   0.678   6.791   6.049
 4276SOL     OW13726   1.959   4.270   2.508
 4276SOL    HW113727   1.955   4.232   2.600
 4276SOL    HW213728   1.964   4.196   2.441
 4277SOL     OW13729   0.034   5.454   3.445
 4277SOL    HW113730   0.128   5.482   3.424
 4277SOL    HW213731   0.023   5.449   3.544
 4278SOL     OW13732   6.662   6.771   5.091
 4278SOL    HW113733   6.750   6.737   5.059
 4278SOL    HW213734   6.643   6.735   5.183
 4279SOL     OW13735   3.308   6.262   5.140
 4279SOL    HW113736   3.224   6.207   5.134
 4279SOL    HW213737   3.335   6.271   5.236
 4280SOL     OW13738   5.584   2.362   4.296
 4280SOL    HW113739   5.583   2.374   4.395
 4280SOL    HW213740   5.500   2.398   4.257
 4281SOL     OW13741   2.241   4.182   4.830
 4281SOL    HW113742   2.246   4.115   4.904
 4281SOL    HW213743   2.170   4.156   4.765
 4282SOL     OW13744   1.915   2.661   1.158
 4282SOL    HW113745   1.886   2.750   1.193
 4282SOL    HW213746   1.933   2.668   1.060
 4283SOL     OW13747   1.976   0.401   4.296
 4283SOL    HW113748   2.053   0.363   4.245
 4283SOL    HW213749   1.935   0.330   4.354
 4284SOL     OW13750   5.858   2.002   2.471
 4284SOL    HW113751   5.786   1.950   2.426
 4284SOL    HW213752   5.859   2.096   2.437
 4285SOL     OW13753   0.822   7.006   5.812
 4285SOL    HW113754   0.735   0.028   5.818
 4285SOL    HW213755   0.814   6.918   5.859
 4286SOL     OW13756   4.863   6.064   0.600
 4286SOL    HW113757   4.792   6.036   0.664
 4286SOL    HW213758   4.834   6.045   0.506
 4287SOL     OW13759   5.692   6.691   4.606
 4287SOL    HW113760   5.616   6.703   4.542
 4287SOL    HW213761   5.721   6.596   4.605
 4288SOL     OW13762   1.515   6.398   2.801
 4288SOL    HW113763   1.449   6.353   2.861
 4288SOL    HW213764   1.607   6.364   2.821
 4289SOL     OW13765   5.567   2.687   1.233
 4289SOL    HW113766   5.655   2.644   1.212
 4289SOL    HW213767   5.583   2.776   1.275
 4290SOL     OW13768   2.367   0.802   1.647
 4290SOL    HW113769   2.269   0.813   1.633
 4290SOL    HW213770   2.409   0.763   1.564
 4291SOL     OW13771   6.290   3.520   1.013
 4291SOL    HW113772   6.223   3.570   1.067
 4291SOL    HW213773   6.291   3.424   1.041
 4292SOL     OW13774   5.689   5.187   6.651
 4292SOL    HW113775   5.735   5.209   6.565
 4292SOL    HW213776   5.685   5.269   6.708
 4293SOL     OW13777   0.155   2.858   6.873
 4293SOL    HW113778   0.211   2.901   6.802
 4293SOL    HW213779   0.075   2.915   6.891
 4294SOL     OW13780   4.443   2.440   5.946
 4294SOL    HW113781   4.488   2.500   5.879
 4294SOL    HW213782   4.477   2.346   5.933
 4295SOL     OW13783   3.508   0.231   4.263
 4295SOL    HW113784   3.523   0.325   4.293
 4295SOL    HW213785   3.449   0.230   4.183
 4296SOL     OW13786   2.601   1.928   1.268
 4296SOL    HW113787   2.563   1.872   1.195
 4296SOL    HW213788   2.535   1.936   1.342
 4297SOL     OW13789   5.563   0.568   5.119
 4297SOL    HW113790   5.623   0.636   5.163
 4297SOL    HW213791   5.564   0.581   5.020
 4298SOL     OW13792   2.741   6.018   1.516
 4298SOL    HW113793   2.695   5.967   1.588
 4298SOL    HW213794   2.678   6.035   1.440
 4299SOL     OW13795   0.620   3.552   6.447
 4299SOL    HW113796   0.686   3.615   6.405
 4299SOL    HW213797   0.614   3.469   6.392
 4300SOL     OW13798   4.611   1.213   6.747
 4300SOL    HW113799   4.618   1.278   6.823
 4300SOL    HW213800   4.702   1.192   6.713
 4301SOL     OW13801   2.595   1.590   0.653
 4301SOL    HW113802   2.496   1.587   0.661
 4301SOL    HW213803   2.637   1.542   0.730
 4302SOL     OW13804   0.931   6.753   6.781
 4302SOL    HW113805   0.984   6.681   6.826
 4302SOL    HW213806   0.992   6.815   6.734
 4303SOL     OW13807   0.318   3.225   2.367
 4303SOL    HW113808   0.390   3.184   2.312
 4303SOL    HW213809   0.357   3.297   2.425
 4304SOL     OW13810   3.303   3.823   4.110
 4304SOL    HW113811   3.368   3.795   4.040
 4304SOL    HW213812   3.350   3.829   4.198
 4305SOL     OW13813   6.490   1.280   3.506
 4305SOL    HW113814   6.512   1.273   3.409
 4305SOL    HW213815   6.393   1.260   3.520
 4306SOL     OW13816   6.409   4.699   5.686
 4306SOL    HW113817   6.333   4.727   5.626
 4306SOL    HW213818   6.495   4.715   5.639
 4307SOL     OW13819   4.963   3.919   6.240
 4307SOL    HW113820   4.994   4.006   6.201
 4307SOL    HW213821   4.878   3.892   6.195
 4308SOL     OW13822   5.357   6.026   4.612
 4308SOL    HW113823   5.287   5.987   4.552
 4308SOL    HW213824   5.424   5.956   4.636
 4309SOL     OW13825   1.396   1.581   0.377
 4309SOL    HW113826   1.396   1.652   0.306
 4309SOL    HW213827   1.482   1.585   0.428
 4310SOL     OW13828   1.820   1.828   2.906
 4310SOL    HW113829   1.737   1.812   2.959
 4310SOL    HW213830   1.897   1.844   2.967
 4311SOL     OW13831   2.287   5.950   3.529
 4311SOL    HW113832   2.386   5.941   3.521
 4311SOL    HW213833   2.251   5.998   3.449
 4312SOL     OW13834   1.988   5.484   2.317
 4312SOL    HW113835   2.040   5.412   2.271
 4312SOL    HW213836   1.949   5.546   2.249
 4313SOL     OW13837   4.960   1.124   1.849
 4313SOL    HW113838   4.955   1.199   1.915
 4313SOL    HW213839   4.933   1.039   1.893
 4314SOL     OW13840   4.935   3.375   2.654
 4314SOL    HW113841   4.916   3.396   2.558
 4314SOL    HW213842   4.901   3.283   2.675
 4315SOL     OW13843   2.608   0.619   1.932
 4315SOL    HW113844   2.613   0.678   1.851
 4315SOL    HW213845   2.521   0.571   1.933
 4316SOL     OW13846   6.198   0.599   1.753
 4316SOL    HW113847   6.285   0.644   1.736
 4316SOL    HW213848   6.196   0.566   1.848
 4317SOL     OW13849   3.452   1.049   3.786
 4317SOL    HW113850   3.453   0.958   3.828
 4317SOL    HW213851   3.370   1.058   3.729
 4318SOL     OW13852   0.304   3.089   3.774
 4318SOL    HW113853   0.317   3.032   3.855
 4318SOL    HW213854   0.371   3.065   3.704
 4319SOL     OW13855   2.657   3.876   6.557
 4319SOL    HW113856   2.561   3.904   6.545
 4319SOL    HW213857   2.675   3.794   6.503
 4320SOL     OW13858   0.444   6.659   2.878
 4320SOL    HW113859   0.417   6.606   2.798
 4320SOL    HW213860   0.432   6.756   2.859
 4321SOL     OW13861   6.827   0.273   5.148
 4321SOL    HW113862   6.757   0.320   5.202
 4321SOL    HW213863   6.917   0.293   5.187
 4322SOL     OW13864   5.685   1.006   0.129
 4322SOL    HW113865   5.629   1.088   0.130
 4322SOL    HW213866   5.770   1.024   0.080
 4323SOL     OW13867   6.499   3.424   2.615
 4323SOL    HW113868   6.590   3.414   2.575
 4323SOL    HW213869   6.508   3.447   2.712
 4324SOL     OW13870   5.963   4.163   6.341
 4324SOL    HW113871   5.896   4.238   6.338
 4324SOL    HW213872   6.033   4.183   6.409
 4325SOL     OW13873   1.771   1.474   6.616
 4325SOL    HW113874   1.681   1.495   6.578
 4325SOL    HW213875   1.763   1.401   6.684
 4326SOL     OW13876   6.105   3.185   5.186
 4326SOL    HW113877   6.189   3.189   5.241
 4326SOL    HW213878   6.072   3.091   5.184
 4327SOL     OW13879   6.356   6.555   2.569
 4327SOL    HW113880   6.285   6.518   2.507
 4327SOL    HW213881   6.353   6.505   2.655
 4328SOL     OW13882   5.109   5.138   0.077
 4328SOL    HW113883   5.023   5.093   0.054
 4328SOL    HW213884   5.184   5.092   0.029
 4329SOL     OW13885   4.477   2.182   5.836
 4329SOL    HW113886   4.574   2.159   5.848
 4329SOL    HW213887   4.434   2.114   5.778
 4330SOL     OW13888   1.035   0.102   5.949
 4330SOL    HW113889   1.090   0.020   5.967
 4330SOL    HW213890   0.944   0.074   5.916
 4331SOL     OW13891   5.932   2.290   6.698
 4331SOL    HW113892   5.954   2.216   6.635
 4331SOL    HW213893   5.912   2.373   6.646
 4332SOL     OW13894   4.908   3.197   2.175
 4332SOL    HW113895   4.983   3.132   2.161
 4332SOL    HW213896   4.821   3.148   2.177
 4333SOL     OW13897   5.454   0.908   4.626
 4333SOL    HW113898   5.517   0.888   4.701
 4333SOL    HW213899   5.502   0.905   4.539
 4334SOL     OW13900   4.044   1.881   2.155
 4334SOL    HW113901   3.969   1.947   2.153
 4334SOL    HW213902   4.047   1.837   2.244
 4335SOL     OW13903   3.120   4.088   5.080
 4335SOL    HW113904   3.073   4.002   5.058
 4335SOL    HW213905   3.170   4.120   4.999
 4336SOL     OW13906   1.184   6.612   4.534
 4336SOL    HW113907   1.262   6.557   4.505
 4336SOL    HW213908   1.211   6.708   4.540
 4337SOL     OW13909   6.681   5.585   0.372
 4337SOL    HW113910   6.777   5.600   0.346
 4337SOL    HW213911   6.628   5.561   0.290
 4338SOL     OW13912   6.530   6.052   4.123
 4338SOL    HW113913   6.605   6.043   4.189
 4338SOL    HW213914   6.490   5.962   4.107
 4339SOL     OW13915   6.224   1.728   5.518
 4339SOL    HW113916   6.163   1.802   5.488
 4339SOL    HW213917   6.176   1.641   5.511
 4340SOL     OW13918   5.559   3.928   1.343
 4340SOL    HW113919   5.519   4.011   1.303
 4340SOL    HW213920   5.520   3.848   1.297
 4341SOL     OW13921   2.019   4.238   1.454
 4341SOL    HW113922   2.078   4.211   1.378
 4341SOL    HW213923   2.071   4.293   1.519
 4342SOL     OW13924   1.192   2.820   2.878
 4342SOL    HW113925   1.283   2.825   2.835
 4342SOL    HW213926   1.134   2.759   2.825
 4343SOL     OW13927   3.093   1.297   1.172
 4343SOL    HW113928   3.022   1.235   1.139
 4343SOL    HW213929   3.053   1.365   1.234
 4344SOL     OW13930   2.050   4.943   3.367
 4344SOL    HW113931   1.971   4.889   3.396
 4344SOL    HW213932   2.134   4.900   3.398
 4345SOL     OW13933   1.651   2.283   5.517
 4345SOL    HW113934   1.683   2.247   5.429
 4345SOL    HW213935   1.698   2.236   5.592
 4346SOL     OW13936   2.028   3.339   1.968
 4346SOL    HW113937   2.089   3.418   1.971
 4346SOL    HW213938   2.076   3.261   1.926
 4347SOL     OW13939   5.499   6.799   2.680
 4347SOL    HW113940   5.450   6.713   2.664
 4347SOL    HW213941   5.584   6.780   2.729
 4348SOL     OW13942   1.624   4.035   6.933
 4348SOL    HW113943   1.646   4.131   6.915
 4348SOL    HW213944   1.551   4.005   6.872
 4349SOL     OW13945   0.395   1.359   3.711
 4349SOL    HW113946   0.410   1.360   3.810
 4349SOL    HW213947   0.354   1.272   3.684
 4350SOL     OW13948   5.269   2.293   4.025
 4350SOL    HW113949   5.297   2.362   4.091
 4350SOL    HW213950   5.240   2.210   4.074
 4351SOL     OW13951   3.022   6.031   1.902
 4351SOL    HW113952   2.969   5.963   1.851
 4351SOL    HW213953   3.118   6.027   1.873
 4352SOL     OW13954   6.715   1.106   2.029
 4352SOL    HW113955   6.632   1.146   2.068
 4352SOL    HW213956   6.700   1.009   2.011
 4353SOL     OW13957   3.070   5.860   6.505
 4353SOL    HW113958   3.039   5.889   6.415
 4353SOL    HW213959   3.076   5.760   6.509
 4354SOL     OW13960   2.538   6.828   0.149
 4354SOL    HW113961   2.460   6.805   0.090
 4354SOL    HW213962   2.563   6.924   0.136
 4355SOL     OW13963   4.622   1.187   0.377
 4355SOL    HW113964   4.546   1.133   0.340
 4355SOL    HW213965   4.701   1.128   0.391
 4356SOL     OW13966   3.975   3.977   0.693
 4356SOL    HW113967   3.897   3.974   0.631
 4356SOL    HW213968   4.003   3.883   0.715
 4357SOL     OW13969   6.147   0.119   0.012
 4357SOL    HW113970   6.199   0.068   0.080
 4357SOL    HW213971   6.107   0.056   6.973
 4358SOL     OW13972   0.839   6.924   1.659
 4358SOL    HW113973   0.921   6.978   1.676
 4358SOL    HW213974   0.854   6.830   1.692
 4359SOL     OW13975   0.284   2.296   3.913
 4359SOL    HW113976   0.235   2.233   3.974
 4359SOL    HW213977   0.236   2.301   3.825
 4360SOL     OW13978   1.282   3.230   1.703
 4360SOL    HW113979   1.289   3.329   1.717
 4360SOL    HW213980   1.269   3.185   1.792
 4361SOL     OW13981   4.947   2.595   2.223
 4361SOL    HW113982   4.927   2.663   2.293
 4361SOL    HW213983   5.041   2.608   2.190
 4362SOL     OW13984   6.430   4.345   4.622
 4362SOL    HW113985   6.428   4.246   4.612
 4362SOL    HW213986   6.343   4.384   4.591
 4363SOL     OW13987   4.984   2.695   5.588
 4363SOL    HW113988   5.072   2.722   5.627
 4363SOL    HW213989   4.938   2.776   5.551
 4364SOL     OW13990   3.154   4.033   4.634
 4364SOL    HW113991   3.080   4.046   4.568
 4364SOL    HW213992   3.239   4.071   4.596
 4365SOL     OW13993   4.035   2.139   2.517
 4365SOL    HW113994   4.033   2.212   2.586
 4365SOL    HW213995   4.060   2.053   2.560
 4366SOL     OW13996   5.591   5.617   1.160
 4366SOL    HW113997   5.663   5.645   1.097
 4366SOL    HW213998   5.509   5.592   1.109
 4367SOL     OW13999   1.510   6.441   6.293
 4367SOL    HW114000   1.602   6.462   6.324
 4367SOL    HW214001   1.489   6.345   6.310
 4368SOL     OW14002   5.530   4.060   1.967
 4368SOL    HW114003   5.440   4.020   1.950
 4368SOL    HW214004   5.583   4.061   1.882
 4369SOL     OW14005   4.596   5.654   2.180
 4369SOL    HW114006   4.640   5.658   2.090
 4369SOL    HW214007   4.522   5.721   2.184
 4370SOL     OW14008   5.942   4.859   3.692
 4370SOL    HW114009   5.886   4.799   3.635
 4370SOL    HW214010   6.022   4.889   3.640
 4371SOL     OW14011   6.049   1.468   2.049
 4371SOL    HW114012   5.951   1.451   2.056
 4371SOL    HW214013   6.070   1.499   1.956
 4372SOL     OW14014   4.351   1.350   3.814
 4372SOL    HW114015   4.266   1.377   3.769
 4372SOL    HW214016   4.337   1.349   3.913
 4373SOL     OW14017   6.355   1.729   6.601
 4373SOL    HW114018   6.441   1.696   6.562
 4373SOL    HW214019   6.289   1.743   6.528
 4374SOL     OW14020   1.991   2.680   1.485
 4374SOL    HW114021   1.999   2.668   1.584
 4374SOL    HW214022   2.042   2.608   1.438
 4375SOL     OW14023   2.398   6.655   4.710
 4375SOL    HW114024   2.431   6.653   4.804
 4375SOL    HW214025   2.476   6.658   4.647
 4376SOL     OW14026   5.703   0.637   2.803
 4376SOL    HW114027   5.643   0.681   2.736
 4376SOL    HW214028   5.791   0.616   2.760
 4377SOL     OW14029   5.940   4.436   6.852
 4377SOL    HW114030   5.906   4.406   6.941
 4377SOL    HW214031   5.865   4.474   6.799
 4378SOL     OW14032   1.669   0.193   4.121
 4378SOL    HW114033   1.668   0.104   4.076
 4378SOL    HW214034   1.720   0.186   4.207
 4379SOL     OW14035   2.629   1.928   5.265
 4379SOL    HW114036   2.580   1.869   5.202
 4379SOL    HW214037   2.565   1.991   5.309
 4380SOL     OW14038   0.226   1.240   1.577
 4380SOL    HW114039   0.249   1.184   1.498
 4380SOL    HW214040   0.310   1.261   1.629
 4381SOL     OW14041   2.508   6.481   5.675
 4381SOL    HW114042   2.418   6.440   5.684
 4381SOL    HW214043   2.505   6.556   5.608
 4382SOL     OW14044   6.823   3.768   5.498
 4382SOL    HW114045   6.822   3.850   5.441
 4382SOL    HW214046   6.743   3.768   5.557
 4383SOL     OW14047   5.470   2.984   7.011
 4383SOL    HW114048   5.389   2.951   6.962
 4383SOL    HW214049   5.473   2.944   0.075
 4384SOL     OW14050   6.433   6.234   3.944
 4384SOL    HW114051   6.385   6.202   3.862
 4384SOL    HW214052   6.469   6.155   3.995
 4385SOL     OW14053   5.864   1.934   4.469
 4385SOL    HW114054   5.780   1.963   4.423
 4385SOL    HW214055   5.940   1.936   4.404
 4386SOL     OW14056   0.635   3.445   5.503
 4386SOL    HW114057   0.567   3.513   5.476
 4386SOL    HW214058   0.589   3.365   5.541
 4387SOL     OW14059   6.666   1.816   0.226
 4387SOL    HW114060   6.664   1.851   0.320
 4387SOL    HW214061   6.696   1.889   0.165
 4388SOL     OW14062   4.796   1.897   6.767
 4388SOL    HW114063   4.833   1.987   6.792
 4388SOL    HW214064   4.860   1.849   6.707
 4389SOL     OW14065   0.470   3.570   1.674
 4389SOL    HW114066   0.538   3.498   1.689
 4389SOL    HW214067   0.379   3.535   1.695
 4390SOL     OW14068   6.552   0.532   1.891
 4390SOL    HW114069   6.496   0.534   1.974
 4390SOL    HW214070   6.590   0.440   1.879
 4391SOL     OW14071   2.134   6.050   6.466
 4391SOL    HW114072   2.066   5.977   6.455
 4391SOL    HW214073   2.087   6.135   6.492
 4392SOL     OW14074   2.087   2.596   5.213
 4392SOL    HW114075   2.040   2.663   5.156
 4392SOL    HW214076   2.027   2.569   5.288
 4393SOL     OW14077   4.946   0.592   1.641
 4393SOL    HW114078   4.971   0.595   1.738
 4393SOL    HW214079   4.985   0.672   1.595
 4394SOL     OW14080   1.523   0.377   1.438
 4394SOL    HW114081   1.463   0.314   1.388
 4394SOL    HW214082   1.468   0.429   1.504
 4395SOL     OW14083   2.514   5.527   1.113
 4395SOL    HW114084   2.555   5.597   1.054
 4395SOL    HW214085   2.453   5.571   1.179
 4396SOL     OW14086   2.236   0.225   3.058
 4396SOL    HW114087   2.294   0.186   2.986
 4396SOL    HW214088   2.153   0.263   3.018
 4397SOL     OW14089   2.774   1.649   4.169
 4397SOL    HW114090   2.839   1.700   4.112
 4397SOL    HW214091   2.731   1.711   4.233
 4398SOL     OW14092   2.031   2.941   5.704
 4398SOL    HW114093   2.122   2.903   5.722
 4398SOL    HW214094   2.037   3.012   5.635
 4399SOL     OW14095   3.130   0.025   2.216
 4399SOL    HW114096   3.220   0.053   2.181
 4399SOL    HW214097   3.128   6.953   2.229
 4400SOL     OW14098   2.115   5.549   4.945
 4400SOL    HW114099   2.167   5.556   4.860
 4400SOL    HW214100   2.133   5.460   4.987
 4401SOL     OW14101   3.848   0.131   6.141
 4401SOL    HW114102   3.859   0.198   6.214
 4401SOL    HW214103   3.930   0.129   6.084
 4402SOL     OW14104   1.321   0.232   2.971
 4402SOL    HW114105   1.368   0.144   2.976
 4402SOL    HW214106   1.349   0.289   3.049
 4403SOL     OW14107   1.413   5.132   0.883
 4403SOL    HW114108   1.395   5.036   0.905
 4403SOL    HW214109   1.510   5.153   0.897
 4404SOL     OW14110   0.697   6.297   6.255
 4404SOL    HW114111   0.609   6.344   6.244
 4404SOL    HW214112   0.692   6.236   6.334
 4405SOL     OW14113   1.818   5.235   3.911
 4405SOL    HW114114   1.864   5.172   3.849
 4405SOL    HW214115   1.814   5.194   4.003
 4406SOL     OW14116   6.309   3.493   2.232
 4406SOL    HW114117   6.322   3.424   2.303
 4406SOL    HW214118   6.312   3.584   2.273
 4407SOL     OW14119   6.312   6.196   2.018
 4407SOL    HW114120   6.228   6.222   1.971
 4407SOL    HW214121   6.376   6.273   2.017
 4408SOL     OW14122   4.070   0.750   0.801
 4408SOL    HW114123   4.164   0.784   0.793
 4408SOL    HW214124   4.009   0.810   0.749
 4409SOL     OW14125   3.403   0.630   2.431
 4409SOL    HW114126   3.446   0.704   2.379
 4409SOL    HW214127   3.435   0.542   2.397
 4410SOL     OW14128   0.883   6.263   1.189
 4410SOL    HW114129   0.883   6.163   1.199
 4410SOL    HW214130   0.962   6.291   1.136
 4411SOL     OW14131   3.447   4.575   5.328
 4411SOL    HW114132   3.352   4.560   5.355
 4411SOL    HW214133   3.497   4.617   5.404
 4412SOL     OW14134   5.222   6.286   2.418
 4412SOL    HW114135   5.199   6.376   2.455
 4412SOL    HW214136   5.320   6.283   2.397
 4413SOL     OW14137   4.378   6.217   3.924
 4413SOL    HW114138   4.350   6.249   3.833
 4413SOL    HW214139   4.461   6.264   3.951
 4414SOL     OW14140   4.449   4.047   1.267
 4414SOL    HW114141   4.455   4.125   1.206
 4414SOL    HW214142   4.536   4.034   1.315
 4415SOL     OW14143   3.070   3.688   1.215
 4415SOL    HW114144   3.014   3.716   1.293
 4415SOL    HW214145   3.046   3.742   1.135
 4416SOL     OW14146   4.594   2.536   2.886
 4416SOL    HW114147   4.622   2.563   2.978
 4416SOL    HW214148   4.516   2.474   2.891
 4417SOL     OW14149   0.238   3.617   3.944
 4417SOL    HW114150   0.216   3.702   3.897
 4417SOL    HW214151   0.227   3.540   3.880
 4418SOL     OW14152   6.249   6.791   6.675
 4418SOL    HW114153   6.158   6.807   6.713
 4418SOL    HW214154   6.252   6.700   6.633
 4419SOL     OW14155   6.543   5.895   6.516
 4419SOL    HW114156   6.520   5.953   6.438
 4419SOL    HW214157   6.481   5.816   6.518
 4420SOL     OW14158   3.825   2.489   0.680
 4420SOL    HW114159   3.739   2.443   0.701
 4420SOL    HW214160   3.898   2.421   0.672
 4421SOL     OW14161   1.539   2.795   5.347
 4421SOL    HW114162   1.541   2.695   5.347
 4421SOL    HW214163   1.523   2.828   5.440
 4422SOL     OW14164   6.864   4.259   6.856
 4422SOL    HW114165   6.957   4.253   6.891
 4422SOL    HW214166   6.839   4.355   6.842
 4423SOL     OW14167   5.550   3.962   5.191
 4423SOL    HW114168   5.599   4.049   5.204
 4423SOL    HW214169   5.545   3.914   5.278
 4424SOL     OW14170   4.847   5.948   3.659
 4424SOL    HW114171   4.766   5.946   3.717
 4424SOL    HW214172   4.871   5.855   3.631
 4425SOL     OW14173   1.962   5.469   1.899
 4425SOL    HW114174   1.907   5.542   1.941
 4425SOL    HW214175   1.997   5.500   1.811
 4426SOL     OW14176   0.969   6.960   4.177
 4426SOL    HW114177   1.020   6.875   4.191
 4426SOL    HW214178   0.912   6.979   4.257
 4427SOL     OW14179   2.772   6.360   2.365
 4427SOL    HW114180   2.781   6.264   2.337
 4427SOL    HW214181   2.736   6.364   2.458
 4428SOL     OW14182   5.965   0.520   3.567
 4428SOL    HW114183   6.007   0.430   3.559
 4428SOL    HW214184   5.869   0.509   3.596
 4429SOL     OW14185   2.547   6.237   3.016
 4429SOL    HW114186   2.535   6.138   3.027
 4429SOL    HW214187   2.637   6.256   2.978
 4430SOL     OW14188   5.313   4.261   5.138
 4430SOL    HW114189   5.301   4.191   5.067
 4430SOL    HW214190   5.383   4.326   5.109
 4431SOL     OW14191   3.231   6.970   3.967
 4431SOL    HW114192   3.212   7.000   3.874
 4431SOL    HW214193   3.146   6.946   4.012
 4432SOL     OW14194   1.080   3.953   6.192
 4432SOL    HW114195   0.994   3.957   6.142
 4432SOL    HW214196   1.103   4.045   6.225
 4433SOL     OW14197   0.795   0.804   4.990
 4433SOL    HW114198   0.793   0.712   5.031
 4433SOL    HW214199   0.716   0.856   5.022
 4434SOL     OW14200   0.033   0.566   2.343
 4434SOL    HW114201   0.085   0.634   2.292
 4434SOL    HW214202   0.060   0.567   2.439
 4435SOL     OW14203   2.358   3.503   0.263
 4435SOL    HW114204   2.437   3.558   0.238
 4435SOL    HW214205   2.373   3.408   0.233
 4436SOL     OW14206   4.403   1.327   1.766
 4436SOL    HW114207   4.311   1.368   1.762
 4436SOL    HW214208   4.442   1.326   1.675
 4437SOL     OW14209   0.269   3.897   0.957
 4437SOL    HW114210   0.202   3.968   0.976
 4437SOL    HW214211   0.345   3.936   0.906
 4438SOL     OW14212   3.917   0.654   5.919
 4438SOL    HW114213   3.866   0.648   6.005
 4438SOL    HW214214   3.906   0.745   5.880
 4439SOL     OW14215   2.039   6.599   2.511
 4439SOL    HW114216   1.941   6.583   2.508
 4439SOL    HW214217   2.058   6.694   2.488
 4440SOL     OW14218   1.487   4.701   0.007
 4440SOL    HW114219   1.502   4.769   6.962
 4440SOL    HW214220   1.523   4.735   0.094
 4441SOL     OW14221   0.140   0.928   0.541
 4441SOL    HW114222   0.209   0.987   0.499
 4441SOL    HW214223   0.136   0.946   0.639
 4442SOL     OW14224   1.753   4.928   6.355
 4442SOL    HW114225   1.702   4.993   6.411
 4442SOL    HW214226   1.755   4.839   6.401
 4443SOL     OW14227   0.196   5.870   6.320
 4443SOL    HW114228   0.242   5.809   6.385
 4443SOL    HW214229   0.239   5.861   6.230
 4444SOL     OW14230   5.648   4.618   0.112
 4444SOL    HW114231   5.722   4.591   0.049
 4444SOL    HW214232   5.624   4.541   0.170
 4445SOL     OW14233   0.252   5.513   0.209
 4445SOL    HW114234   0.189   5.489   0.283
 4445SOL    HW214235   0.345   5.515   0.244
 4446SOL     OW14236   5.226   0.694   0.783
 4446SOL    HW114237   5.135   0.675   0.746
 4446SOL    HW214238   5.217   0.735   0.873
 4447SOL     OW14239   5.225   5.456   5.465
 4447SOL    HW114240   5.311   5.434   5.420
 4447SOL    HW214241   5.205   5.553   5.452
 4448SOL     OW14242   4.046   6.433   2.013
 4448SOL    HW114243   4.049   6.397   1.920
 4448SOL    HW214244   4.139   6.442   2.048
 4449SOL     OW14245   3.204   1.417   5.148
 4449SOL    HW114246   3.298   1.438   5.121
 4449SOL    HW214247   3.187   1.319   5.137
 4450SOL     OW14248   3.102   6.674   0.353
 4450SOL    HW114249   3.034   6.609   0.387
 4450SOL    HW214250   3.170   6.691   0.424
 4451SOL     OW14251   4.997   4.426   2.990
 4451SOL    HW114252   4.970   4.400   3.083
 4451SOL    HW214253   5.067   4.363   2.957
 4452SOL     OW14254   5.005   6.150   4.547
 4452SOL    HW114255   5.087   6.092   4.548
 4452SOL    HW214256   5.022   6.232   4.602
 4453SOL     OW14257   0.083   3.731   0.659
 4453SOL    HW114258   0.031   3.722   0.744
 4453SOL    HW214259   0.125   3.822   0.654
 4454SOL     OW14260   0.469   2.781   6.580
 4454SOL    HW114261   0.507   2.709   6.637
 4454SOL    HW214262   0.533   2.801   6.505
 4455SOL     OW14263   0.236   6.652   5.256
 4455SOL    HW114264   0.331   6.625   5.240
 4455SOL    HW214265   0.234   6.732   5.315
 4456SOL     OW14266   1.898   7.009   4.505
 4456SOL    HW114267   1.873   0.076   4.482
 4456SOL    HW214268   1.970   6.978   4.443
 4457SOL     OW14269   1.080   2.604   4.987
 4457SOL    HW114270   0.997   2.658   4.994
 4457SOL    HW214271   1.146   2.650   4.928
 4458SOL     OW14272   1.674   3.507   6.814
 4458SOL    HW114273   1.712   3.592   6.851
 4458SOL    HW214274   1.746   3.455   6.769
 4459SOL     OW14275   1.401   2.586   3.125
 4459SOL    HW114276   1.411   2.598   3.026
 4459SOL    HW214277   1.490   2.566   3.165
 4460SOL     OW14278   6.792   3.177   4.180
 4460SOL    HW114279   6.759   3.169   4.274
 4460SOL    HW214280   6.805   3.273   4.157
 4461SOL     OW14281   2.753   0.796   1.256
 4461SOL    HW114282   2.831   0.735   1.244
 4461SOL    HW214283   2.778   0.869   1.320
 4462SOL     OW14284   6.390   4.472   3.113
 4462SOL    HW114285   6.356   4.545   3.172
 4462SOL    HW214286   6.488   4.460   3.128
 4463SOL     OW14287   5.908   1.788   0.354
 4463SOL    HW114288   5.851   1.707   0.370
 4463SOL    HW214289   5.964   1.773   0.272
 4464SOL     OW14290   0.305   5.260   0.521
 4464SOL    HW114291   0.287   5.275   0.618
 4464SOL    HW214292   0.238   5.311   0.467
 4465SOL     OW14293   3.000   5.754   1.124
 4465SOL    HW114294   2.976   5.828   1.187
 4465SOL    HW214295   3.084   5.710   1.156
 4466SOL     OW14296   1.444   2.213   3.228
 4466SOL    HW114297   1.362   2.251   3.269
 4466SOL    HW214298   1.520   2.278   3.238
 4467SOL     OW14299   4.471   6.097   2.722
 4467SOL    HW114300   4.444   6.183   2.767
 4467SOL    HW214301   4.543   6.116   2.656
 4468SOL     OW14302   1.796   3.100   1.468
 4468SOL    HW114303   1.864   3.129   1.535
 4468SOL    HW214304   1.707   3.139   1.492
 4469SOL     OW14305   2.929   6.038   1.127
 4469SOL    HW114306   2.893   6.117   1.175
 4469SOL    HW214307   3.027   6.051   1.111
 4470SOL     OW14308   1.665   0.146   2.603
 4470SOL    HW114309   1.733   0.185   2.540
 4470SOL    HW214310   1.591   0.104   2.551
 4471SOL     OW14311   0.835   0.825   6.118
 4471SOL    HW114312   0.816   0.816   6.216
 4471SOL    HW214313   0.808   0.916   6.087
 4472SOL     OW14314   1.495   2.349   0.782
 4472SOL    HW114315   1.455   2.259   0.801
 4472SOL    HW214316   1.434   2.421   0.813
 4473SOL     OW14317   7.000   3.018   4.502
 4473SOL    HW114318   6.964   3.106   4.473
 4473SOL    HW214319   6.939   2.945   4.470
 4474SOL     OW14320   3.000   5.572   0.927
 4474SOL    HW114321   2.940   5.509   0.977
 4474SOL    HW214322   2.999   5.662   0.971
 4475SOL     OW14323   1.414   3.861   1.253
 4475SOL    HW114324   1.409   3.959   1.230
 4475SOL    HW214325   1.493   3.844   1.312
 4476SOL     OW14326   5.021   1.303   3.403
 4476SOL    HW114327   4.942   1.246   3.384
 4476SOL    HW214328   5.004   1.358   3.485
 4477SOL     OW14329   1.821   0.778   5.228
 4477SOL    HW114330   1.778   0.781   5.318
 4477SOL    HW214331   1.792   0.695   5.179
 4478SOL     OW14332   1.678   0.528   0.477
 4478SOL    HW114333   1.592   0.511   0.429
 4478SOL    HW214334   1.659   0.570   0.566
 4479SOL     OW14335   1.196   3.023   0.804
 4479SOL    HW114336   1.131   3.099   0.800
 4479SOL    HW214337   1.192   2.970   0.719
 4480SOL     OW14338   1.016   5.919   4.135
 4480SOL    HW114339   0.983   5.938   4.227
 4480SOL    HW214340   1.034   6.006   4.088
 4481SOL     OW14341   2.365   3.936   6.493
 4481SOL    HW114342   2.289   3.984   6.448
 4481SOL    HW214343   2.333   3.895   6.578
 4482SOL     OW14344   2.751   5.948   6.721
 4482SOL    HW114345   2.811   5.869   6.737
 4482SOL    HW214346   2.799   6.015   6.663
 4483SOL     OW14347   1.234   3.213   1.060
 4483SOL    HW114348   1.147   3.263   1.061
 4483SOL    HW214349   1.233   3.146   0.986
 4484SOL     OW14350   2.155   2.047   0.235
 4484SOL    HW114351   2.235   2.032   0.177
 4484SOL    HW214352   2.090   1.972   0.221
 4485SOL     OW14353   5.573   2.640   5.064
 4485SOL    HW114354   5.654   2.582   5.069
 4485SOL    HW214355   5.510   2.617   5.139
 4486SOL     OW14356   4.793   5.204   5.669
 4486SOL    HW114357   4.769   5.256   5.587
 4486SOL    HW214358   4.865   5.137   5.646
 4487SOL     OW14359   0.790   3.067   0.125
 4487SOL    HW114360   0.766   3.153   0.170
 4487SOL    HW214361   0.710   3.006   0.126
 4488SOL     OW14362   6.984   4.061   4.318
 4488SOL    HW114363   6.998   4.160   4.308
 4488SOL    HW214364   6.954   4.042   4.412
 4489SOL     OW14365   4.499   5.413   5.729
 4489SOL    HW114366   4.492   5.455   5.819
 4489SOL    HW214367   4.419   5.437   5.674
 4490SOL     OW14368   5.048   1.401   1.121
 4490SOL    HW114369   4.973   1.348   1.161
 4490SOL    HW214370   5.011   1.483   1.077
 4491SOL     OW14371   0.865   2.816   3.229
 4491SOL    HW114372   0.952   2.845   3.190
 4491SOL    HW214373   0.850   2.865   3.315
 4492SOL     OW14374   6.381   0.554   2.476
 4492SOL    HW114375   6.436   0.481   2.434
 4492SOL    HW214376   6.284   0.535   2.463
 4493SOL     OW14377   4.774   1.458   4.513
 4493SOL    HW114378   4.750   1.374   4.562
 4493SOL    HW214379   4.766   1.536   4.575
 4494SOL     OW14380   1.246   0.008   1.129
 4494SOL    HW114381   1.217   6.939   1.129
 4494SOL    HW214382   1.341   0.014   1.102
 4495SOL     OW14383   4.991   5.238   1.751
 4495SOL    HW114384   4.903   5.220   1.705
 4495SOL    HW214385   5.065   5.195   1.699
 4496SOL     OW14386   3.846   5.894   6.222
 4496SOL    HW114387   3.811   5.868   6.132
 4496SOL    HW214388   3.826   5.821   6.288
 4497SOL     OW14389   4.317   1.508   6.396
 4497SOL    HW114390   4.259   1.585   6.367
 4497SOL    HW214391   4.342   1.453   6.316
 4498SOL     OW14392   1.394   4.917   5.650
 4498SOL    HW114393   1.436   4.957   5.732
 4498SOL    HW214394   1.308   4.965   5.630
 4499SOL     OW14395   5.887   2.127   2.723
 4499SOL    HW114396   5.870   2.057   2.653
 4499SOL    HW214397   5.964   2.184   2.695
 4500SOL     OW14398   3.815   5.647   7.008
 4500SOL    HW114399   3.898   5.655   0.037
 4500SOL    HW214400   3.834   5.590   6.928
 4501SOL     OW14401   5.459   0.749   2.931
 4501SOL    HW114402   5.536   0.697   2.893
 4501SOL    HW214403   5.490   0.797   3.012
 4502SOL     OW14404   0.135   3.661   6.593
 4502SOL    HW114405   0.114   3.597   6.667
 4502SOL    HW214406   0.050   3.704   6.561
 4503SOL     OW14407   2.511   0.588   2.607
 4503SOL    HW114408   2.578   0.559   2.538
 4503SOL    HW214409   2.547   0.666   2.658
 4504SOL     OW14410   0.095   2.236   2.887
 4504SOL    HW114411   0.182   2.280   2.908
 4504SOL    HW214412   0.098   2.199   2.794
 4505SOL     OW14413   6.180   4.126   4.330
 4505SOL    HW114414   6.081   4.119   4.344
 4505SOL    HW214415   6.199   4.139   4.232
 4506SOL     OW14416   4.981   2.899   5.101
 4506SOL    HW114417   5.080   2.913   5.096
 4506SOL    HW214418   4.935   2.988   5.107
 4507SOL     OW14419   6.456   2.908   3.129
 4507SOL    HW114420   6.461   2.862   3.040
 4507SOL    HW214421   6.362   2.936   3.146
 4508SOL     OW14422   0.536   5.256   0.813
 4508SOL    HW114423   0.436   5.247   0.813
 4508SOL    HW214424   0.574   5.198   0.741
 4509SOL     OW14425   4.649   2.710   2.066
 4509SOL    HW114426   4.655   2.808   2.085
 4509SOL    HW214427   4.700   2.659   2.136
 4510SOL     OW14428   4.306   1.313   4.084
 4510SOL    HW114429   4.402   1.337   4.099
 4510SOL    HW214430   4.278   1.244   4.151
 4511SOL     OW14431   0.159   4.324   0.706
 4511SOL    HW114432   0.122   4.334   0.798
 4511SOL    HW214433   0.102   4.374   0.641
 4512SOL     OW14434   3.256   3.180   5.431
 4512SOL    HW114435   3.336   3.138   5.473
 4512SOL    HW214436   3.223   3.122   5.357
 4513SOL     OW14437   1.066   6.757   0.589
 4513SOL    HW114438   1.057   6.822   0.664
 4513SOL    HW214439   1.161   6.724   0.585
 4514SOL     OW14440   3.203   4.645   6.532
 4514SOL    HW114441   3.192   4.600   6.443
 4514SOL    HW214442   3.126   4.621   6.591
 4515SOL     OW14443   4.849   0.448   6.444
 4515SOL    HW114444   4.857   0.535   6.395
 4515SOL    HW214445   4.940   0.421   6.478
 4516SOL     OW14446   3.461   1.633   4.824
 4516SOL    HW114447   3.400   1.709   4.845
 4516SOL    HW214448   3.469   1.574   4.904
 4517SOL     OW14449   4.024   1.346   5.264
 4517SOL    HW114450   3.946   1.397   5.300
 4517SOL    HW214451   3.995   1.255   5.236
 4518SOL     OW14452   1.537   6.959   1.340
 4518SOL    HW114453   1.527   6.864   1.310
 4518SOL    HW214454   1.569   6.960   1.435
 4519SOL     OW14455   4.860   6.713   6.869
 4519SOL    HW114456   4.788   6.783   6.871
 4519SOL    HW214457   4.875   6.678   6.961
 4520SOL     OW14458   4.483   5.854   4.759
 4520SOL    HW114459   4.403   5.799   4.735
 4520SOL    HW214460   4.512   5.907   4.680
 4521SOL     OW14461   4.226   2.290   4.276
 4521SOL    HW114462   4.185   2.232   4.205
 4521SOL    HW214463   4.306   2.337   4.239
 4522SOL     OW14464   5.094   4.557   3.435
 4522SOL    HW114465   5.081   4.549   3.534
 4522SOL    HW214466   5.033   4.494   3.388
 4523SOL     OW14467   6.968   3.593   5.664
 4523SOL    HW114468   6.993   3.664   5.731
 4523SOL    HW214469   6.918   3.635   5.589
 4524SOL     OW14470   0.867   3.728   3.161
 4524SOL    HW114471   0.879   3.797   3.090
 4524SOL    HW214472   0.947   3.668   3.163
 4525SOL     OW14473   3.074   2.100   5.227
 4525SOL    HW114474   3.136   2.168   5.186
 4525SOL    HW214475   2.995   2.146   5.266
 4526SOL     OW14476   0.389   0.161   5.710
 4526SOL    HW114477   0.393   0.068   5.747
 4526SOL    HW214478   0.416   0.226   5.781
 4527SOL     OW14479   6.478   0.814   2.882
 4527SOL    HW114480   6.517   0.725   2.905
 4527SOL    HW214481   6.444   0.812   2.788
 4528SOL     OW14482   4.322   1.112   5.263
 4528SOL    HW114483   4.348   1.015   5.265
 4528SOL    HW214484   4.270   1.134   5.346
 4529SOL     OW14485   2.329   0.737   3.900
 4529SOL    HW114486   2.254   0.786   3.854
 4529SOL    HW214487   2.294   0.694   3.983
 4530SOL     OW14488   3.500   5.271   6.188
 4530SOL    HW114489   3.450   5.258   6.273
 4530SOL    HW214490   3.490   5.366   6.157
 4531SOL     OW14491   0.665   5.482   5.942
 4531SOL    HW114492   0.738   5.549   5.956
 4531SOL    HW214493   0.690   5.422   5.866
 4532SOL     OW14494   5.798   0.625   2.445
 4532SOL    HW114495   5.834   0.627   2.538
 4532SOL    HW214496   5.851   0.687   2.387
 4533SOL     OW14497   2.760   0.617   1.617
 4533SOL    HW114498   2.854   0.625   1.649
 4533SOL    HW214499   2.700   0.670   1.677
 4534SOL     OW14500   4.578   1.335   3.531
 4534SOL    HW114501   4.582   1.400   3.606
 4534SOL    HW214502   4.671   1.308   3.505
 4535SOL     OW14503   2.622   0.866   0.998
 4535SOL    HW114504   2.565   0.949   0.993
 4535SOL    HW214505   2.678   0.868   1.080
 4536SOL     OW14506   2.990   1.104   5.707
 4536SOL    HW114507   3.007   1.056   5.793
 4536SOL    HW214508   2.905   1.157   5.714
 4537SOL     OW14509   2.943   3.223   3.361
 4537SOL    HW114510   2.985   3.218   3.452
 4537SOL    HW214511   2.865   3.285   3.364
 4538SOL     OW14512   0.357   1.927   0.905
 4538SOL    HW114513   0.282   1.966   0.960
 4538SOL    HW214514   0.338   1.830   0.889
 4539SOL     OW14515   1.779   6.221   5.384
 4539SOL    HW114516   1.711   6.255   5.319
 4539SOL    HW214517   1.800   6.126   5.363
 4540SOL     OW14518   0.743   0.493   0.250
 4540SOL    HW114519   0.700   0.403   0.259
 4540SOL    HW214520   0.802   0.493   0.169
 4541SOL     OW14521   4.510   2.696   5.493
 4541SOL    HW114522   4.592   2.671   5.441
 4541SOL    HW214523   4.430   2.654   5.451
 4542SOL     OW14524   6.879   2.062   0.693
 4542SOL    HW114525   6.943   2.027   0.762
 4542SOL    HW214526   6.789   2.076   0.735
 4543SOL     OW14527   3.682   2.541   6.968
 4543SOL    HW114528   3.611   2.471   6.970
 4543SOL    HW214529   3.725   2.548   0.031
 4544SOL     OW14530   5.450   6.136   0.390
 4544SOL    HW114531   5.363   6.120   0.342
 4544SOL    HW214532   5.452   6.081   0.473
 4545SOL     OW14533   2.180   3.094   4.834
 4545SOL    HW114534   2.156   3.188   4.856
 4545SOL    HW214535   2.245   3.058   4.901
 4546SOL     OW14536   2.952   1.364   6.137
 4546SOL    HW114537   3.049   1.362   6.114
 4546SOL    HW214538   2.902   1.417   6.068
 4547SOL     OW14539   6.682   0.634   0.183
 4547SOL    HW114540   6.596   0.584   0.170
 4547SOL    HW214541   6.749   0.573   0.224
 4548SOL     OW14542   2.404   1.967   2.946
 4548SOL    HW114543   2.431   2.021   3.025
 4548SOL    HW214544   2.313   1.928   2.962
 4549SOL     OW14545   6.581   3.701   4.624
 4549SOL    HW114546   6.490   3.665   4.607
 4549SOL    HW214547   6.624   3.650   4.698
 4550SOL     OW14548   1.686   4.425   3.298
 4550SOL    HW114549   1.605   4.406   3.242
 4550SOL    HW214550   1.769   4.410   3.243
 4551SOL     OW14551   1.418   2.930   5.131
 4551SOL    HW114552   1.457   2.883   5.211
 4551SOL    HW214553   1.354   3.001   5.162
 4552SOL     OW14554   5.579   1.388   0.931
 4552SOL    HW114555   5.541   1.301   0.963
 4552SOL    HW214556   5.645   1.422   0.997
 4553SOL     OW14557   6.677   5.366   6.721
 4553SOL    HW114558   6.753   5.380   6.785
 4553SOL    HW214559   6.627   5.284   6.747
 4554SOL     OW14560   6.570   6.332   3.311
 4554SOL    HW114561   6.561   6.248   3.364
 4554SOL    HW214562   6.646   6.386   3.346
 4555SOL     OW14563   1.686   1.005   6.690
 4555SOL    HW114564   1.672   1.000   6.592
 4555SOL    HW214565   1.598   1.001   6.737
 4556SOL     OW14566   5.839   4.634   5.016
 4556SOL    HW114567   5.841   4.667   4.922
 4556SOL    HW214568   5.898   4.691   5.073
 4557SOL     OW14569   6.702   4.290   3.011
 4557SOL    HW114570   6.727   4.194   3.021
 4557SOL    HW214571   6.621   4.299   2.954
 4558SOL     OW14572   0.352   3.616   5.538
 4558SOL    HW114573   0.322   3.701   5.495
 4558SOL    HW214574   0.321   3.538   5.484
 4559SOL     OW14575   6.885   2.833   3.306
 4559SOL    HW114576   6.822   2.762   3.336
 4559SOL    HW214577   6.958   2.843   3.373
 4560SOL     OW14578   6.074   4.343   2.799
 4560SOL    HW114579   6.095   4.340   2.896
 4560SOL    HW214580   6.103   4.258   2.755
 4561SOL     OW14581   3.978   1.955   4.291
 4561SOL    HW114582   3.884   1.921   4.281
 4561SOL    HW214583   4.038   1.879   4.317
 4562SOL     OW14584   3.334   1.370   1.289
 4562SOL    HW114585   3.347   1.403   1.383
 4562SOL    HW214586   3.244   1.326   1.282
 4563SOL     OW14587   0.854   4.202   1.962
 4563SOL    HW114588   0.795   4.193   1.881
 4563SOL    HW214589   0.939   4.151   1.947
 4564SOL     OW14590   1.469   3.816   2.145
 4564SOL    HW114591   1.497   3.828   2.240
 4564SOL    HW214592   1.535   3.757   2.098
 4565SOL     OW14593   1.943   5.745   6.151
 4565SOL    HW114594   2.016   5.784   6.095
 4565SOL    HW214595   1.955   5.646   6.158
 4566SOL     OW14596   6.175   4.770   2.829
 4566SOL    HW114597   6.084   4.755   2.789
 4566SOL    HW214598   6.168   4.772   2.928
 4567SOL     OW14599   0.248   0.384   6.662
 4567SOL    HW114600   0.230   0.454   6.731
 4567SOL    HW214601   0.346   0.365   6.658
 4568SOL     OW14602   1.389   5.562   3.670
 4568SOL    HW114603   1.444   5.499   3.724
 4568SOL    HW214604   1.408   5.549   3.573
 4569SOL     OW14605   2.104   0.884   3.396
 4569SOL    HW114606   2.027   0.896   3.459
 4569SOL    HW214607   2.070   0.871   3.303
 4570SOL     OW14608   5.700   6.042   2.210
 4570SOL    HW114609   5.640   6.108   2.164
 4570SOL    HW214610   5.794   6.074   2.205
 4571SOL     OW14611   3.069   3.152   6.910
 4571SOL    HW114612   3.062   3.220   6.836
 4571SOL    HW214613   3.036   3.064   6.877
 4572SOL     OW14614   3.011   3.222   1.719
 4572SOL    HW114615   3.069   3.274   1.657
 4572SOL    HW214616   2.918   3.259   1.716
 4573SOL     OW14617   2.782   5.518   1.837
 4573SOL    HW114618   2.705   5.499   1.775
 4573SOL    HW214619   2.859   5.459   1.812
 4574SOL     OW14620   5.387   1.251   1.441
 4574SOL    HW114621   5.453   1.252   1.366
 4574SOL    HW214622   5.398   1.165   1.493
 4575SOL     OW14623   0.263   6.913   5.386
 4575SOL    HW114624   0.225   6.955   5.469
 4575SOL    HW214625   0.309   6.983   5.332
 4576SOL     OW14626   2.789   4.895   5.186
 4576SOL    HW114627   2.820   4.816   5.134
 4576SOL    HW214628   2.767   4.867   5.279
 4577SOL     OW14629   1.442   1.837   2.135
 4577SOL    HW114630   1.431   1.933   2.162
 4577SOL    HW214631   1.399   1.822   2.046
 4578SOL     OW14632   1.936   1.431   2.497
 4578SOL    HW114633   1.915   1.526   2.474
 4578SOL    HW214634   2.031   1.424   2.527
 4579SOL     OW14635   4.720   1.547   2.654
 4579SOL    HW114636   4.652   1.592   2.711
 4579SOL    HW214637   4.714   1.448   2.665
 4580SOL     OW14638   6.770   2.147   0.447
 4580SOL    HW114639   6.813   2.101   0.524
 4580SOL    HW214640   6.738   2.238   0.475
 4581SOL     OW14641   3.580   0.664   1.208
 4581SOL    HW114642   3.578   0.711   1.296
 4581SOL    HW214643   3.486   0.638   1.182
 4582SOL     OW14644   6.183   1.471   3.538
 4582SOL    HW114645   6.206   1.529   3.460
 4582SOL    HW214646   6.192   1.523   3.622
 4583SOL     OW14647   0.967   0.055   0.014
 4583SOL    HW114648   0.893   7.027   7.002
 4583SOL    HW214649   1.002   0.117   6.971
 4584SOL     OW14650   1.391   0.531   4.671
 4584SOL    HW114651   1.309   0.585   4.684
 4584SOL    HW214652   1.427   0.545   4.579
 4585SOL     OW14653   1.876   3.863   3.671
 4585SOL    HW114654   1.974   3.880   3.684
 4585SOL    HW214655   1.863   3.774   3.627
 4586SOL     OW14656   5.604   4.710   6.497
 4586SOL    HW114657   5.617   4.808   6.509
 4586SOL    HW214658   5.693   4.666   6.481
 4587SOL     OW14659   2.976   3.251   5.001
 4587SOL    HW114660   2.969   3.256   5.100
 4587SOL    HW214661   2.951   3.159   4.971
 4588SOL     OW14662   3.166   3.760   6.098
 4588SOL    HW114663   3.098   3.772   6.026
 4588SOL    HW214664   3.219   3.845   6.109
 4589SOL     OW14665   6.383   6.709   3.110
 4589SOL    HW114666   6.419   6.688   3.201
 4589SOL    HW214667   6.287   6.680   3.104
 4590SOL     OW14668   3.201   5.343   1.023
 4590SOL    HW114669   3.238   5.353   0.931
 4590SOL    HW214670   3.270   5.371   1.090
 4591SOL     OW14671   1.857   0.510   5.461
 4591SOL    HW114672   1.841   0.420   5.501
 4591SOL    HW214673   1.831   0.581   5.527
 4592SOL     OW14674   1.874   1.427   3.818
 4592SOL    HW114675   1.893   1.516   3.861
 4592SOL    HW214676   1.932   1.357   3.860
 4593SOL     OW14677   1.523   6.158   4.505
 4593SOL    HW114678   1.549   6.062   4.511
 4593SOL    HW214679   1.589   6.207   4.447
 4594SOL     OW14680   1.680   0.669   3.213
 4594SOL    HW114681   1.734   0.611   3.275
 4594SOL    HW214682   1.703   0.648   3.118
 4595SOL     OW14683   5.371   2.150   6.822
 4595SOL    HW114684   5.427   2.213   6.876
 4595SOL    HW214685   5.324   2.086   6.883
 4596SOL     OW14686   0.010   1.233   2.393
 4596SOL    HW114687   0.107   1.207   2.398
 4596SOL    HW214688   6.983   1.173   2.452
 4597SOL     OW14689   3.078   6.301   0.201
 4597SOL    HW114690   3.087   6.252   0.287
 4597SOL    HW214691   3.136   6.383   0.203
 4598SOL     OW14692   1.659   4.531   0.187
 4598SOL    HW114693   1.610   4.613   0.215
 4598SOL    HW214694   1.675   4.533   0.088
 4599SOL     OW14695   2.295   5.734   2.380
 4599SOL    HW114696   2.381   5.684   2.372
 4599SOL    HW214697   2.221   5.681   2.338
 4600SOL     OW14698   0.157   6.834   5.884
 4600SOL    HW114699   0.189   6.758   5.940
 4600SOL    HW214700   0.074   6.873   5.924
 4601SOL     OW14701   2.037   1.137   5.024
 4601SOL    HW114702   2.063   1.103   5.115
 4601SOL    HW214703   2.074   1.075   4.955
 4602SOL     OW14704   2.905   2.457   6.418
 4602SOL    HW114705   2.828   2.487   6.362
 4602SOL    HW214706   2.870   2.420   6.505
 4603SOL     OW14707   4.998   0.084   0.540
 4603SOL    HW114708   5.081   0.085   0.596
 4603SOL    HW214709   4.942   0.163   0.564
 4604SOL     OW14710   5.705   6.944   5.833
 4604SOL    HW114711   5.619   6.934   5.881
 4604SOL    HW214712   5.727   6.859   5.785
 4605SOL     OW14713   3.685   0.450   1.735
 4605SOL    HW114714   3.612   0.393   1.772
 4605SOL    HW214715   3.711   0.519   1.803
 4606SOL     OW14716   6.678   6.588   4.519
 4606SOL    HW114717   6.762   6.639   4.505
 4606SOL    HW214718   6.692   6.518   4.589
 4607SOL     OW14719   1.980   2.281   1.195
 4607SOL    HW114720   1.984   2.299   1.097
 4607SOL    HW214721   1.885   2.274   1.224
 4608SOL     OW14722   6.485   3.091   4.586
 4608SOL    HW114723   6.444   3.000   4.578
 4608SOL    HW214724   6.418   3.154   4.626
 4609SOL     OW14725   4.230   6.083   6.718
 4609SOL    HW114726   4.162   6.122   6.780
 4609SOL    HW214727   4.301   6.037   6.772
 4610SOL     OW14728   5.285   3.369   0.236
 4610SOL    HW114729   5.341   3.436   0.286
 4610SOL    HW214730   5.342   3.323   0.168
 4611SOL     OW14731   1.037   0.809   6.458
 4611SOL    HW114732   1.071   0.888   6.509
 4611SOL    HW214733   1.108   0.777   6.395
 4612SOL     OW14734   2.455   1.236   1.240
 4612SOL    HW114735   2.417   1.309   1.297
 4612SOL    HW214736   2.392   1.158   1.240
 4613SOL     OW14737   1.889   4.464   1.302
 4613SOL    HW114738   1.918   4.376   1.340
 4613SOL    HW214739   1.966   4.526   1.301
 4614SOL     OW14740   6.471   4.220   4.317
 4614SOL    HW114741   6.395   4.165   4.353
 4614SOL    HW214742   6.539   4.232   4.389
 4615SOL     OW14743   1.328   2.710   0.239
 4615SOL    HW114744   1.302   2.807   0.233
 4615SOL    HW214745   1.251   2.653   0.212
 4616SOL     OW14746   6.465   2.727   6.051
 4616SOL    HW114747   6.456   2.628   6.066
 4616SOL    HW214748   6.377   2.771   6.065
 4617SOL     OW14749   6.986   3.202   3.392
 4617SOL    HW114750   6.998   3.206   3.293
 4617SOL    HW214751   0.049   3.189   3.435
 4618SOL     OW14752   1.749   4.355   5.732
 4618SOL    HW114753   1.701   4.322   5.813
 4618SOL    HW214754   1.710   4.443   5.705
 4619SOL     OW14755   3.874   6.308   6.145
 4619SOL    HW114756   3.797   6.263   6.190
 4619SOL    HW214757   3.895   6.260   6.060
 4620SOL     OW14758   0.425   4.617   2.070
 4620SOL    HW114759   0.387   4.701   2.109
 4620SOL    HW214760   0.511   4.638   2.023
 4621SOL     OW14761   3.888   0.243   3.179
 4621SOL    HW114762   3.941   0.231   3.263
 4621SOL    HW214763   3.948   0.278   3.107
 4622SOL     OW14764   5.415   5.975   1.934
 4622SOL    HW114765   5.384   5.890   1.891
 4622SOL    HW214766   5.441   6.041   1.864
 4623SOL     OW14767   2.681   4.908   0.917
 4623SOL    HW114768   2.736   4.945   0.991
 4623SOL    HW214769   2.704   4.812   0.903
 4624SOL     OW14770   4.512   1.016   2.043
 4624SOL    HW114771   4.546   0.922   2.045
 4624SOL    HW214772   4.575   1.073   1.993
 4625SOL     OW14773   1.669   6.129   1.935
 4625SOL    HW114774   1.697   6.144   2.030
 4625SOL    HW214775   1.631   6.037   1.925
 4626SOL     OW14776   4.472   3.886   1.606
 4626SOL    HW114777   4.395   3.937   1.644
 4626SOL    HW214778   4.557   3.935   1.625
 4627SOL     OW14779   5.645   6.841   5.220
 4627SOL    HW114780   5.626   6.925   5.168
 4627SOL    HW214781   5.729   6.799   5.187
 4628SOL     OW14782   5.621   5.120   4.286
 4628SOL    HW114783   5.565   5.098   4.366
 4628SOL    HW214784   5.566   5.109   4.203
 4629SOL     OW14785   2.393   6.225   6.826
 4629SOL    HW114786   2.327   6.155   6.799
 4629SOL    HW214787   2.404   6.291   6.751
 4630SOL     OW14788   1.998   3.202   2.324
 4630SOL    HW114789   1.930   3.218   2.253
 4630SOL    HW214790   2.041   3.289   2.349
 4631SOL     OW14791   0.062   0.901   3.445
 4631SOL    HW114792   0.043   0.860   3.356
 4631SOL    HW214793   0.154   0.874   3.476
 4632SOL     OW14794   3.361   4.999   2.412
 4632SOL    HW114795   3.412   4.959   2.336
 4632SOL    HW214796   3.423   5.011   2.490
 4633SOL     OW14797   5.207   1.272   4.273
 4633SOL    HW114798   5.293   1.268   4.325
 4633SOL    HW214799   5.135   1.309   4.332
 4634SOL     OW14800   2.946   3.878   4.981
 4634SOL    HW114801   2.935   3.780   4.966
 4634SOL    HW214802   2.875   3.911   5.043
 4635SOL     OW14803   4.910   6.717   1.565
 4635SOL    HW114804   4.933   6.815   1.562
 4635SOL    HW214805   4.933   6.675   1.478
 4636SOL     OW14806   2.103   5.574   0.573
 4636SOL    HW114807   2.182   5.620   0.532
 4636SOL    HW214808   2.021   5.595   0.521
 4637SOL     OW14809   2.820   1.337   3.009
 4637SOL    HW114810   2.903   1.311   2.959
 4637SOL    HW214811   2.846   1.377   3.097
 4638SOL     OW14812   3.487   4.995   0.430
 4638SOL    HW114813   3.509   5.091   0.412
 4638SOL    HW214814   3.419   4.990   0.504
 4639SOL     OW14815   3.068   2.267   1.137
 4639SOL    HW114816   2.989   2.211   1.112
 4639SOL    HW214817   3.061   2.356   1.091
 4640SOL     OW14818   6.408   2.587   6.684
 4640SOL    HW114819   6.351   2.591   6.767
 4640SOL    HW214820   6.485   2.649   6.694
 4641SOL     OW14821   1.197   5.689   4.046
 4641SOL    HW114822   1.259   5.641   4.108
 4641SOL    HW214823   1.150   5.762   4.096
 4642SOL     OW14824   0.090   1.427   3.750
 4642SOL    HW114825   0.096   1.526   3.735
 4642SOL    HW214826   0.147   1.380   3.683
 4643SOL     OW14827   0.082   1.992   0.066
 4643SOL    HW114828   0.105   2.077   0.112
 4643SOL    HW214829   0.161   1.960   0.013
 4644SOL     OW14830   1.201   1.318   0.508
 4644SOL    HW114831   1.163   1.347   0.420
 4644SOL    HW214832   1.128   1.316   0.577
 4645SOL     OW14833   0.810   1.924   4.005
 4645SOL    HW114834   0.806   2.023   4.001
 4645SOL    HW214835   0.853   1.888   3.922
 4646SOL     OW14836   2.142   5.251   4.111
 4646SOL    HW114837   2.173   5.227   4.020
 4646SOL    HW214838   2.063   5.194   4.135
 4647SOL     OW14839   1.279   6.080   2.217
 4647SOL    HW114840   1.361   6.051   2.168
 4647SOL    HW214841   1.294   6.073   2.315
 4648SOL     OW14842   2.745   1.822   4.855
 4648SOL    HW114843   2.701   1.910   4.867
 4648SOL    HW214844   2.835   1.823   4.899
 4649SOL     OW14845   6.314   1.097   6.964
 4649SOL    HW114846   6.251   1.105   0.014
 4649SOL    HW214847   6.313   1.002   6.931
 4650SOL     OW14848   5.759   5.765   1.475
 4650SOL    HW114849   5.667   5.805   1.477
 4650SOL    HW214850   5.795   5.760   1.568
 4651SOL     OW14851   6.326   3.612   6.160
 4651SOL    HW114852   6.353   3.557   6.239
 4651SOL    HW214853   6.331   3.709   6.184
 4652SOL     OW14854   0.359   6.660   4.783
 4652SOL    HW114855   0.431   6.690   4.845
 4652SOL    HW214856   0.269   6.684   4.821
 4653SOL     OW14857   5.575   5.406   0.845
 4653SOL    HW114858   5.509   5.422   0.918
 4653SOL    HW214859   5.561   5.315   0.806
 4654SOL     OW14860   0.897   0.111   5.328
 4654SOL    HW114861   0.927   0.114   5.424
 4654SOL    HW214862   0.849   0.196   5.307
 4655SOL     OW14863   4.669   2.847   1.146
 4655SOL    HW114864   4.620   2.765   1.114
 4655SOL    HW214865   4.609   2.926   1.135
 4656SOL     OW14866   0.601   1.146   1.863
 4656SOL    HW114867   0.607   1.172   1.767
 4656SOL    HW214868   0.643   1.216   1.920
 4657SOL     OW14869   4.932   0.262   2.118
 4657SOL    HW114870   4.854   0.278   2.058
 4657SOL    HW214871   4.962   0.167   2.109
 4658SOL     OW14872   1.683   2.701   5.986
 4658SOL    HW114873   1.606   2.765   5.978
 4658SOL    HW214874   1.754   2.726   5.920
 4659SOL     OW14875   2.311   4.704   0.104
 4659SOL    HW114876   2.265   4.627   0.149
 4659SOL    HW214877   2.392   4.670   0.055
 4660SOL     OW14878   1.061   6.352   4.203
 4660SOL    HW114879   1.032   6.447   4.216
 4660SOL    HW214880   1.060   6.304   4.290
 4661SOL     OW14881   0.740   2.461   5.551
 4661SOL    HW114882   0.675   2.428   5.483
 4661SOL    HW214883   0.833   2.445   5.518
 4662SOL     OW14884   2.638   6.660   5.288
 4662SOL    HW114885   2.704   6.688   5.218
 4662SOL    HW214886   2.547   6.690   5.262
 4663SOL     OW14887   1.445   0.262   0.195
 4663SOL    HW114888   1.380   0.215   0.134
 4663SOL    HW214889   1.480   0.197   0.262
 4664SOL     OW14890   0.049   6.821   0.021
 4664SOL    HW114891   0.068   6.778   0.109
 4664SOL    HW214892   7.009   6.895   0.033
 4665SOL     OW14893   2.245   0.336   4.262
 4665SOL    HW114894   2.274   0.310   4.354
 4665SOL    HW214895   2.321   0.321   4.198
 4666SOL     OW14896   2.814   2.017   5.466
 4666SOL    HW114897   2.865   2.101   5.450
 4666SOL    HW214898   2.755   1.999   5.387
 4667SOL     OW14899   6.599   3.727   1.492
 4667SOL    HW114900   6.666   3.706   1.563
 4667SOL    HW214901   6.642   3.784   1.422
 4668SOL     OW14902   4.295   2.124   3.939
 4668SOL    HW114903   4.239   2.144   4.019
 4668SOL    HW214904   4.239   2.136   3.856
 4669SOL     OW14905   5.804   6.669   6.487
 4669SOL    HW114906   5.742   6.592   6.498
 4669SOL    HW214907   5.889   6.639   6.444
 4670SOL     OW14908   0.595   2.405   0.472
 4670SOL    HW114909   0.592   2.450   0.562
 4670SOL    HW214910   0.669   2.338   0.471
 4671SOL     OW14911   0.842   3.649   0.832
 4671SOL    HW114912   0.839   3.712   0.754
 4671SOL    HW214913   0.749   3.623   0.856
 4672SOL     OW14914   2.446   3.746   6.945
 4672SOL    HW114915   2.480   3.840   6.950
 4672SOL    HW214916   2.421   3.725   6.850
 4673SOL     OW14917   5.974   0.480   0.061
 4673SOL    HW114918   5.956   0.578   0.071
 4673SOL    HW214919   6.050   0.466   7.025
 4674SOL     OW14920   1.452   2.081   0.809
 4674SOL    HW114921   1.444   2.004   0.745
 4674SOL    HW214922   1.548   2.109   0.816
 4675SOL     OW14923   2.212   5.822   0.234
 4675SOL    HW114924   2.220   5.814   0.333
 4675SOL    HW214925   2.208   5.730   0.194
 4676SOL     OW14926   0.191   5.882   4.211
 4676SOL    HW114927   0.237   5.868   4.298
 4676SOL    HW214928   0.220   5.969   4.170
 4677SOL     OW14929   4.474   0.312   6.363
 4677SOL    HW114930   4.499   0.282   6.271
 4677SOL    HW214931   4.446   0.408   6.361
 4678SOL     OW14932   2.340   4.579   6.427
 4678SOL    HW114933   2.407   4.533   6.486
 4678SOL    HW214934   2.375   4.668   6.400
 4679SOL     OW14935   3.044   0.892   5.897
 4679SOL    HW114936   3.129   0.931   5.931
 4679SOL    HW214937   3.058   0.796   5.873
 4680SOL     OW14938   1.891   4.763   0.346
 4680SOL    HW114939   1.957   4.739   0.275
 4680SOL    HW214940   1.825   4.689   0.358
 4681SOL     OW14941   0.777   5.772   5.004
 4681SOL    HW114942   0.853   5.797   5.064
 4681SOL    HW214943   0.704   5.841   5.012
 4682SOL     OW14944   4.146   6.551   1.025
 4682SOL    HW114945   4.208   6.623   1.057
 4682SOL    HW214946   4.064   6.593   0.986
 4683SOL     OW14947   6.425   4.431   3.495
 4683SOL    HW114948   6.431   4.343   3.448
 4683SOL    HW214949   6.496   4.437   3.565
 4684SOL     OW14950   1.576   0.874   4.544
 4684SOL    HW114951   1.561   0.836   4.635
 4684SOL    HW214952   1.519   0.825   4.478
 4685SOL     OW14953   5.066   4.864   5.036
 4685SOL    HW114954   4.999   4.840   5.107
 4685SOL    HW214955   5.023   4.856   4.946
 4686SOL     OW14956   3.932   5.863   0.129
 4686SOL    HW114957   3.853   5.896   0.181
 4686SOL    HW214958   3.991   5.809   0.189
 4687SOL     OW14959   6.089   6.064   4.637
 4687SOL    HW114960   6.120   6.022   4.551
 4687SOL    HW214961   6.012   6.124   4.617
 4688SOL     OW14962   0.459   2.190   6.548
 4688SOL    HW114963   0.380   2.139   6.513
 4688SOL    HW214964   0.542   2.138   6.532
 4689SOL     OW14965   1.038   5.743   5.184
 4689SOL    HW114966   0.991   5.657   5.167
 4689SOL    HW214967   1.126   5.745   5.136
 4690SOL     OW14968   1.670   2.371   6.946
 4690SOL    HW114969   1.667   2.469   6.931
 4690SOL    HW214970   1.608   2.346   7.020
 4691SOL     OW14971   2.739   5.423   0.771
 4691SOL    HW114972   2.838   5.423   0.761
 4691SOL    HW214973   2.697   5.458   0.687
 4692SOL     OW14974   0.503   5.337   3.301
 4692SOL    HW114975   0.470   5.375   3.215
 4692SOL    HW214976   0.529   5.411   3.363
 4693SOL     OW14977   0.427   1.606   3.586
 4693SOL    HW114978   0.507   1.591   3.529
 4693SOL    HW214979   0.413   1.527   3.646
 4694SOL     OW14980   1.038   2.265   6.237
 4694SOL    HW114981   1.038   2.228   6.143
 4694SOL    HW214982   1.128   2.252   6.277
 4695SOL     OW14983   3.338   3.160   2.110
 4695SOL    HW114984   3.375   3.252   2.105
 4695SOL    HW214985   3.245   3.163   2.146
 4696SOL     OW14986   0.080   3.211   6.797
 4696SOL    HW114987   0.013   3.152   6.844
 4696SOL    HW214988   0.054   3.220   6.701
 4697SOL     OW14989   0.753   5.016   0.104
 4697SOL    HW114990   0.670   5.023   0.159
 4697SOL    HW214991   0.772   4.919   0.084
 4698SOL     OW14992   5.523   2.983   0.909
 4698SOL    HW114993   5.617   2.993   0.943
 4698SOL    HW214994   5.488   3.072   0.882
 4699SOL     OW14995   0.049   0.365   3.489
 4699SOL    HW114996   0.071   0.282   3.540
 4699SOL    HW214997   0.115   0.437   3.510
 4700SOL     OW14998   4.844   0.722   1.261
 4700SOL    HW114999   4.903   0.717   1.181
 4700SOL    HW215000   4.748   0.718   1.231
 4701SOL     OW15001   0.908   0.924   1.233
 4701SOL    HW115002   1.000   0.886   1.240
 4701SOL    HW215003   0.845   0.867   1.287
 4702SOL     OW15004   3.082   4.342   0.303
 4702SOL    HW115005   3.105   4.312   0.211
 4702SOL    HW215006   3.054   4.263   0.358
 4703SOL     OW15007   2.063   0.817   1.595
 4703SOL    HW115008   2.018   0.765   1.668
 4703SOL    HW215009   2.051   0.769   1.508
 4704SOL     OW15010   5.024   6.626   0.620
 4704SOL    HW115011   4.982   6.712   0.589
 4704SOL    HW215012   4.959   6.551   0.610
 4705SOL     OW15013   3.337   3.655   4.547
 4705SOL    HW115014   3.268   3.617   4.486
 4705SOL    HW215015   3.299   3.734   4.595
 4706SOL     OW15016   3.983   5.687   0.620
 4706SOL    HW115017   4.048   5.727   0.555
 4706SOL    HW215018   4.017   5.598   0.651
 4707SOL     OW15019   2.048   5.777   1.014
 4707SOL    HW115020   2.119   5.747   0.950
 4707SOL    HW215021   2.028   5.874   0.998
 4708SOL     OW15022   2.441   2.567   2.060
 4708SOL    HW115023   2.411   2.602   2.148
 4708SOL    HW215024   2.454   2.468   2.067
 4709SOL     OW15025   3.887   4.491   5.874
 4709SOL    HW115026   3.811   4.472   5.937
 4709SOL    HW215027   3.944   4.564   5.913
 4710SOL     OW15028   5.148   1.570   0.729
 4710SOL    HW115029   5.227   1.621   0.761
 4710SOL    HW215030   5.123   1.500   0.795
 4711SOL     OW15031   3.198   0.481   2.537
 4711SOL    HW115032   3.273   0.548   2.538
 4711SOL    HW215033   3.209   0.420   2.459
 4712SOL     OW15034   1.849   4.806   0.623
 4712SOL    HW115035   1.939   4.799   0.666
 4712SOL    HW215036   1.860   4.802   0.523
 4713SOL     OW15037   1.812   5.632   0.929
 4713SOL    HW115038   1.818   5.546   0.980
 4713SOL    HW215039   1.897   5.684   0.942
 4714SOL     OW15040   3.141   2.471   0.969
 4714SOL    HW115041   3.226   2.499   1.013
 4714SOL    HW215042   3.064   2.515   1.015
 4715SOL     OW15043   6.534   3.593   3.467
 4715SOL    HW115044   6.522   3.665   3.535
 4715SOL    HW215045   6.608   3.532   3.495
 4716SOL     OW15046   3.209   5.881   0.883
 4716SOL    HW115047   3.192   5.956   0.946
 4716SOL    HW215048   3.230   5.798   0.934
 4717SOL     OW15049   1.950   5.840   3.870
 4717SOL    HW115050   1.857   5.852   3.904
 4717SOL    HW215051   1.981   5.924   3.827
 4718SOL     OW15052   5.884   1.160   5.838
 4718SOL    HW115053   5.921   1.202   5.921
 4718SOL    HW215054   5.857   1.231   5.774
 4719SOL     OW15055   4.340   2.758   1.112
 4719SOL    HW115056   4.332   2.805   1.200
 4719SOL    HW215057   4.250   2.750   1.070
 4720SOL     OW15058   2.933   0.895   4.606
 4720SOL    HW115059   2.858   0.957   4.633
 4720SOL    HW215060   2.971   0.926   4.519
 4721SOL     OW15061   1.276   2.189   1.598
 4721SOL    HW115062   1.351   2.151   1.544
 4721SOL    HW215063   1.259   2.284   1.572
 4722SOL     OW15064   2.121   0.303   0.457
 4722SOL    HW115065   2.085   0.261   0.540
 4722SOL    HW215066   2.168   0.233   0.403
 4723SOL     OW15067   2.573   6.737   6.814
 4723SOL    HW115068   2.482   6.759   6.849
 4723SOL    HW215069   2.610   6.817   6.767
 4724SOL     OW15070   4.573   5.850   1.730
 4724SOL    HW115071   4.624   5.857   1.815
 4724SOL    HW215072   4.630   5.879   1.653
 4725SOL     OW15073   5.411   5.924   3.187
 4725SOL    HW115074   5.400   5.926   3.286
 4725SOL    HW215075   5.507   5.907   3.164
 4726SOL     OW15076   0.318   5.245   6.578
 4726SOL    HW115077   0.328   5.287   6.487
 4726SOL    HW215078   0.351   5.309   6.647
 4727SOL     OW15079   0.389   6.147   0.108
 4727SOL    HW115080   0.447   6.228   0.111
 4727SOL    HW215081   0.296   6.173   0.080
 4728SOL     OW15082   0.095   0.692   0.060
 4728SOL    HW115083   0.159   0.759   0.023
 4728SOL    HW215084   0.002   0.718   0.036
 4729SOL     OW15085   3.427   0.496   1.579
 4729SOL    HW115086   3.372   0.532   1.504
 4729SOL    HW215087   3.498   0.436   1.542
 4730SOL     OW15088   1.813   0.273   5.620
 4730SOL    HW115089   1.847   0.185   5.586
 4730SOL    HW215090   1.862   0.298   5.702
 4731SOL     OW15091   5.409   1.403   5.771
 4731SOL    HW115092   5.450   1.494   5.760
 4731SOL    HW215093   5.432   1.347   5.691
 4732SOL     OW15094   0.140   1.949   0.528
 4732SOL    HW115095   0.126   1.902   0.615
 4732SOL    HW215096   0.106   1.891   0.453
 4733SOL     OW15097   6.815   3.032   3.533
 4733SOL    HW115098   6.815   2.942   3.491
 4733SOL    HW215099   6.888   3.088   3.493
 4734SOL     OW15100   4.077   4.407   6.892
 4734SOL    HW115101   4.001   4.467   6.868
 4734SOL    HW215102   4.089   4.406   6.991
 4735SOL     OW15103   0.976   5.060   3.169
 4735SOL    HW115104   1.036   5.140   3.178
 4735SOL    HW215105   0.989   5.018   3.079
 4736SOL     OW15106   1.174   0.552   0.733
 4736SOL    HW115107   1.134   0.476   0.785
 4736SOL    HW215108   1.230   0.515   0.659
 4737SOL     OW15109   2.357   5.394   1.987
 4737SOL    HW115110   2.454   5.369   1.980
 4737SOL    HW215111   2.343   5.482   1.941
 4738SOL     OW15112   6.916   6.245   2.548
 4738SOL    HW115113   6.818   6.265   2.555
 4738SOL    HW215114   6.941   6.233   2.452
 4739SOL     OW15115   4.759   0.487   1.100
 4739SOL    HW115116   4.714   0.488   1.190
 4739SOL    HW215117   4.703   0.539   1.035
 4740SOL     OW15118   0.605   1.903   3.158
 4740SOL    HW115119   0.638   1.842   3.231
 4740SOL    HW215120   0.505   1.908   3.161
 4741SOL     OW15121   4.072   3.732   1.721
 4741SOL    HW115122   4.037   3.826   1.731
 4741SOL    HW215123   4.124   3.726   1.636
 4742SOL     OW15124   3.121   6.649   0.884
 4742SOL    HW115125   3.159   6.740   0.898
 4742SOL    HW215126   3.097   6.608   0.972
 4743SOL     OW15127   2.034   5.160   1.456
 4743SOL    HW115128   2.100   5.229   1.484
 4743SOL    HW215129   2.082   5.076   1.430
 4744SOL     OW15130   2.412   5.793   0.814
 4744SOL    HW115131   2.486   5.765   0.876
 4744SOL    HW215132   2.330   5.740   0.835
 4745SOL     OW15133   1.240   4.708   6.923
 4745SOL    HW115134   1.188   4.625   6.944
 4745SOL    HW215135   1.335   4.696   6.953
 4746SOL     OW15136   4.815   5.562   3.995
 4746SOL    HW115137   4.737   5.552   4.056
 4746SOL    HW215138   4.800   5.507   3.912
 4747SOL     OW15139   1.329   1.991   0.405
 4747SOL    HW115140   1.421   2.012   0.440
 4747SOL    HW215141   1.294   1.909   0.451
 4748SOL     OW15142   1.819   6.769   2.712
 4748SOL    HW115143   1.783   6.814   2.794
 4748SOL    HW215144   1.915   6.745   2.727
 4749SOL     OW15145   2.023   1.330   6.346
 4749SOL    HW115146   2.061   1.239   6.330
 4749SOL    HW215147   2.022   1.350   6.444
 4750SOL     OW15148   4.788   2.731   5.228
 4750SOL    HW115149   4.863   2.773   5.177
 4750SOL    HW215150   4.708   2.791   5.226
 4751SOL     OW15151   4.498   0.453   3.444
 4751SOL    HW115152   4.447   0.418   3.522
 4751SOL    HW215153   4.490   0.552   3.440
 4752SOL     OW15154   4.529   1.695   0.147
 4752SOL    HW115155   4.590   1.658   0.077
 4752SOL    HW215156   4.481   1.775   0.111
 4753SOL     OW15157   3.269   6.008   5.291
 4753SOL    HW115158   3.196   6.008   5.222
 4753SOL    HW215159   3.230   6.033   5.380
 4754SOL     OW15160   4.889   5.004   6.724
 4754SOL    HW115161   4.896   4.905   6.731
 4754SOL    HW215162   4.818   5.028   6.658
 4755SOL     OW15163   1.417   0.864   1.413
 4755SOL    HW115164   1.345   0.851   1.346
 4755SOL    HW215165   1.480   0.935   1.381
 4756SOL     OW15166   6.176   4.165   6.557
 4756SOL    HW115167   6.257   4.132   6.605
 4756SOL    HW215168   6.203   4.238   6.494
 4757SOL     OW15169   1.897   3.753   1.424
 4757SOL    HW115170   1.813   3.705   1.396
 4757SOL    HW215171   1.886   3.787   1.517
 4758SOL     OW15172   3.306   6.053   3.004
 4758SOL    HW115173   3.382   6.118   3.008
 4758SOL    HW215174   3.235   6.080   3.069
 4759SOL     OW15175   0.754   5.347   1.468
 4759SOL    HW115176   0.825   5.305   1.523
 4759SOL    HW215177   0.680   5.379   1.527
 4760SOL     OW15178   1.172   6.246   1.110
 4760SOL    HW115179   1.165   6.346   1.116
 4760SOL    HW215180   1.257   6.222   1.063
 4761SOL     OW15181   6.506   6.457   1.618
 4761SOL    HW115182   6.512   6.500   1.708
 4761SOL    HW215183   6.596   6.424   1.590
 4762SOL     OW15184   1.762   0.284   2.056
 4762SOL    HW115185   1.752   0.382   2.073
 4762SOL    HW215186   1.678   0.236   2.082
 4763SOL     OW15187   5.668   4.565   1.686
 4763SOL    HW115188   5.620   4.641   1.730
 4763SOL    HW215189   5.763   4.591   1.667
 4764SOL     OW15190   4.500   3.096   0.204
 4764SOL    HW115191   4.407   3.116   0.236
 4764SOL    HW215192   4.544   3.182   0.177
 4765SOL     OW15193   3.681   1.568   4.178
 4765SOL    HW115194   3.721   1.521   4.257
 4765SOL    HW215195   3.749   1.573   4.105
 4766SOL     OW15196   0.593   0.056   4.193
 4766SOL    HW115197   0.510   0.088   4.240
 4766SOL    HW215198   0.673   0.085   4.245
 4767SOL     OW15199   1.582   4.736   3.894
 4767SOL    HW115200   1.616   4.827   3.918
 4767SOL    HW215201   1.508   4.745   3.828
 4768SOL     OW15202   4.073   2.924   0.103
 4768SOL    HW115203   4.124   3.010   0.097
 4768SOL    HW215204   4.138   2.848   0.108
 4769SOL     OW15205   2.312   4.620   0.620
 4769SOL    HW115206   2.266   4.659   0.541
 4769SOL    HW215207   2.382   4.684   0.653
 4770SOL     OW15208   0.815   1.646   5.471
 4770SOL    HW115209   0.748   1.595   5.524
 4770SOL    HW215210   0.793   1.640   5.374
 4771SOL     OW15211   1.957   6.633   4.899
 4771SOL    HW115212   1.988   6.562   4.836
 4771SOL    HW215213   1.911   6.706   4.847
 4772SOL     OW15214   2.911   5.188   1.939
 4772SOL    HW115215   2.912   5.274   1.991
 4772SOL    HW215216   2.942   5.206   1.846
 4773SOL     OW15217   2.129   5.037   4.844
 4773SOL    HW115218   2.132   4.971   4.919
 4773SOL    HW215219   2.143   5.130   4.880
 4774SOL     OW15220   1.363   4.292   7.007
 4774SOL    HW115221   1.448   4.304   6.956
 4774SOL    HW215222   1.314   4.212   6.973
 4775SOL     OW15223   6.407   6.232   5.323
 4775SOL    HW115224   6.501   6.264   5.308
 4775SOL    HW215225   6.357   6.235   5.237
 4776SOL     OW15226   0.222   1.171   6.526
 4776SOL    HW115227   0.257   1.236   6.459
 4776SOL    HW215228   0.242   1.204   6.618
 4777SOL     OW15229   1.111   0.052   2.097
 4777SOL    HW115230   1.183   0.060   2.027
 4777SOL    HW215231   1.092   6.983   2.115
 4778SOL     OW15232   1.320   1.542   6.402
 4778SOL    HW115233   1.402   1.569   6.451
 4778SOL    HW215234   1.345   1.498   6.316
 4779SOL     OW15235   5.495   0.332   4.229
 4779SOL    HW115236   5.575   0.308   4.283
 4779SOL    HW215237   5.412   0.318   4.284
 4780SOL     OW15238   6.012   2.870   4.848
 4780SOL    HW115239   6.022   2.773   4.827
 4780SOL    HW215240   6.089   2.921   4.809
 4781SOL     OW15241   1.990   5.866   2.348
 4781SOL    HW115242   2.056   5.922   2.398
 4781SOL    HW215243   1.907   5.856   2.403
 4782SOL     OW15244   6.793   6.652   4.121
 4782SOL    HW115245   6.806   6.750   4.131
 4782SOL    HW215246   6.878   6.604   4.143
 4783SOL     OW15247   6.190   3.736   6.914
 4783SOL    HW115248   6.222   3.805   6.849
 4783SOL    HW215249   6.112   3.771   6.964
 4784SOL     OW15250   5.090   3.177   6.928
 4784SOL    HW115251   5.091   3.237   6.848
 4784SOL    HW215252   4.996   3.146   6.945
 4785SOL     OW15253   0.190   6.371   4.300
 4785SOL    HW115254   0.176   6.465   4.268
 4785SOL    HW215255   0.217   6.372   4.396
 4786SOL     OW15256   1.935   5.730   0.374
 4786SOL    HW115257   1.952   5.820   0.333
 4786SOL    HW215258   1.881   5.740   0.457
 4787SOL     OW15259   3.440   1.456   3.824
 4787SOL    HW115260   3.513   1.392   3.848
 4787SOL    HW215261   3.351   1.414   3.841
 4788SOL     OW15262   6.241   6.311   0.434
 4788SOL    HW115263   6.319   6.253   0.456
 4788SOL    HW215264   6.156   6.259   0.447
 4789SOL     OW15265   5.990   1.080   2.836
 4789SOL    HW115266   5.927   1.024   2.889
 4789SOL    HW215267   5.944   1.164   2.808
 4790SOL     OW15268   6.712   1.996   4.969
 4790SOL    HW115269   6.757   2.025   4.884
 4790SOL    HW215270   6.644   1.925   4.947
 4791SOL     OW15271   0.313   0.609   0.646
 4791SOL    HW115272   0.319   0.612   0.547
 4791SOL    HW215273   0.397   0.569   0.684
 4792SOL     OW15274   2.226   2.955   2.835
 4792SOL    HW115275   2.234   3.038   2.889
 4792SOL    HW215276   2.215   2.978   2.738
 4793SOL     OW15277   0.826   3.612   5.912
 4793SOL    HW115278   0.781   3.646   5.830
 4793SOL    HW215279   0.863   3.521   5.895
 4794SOL     OW15280   4.368   1.510   4.482
 4794SOL    HW115281   4.399   1.476   4.393
 4794SOL    HW215282   4.392   1.607   4.490
 4795SOL     OW15283   7.013   0.945   6.200
 4795SOL    HW115284   0.016   0.853   6.225
 4795SOL    HW215285   6.935   0.939   6.137
 4796SOL     OW15286   4.630   1.004   5.265
 4796SOL    HW115287   4.601   0.909   5.272
 4796SOL    HW215288   4.719   1.008   5.219
 4797SOL     OW15289   1.224   4.931   5.342
 4797SOL    HW115290   1.211   5.030   5.350
 4797SOL    HW215291   1.306   4.913   5.288
 4798SOL     OW15292   4.094   5.001   6.565
 4798SOL    HW115293   4.026   5.025   6.634
 4798SOL    HW215294   4.099   4.902   6.556
 4799SOL     OW15295   3.292   2.903   0.190
 4799SOL    HW115296   3.227   2.854   0.131
 4799SOL    HW215297   3.385   2.876   0.167
 4800SOL     OW15298   0.994   4.214   0.436
 4800SOL    HW115299   0.987   4.312   0.455
 4800SOL    HW215300   0.975   4.163   0.520
 4801SOL     OW15301   5.511   2.575   1.629
 4801SOL    HW115302   5.567   2.506   1.674
 4801SOL    HW215303   5.435   2.601   1.688
 4802SOL     OW15304   6.421   0.092   3.996
 4802SOL    HW115305   6.379   0.046   4.074
 4802SOL    HW215306   6.516   0.061   3.987
 4803SOL     OW15307   5.037   4.186   6.186
 4803SOL    HW115308   5.034   4.268   6.130
 4803SOL    HW215309   5.022   4.210   6.281
 4804SOL     OW15310   4.952   1.649   1.449
 4804SOL    HW115311   5.028   1.713   1.445
 4804SOL    HW215312   4.868   1.697   1.474
 4805SOL     OW15313   6.774   0.995   7.005
 4805SOL    HW115314   6.711   1.065   6.970
 4805SOL    HW215315   6.794   1.014   0.074
 4806SOL     OW15316   1.118   1.198   3.038
 4806SOL    HW115317   1.069   1.111   3.043
 4806SOL    HW215318   1.052   1.273   3.045
 4807SOL     OW15319   0.224   3.794   5.722
 4807SOL    HW115320   0.259   3.713   5.673
 4807SOL    HW215321   0.196   3.863   5.655
 4808SOL     OW15322   4.335   5.692   1.569
 4808SOL    HW115323   4.277   5.616   1.541
 4808SOL    HW215324   4.359   5.681   1.666
 4809SOL     OW15325   3.564   4.184   1.293
 4809SOL    HW115326   3.467   4.168   1.309
 4809SOL    HW215327   3.614   4.098   1.302
 4810SOL     OW15328   0.460   4.757   3.995
 4810SOL    HW115329   0.509   4.840   4.021
 4810SOL    HW215330   0.462   4.745   3.896
 4811SOL     OW15331   3.333   4.122   4.058
 4811SOL    HW115332   3.288   4.079   3.980
 4811SOL    HW215333   3.278   4.109   4.140
 4812SOL     OW15334   1.133   0.192   2.327
 4812SOL    HW115335   1.116   0.138   2.245
 4812SOL    HW215336   1.052   0.246   2.349
 4813SOL     OW15337   6.419   1.644   5.738
 4813SOL    HW115338   6.356   1.621   5.812
 4813SOL    HW215339   6.367   1.675   5.658
 4814SOL     OW15340   6.298   4.171   1.690
 4814SOL    HW115341   6.326   4.115   1.767
 4814SOL    HW215342   6.367   4.242   1.673
 4815SOL     OW15343   5.867   5.095   1.852
 4815SOL    HW115344   5.824   5.014   1.813
 4815SOL    HW215345   5.845   5.175   1.796
 4816SOL     OW15346   2.028   1.177   2.368
 4816SOL    HW115347   1.964   1.253   2.380
 4816SOL    HW215348   2.101   1.184   2.436
 4817SOL     OW15349   3.951   2.412   0.408
 4817SOL    HW115350   4.040   2.371   0.426
 4817SOL    HW215351   3.898   2.415   0.492
 4818SOL     OW15352   4.063   0.579   5.690
 4818SOL    HW115353   4.031   0.633   5.767
 4818SOL    HW215354   3.998   0.587   5.614
 4819SOL     OW15355   3.246   0.594   1.380
 4819SOL    HW115356   3.255   0.596   1.280
 4819SOL    HW215357   3.184   0.668   1.408
 4820SOL     OW15358   5.923   4.237   1.912
 4820SOL    HW115359   5.893   4.161   1.970
 4820SOL    HW215360   5.875   4.233   1.825
 4821SOL     OW15361   0.219   4.770   1.455
 4821SOL    HW115362   0.123   4.785   1.431
 4821SOL    HW215363   0.256   4.852   1.498
 4822SOL     OW15364   1.756   4.017   2.813
 4822SOL    HW115365   1.669   4.017   2.862
 4822SOL    HW215366   1.806   3.932   2.832
 4823SOL     OW15367   1.288   1.112   4.606
 4823SOL    HW115368   1.385   1.126   4.587
 4823SOL    HW215369   1.245   1.069   4.527
 4824SOL     OW15370   5.284   2.667   1.757
 4824SOL    HW115371   5.285   2.721   1.673
 4824SOL    HW215372   5.191   2.637   1.777
 4825SOL     OW15373   0.597   3.100   3.273
 4825SOL    HW115374   0.679   3.067   3.320
 4825SOL    HW215375   0.524   3.033   3.282
 4826SOL     OW15376   6.328   6.381   6.933
 4826SOL    HW115377   6.263   6.355   6.861
 4826SOL    HW215378   6.282   6.384   7.021
 4827SOL     OW15379   5.693   0.773   1.289
 4827SOL    HW115380   5.630   0.701   1.260
 4827SOL    HW215381   5.703   0.770   1.389
 4828SOL     OW15382   5.188   3.792   0.321
 4828SOL    HW115383   5.110   3.843   0.285
 4828SOL    HW215384   5.162   3.697   0.335
 4829SOL     OW15385   2.888   0.542   5.935
 4829SOL    HW115386   2.853   0.601   6.008
 4829SOL    HW215387   2.857   0.448   5.950
 4830SOL     OW15388   3.999   0.148   5.202
 4830SOL    HW115389   3.974   0.244   5.218
 4830SOL    HW215390   4.000   0.131   5.104
 4831SOL     OW15391   6.322   4.269   5.816
 4831SOL    HW115392   6.396   4.293   5.877
 4831SOL    HW215393   6.353   4.199   5.751
 4832SOL     OW15394   2.212   3.476   6.825
 4832SOL    HW115395   2.230   3.420   6.905
 4832SOL    HW215396   2.290   3.472   6.763
 4833SOL     OW15397   5.395   1.722   3.200
 4833SOL    HW115398   5.481   1.681   3.230
 4833SOL    HW215399   5.340   1.654   3.152
 4834SOL     OW15400   5.551   0.710   2.375
 4834SOL    HW115401   5.638   0.677   2.414
 4834SOL    HW215402   5.510   0.776   2.437
 4835SOL     OW15403   2.176   0.581   6.420
 4835SOL    HW115404   2.216   0.520   6.488
 4835SOL    HW215405   2.142   0.664   6.465
 4836SOL     OW15406   5.360   2.480   3.656
 4836SOL    HW115407   5.303   2.532   3.593
 4836SOL    HW215408   5.430   2.539   3.695
 4837SOL     OW15409   1.121   3.853   0.333
 4837SOL    HW115410   1.031   3.879   0.298
 4837SOL    HW215411   1.192   3.895   0.276
 4838SOL     OW15412   2.572   5.714   2.621
 4838SOL    HW115413   2.619   5.635   2.662
 4838SOL    HW215414   2.522   5.684   2.540
 4839SOL     OW15415   0.417   6.399   6.598
 4839SOL    HW115416   0.348   6.471   6.598
 4839SOL    HW215417   0.393   6.328   6.532
 4840SOL     OW15418   0.013   6.581   0.230
 4840SOL    HW115419   0.063   6.666   0.249
 4840SOL    HW215420   6.975   6.563   0.303
 4841SOL     OW15421   2.698   5.778   2.122
 4841SOL    HW115422   2.779   5.797   2.179
 4841SOL    HW215423   2.713   5.694   2.070
 4842SOL     OW15424   4.214   5.850   1.053
 4842SOL    HW115425   4.211   5.777   1.121
 4842SOL    HW215426   4.150   5.830   0.979
 4843SOL     OW15427   0.159   3.124   0.018
 4843SOL    HW115428   0.196   3.195   0.078
 4843SOL    HW215429   0.141   3.162   6.955
 4844SOL     OW15430   6.102   1.961   6.039
 4844SOL    HW115431   6.098   1.866   6.071
 4844SOL    HW215432   6.097   2.022   6.118
 4845SOL     OW15433   6.313   5.582   3.835
 4845SOL    HW115434   6.284   5.496   3.791
 4845SOL    HW215435   6.232   5.638   3.852
 4846SOL     OW15436   1.142   4.118   0.857
 4846SOL    HW115437   1.196   4.044   0.898
 4846SOL    HW215438   1.045   4.104   0.878
 4847SOL     OW15439   4.056   2.173   4.453
 4847SOL    HW115440   4.015   2.105   4.392
 4847SOL    HW215441   4.121   2.229   4.403
 4848SOL     OW15442   2.830   2.249   2.867
 4848SOL    HW115443   2.839   2.150   2.881
 4848SOL    HW215444   2.907   2.282   2.812
 4849SOL     OW15445   1.373   6.418   0.354
 4849SOL    HW115446   1.450   6.405   0.417
 4849SOL    HW215447   1.392   6.372   0.268
 4850SOL     OW15448   4.310   0.595   2.498
 4850SOL    HW115449   4.349   0.588   2.590
 4850SOL    HW215450   4.380   0.629   2.435
 4851SOL     OW15451   5.274   6.428   4.980
 4851SOL    HW115452   5.309   6.354   4.922
 4851SOL    HW215453   5.194   6.395   5.031
 4852SOL     OW15454   1.622   1.037   6.990
 4852SOL    HW115455   1.687   0.993   6.928
 4852SOL    HW215456   1.666   1.052   0.051
 4853SOL     OW15457   3.109   1.827   2.405
 4853SOL    HW115458   3.174   1.767   2.359
 4853SOL    HW215459   3.142   1.922   2.399
 4854SOL     OW15460   5.009   6.981   1.552
 4854SOL    HW115461   4.956   7.009   1.472
 4854SOL    HW215462   5.104   6.967   1.526
 4855SOL     OW15463   0.341   2.373   2.343
 4855SOL    HW115464   0.307   2.414   2.428
 4855SOL    HW215465   0.327   2.437   2.267
 4856SOL     OW15466   2.730   4.780   3.560
 4856SOL    HW115467   2.774   4.759   3.647
 4856SOL    HW215468   2.680   4.866   3.568
 4857SOL     OW15469   6.569   1.830   5.985
 4857SOL    HW115470   6.556   1.739   6.025
 4857SOL    HW215471   6.519   1.836   5.899
 4858SOL     OW15472   1.367   1.342   3.766
 4858SOL    HW115473   1.375   1.375   3.860
 4858SOL    HW215474   1.458   1.330   3.727
 4859SOL     OW15475   2.566   5.745   4.689
 4859SOL    HW115476   2.485   5.800   4.710
 4859SOL    HW215477   2.577   5.674   4.759
 4860SOL     OW15478   4.444   5.147   1.187
 4860SOL    HW115479   4.395   5.214   1.131
 4860SOL    HW215480   4.380   5.077   1.219
 4861SOL     OW15481   5.334   3.799   5.106
 4861SOL    HW115482   5.417   3.852   5.123
 4861SOL    HW215483   5.299   3.763   5.192
 4862SOL     OW15484   1.259   6.495   2.102
 4862SOL    HW115485   1.243   6.428   2.174
 4862SOL    HW215486   1.347   6.476   2.058
 4863SOL     OW15487   6.140   4.246   6.870
 4863SOL    HW115488   6.062   4.308   6.859
 4863SOL    HW215489   6.217   4.279   6.816
 4864SOL     OW15490   2.672   1.059   3.151
 4864SOL    HW115491   2.758   1.060   3.099
 4864SOL    HW215492   2.610   1.128   3.114
 4865SOL     OW15493   2.221   6.451   4.727
 4865SOL    HW115494   2.135   6.459   4.677
 4865SOL    HW215495   2.276   6.534   4.713
 4866SOL     OW15496   6.719   3.944   0.016
 4866SOL    HW115497   6.817   3.960   0.017
 4866SOL    HW215498   6.698   3.858   0.062
 4867SOL     OW15499   5.122   0.002   2.762
 4867SOL    HW115500   5.091   0.043   2.848
 4867SOL    HW215501   5.195   0.058   2.724
 4868SOL     OW15502   6.974   4.739   0.811
 4868SOL    HW115503   0.046   4.750   0.808
 4868SOL    HW215504   6.936   4.794   0.885
 4869SOL     OW15505   0.646   1.017   0.339
 4869SOL    HW115506   0.689   0.982   0.422
 4869SOL    HW215507   0.695   1.099   0.309
 4870SOL     OW15508   0.511   5.700   1.969
 4870SOL    HW115509   0.495   5.765   1.895
 4870SOL    HW215510   0.445   5.625   1.962
 4871SOL     OW15511   1.485   1.539   4.529
 4871SOL    HW115512   1.467   1.567   4.435
 4871SOL    HW215513   1.561   1.474   4.530
 4872SOL     OW15514   5.603   0.041   3.465
 4872SOL    HW115515   5.636   0.081   3.379
 4872SOL    HW215516   5.633   0.097   3.542
 4873SOL     OW15517   6.680   5.842   5.727
 4873SOL    HW115518   6.775   5.854   5.759
 4873SOL    HW215519   6.645   5.930   5.694
 4874SOL     OW15520   5.068   2.681   2.959
 4874SOL    HW115521   5.150   2.626   2.943
 4874SOL    HW215522   4.987   2.622   2.955
 4875SOL     OW15523   5.753   6.443   5.272
 4875SOL    HW115524   5.699   6.513   5.225
 4875SOL    HW215525   5.840   6.483   5.302
 4876SOL     OW15526   1.921   1.084   2.730
 4876SOL    HW115527   1.949   1.158   2.670
 4876SOL    HW215528   1.997   1.056   2.788
 4877SOL     OW15529   0.211   2.049   5.031
 4877SOL    HW115530   0.148   2.023   5.104
 4877SOL    HW215531   0.218   1.975   4.965
 4878SOL     OW15532   1.345   2.681   2.661
 4878SOL    HW115533   1.247   2.663   2.652
 4878SOL    HW215534   1.396   2.614   2.608
 4879SOL     OW15535   5.649   1.631   3.278
 4879SOL    HW115536   5.729   1.589   3.321
 4879SOL    HW215537   5.673   1.662   3.186
 4880SOL     OW15538   6.096   2.422   6.412
 4880SOL    HW115539   6.034   2.421   6.333
 4880SOL    HW215540   6.187   2.391   6.384
 4881SOL     OW15541   1.635   3.287   1.819
 4881SOL    HW115542   1.562   3.288   1.888
 4881SOL    HW215543   1.704   3.219   1.845
 4882SOL     OW15544   4.569   2.525   4.629
 4882SOL    HW115545   4.505   2.475   4.688
 4882SOL    HW215546   4.634   2.461   4.588
 4883SOL     OW15547   6.406   4.033   1.880
 4883SOL    HW115548   6.503   4.052   1.869
 4883SOL    HW215549   6.394   3.946   1.927
 4884SOL     OW15550   2.222   6.595   1.627
 4884SOL    HW115551   2.282   6.670   1.601
 4884SOL    HW215552   2.216   6.590   1.727
 4885SOL     OW15553   0.969   4.455   0.577
 4885SOL    HW115554   1.039   4.501   0.521
 4885SOL    HW215555   1.006   4.439   0.668
 4886SOL     OW15556   3.032   1.445   2.317
 4886SOL    HW115557   3.015   1.508   2.241
 4886SOL    HW215558   3.095   1.488   2.382
 4887SOL     OW15559   7.026   6.802   1.423
 4887SOL    HW115560   0.079   6.743   1.435
 4887SOL    HW215561   6.963   6.788   1.500
 4888SOL     OW15562   3.691   6.220   3.059
 4888SOL    HW115563   3.679   6.180   2.969
 4888SOL    HW215564   3.784   6.258   3.067
 4889SOL     OW15565   0.105   2.881   3.456
 4889SOL    HW115566   0.200   2.849   3.452
 4889SOL    HW215567   0.104   2.976   3.488
 4890SOL     OW15568   0.485   1.734   4.694
 4890SOL    HW115569   0.515   1.677   4.770
 4890SOL    HW215570   0.539   1.712   4.612
 4891SOL     OW15571   2.681   5.734   6.151
 4891SOL    HW115572   2.610   5.702   6.213
 4891SOL    HW215573   2.641   5.751   6.060
 4892SOL     OW15574   5.283   6.021   2.948
 4892SOL    HW115575   5.336   5.999   3.030
 4892SOL    HW215576   5.344   6.022   2.868
 4893SOL     OW15577   0.527   3.269   2.015
 4893SOL    HW115578   0.434   3.303   2.001
 4893SOL    HW215579   0.524   3.171   2.035
 4894SOL     OW15580   4.794   6.815   1.896
 4894SOL    HW115581   4.876   6.860   1.862
 4894SOL    HW215582   4.719   6.881   1.903
 4895SOL     OW15583   6.848   4.644   4.089
 4895SOL    HW115584   6.754   4.656   4.119
 4895SOL    HW215585   6.910   4.673   4.162
 4896SOL     OW15586   2.062   4.904   4.113
 4896SOL    HW115587   2.158   4.884   4.136
 4896SOL    HW215588   2.014   4.933   4.195
 4897SOL     OW15589   1.982   6.443   5.430
 4897SOL    HW115590   2.051   6.465   5.361
 4897SOL    HW215591   1.938   6.356   5.407
 4898SOL     OW15592   4.216   1.761   4.003
 4898SOL    HW115593   4.297   1.791   4.053
 4898SOL    HW215594   4.242   1.736   3.909
 4899SOL     OW15595   6.987   5.232   1.749
 4899SOL    HW115596   6.894   5.243   1.784
 4899SOL    HW215597   7.013   5.135   1.754
 4900SOL     OW15598   3.721   6.066   5.741
 4900SOL    HW115599   3.751   6.162   5.748
 4900SOL    HW215600   3.798   6.006   5.762
 4901SOL     OW15601   6.991   1.138   6.412
 4901SOL    HW115602   0.058   1.133   6.447
 4901SOL    HW215603   6.979   1.071   6.339
 4902SOL     OW15604   1.667   0.541   5.945
 4902SOL    HW115605   1.671   0.574   6.039
 4902SOL    HW215606   1.716   0.455   5.937
 4903SOL     OW15607   5.332   4.963   1.990
 4903SOL    HW115608   5.371   4.967   2.082
 4903SOL    HW215609   5.322   5.055   1.954
 4904SOL     OW15610   1.953   0.661   0.433
 4904SOL    HW115611   1.868   0.608   0.436
 4904SOL    HW215612   1.947   0.738   0.497
 4905SOL     OW15613   3.119   6.783   2.294
 4905SOL    HW115614   3.119   6.744   2.202
 4905SOL    HW215615   3.085   6.715   2.359
 4906SOL     OW15616   5.105   3.308   4.981
 4906SOL    HW115617   5.065   3.393   4.946
 4906SOL    HW215618   5.033   3.242   5.002
 4907SOL     OW15619   4.831   1.389   6.481
 4907SOL    HW115620   4.744   1.437   6.483
 4907SOL    HW215621   4.905   1.456   6.476
 4908SOL     OW15622   4.013   6.769   7.015
 4908SOL    HW115623   4.035   6.856   6.971
 4908SOL    HW215624   4.070   6.757   0.069
 4909SOL     OW15625   5.513   4.799   4.275
 4909SOL    HW115626   5.517   4.845   4.186
 4909SOL    HW215627   5.602   4.756   4.294
 4910SOL     OW15628   4.775   1.560   5.524
 4910SOL    HW115629   4.679   1.588   5.531
 4910SOL    HW215630   4.835   1.638   5.541
 4911SOL     OW15631   0.268   2.240   1.929
 4911SOL    HW115632   0.252   2.191   2.014
 4911SOL    HW215633   0.357   2.212   1.891
 4912SOL     OW15634   6.080   2.241   4.237
 4912SOL    HW115635   5.981   2.259   4.233
 4912SOL    HW215636   6.117   2.276   4.323
 4913SOL     OW15637   6.506   2.918   5.638
 4913SOL    HW115638   6.557   2.908   5.724
 4913SOL    HW215639   6.496   3.015   5.617
 4914SOL     OW15640   4.721   0.333   3.648
 4914SOL    HW115641   4.803   0.279   3.669
 4914SOL    HW215642   4.696   0.320   3.552
 4915SOL     OW15643   3.685   5.371   5.792
 4915SOL    HW115644   3.587   5.361   5.777
 4915SOL    HW215645   3.726   5.282   5.809
 4916SOL     OW15646   6.213   2.422   3.794
 4916SOL    HW115647   6.303   2.425   3.835
 4916SOL    HW215648   6.162   2.344   3.831
 4917SOL     OW15649   4.752   6.822   0.715
 4917SOL    HW115650   4.799   6.836   0.627
 4917SOL    HW215651   4.655   6.844   0.704
 4918SOL     OW15652   6.293   5.461   2.695
 4918SOL    HW115653   6.201   5.436   2.724
 4918SOL    HW215654   6.353   5.381   2.703
 4919SOL     OW15655   3.724   4.073   2.524
 4919SOL    HW115656   3.691   4.112   2.438
 4919SOL    HW215657   3.669   4.107   2.600
 4920SOL     OW15658   5.835   0.971   5.269
 4920SOL    HW115659   5.861   0.948   5.363
 4920SOL    HW215660   5.917   0.982   5.213
 4921SOL     OW15661   0.275   0.076   2.341
 4921SOL    HW115662   0.227   0.011   2.399
 4921SOL    HW215663   0.367   0.093   2.377
 4922SOL     OW15664   3.694   2.227   6.412
 4922SOL    HW115665   3.731   2.277   6.334
 4922SOL    HW215666   3.594   2.222   6.403
 4923SOL     OW15667   3.912   1.723   2.634
 4923SOL    HW115668   3.835   1.758   2.686
 4923SOL    HW215669   3.898   1.742   2.537
 4924SOL     OW15670   2.420   0.728   5.341
 4924SOL    HW115671   2.337   0.731   5.286
 4924SOL    HW215672   2.496   0.693   5.286
 4925SOL     OW15673   5.518   5.994   3.702
 4925SOL    HW115674   5.506   5.946   3.615
 4925SOL    HW215675   5.431   5.993   3.752
 4926SOL     OW15676   5.339   2.339   0.549
 4926SOL    HW115677   5.425   2.361   0.594
 4926SOL    HW215678   5.358   2.290   0.464
 4927SOL     OW15679   3.360   1.768   6.559
 4927SOL    HW115680   3.318   1.841   6.505
 4927SOL    HW215681   3.455   1.793   6.579
 4928SOL     OW15682   0.395   2.067   0.353
 4928SOL    HW115683   0.319   2.073   0.417
 4928SOL    HW215684   0.439   2.156   0.343
 4929SOL     OW15685   0.546   6.779   4.968
 4929SOL    HW115686   0.523   6.766   5.064
 4929SOL    HW215687   0.565   6.875   4.950
 4930SOL     OW15688   5.487   6.256   2.381
 4930SOL    HW115689   5.562   6.304   2.426
 4930SOL    HW215690   5.510   6.240   2.285
 4931SOL     OW15691   6.331   5.910   0.687
 4931SOL    HW115692   6.233   5.900   0.704
 4931SOL    HW215693   6.379   5.829   0.718
 4932SOL     OW15694   2.878   3.389   2.025
 4932SOL    HW115695   2.894   3.319   2.094
 4932SOL    HW215696   2.843   3.347   1.941
 4933SOL     OW15697   3.002   6.295   5.301
 4933SOL    HW115698   2.983   6.372   5.240
 4933SOL    HW215699   3.065   6.324   5.373
 4934SOL     OW15700   3.795   4.953   2.965
 4934SOL    HW115701   3.738   4.972   2.885
 4934SOL    HW215702   3.882   5.002   2.957
 4935SOL     OW15703   0.337   0.959   6.399
 4935SOL    HW115704   0.326   0.861   6.414
 4935SOL    HW215705   0.281   1.009   6.465
 4936SOL     OW15706   3.041   3.462   0.515
 4936SOL    HW115707   2.960   3.404   0.524
 4936SOL    HW215708   3.102   3.446   0.593
 4937SOL     OW15709   4.510   2.592   5.104
 4937SOL    HW115710   4.433   2.599   5.040
 4937SOL    HW215711   4.592   2.565   5.055
 4938SOL     OW15712   4.300   5.759   5.901
 4938SOL    HW115713   4.350   5.837   5.862
 4938SOL    HW215714   4.361   5.680   5.907
 4939SOL     OW15715   4.570   2.905   5.658
 4939SOL    HW115716   4.496   2.885   5.722
 4939SOL    HW215717   4.567   2.841   5.581
 4940SOL     OW15718   2.282   6.134   4.152
 4940SOL    HW115719   2.370   6.179   4.139
 4940SOL    HW215720   2.286   6.042   4.112
 4941SOL     OW15721   5.461   0.164   0.822
 4941SOL    HW115722   5.492   0.137   0.914
 4941SOL    HW215723   5.479   0.261   0.808
 4942SOL     OW15724   4.732   3.756   5.331
 4942SOL    HW115725   4.776   3.716   5.411
 4942SOL    HW215726   4.758   3.705   5.249
 4943SOL     OW15727   4.683   2.277   1.336
 4943SOL    HW115728   4.688   2.299   1.239
 4943SOL    HW215729   4.604   2.323   1.376
 4944SOL     OW15730   2.303   4.965   2.637
 4944SOL    HW115731   2.279   5.047   2.585
 4944SOL    HW215732   2.223   4.935   2.690
 4945SOL     OW15733   0.767   6.669   4.343
 4945SOL    HW115734   0.835   6.734   4.377
 4945SOL    HW215735   0.680   6.716   4.331
 4946SOL     OW15736   1.246   3.988   2.471
 4946SOL    HW115737   1.246   3.896   2.431
 4946SOL    HW215738   1.287   4.052   2.406
 4947SOL     OW15739   0.583   6.857   0.845
 4947SOL    HW115740   0.570   6.764   0.810
 4947SOL    HW215741   0.545   6.922   0.779
 4948SOL     OW15742   2.089   1.343   1.982
 4948SOL    HW115743   2.084   1.260   2.038
 4948SOL    HW215744   2.021   1.337   1.908
 4949SOL     OW15745   5.660   1.598   3.933
 4949SOL    HW115746   5.661   1.624   3.836
 4949SOL    HW215747   5.617   1.508   3.942
 4950SOL     OW15748   2.885   5.816   4.958
 4950SOL    HW115749   2.833   5.776   5.034
 4950SOL    HW215750   2.944   5.746   4.917
 4951SOL     OW15751   4.251   2.193   3.430
 4951SOL    HW115752   4.320   2.263   3.449
 4951SOL    HW215753   4.221   2.201   3.335
 4952SOL     OW15754   0.948   6.177   5.255
 4952SOL    HW115755   0.999   6.096   5.281
 4952SOL    HW215756   0.855   6.171   5.292
 4953SOL     OW15757   1.603   5.113   1.723
 4953SOL    HW115758   1.507   5.129   1.702
 4953SOL    HW215759   1.645   5.198   1.756
 4954SOL     OW15760   5.285   5.915   6.652
 4954SOL    HW115761   5.296   5.970   6.735
 4954SOL    HW215762   5.352   5.840   6.653
 4955SOL     OW15763   1.387   6.661   1.346
 4955SOL    HW115764   1.329   6.580   1.355
 4955SOL    HW215765   1.459   6.657   1.415
 4956SOL     OW15766   4.672   6.272   4.240
 4956SOL    HW115767   4.733   6.269   4.161
 4956SOL    HW215768   4.617   6.189   4.244
 4957SOL     OW15769   0.774   0.250   4.069
 4957SOL    HW115770   0.726   0.337   4.083
 4957SOL    HW215771   0.819   0.223   4.154
 4958SOL     OW15772   6.939   5.877   0.172
 4958SOL    HW115773   7.010   5.913   0.111
 4958SOL    HW215774   6.851   5.880   0.126
 4959SOL     OW15775   0.794   0.689   1.325
 4959SOL    HW115776   0.809   0.650   1.416
 4959SOL    HW215777   0.861   0.651   1.261
 4960SOL     OW15778   3.941   6.768   4.995
 4960SOL    HW115779   3.944   6.732   5.088
 4960SOL    HW215780   3.877   6.715   4.940
 4961SOL     OW15781   4.668   0.421   5.247
 4961SOL    HW115782   4.702   0.365   5.323
 4961SOL    HW215783   4.625   0.362   5.179
 4962SOL     OW15784   6.886   0.994   1.007
 4962SOL    HW115785   6.838   0.918   1.051
 4962SOL    HW215786   6.834   1.078   1.020
 4963SOL     OW15787   0.439   4.963   1.661
 4963SOL    HW115788   0.528   4.926   1.688
 4963SOL    HW215789   0.419   5.045   1.716
 4964SOL     OW15790   3.700   6.509   3.160
 4964SOL    HW115791   3.677   6.425   3.112
 4964SOL    HW215792   3.785   6.496   3.211
 4965SOL     OW15793   6.914   6.738   4.462
 4965SOL    HW115794   6.982   6.681   4.416
 4965SOL    HW215795   6.959   6.816   4.506
 4966SOL     OW15796   3.880   4.997   3.643
 4966SOL    HW115797   3.829   5.072   3.599
 4966SOL    HW215798   3.833   4.970   3.727
 4967SOL     OW15799   4.218   2.269   5.786
 4967SOL    HW115800   4.313   2.282   5.814
 4967SOL    HW215801   4.158   2.313   5.852
 4968SOL     OW15802   5.809   3.213   5.767
 4968SOL    HW115803   5.805   3.174   5.675
 4968SOL    HW215804   5.833   3.309   5.762
 4969SOL     OW15805   1.096   1.857   1.467
 4969SOL    HW115806   1.039   1.834   1.388
 4969SOL    HW215807   1.074   1.949   1.498
 4970SOL     OW15808   0.760   2.638   5.906
 4970SOL    HW115809   0.765   2.709   5.836
 4970SOL    HW215810   0.696   2.567   5.877
 4971SOL     OW15811   5.968   5.669   3.655
 4971SOL    HW115812   6.030   5.685   3.578
 4971SOL    HW215813   6.004   5.715   3.737
 4972SOL     OW15814   1.263   2.623   6.126
 4972SOL    HW115815   1.208   2.679   6.188
 4972SOL    HW215816   1.203   2.565   6.071
 4973SOL     OW15817   5.742   6.049   2.641
 4973SOL    HW115818   5.755   6.065   2.738
 4973SOL    HW215819   5.669   6.107   2.606
 4974SOL     OW15820   5.556   6.955   2.142
 4974SOL    HW115821   5.484   6.889   2.122
 4974SOL    HW215822   5.645   6.912   2.130
 4975SOL     OW15823   6.060   5.895   0.691
 4975SOL    HW115824   6.019   5.812   0.652
 4975SOL    HW215825   6.033   5.905   0.786
 4976SOL     OW15826   4.053   0.420   4.725
 4976SOL    HW115827   4.036   0.349   4.656
 4976SOL    HW215828   4.132   0.475   4.697
 4977SOL     OW15829   3.383   4.074   0.500
 4977SOL    HW115830   3.379   4.022   0.415
 4977SOL    HW215831   3.296   4.066   0.548
 4978SOL     OW15832   5.727   3.149   6.298
 4978SOL    HW115833   5.805   3.196   6.258
 4978SOL    HW215834   5.674   3.104   6.227
 4979SOL     OW15835   1.461   1.400   5.254
 4979SOL    HW115836   1.517   1.350   5.320
 4979SOL    HW215837   1.393   1.338   5.214
 4980SOL     OW15838   2.379   5.134   2.211
 4980SOL    HW115839   2.475   5.132   2.183
 4980SOL    HW215840   2.324   5.177   2.139
 4981SOL     OW15841   4.430   6.511   5.638
 4981SOL    HW115842   4.473   6.578   5.577
 4981SOL    HW215843   4.492   6.490   5.713
 4982SOL     OW15844   2.595   2.962   0.417
 4982SOL    HW115845   2.550   2.963   0.328
 4982SOL    HW215846   2.685   3.005   0.409
 4983SOL     OW15847   5.292   3.105   4.123
 4983SOL    HW115848   5.274   3.132   4.218
 4983SOL    HW215849   5.236   3.025   4.101
 4984SOL     OW15850   4.814   4.034   2.623
 4984SOL    HW115851   4.888   3.979   2.661
 4984SOL    HW215852   4.766   3.981   2.553
 4985SOL     OW15853   5.600   4.415   2.525
 4985SOL    HW115854   5.614   4.508   2.491
 4985SOL    HW215855   5.508   4.407   2.563
 4986SOL     OW15856   4.884   4.827   1.889
 4986SOL    HW115857   4.983   4.837   1.896
 4986SOL    HW215858   4.839   4.894   1.948
 4987SOL     OW15859   0.353   3.612   1.244
 4987SOL    HW115860   0.343   3.598   1.146
 4987SOL    HW215861   0.444   3.649   1.263
 4988SOL     OW15862   0.423   1.978   5.334
 4988SOL    HW115863   0.485   1.924   5.277
 4988SOL    HW215864   0.475   2.049   5.381
 4989SOL     OW15865   0.484   0.891   0.695
 4989SOL    HW115866   0.409   0.923   0.637
 4989SOL    HW215867   0.552   0.845   0.638
 4990SOL     OW15868   0.513   2.706   5.766
 4990SOL    HW115869   0.526   2.613   5.800
 4990SOL    HW215870   0.470   2.703   5.676
 4991SOL     OW15871   1.674   2.710   4.369
 4991SOL    HW115872   1.635   2.726   4.459
 4991SOL    HW215873   1.761   2.760   4.361
 4992SOL     OW15874   3.261   0.654   6.104
 4992SOL    HW115875   3.294   0.592   6.175
 4992SOL    HW215876   3.261   0.748   6.139
 4993SOL     OW15877   2.868   6.101   3.758
 4993SOL    HW115878   2.827   6.011   3.744
 4993SOL    HW215879   2.873   6.120   3.856
 4994SOL     OW15880   0.078   6.985   2.481
 4994SOL    HW115881   0.012   0.017   2.527
 4994SOL    HW215882   0.109   6.914   2.544
 4995SOL     OW15883   5.653   2.934   6.104
 4995SOL    HW115884   5.626   2.865   6.171
 4995SOL    HW215885   5.749   2.922   6.081
 4996SOL     OW15886   0.908   1.381   3.956
 4996SOL    HW115887   0.927   1.293   3.997
 4996SOL    HW215888   0.992   1.418   3.915
 4997SOL     OW15889   0.538   2.274   3.244
 4997SOL    HW115890   0.612   2.287   3.309
 4997SOL    HW215891   0.489   2.360   3.231
 4998SOL     OW15892   1.740   5.383   4.951
 4998SOL    HW115893   1.641   5.387   4.938
 4998SOL    HW215894   1.783   5.461   4.906
 4999SOL     OW15895   6.398   4.411   1.568
 4999SOL    HW115896   6.301   4.392   1.554
 4999SOL    HW215897   6.420   4.501   1.530
 5000SOL     OW15898   6.807   6.107   4.658
 5000SOL    HW115899   6.725   6.051   4.673
 5000SOL    HW215900   6.780   6.195   4.619
 5001SOL     OW15901   4.635   4.218   5.678
 5001SOL    HW115902   4.699   4.175   5.614
 5001SOL    HW215903   4.542   4.205   5.644
 5002SOL     OW15904   2.543   1.498   1.375
 5002SOL    HW115905   2.524   1.565   1.303
 5002SOL    HW215906   2.463   1.489   1.434
 5003SOL     OW15907   6.716   5.764   3.126
 5003SOL    HW115908   6.751   5.713   3.047
 5003SOL    HW215909   6.792   5.810   3.172
 5004SOL     OW15910   3.293   5.656   0.013
 5004SOL    HW115911   3.202   5.617   0.026
 5004SOL    HW215912   3.349   5.635   0.093
 5005SOL     OW15913   4.293   2.221   6.594
 5005SOL    HW115914   4.355   2.275   6.650
 5005SOL    HW215915   4.345   2.168   6.527
 5006SOL     OW15916   5.415   5.432   3.823
 5006SOL    HW115917   5.492   5.374   3.851
 5006SOL    HW215918   5.448   5.525   3.806
 5007SOL     OW15919   4.005   1.664   5.313
 5007SOL    HW115920   4.070   1.588   5.312
 5007SOL    HW215921   4.019   1.722   5.232
 5008SOL     OW15922   6.243   2.008   3.793
 5008SOL    HW115923   6.311   1.990   3.865
 5008SOL    HW215924   6.210   2.102   3.801
 5009SOL     OW15925   1.776   6.281   3.493
 5009SOL    HW115926   1.776   6.347   3.417
 5009SOL    HW215927   1.826   6.199   3.466
 5010SOL     OW15928   4.004   3.101   4.524
 5010SOL    HW115929   4.046   3.162   4.591
 5010SOL    HW215930   4.041   3.120   4.433
 5011SOL     OW15931   1.643   2.625   2.377
 5011SOL    HW115932   1.652   2.698   2.309
 5011SOL    HW215933   1.674   2.659   2.466
 5012SOL     OW15934   6.140   3.012   6.969
 5012SOL    HW115935   6.119   3.109   6.968
 5012SOL    HW215936   6.238   2.998   6.983
 5013SOL     OW15937   4.522   0.967   6.727
 5013SOL    HW115938   4.545   1.064   6.735
 5013SOL    HW215939   4.456   0.953   6.653
 5014SOL     OW15940   6.233   6.631   0.050
 5014SOL    HW115941   6.246   6.677   0.138
 5014SOL    HW215942   6.317   6.636   7.024
 5015SOL     OW15943   4.843   2.299   3.416
 5015SOL    HW115944   4.758   2.263   3.456
 5015SOL    HW215945   4.865   2.247   3.333
 5016SOL     OW15946   2.051   0.099   2.553
 5016SOL    HW115947   2.128   0.047   2.518
 5016SOL    HW215948   2.057   0.103   2.653
 5017SOL     OW15949   2.463   2.753   1.390
 5017SOL    HW115950   2.389   2.712   1.444
 5017SOL    HW215951   2.424   2.800   1.311
 5018SOL     OW15952   6.641   5.226   4.091
 5018SOL    HW115953   6.625   5.305   4.032
 5018SOL    HW215954   6.554   5.182   4.112
 5019SOL     OW15955   2.737   5.176   6.018
 5019SOL    HW115956   2.808   5.106   6.021
 5019SOL    HW215957   2.686   5.167   5.932
 5020SOL     OW15958   4.826   6.137   6.633
 5020SOL    HW115959   4.824   6.164   6.729
 5020SOL    HW215960   4.757   6.187   6.582
 5021SOL     OW15961   1.530   5.184   5.718
 5021SOL    HW115962   1.621   5.216   5.743
 5021SOL    HW215963   1.529   5.159   5.621
 5022SOL     OW15964   1.232   5.305   0.449
 5022SOL    HW115965   1.243   5.224   0.508
 5022SOL    HW215966   1.219   5.275   0.354
 5023SOL     OW15967   6.424   3.095   2.384
 5023SOL    HW115968   6.517   3.131   2.381
 5023SOL    HW215969   6.427   2.995   2.392
 5024SOL     OW15970   5.654   3.550   4.904
 5024SOL    HW115971   5.737   3.604   4.892
 5024SOL    HW215972   5.574   3.606   4.883
 5025SOL     OW15973   6.533   1.642   3.003
 5025SOL    HW115974   6.543   1.562   2.943
 5025SOL    HW215975   6.532   1.613   3.098
 5026SOL     OW15976   0.607   6.527   3.073
 5026SOL    HW115977   0.553   6.597   3.025
 5026SOL    HW215978   0.704   6.551   3.070
 5027SOL     OW15979   1.303   6.736   3.312
 5027SOL    HW115980   1.379   6.794   3.284
 5027SOL    HW215981   1.334   6.641   3.317
 5028SOL     OW15982   1.031   0.483   2.379
 5028SOL    HW115983   1.087   0.548   2.329
 5028SOL    HW215984   1.046   0.493   2.477
 5029SOL     OW15985   0.031   0.889   2.080
 5029SOL    HW115986   0.071   0.970   2.037
 5029SOL    HW215987   0.100   0.846   2.138
 5030SOL     OW15988   1.300   5.833   6.748
 5030SOL    HW115989   1.382   5.889   6.762
 5030SOL    HW215990   1.321   5.760   6.683
 5031SOL     OW15991   5.650   0.234   4.439
 5031SOL    HW115992   5.720   0.180   4.394
 5031SOL    HW215993   5.665   0.231   4.538
 5032SOL     OW15994   1.438   6.050   0.761
 5032SOL    HW115995   1.408   5.965   0.803
 5032SOL    HW215996   1.448   6.038   0.662
 5033SOL     OW15997   1.583   4.589   5.625
 5033SOL    HW115998   1.527   4.626   5.551
 5033SOL    HW215999   1.601   4.660   5.693
 5034SOL     OW16000   6.622   3.769   0.456
 5034SOL    HW116001   6.644   3.784   0.553
 5034SOL    HW216002   6.530   3.731   0.449
 5035SOL     OW16003   5.964   4.214   1.053
 5035SOL    HW116004   6.041   4.156   1.028
 5035SOL    HW216005   5.964   4.296   0.997
 5036SOL     OW16006   1.767   0.578   2.032
 5036SOL    HW116007   1.667   0.586   2.026
 5036SOL    HW216008   1.796   0.585   2.127
 5037SOL     OW16009   4.488   2.329   3.555
 5037SOL    HW116010   4.422   2.394   3.594
 5037SOL    HW216011   4.490   2.246   3.610
 5038SOL     OW16012   2.808   6.594   5.492
 5038SOL    HW116013   2.792   6.496   5.510
 5038SOL    HW216014   2.748   6.624   5.418
 5039SOL     OW16015   1.903   1.449   4.237
 5039SOL    HW116016   1.871   1.541   4.258
 5039SOL    HW216017   1.971   1.453   4.163
 5040SOL     OW16018   2.569   3.416   6.378
 5040SOL    HW116019   2.518   3.335   6.349
 5040SOL    HW216020   2.667   3.402   6.358
 5041SOL     OW16021   1.262   5.608   1.013
 5041SOL    HW116022   1.265   5.508   1.010
 5041SOL    HW216023   1.227   5.643   0.926
 5042SOL     OW16024   5.728   2.412   6.395
 5042SOL    HW116025   5.751   2.320   6.427
 5042SOL    HW216026   5.804   2.448   6.341
 5043SOL     OW16027   4.297   0.412   3.624
 5043SOL    HW116028   4.200   0.423   3.603
 5043SOL    HW216029   4.313   0.319   3.657
 5044SOL     OW16030   6.337   4.136   3.025
 5044SOL    HW116031   6.255   4.181   3.061
 5044SOL    HW216032   6.319   4.039   3.014
 5045SOL     OW16033   6.311   2.939   6.544
 5045SOL    HW116034   6.231   2.992   6.516
 5045SOL    HW216035   6.295   2.842   6.525
 5046SOL     OW16036   3.269   2.991   4.996
 5046SOL    HW116037   3.249   2.932   4.917
 5046SOL    HW216038   3.254   3.087   4.970
 5047SOL     OW16039   0.876   0.863   2.602
 5047SOL    HW116040   0.790   0.913   2.614
 5047SOL    HW216041   0.940   0.919   2.549
 5048SOL     OW16042   5.637   3.173   1.363
 5048SOL    HW116043   5.673   3.263   1.387
 5048SOL    HW216044   5.542   3.182   1.333
 5049SOL     OW16045   1.204   2.371   2.543
 5049SOL    HW116046   1.172   2.317   2.465
 5049SOL    HW216047   1.303   2.383   2.537
 5050SOL     OW16048   1.005   3.377   1.106
 5050SOL    HW116049   0.985   3.445   1.177
 5050SOL    HW216050   0.924   3.362   1.050
 5051SOL     OW16051   2.935   5.092   0.246
 5051SOL    HW116052   2.894   5.018   0.193
 5051SOL    HW216053   2.960   5.167   0.185
 5052SOL     OW16054   5.509   4.037   0.898
 5052SOL    HW116055   5.550   3.963   0.845
 5052SOL    HW216056   5.580   4.102   0.926
 5053SOL     OW16057   2.150   4.560   6.948
 5053SOL    HW116058   2.212   4.630   6.983
 5053SOL    HW216059   2.174   4.539   6.853
 5054SOL     OW16060   4.087   5.736   4.848
 5054SOL    HW116061   4.030   5.663   4.887
 5054SOL    HW216062   4.046   5.825   4.869
 5055SOL     OW16063   1.407   1.984   4.341
 5055SOL    HW116064   1.418   1.884   4.337
 5055SOL    HW216065   1.328   2.011   4.286
 5056SOL     OW16066   1.938   2.462   5.721
 5056SOL    HW116067   1.931   2.363   5.732
 5056SOL    HW216068   1.885   2.491   5.641
 5057SOL     OW16069   0.939   4.724   2.755
 5057SOL    HW116070   0.976   4.638   2.789
 5057SOL    HW216071   0.849   4.740   2.797
 5058SOL     OW16072   3.136   3.833   6.707
 5058SOL    HW116073   3.099   3.773   6.779
 5058SOL    HW216074   3.148   3.925   6.745
 5059SOL     OW16075   3.361   1.457   3.416
 5059SOL    HW116076   3.350   1.385   3.348
 5059SOL    HW216077   3.325   1.426   3.504
 5060SOL     OW16078   0.089   3.712   5.942
 5060SOL    HW116079   0.146   3.772   5.885
 5060SOL    HW216080   0.120   3.618   5.933
 5061SOL     OW16081   3.903   2.443   5.535
 5061SOL    HW116082   3.979   2.502   5.564
 5061SOL    HW216083   3.939   2.365   5.483
 5062SOL     OW16084   5.627   0.881   3.148
 5062SOL    HW116085   5.636   0.968   3.198
 5062SOL    HW216086   5.700   0.819   3.176
 5063SOL     OW16087   1.331   1.025   1.980
 5063SOL    HW116088   1.303   1.103   1.924
 5063SOL    HW216089   1.309   1.043   2.076
 5064SOL     OW16090   5.091   5.827   0.988
 5064SOL    HW116091   5.172   5.827   1.047
 5064SOL    HW216092   5.059   5.920   0.976
 5065SOL     OW16093   2.270   0.734   2.467
 5065SOL    HW116094   2.227   0.780   2.389
 5065SOL    HW216095   2.198   0.698   2.527
 5066SOL     OW16096   2.516   4.919   2.445
 5066SOL    HW116097   2.507   4.821   2.426
 5066SOL    HW216098   2.457   4.943   2.523
 5067SOL     OW16099   4.755   3.045   0.477
 5067SOL    HW116100   4.659   3.046   0.503
 5067SOL    HW216101   4.780   2.953   0.446
 5068SOL     OW16102   2.923   5.905   0.812
 5068SOL    HW116103   2.942   5.923   0.908
 5068SOL    HW216104   2.911   5.807   0.798
 5069SOL     OW16105   3.601   4.868   5.269
 5069SOL    HW116106   3.662   4.876   5.190
 5069SOL    HW216107   3.511   4.838   5.239
 5070SOL     OW16108   5.797   3.911   4.299
 5070SOL    HW116109   5.870   3.912   4.231
 5070SOL    HW216110   5.709   3.928   4.253
 5071SOL     OW16111   2.936   0.291   3.956
 5071SOL    HW116112   2.892   0.226   4.019
 5071SOL    HW216113   2.935   0.382   3.996
 5072SOL     OW16114   0.438   1.529   0.130
 5072SOL    HW116115   0.419   1.593   0.204
 5072SOL    HW216116   0.366   1.459   0.127
 5073SOL     OW16117   2.449   1.084   2.450
 5073SOL    HW116118   2.417   1.019   2.520
 5073SOL    HW216119   2.439   1.177   2.485
 5074SOL     OW16120   3.427   2.202   1.740
 5074SOL    HW116121   3.405   2.172   1.833
 5074SOL    HW216122   3.513   2.252   1.740
 5075SOL     OW16123   0.998   3.432   0.323
 5075SOL    HW116124   0.991   3.481   0.236
 5075SOL    HW216125   1.047   3.488   0.389
 5076SOL     OW16126   5.924   0.031   6.183
 5076SOL    HW116127   5.913   0.069   6.275
 5076SOL    HW216128   5.834   0.003   6.147
 5077SOL     OW16129   0.390   4.366   3.735
 5077SOL    HW116130   0.429   4.274   3.746
 5077SOL    HW216131   0.373   4.406   3.824
 5078SOL     OW16132   0.409   1.987   4.555
 5078SOL    HW116133   0.312   2.000   4.579
 5078SOL    HW216134   0.424   1.891   4.529
 5079SOL     OW16135   1.560   3.218   5.584
 5079SOL    HW116136   1.631   3.152   5.561
 5079SOL    HW216137   1.507   3.240   5.501
 5080SOL     OW16138   5.839   5.763   0.005
 5080SOL    HW116139   5.765   5.700   7.007
 5080SOL    HW216140   5.914   5.754   6.967
 5081SOL     OW16141   3.042   5.498   5.649
 5081SOL    HW116142   3.010   5.572   5.590
 5081SOL    HW216143   3.094   5.536   5.725
 5082SOL     OW16144   5.619   5.797   2.096
 5082SOL    HW116145   5.556   5.832   2.027
 5082SOL    HW216146   5.649   5.872   2.155
 5083SOL     OW16147   1.594   0.308   2.815
 5083SOL    HW116148   1.501   0.307   2.852
 5083SOL    HW216149   1.600   0.246   2.737
 5084SOL     OW16150   2.135   5.162   5.417
 5084SOL    HW116151   2.232   5.148   5.438
 5084SOL    HW216152   2.080   5.094   5.465
 5085SOL     OW16153   0.645   4.435   5.497
 5085SOL    HW116154   0.685   4.374   5.565
 5085SOL    HW216155   0.676   4.408   5.406
 5086SOL     OW16156   1.731   5.329   1.813
 5086SOL    HW116157   1.649   5.355   1.864
 5086SOL    HW216158   1.812   5.355   1.865
 5087SOL     OW16159   6.323   4.604   2.171
 5087SOL    HW116160   6.232   4.628   2.137
 5087SOL    HW216161   6.353   4.519   2.127
 5088SOL     OW16162   5.492   6.206   2.124
 5088SOL    HW116163   5.503   6.172   2.031
 5088SOL    HW216164   5.422   6.278   2.125
 5089SOL     OW16165   5.570   5.106   5.616
 5089SOL    HW116166   5.571   5.118   5.715
 5089SOL    HW216167   5.484   5.062   5.588
 5090SOL     OW16168   3.190   7.017   5.027
 5090SOL    HW116169   3.199   0.070   5.086
 5090SOL    HW216170   3.253   7.025   4.950
 5091SOL     OW16171   6.211   6.781   6.388
 5091SOL    HW116172   6.221   6.782   6.488
 5091SOL    HW216173   6.246   6.867   6.351
 5092SOL     OW16174   3.022   3.413   4.260
 5092SOL    HW116175   2.988   3.319   4.258
 5092SOL    HW216176   3.118   3.413   4.288
 5093SOL     OW16177   2.557   2.153   3.125
 5093SOL    HW116178   2.641   2.099   3.133
 5093SOL    HW216179   2.576   2.237   3.075
 5094SOL     OW16180   2.181   5.880   5.266
 5094SOL    HW116181   2.170   5.854   5.170
 5094SOL    HW216182   2.278   5.877   5.290
 5095SOL     OW16183   6.839   1.670   3.234
 5095SOL    HW116184   6.855   1.579   3.273
 5095SOL    HW216185   6.896   1.682   3.152
 5096SOL     OW16186   5.518   2.865   5.297
 5096SOL    HW116187   5.448   2.936   5.289
 5096SOL    HW216188   5.533   2.822   5.208
 5097SOL     OW16189   1.135   0.317   5.827
 5097SOL    HW116190   1.141   0.240   5.891
 5097SOL    HW216191   1.178   0.397   5.868
 5098SOL     OW16192   3.071   2.991   1.411
 5098SOL    HW116193   3.142   2.929   1.443
 5098SOL    HW216194   2.981   2.947   1.422
 5099SOL     OW16195   1.752   0.296   1.734
 5099SOL    HW116196   1.745   0.311   1.832
 5099SOL    HW216197   1.682   0.232   1.704
 5100SOL     OW16198   5.193   4.539   2.367
 5100SOL    HW116199   5.276   4.571   2.411
 5100SOL    HW216200   5.128   4.507   2.436
 5101SOL     OW16201   3.835   0.380   6.300
 5101SOL    HW116202   3.816   0.451   6.232
 5101SOL    HW216203   3.750   0.334   6.324
 5102SOL     OW16204   4.840   4.357   4.645
 5102SOL    HW116205   4.803   4.313   4.563
 5102SOL    HW216206   4.931   4.321   4.663
 5103SOL     OW16207   0.618   1.059   6.369
 5103SOL    HW116208   0.661   0.968   6.374
 5103SOL    HW216209   0.521   1.051   6.392
 5104SOL     OW16210   3.560   3.660   1.478
 5104SOL    HW116211   3.579   3.562   1.467
 5104SOL    HW216212   3.599   3.691   1.565
 5105SOL     OW16213   4.175   3.644   6.426
 5105SOL    HW116214   4.088   3.613   6.464
 5105SOL    HW216215   4.217   3.570   6.373
 5106SOL     OW16216   4.169   2.573   0.597
 5106SOL    HW116217   4.128   2.634   0.666
 5106SOL    HW216218   4.190   2.626   0.515
 5107SOL     OW16219   4.655   3.319   0.118
 5107SOL    HW116220   4.633   3.417   0.115
 5107SOL    HW216221   4.745   3.304   0.077
 5108SOL     OW16222   4.334   4.700   0.018
 5108SOL    HW116223   4.343   4.659   0.109
 5108SOL    HW216224   4.284   4.786   0.025
 5109SOL     OW16225   1.320   2.854   0.974
 5109SOL    HW116226   1.414   2.859   0.940
 5109SOL    HW216227   1.269   2.934   0.941
 5110SOL     OW16228   4.959   0.488   5.777
 5110SOL    HW116229   4.871   0.533   5.793
 5110SOL    HW216230   4.968   0.466   5.680
 5111SOL     OW16231   0.434   6.396   4.750
 5111SOL    HW116232   0.427   6.496   4.753
 5111SOL    HW216233   0.405   6.363   4.660
 5112SOL     OW16234   0.082   0.087   3.359
 5112SOL    HW116235   0.103   0.144   3.280
 5112SOL    HW216236   0.016   0.134   3.418
 5113SOL     OW16237   1.798   3.773   6.880
 5113SOL    HW116238   1.751   3.861   6.892
 5113SOL    HW216239   1.862   3.759   6.955
 5114SOL     OW16240   4.662   5.462   0.991
 5114SOL    HW116241   4.577   5.410   0.981
 5114SOL    HW216242   4.688   5.465   1.088
 5115SOL     OW16243   2.140   3.913   1.182
 5115SOL    HW116244   2.098   3.996   1.145
 5115SOL    HW216245   2.146   3.844   1.110
 5116SOL     OW16246   1.940   0.465   6.633
 5116SOL    HW116247   1.998   0.502   6.705
 5116SOL    HW216248   1.891   0.540   6.588
 5117SOL     OW16249   1.525   2.431   3.911
 5117SOL    HW116250   1.490   2.380   3.833
 5117SOL    HW216251   1.543   2.369   3.987
 5118SOL     OW16252   5.076   6.062   6.070
 5118SOL    HW116253   5.100   6.047   5.974
 5118SOL    HW216254   5.107   6.152   6.098
 5119SOL     OW16255   5.326   1.306   0.266
 5119SOL    HW116256   5.294   1.398   0.244
 5119SOL    HW216257   5.257   1.238   0.240
 5120SOL     OW16258   5.749   6.441   6.009
 5120SOL    HW116259   5.747   6.537   6.039
 5120SOL    HW216260   5.766   6.437   5.910
 5121SOL     OW16261   1.479   3.968   6.169
 5121SOL    HW116262   1.537   3.886   6.169
 5121SOL    HW216263   1.389   3.945   6.206
 5122SOL     OW16264   5.397   5.397   4.420
 5122SOL    HW116265   5.471   5.386   4.355
 5122SOL    HW216266   5.434   5.415   4.511
 5123SOL     OW16267   4.983   3.160   1.642
 5123SOL    HW116268   5.026   3.071   1.659
 5123SOL    HW216269   4.884   3.152   1.653
 5124SOL     OW16270   2.155   5.939   4.775
 5124SOL    HW116271   2.099   6.021   4.787
 5124SOL    HW216272   2.247   5.965   4.746
 5125SOL     OW16273   0.055   1.894   3.765
 5125SOL    HW116274   0.035   1.850   3.853
 5125SOL    HW216275   7.004   1.951   3.738
 5126SOL     OW16276   2.242   0.110   0.301
 5126SOL    HW116277   2.201   0.018   0.301
 5126SOL    HW216278   2.299   0.120   0.219
 5127SOL     OW16279   1.979   5.395   6.668
 5127SOL    HW116280   1.935   5.359   6.586
 5127SOL    HW216281   2.069   5.353   6.679
 5128SOL     OW16282   5.966   6.857   2.381
 5128SOL    HW116283   5.986   6.932   2.317
 5128SOL    HW216284   5.914   6.892   2.459
 5129SOL     OW16285   5.513   6.872   0.931
 5129SOL    HW116286   5.426   6.904   0.969
 5129SOL    HW216287   5.589   6.920   0.975
 5130SOL     OW16288   7.021   4.623   3.282
 5130SOL    HW116289   0.068   4.610   3.347
 5130SOL    HW216290   6.983   4.715   3.290
 5131SOL     OW16291   2.596   2.358   2.932
 5131SOL    HW116292   2.579   2.456   2.919
 5131SOL    HW216293   2.690   2.337   2.907
 5132SOL     OW16294   2.929   6.023   5.342
 5132SOL    HW116295   2.978   6.109   5.325
 5132SOL    HW216296   2.852   6.016   5.280
 5133SOL     OW16297   3.596   6.845   6.040
 5133SOL    HW116298   3.686   6.882   6.017
 5133SOL    HW216299   3.582   6.851   6.139
 5134SOL     OW16300   6.822   3.682   0.258
 5134SOL    HW116301   6.768   3.743   0.314
 5134SOL    HW216302   6.919   3.688   0.284
 5135SOL     OW16303   6.784   1.849   4.567
 5135SOL    HW116304   6.877   1.812   4.571
 5135SOL    HW216305   6.783   1.940   4.608
 5136SOL     OW16306   4.123   0.923   4.325
 5136SOL    HW116307   4.189   0.968   4.264
 5136SOL    HW216308   4.033   0.925   4.282
 5137SOL     OW16309   3.279   4.411   6.688
 5137SOL    HW116310   3.271   4.473   6.610
 5137SOL    HW216311   3.194   4.360   6.699
 5138SOL     OW16312   2.601   3.620   6.178
 5138SOL    HW116313   2.587   3.713   6.210
 5138SOL    HW216314   2.561   3.556   6.244
 5139SOL     OW16315   0.736   0.417   3.514
 5139SOL    HW116316   0.725   0.335   3.571
 5139SOL    HW216317   0.789   0.393   3.432
 5140SOL     OW16318   3.574   2.878   1.314
 5140SOL    HW116319   3.584   2.949   1.384
 5140SOL    HW216320   3.481   2.841   1.317
 5141SOL     OW16321   6.571   3.328   7.001
 5141SOL    HW116322   6.570   3.397   0.047
 5141SOL    HW216323   6.524   3.246   0.006
 5142SOL     OW16324   5.364   3.174   3.831
 5142SOL    HW116325   5.382   3.154   3.927
 5142SOL    HW216326   5.285   3.122   3.800
 5143SOL     OW16327   6.476   5.235   4.426
 5143SOL    HW116328   6.513   5.149   4.390
 5143SOL    HW216329   6.418   5.216   4.505
 5144SOL     OW16330   1.757   1.339   5.142
 5144SOL    HW116331   1.856   1.332   5.128
 5144SOL    HW216332   1.736   1.423   5.193
 5145SOL     OW16333   3.232   5.780   5.745
 5145SOL    HW116334   3.303   5.711   5.761
 5145SOL    HW216335   3.274   5.870   5.737
 5146SOL     OW16336   3.236   4.948   0.032
 5146SOL    HW116337   3.322   4.922   7.015
 5146SOL    HW216338   3.243   4.932   0.130
 5147SOL     OW16339   5.937   5.079   6.740
 5147SOL    HW116340   5.964   5.056   6.833
 5147SOL    HW216341   5.837   5.088   6.736
 5148SOL     OW16342   0.358   5.960   1.566
 5148SOL    HW116343   0.394   5.897   1.497
 5148SOL    HW216344   0.290   5.912   1.622
 5149SOL     OW16345   6.690   1.249   5.191
 5149SOL    HW116346   6.702   1.298   5.277
 5149SOL    HW216347   6.676   1.315   5.117
 5150SOL     OW16348   1.575   5.017   4.644
 5150SOL    HW116349   1.495   4.980   4.692
 5150SOL    HW216350   1.594   4.961   4.564
 5151SOL     OW16351   4.609   0.700   6.674
 5151SOL    HW116352   4.549   0.753   6.734
 5151SOL    HW216353   4.697   0.748   6.664
 5152SOL     OW16354   0.513   4.803   0.156
 5152SOL    HW116355   0.487   4.873   0.223
 5152SOL    HW216356   0.464   4.819   0.071
 5153SOL     OW16357   1.871   1.536   0.671
 5153SOL    HW116358   1.814   1.486   0.606
 5153SOL    HW216359   1.963   1.546   0.633
 5154SOL     OW16360   2.161   3.080   4.540
 5154SOL    HW116361   2.107   3.149   4.492
 5154SOL    HW216362   2.157   3.098   4.639
 5155SOL     OW16363   2.934   0.999   2.414
 5155SOL    HW116364   2.912   1.071   2.349
 5155SOL    HW216365   3.032   1.001   2.434
 5156SOL     OW16366   5.785   2.901   5.340
 5156SOL    HW116367   5.796   2.985   5.394
 5156SOL    HW216368   5.687   2.886   5.323
 5157SOL     OW16369   5.568   3.218   3.404
 5157SOL    HW116370   5.610   3.143   3.456
 5157SOL    HW216371   5.628   3.242   3.327
 5158SOL     OW16372   4.588   1.616   1.705
 5158SOL    HW116373   4.631   1.629   1.794
 5158SOL    HW216374   4.646   1.656   1.633
 5159SOL     OW16375   1.080   2.944   4.209
 5159SOL    HW116376   1.170   2.969   4.243
 5159SOL    HW216377   1.017   3.020   4.223
 5160SOL     OW16378   1.887   2.870   4.338
 5160SOL    HW116379   1.944   2.823   4.406
 5160SOL    HW216380   1.931   2.865   4.249
 5161SOL     OW16381   1.393   2.852   6.341
 5161SOL    HW116382   1.451   2.772   6.353
 5161SOL    HW216383   1.298   2.824   6.330
 5162SOL     OW16384   6.457   6.366   4.549
 5162SOL    HW116385   6.410   6.338   4.465
 5162SOL    HW216386   6.430   6.460   4.573
 5163SOL     OW16387   5.598   3.805   0.739
 5163SOL    HW116388   5.636   3.714   0.757
 5163SOL    HW216389   5.649   3.848   0.665
 5164SOL     OW16390   5.814   4.387   6.396
 5164SOL    HW116391   5.836   4.475   6.438
 5164SOL    HW216392   5.803   4.399   6.297
 5165SOL     OW16393   6.564   4.337   4.108
 5165SOL    HW116394   6.500   4.306   4.178
 5165SOL    HW216395   6.523   4.321   4.017
 5166SOL     OW16396   1.220   6.657   1.785
 5166SOL    HW116397   1.230   6.559   1.768
 5166SOL    HW216398   1.185   6.701   1.703
 5167SOL     OW16399   0.520   6.490   5.650
 5167SOL    HW116400   0.463   6.409   5.666
 5167SOL    HW216401   0.554   6.489   5.556
 5168SOL     OW16402   4.119   2.230   2.807
 5168SOL    HW116403   4.051   2.221   2.880
 5168SOL    HW216404   4.191   2.162   2.820
 5169SOL     OW16405   3.582   4.426   6.053
 5169SOL    HW116406   3.546   4.339   6.021
 5169SOL    HW216407   3.625   4.414   6.142
 5170SOL     OW16408   5.259   3.975   4.568
 5170SOL    HW116409   5.213   3.889   4.588
 5170SOL    HW216410   5.349   3.976   4.612
 5171SOL     OW16411   2.562   4.561   4.691
 5171SOL    HW116412   2.485   4.510   4.730
 5171SOL    HW216413   2.635   4.570   4.759
 5172SOL     OW16414   1.786   5.452   1.588
 5172SOL    HW116415   1.757   5.544   1.616
 5172SOL    HW216416   1.766   5.387   1.660
 5173SOL     OW16417   5.852   3.700   5.991
 5173SOL    HW116418   5.937   3.670   6.034
 5173SOL    HW216419   5.806   3.765   6.051
 5174SOL     OW16420   1.139   4.430   5.970
 5174SOL    HW116421   1.170   4.457   6.061
 5174SOL    HW216422   1.216   4.429   5.907
 5175SOL     OW16423   0.527   4.867   6.804
 5175SOL    HW116424   0.453   4.858   6.870
 5175SOL    HW216425   0.585   4.785   6.808
 5176SOL     OW16426   5.331   3.331   0.855
 5176SOL    HW116427   5.289   3.266   0.919
 5176SOL    HW216428   5.338   3.421   0.899
 5177SOL     OW16429   5.691   6.913   6.451
 5177SOL    HW116430   5.629   6.907   6.372
 5177SOL    HW216431   5.733   6.823   6.467
 5178SOL     OW16432   2.497   2.292   1.922
 5178SOL    HW116433   2.412   2.257   1.961
 5178SOL    HW216434   2.478   2.333   1.832
 5179SOL     OW16435   2.864   6.102   5.732
 5179SOL    HW116436   2.769   6.133   5.730
 5179SOL    HW216437   2.869   6.009   5.694
 5180SOL     OW16438   2.889   2.291   1.382
 5180SOL    HW116439   2.953   2.254   1.314
 5180SOL    HW216440   2.937   2.305   1.468
 5181SOL     OW16441   3.642   6.148   1.940
 5181SOL    HW116442   3.720   6.186   1.990
 5181SOL    HW216443   3.560   6.201   1.960
 5182SOL     OW16444   5.040   4.464   1.974
 5182SOL    HW116445   4.955   4.477   1.924
 5182SOL    HW216446   5.117   4.480   1.913
 5183SOL     OW16447   4.694   0.489   2.558
 5183SOL    HW116448   4.659   0.409   2.508
 5183SOL    HW216449   4.628   0.515   2.629
 5184SOL     OW16450   0.956   1.439   2.929
 5184SOL    HW116451   1.056   1.446   2.928
 5184SOL    HW216452   0.917   1.502   2.863
 5185SOL     OW16453   3.751   0.484   2.315
 5185SOL    HW116454   3.705   0.474   2.404
 5185SOL    HW216455   3.840   0.526   2.328
 5186SOL     OW16456   6.114   4.647   0.627
 5186SOL    HW116457   6.063   4.585   0.567
 5186SOL    HW216458   6.066   4.734   0.633
 5187SOL     OW16459   5.065   1.684   3.770
 5187SOL    HW116460   5.139   1.672   3.704
 5187SOL    HW216461   5.029   1.594   3.796
 5188SOL     OW16462   0.967   3.745   5.551
 5188SOL    HW116463   0.941   3.784   5.463
 5188SOL    HW216464   1.067   3.745   5.560
 5189SOL     OW16465   4.754   5.605   6.298
 5189SOL    HW116466   4.833   5.665   6.283
 5189SOL    HW216467   4.783   5.526   6.351
 5190SOL     OW16468   1.449   2.275   3.678
 5190SOL    HW116469   1.490   2.185   3.664
 5190SOL    HW216470   1.481   2.338   3.606
 5191SOL     OW16471   3.829   0.196   1.764
 5191SOL    HW116472   3.888   0.262   1.810
 5191SOL    HW216473   3.754   0.244   1.718
 5192SOL     OW16474   6.232   4.537   2.684
 5192SOL    HW116475   6.169   4.478   2.735
 5192SOL    HW216476   6.222   4.632   2.715
 5193SOL     OW16477   4.992   3.886   2.756
 5193SOL    HW116478   5.067   3.945   2.727
 5193SOL    HW216479   5.003   3.795   2.715
 5194SOL     OW16480   6.180   0.797   5.487
 5194SOL    HW116481   6.234   0.789   5.570
 5194SOL    HW216482   6.119   0.718   5.478
 5195SOL     OW16483   5.932   6.243   5.711
 5195SOL    HW116484   5.937   6.226   5.809
 5195SOL    HW216485   5.885   6.330   5.695
 5196SOL     OW16486   0.593   3.301   1.702
 5196SOL    HW116487   0.503   3.260   1.686
 5196SOL    HW216488   0.619   3.287   1.798
 5197SOL     OW16489   3.331   6.408   4.882
 5197SOL    HW116490   3.294   6.392   4.974
 5197SOL    HW216491   3.272   6.472   4.832
 5198SOL     OW16492   4.188   6.800   5.432
 5198SOL    HW116493   4.283   6.832   5.433
 5198SOL    HW216494   4.172   6.738   5.509
 5199SOL     OW16495   1.051   4.814   1.670
 5199SOL    HW116496   1.142   4.787   1.635
 5199SOL    HW216497   1.062   4.876   1.747
 5200SOL     OW16498   6.700   0.654   4.978
 5200SOL    HW116499   6.656   0.727   4.925
 5200SOL    HW216500   6.744   0.589   4.916
 5201SOL     OW16501   6.562   5.107   4.753
 5201SOL    HW116502   6.633   5.160   4.706
 5201SOL    HW216503   6.474   5.122   4.707
 5202SOL     OW16504   3.840   2.953   5.962
 5202SOL    HW116505   3.914   3.018   5.945
 5202SOL    HW216506   3.835   2.887   5.887
 5203SOL     OW16507   1.919   0.706   6.832
 5203SOL    HW116508   1.973   0.773   6.781
 5203SOL    HW216509   1.837   0.683   6.780
 5204SOL     OW16510   2.703   0.186   0.713
 5204SOL    HW116511   2.760   0.165   0.793
 5204SOL    HW216512   2.741   0.139   0.633
 5205SOL     OW16513   0.437   5.927   1.123
 5205SOL    HW116514   0.478   5.918   1.032
 5205SOL    HW216515   0.377   6.007   1.125
 5206SOL     OW16516   1.073   4.766   4.168
 5206SOL    HW116517   1.090   4.715   4.253
 5206SOL    HW216518   1.003   4.720   4.115
 5207SOL     OW16519   6.859   0.427   3.977
 5207SOL    HW116520   6.818   0.511   4.012
 5207SOL    HW216521   6.817   0.348   4.022
 5208SOL     OW16522   5.155   2.042   0.460
 5208SOL    HW116523   5.245   2.004   0.479
 5208SOL    HW216524   5.135   2.114   0.526
 5209SOL     OW16525   5.945   5.668   2.773
 5209SOL    HW116526   5.855   5.687   2.733
 5209SOL    HW216527   6.012   5.733   2.736
 5210SOL     OW16528   5.183   4.220   0.271
 5210SOL    HW116529   5.133   4.223   0.358
 5210SOL    HW216530   5.268   4.272   0.280
 5211SOL     OW16531   4.955   2.686   4.945
 5211SOL    HW116532   4.961   2.729   4.855
 5211SOL    HW216533   4.973   2.754   5.016
 5212SOL     OW16534   1.104   3.618   0.479
 5212SOL    HW116535   1.094   3.708   0.438
 5212SOL    HW216536   1.176   3.620   0.549
 5213SOL     OW16537   4.085   3.686   2.944
 5213SOL    HW116538   4.111   3.657   2.851
 5213SOL    HW216539   4.131   3.628   3.011
 5214SOL     OW16540   5.591   3.595   5.548
 5214SOL    HW116541   5.522   3.522   5.558
 5214SOL    HW216542   5.626   3.619   5.639
 5215SOL     OW16543   0.412   3.773   4.933
 5215SOL    HW116544   0.368   3.831   5.002
 5215SOL    HW216545   0.414   3.678   4.966
 5216SOL     OW16546   5.138   5.293   1.321
 5216SOL    HW116547   5.207   5.275   1.251
 5216SOL    HW216548   5.067   5.222   1.317
 5217SOL     OW16549   4.288   6.164   3.103
 5217SOL    HW116550   4.315   6.118   3.018
 5217SOL    HW216551   4.313   6.107   3.181
 5218SOL     OW16552   0.814   7.021   1.097
 5218SOL    HW116553   0.721   6.985   1.092
 5218SOL    HW216554   0.847   7.016   1.191
 5219SOL     OW16555   3.525   1.604   4.556
 5219SOL    HW116556   3.623   1.619   4.549
 5219SOL    HW216557   3.495   1.625   4.650
 5220SOL     OW16558   2.331   4.885   4.196
 5220SOL    HW116559   2.400   4.957   4.185
 5220SOL    HW216560   2.364   4.801   4.152
 5221SOL     OW16561   6.475   5.885   1.067
 5221SOL    HW116562   6.556   5.892   1.126
 5221SOL    HW216563   6.488   5.941   0.985
 5222SOL     OW16564   5.833   3.747   1.076
 5222SOL    HW116565   5.739   3.781   1.080
 5222SOL    HW216566   5.874   3.751   1.167
 5223SOL     OW16567   0.050   2.934   0.703
 5223SOL    HW116568   7.022   2.965   0.781
 5223SOL    HW216569   0.075   2.838   0.717
 5224SOL     OW16570   0.101   2.589   4.728
 5224SOL    HW116571   0.171   2.539   4.677
 5224SOL    HW216572   0.130   2.683   4.741
 5225SOL     OW16573   0.007   1.732   4.585
 5225SOL    HW116574   0.082   1.668   4.569
 5225SOL    HW216575   0.040   1.826   4.570
 5226SOL     OW16576   0.815   6.697   3.540
 5226SOL    HW116577   0.841   6.772   3.480
 5226SOL    HW216578   0.729   6.656   3.508
 5227SOL     OW16579   0.153   2.904   5.498
 5227SOL    HW116580   0.084   2.838   5.469
 5227SOL    HW216581   0.217   2.920   5.422
 5228SOL     OW16582   1.152   1.446   5.542
 5228SOL    HW116583   1.056   1.421   5.557
 5228SOL    HW216584   1.207   1.363   5.534
 5229SOL     OW16585   3.416   1.919   5.881
 5229SOL    HW116586   3.467   1.842   5.844
 5229SOL    HW216587   3.478   1.998   5.889
 5230SOL     OW16588   7.003   6.906   2.224
 5230SOL    HW116589   7.005   6.969   2.302
 5230SOL    HW216590   0.067   6.869   2.208
 5231SOL     OW16591   6.845   2.296   1.444
 5231SOL    HW116592   6.845   2.206   1.488
 5231SOL    HW216593   6.937   2.315   1.410
 5232SOL     OW16594   1.747   3.187   6.062
 5232SOL    HW116595   1.666   3.132   6.084
 5232SOL    HW216596   1.782   3.229   6.145
 5233SOL     OW16597   2.963   0.231   2.862
 5233SOL    HW116598   2.965   0.260   2.766
 5233SOL    HW216599   2.918   0.301   2.917
 5234SOL     OW16600   2.553   2.104   6.712
 5234SOL    HW116601   2.469   2.087   6.764
 5234SOL    HW216602   2.632   2.103   6.775
 5235SOL     OW16603   2.139   2.441   1.389
 5235SOL    HW116604   2.167   2.375   1.459
 5235SOL    HW216605   2.065   2.402   1.334
 5236SOL     OW16606   3.261   5.020   1.738
 5236SOL    HW116607   3.262   5.092   1.668
 5236SOL    HW216608   3.189   4.954   1.716
 5237SOL     OW16609   2.035   1.698   2.710
 5237SOL    HW116610   1.942   1.711   2.743
 5237SOL    HW216611   2.034   1.690   2.610
 5238SOL     OW16612   0.859   6.680   2.807
 5238SOL    HW116613   0.767   6.683   2.768
 5238SOL    HW216614   0.853   6.690   2.906
 5239SOL     OW16615   2.132   3.947   0.696
 5239SOL    HW116616   2.158   3.858   0.657
 5239SOL    HW216617   2.129   4.016   0.624
 5240SOL     OW16618   2.129   3.717   5.964
 5240SOL    HW116619   2.156   3.648   6.031
 5240SOL    HW216620   2.210   3.767   5.933
 5241SOL     OW16621   0.231   5.742   2.109
 5241SOL    HW116622   0.310   5.782   2.155
 5241SOL    HW216623   0.259   5.663   2.056
 5242SOL     OW16624   4.514   0.461   6.996
 5242SOL    HW116625   4.523   0.475   0.068
 5242SOL    HW216626   4.604   0.449   6.955
 5243SOL     OW16627   2.560   6.345   2.191
 5243SOL    HW116628   2.573   6.266   2.130
 5243SOL    HW216629   2.634   6.348   2.258
 5244SOL     OW16630   4.858   1.972   0.627
 5244SOL    HW116631   4.836   2.012   0.538
 5244SOL    HW216632   4.913   1.890   0.614
 5245SOL     OW16633   3.153   3.610   1.670
 5245SOL    HW116634   3.072   3.563   1.634
 5245SOL    HW216635   3.229   3.599   1.607
 5246SOL     OW16636   6.323   3.926   6.764
 5246SOL    HW116637   6.387   3.972   6.703
 5246SOL    HW216638   6.321   3.973   6.852
 5247SOL     OW16639   4.381   1.817   6.454
 5247SOL    HW116640   4.414   1.781   6.366
 5247SOL    HW216641   4.439   1.893   6.482
 5248SOL     OW16642   6.222   1.205   3.540
 5248SOL    HW116643   6.150   1.137   3.558
 5248SOL    HW216644   6.185   1.297   3.553
 5249SOL     OW16645   0.301   4.561   0.292
 5249SOL    HW116646   0.342   4.514   0.370
 5249SOL    HW216647   0.372   4.609   0.241
 5250SOL     OW16648   1.406   6.140   1.022
 5250SOL    HW116649   1.386   6.067   1.087
 5250SOL    HW216650   1.402   6.104   0.929
 5251SOL     OW16651   0.772   4.690   0.344
 5251SOL    HW116652   0.785   4.592   0.335
 5251SOL    HW216653   0.675   4.712   0.328
 5252SOL     OW16654   3.811   6.777   2.305
 5252SOL    HW116655   3.762   6.784   2.392
 5252SOL    HW216656   3.818   6.681   2.279
 5253SOL     OW16657   0.158   5.610   4.751
 5253SOL    HW116658   0.101   5.533   4.780
 5253SOL    HW216659   0.108   5.695   4.768
 5254SOL     OW16660   5.424   6.371   3.695
 5254SOL    HW116661   5.330   6.367   3.661
 5254SOL    HW216662   5.475   6.439   3.643
 5255SOL     OW16663   6.469   1.894   5.534
 5255SOL    HW116664   6.401   1.877   5.463
 5255SOL    HW216665   6.490   1.992   5.538
 5256SOL     OW16666   0.378   1.578   2.429
 5256SOL    HW116667   0.383   1.671   2.464
 5256SOL    HW216668   0.357   1.580   2.332
 5257SOL     OW16669   4.058   1.250   6.334
 5257SOL    HW116670   4.113   1.174   6.299
 5257SOL    HW216671   4.027   1.228   6.426
 5258SOL     OW16672   4.156   1.235   3.274
 5258SOL    HW116673   4.091   1.311   3.286
 5258SOL    HW216674   4.249   1.268   3.289
 5259SOL     OW16675   6.188   4.814   3.573
 5259SOL    HW116676   6.236   4.844   3.656
 5259SOL    HW216677   6.216   4.872   3.496
 5260SOL     OW16678   2.438   0.594   0.730
 5260SOL    HW116679   2.343   0.585   0.701
 5260SOL    HW216680   2.442   0.635   0.821
 5261SOL     OW16681   5.458   4.357   6.978
 5261SOL    HW116682   5.420   4.436   6.929
 5261SOL    HW216683   5.426   4.273   6.935
 5262SOL     OW16684   2.048   0.906   2.351
 5262SOL    HW116685   2.094   0.894   2.264
 5262SOL    HW216686   2.045   1.003   2.375
 5263SOL     OW16687   1.064   6.279   2.252
 5263SOL    HW116688   1.086   6.346   2.322
 5263SOL    HW216689   1.142   6.218   2.237
 5264SOL     OW16690   6.310   1.302   1.694
 5264SOL    HW116691   6.293   1.231   1.763
 5264SOL    HW216692   6.239   1.372   1.700
 5265SOL     OW16693   6.578   4.799   4.760
 5265SOL    HW116694   6.541   4.747   4.837
 5265SOL    HW216695   6.563   4.897   4.776
 5266SOL     OW16696   1.740   0.346   6.812
 5266SOL    HW116697   1.796   0.381   6.737
 5266SOL    HW216698   1.661   0.405   6.826
 5267SOL     OW16699   5.197   2.312   4.640
 5267SOL    HW116700   5.104   2.318   4.675
 5267SOL    HW216701   5.227   2.402   4.608
 5268SOL     OW16702   5.408   0.159   6.333
 5268SOL    HW116703   5.388   0.088   6.401
 5268SOL    HW216704   5.337   0.229   6.336
 5269SOL     OW16705   0.499   7.002   3.944
 5269SOL    HW116706   0.563   6.937   3.903
 5269SOL    HW216707   0.541   0.017   4.024
 5270SOL     OW16708   0.140   1.815   6.236
 5270SOL    HW116709   0.216   1.759   6.269
 5270SOL    HW216710   0.054   1.766   6.250
 5271SOL     OW16711   0.601   4.819   3.423
 5271SOL    HW116712   0.515   4.810   3.374
 5271SOL    HW216713   0.658   4.888   3.378
 5272SOL     OW16714   4.437   0.218   0.097
 5272SOL    HW116715   4.429   0.212   0.197
 5272SOL    HW216716   4.456   0.312   0.071
 5273SOL     OW16717   1.691   1.960   2.707
 5273SOL    HW116718   1.666   1.930   2.615
 5273SOL    HW216719   1.750   1.892   2.750
 5274SOL     OW16720   4.737   5.350   1.251
 5274SOL    HW116721   4.676   5.363   1.329
 5274SOL    HW216722   4.699   5.280   1.190
 5275SOL     OW16723   4.534   2.013   6.576
 5275SOL    HW116724   4.538   2.110   6.601
 5275SOL    HW216725   4.626   1.982   6.551
 5276SOL     OW16726   4.606   6.645   1.798
 5276SOL    HW116727   4.532   6.649   1.865
 5276SOL    HW216728   4.673   6.716   1.819
 5277SOL     OW16729   2.325   2.872   1.738
 5277SOL    HW116730   2.386   2.940   1.698
 5277SOL    HW216731   2.371   2.783   1.740
 5278SOL     OW16732   4.476   3.632   1.646
 5278SOL    HW116733   4.481   3.729   1.625
 5278SOL    HW216734   4.567   3.600   1.674
 5279SOL     OW16735   2.282   5.386   3.026
 5279SOL    HW116736   2.337   5.457   2.982
 5279SOL    HW216737   2.313   5.296   2.994
 5280SOL     OW16738   4.726   6.884   4.660
 5280SOL    HW116739   4.810   6.888   4.714
 5280SOL    HW216740   4.647   6.897   4.720
 5281SOL     OW16741   0.455   2.486   2.075
 5281SOL    HW116742   0.402   2.565   2.107
 5281SOL    HW216743   0.406   2.441   2.001
 5282SOL     OW16744   4.999   1.811   2.258
 5282SOL    HW116745   4.940   1.747   2.210
 5282SOL    HW216746   5.011   1.893   2.201
 5283SOL     OW16747   5.448   5.284   6.421
 5283SOL    HW116748   5.416   5.228   6.344
 5283SOL    HW216749   5.538   5.253   6.450
 5284SOL     OW16750   5.153   3.044   3.724
 5284SOL    HW116751   5.076   3.107   3.730
 5284SOL    HW216752   5.127   2.955   3.762
 5285SOL     OW16753   3.247   6.026   2.493
 5285SOL    HW116754   3.343   6.000   2.503
 5285SOL    HW216755   3.190   5.958   2.539
 5286SOL     OW16756   2.292   4.794   2.053
 5286SOL    HW116757   2.369   4.858   2.060
 5286SOL    HW216758   2.233   4.804   2.133
 5287SOL     OW16759   0.751   1.613   1.439
 5287SOL    HW116760   0.819   1.659   1.382
 5287SOL    HW216761   0.715   1.533   1.390
 5288SOL     OW16762   4.681   1.150   0.709
 5288SOL    HW116763   4.686   1.248   0.688
 5288SOL    HW216764   4.598   1.112   0.670
 5289SOL     OW16765   1.714   5.877   1.060
 5289SOL    HW116766   1.733   5.790   1.014
 5289SOL    HW216767   1.625   5.873   1.104
 5290SOL     OW16768   5.038   5.661   0.797
 5290SOL    HW116769   5.060   5.573   0.838
 5290SOL    HW216770   5.044   5.732   0.867
 5291SOL     OW16771   2.040   5.235   5.769
 5291SOL    HW116772   2.110   5.169   5.795
 5291SOL    HW216773   2.065   5.279   5.683
 5292SOL     OW16774   4.779   2.544   6.308
 5292SOL    HW116775   4.866   2.584   6.336
 5292SOL    HW216776   4.775   2.540   6.209
 5293SOL     OW16777   1.018   1.194   4.405
 5293SOL    HW116778   0.941   1.189   4.469
 5293SOL    HW216779   1.058   1.286   4.410
 5294SOL     OW16780   4.985   2.294   5.719
 5294SOL    HW116781   4.918   2.368   5.727
 5294SOL    HW216782   4.958   2.231   5.647
 5295SOL     OW16783   5.992   0.422   1.739
 5295SOL    HW116784   6.046   0.339   1.726
 5295SOL    HW216785   6.052   0.501   1.746
 5296SOL     OW16786   0.846   3.755   0.573
 5296SOL    HW116787   0.900   3.678   0.539
 5296SOL    HW216788   0.904   3.837   0.575
 5297SOL     OW16789   1.967   3.123   1.694
 5297SOL    HW116790   2.020   3.198   1.734
 5297SOL    HW216791   2.027   3.065   1.639
 5298SOL     OW16792   1.262   5.214   1.394
 5298SOL    HW116793   1.329   5.168   1.336
 5298SOL    HW216794   1.233   5.300   1.351
 5299SOL     OW16795   3.147   0.377   1.534
 5299SOL    HW116796   3.106   0.292   1.499
 5299SOL    HW216797   3.211   0.413   1.466
 5300SOL     OW16798   6.782   5.169   3.607
 5300SOL    HW116799   6.864   5.165   3.665
 5300SOL    HW216800   6.774   5.084   3.555
 5301SOL     OW16801   4.816   0.395   0.315
 5301SOL    HW116802   4.861   0.330   0.254
 5301SOL    HW216803   4.802   0.352   0.404
 5302SOL     OW16804   6.644   4.157   3.427
 5302SOL    HW116805   6.670   4.248   3.394
 5302SOL    HW216806   6.544   4.153   3.436
 5303SOL     OW16807   0.511   5.391   3.694
 5303SOL    HW116808   0.530   5.474   3.642
 5303SOL    HW216809   0.416   5.364   3.681
 5304SOL     OW16810   5.132   2.313   5.420
 5304SOL    HW116811   5.140   2.411   5.440
 5304SOL    HW216812   5.060   2.273   5.477
 5305SOL     OW16813   2.813   1.171   2.602
 5305SOL    HW116814   2.720   1.190   2.632
 5305SOL    HW216815   2.813   1.093   2.539
 5306SOL     OW16816   2.326   0.311   4.510
 5306SOL    HW116817   2.287   0.306   4.601
 5306SOL    HW216818   2.413   0.360   4.514
 5307SOL     OW16819   4.355   0.003   6.724
 5307SOL    HW116820   4.439   0.056   6.731
 5307SOL    HW216821   4.276   0.063   6.736
 5308SOL     OW16822   0.379   1.268   2.841
 5308SOL    HW116823   0.370   1.304   2.748
 5308SOL    HW216824   0.466   1.298   2.880
 5309SOL     OW16825   4.113   3.237   4.267
 5309SOL    HW116826   4.134   3.322   4.315
 5309SOL    HW216827   4.077   3.257   4.176
 5310SOL     OW16828   5.714   1.788   0.673
 5310SOL    HW116829   5.764   1.703   0.661
 5310SOL    HW216830   5.616   1.769   0.680
 5311SOL     OW16831   1.614   5.623   6.790
 5311SOL    HW116832   1.688   5.574   6.835
 5311SOL    HW216833   1.620   5.721   6.811
 5312SOL     OW16834   0.309   2.477   1.814
 5312SOL    HW116835   0.296   2.468   1.715
 5312SOL    HW216836   0.292   2.388   1.857
 5313SOL     OW16837   1.080   5.681   6.867
 5313SOL    HW116838   1.169   5.715   6.838
 5313SOL    HW216839   1.013   5.698   6.796
 5314SOL     OW16840   3.135   4.733   0.530
 5314SOL    HW116841   3.137   4.635   0.552
 5314SOL    HW216842   3.040   4.763   0.523
 5315SOL     OW16843   4.915   3.122   2.472
 5315SOL    HW116844   4.950   3.208   2.434
 5315SOL    HW216845   4.870   3.069   2.400
 5316SOL     OW16846   6.428   5.580   5.296
 5316SOL    HW116847   6.513   5.631   5.308
 5316SOL    HW216848   6.367   5.598   5.374
 5317SOL     OW16849   5.787   5.629   3.000
 5317SOL    HW116850   5.714   5.577   2.956
 5317SOL    HW216851   5.865   5.638   2.938
 5318SOL     OW16852   0.231   2.604   5.018
 5318SOL    HW116853   0.237   2.693   4.972
 5318SOL    HW216854   0.198   2.535   4.953
 5319SOL     OW16855   3.960   0.324   1.360
 5319SOL    HW116856   3.947   0.249   1.425
 5319SOL    HW216857   3.916   0.407   1.395
 5320SOL     OW16858   5.731   3.714   5.751
 5320SOL    HW116859   5.787   3.726   5.833
 5320SOL    HW216860   5.699   3.803   5.719
 5321SOL     OW16861   1.967   5.636   6.509
 5321SOL    HW116862   2.024   5.604   6.433
 5321SOL    HW216863   1.941   5.559   6.567
 5322SOL     OW16864   3.156   6.223   0.596
 5322SOL    HW116865   3.076   6.283   0.585
 5322SOL    HW216866   3.226   6.249   0.529
 5323SOL     OW16867   6.189   3.203   0.253
 5323SOL    HW116868   6.166   3.248   0.167
 5323SOL    HW216869   6.170   3.265   0.329
 5324SOL     OW16870   3.833   3.093   1.965
 5324SOL    HW116871   3.896   3.067   1.893
 5324SOL    HW216872   3.746   3.046   1.953
 5325SOL     OW16873   4.895   5.921   4.403
 5325SOL    HW116874   4.903   6.015   4.434
 5325SOL    HW216875   4.919   5.916   4.306
 5326SOL     OW16876   0.538   0.131   2.066
 5326SOL    HW116877   0.535   0.065   1.991
 5326SOL    HW216878   0.449   0.177   2.073
 5327SOL     OW16879   6.820   0.952   4.430
 5327SOL    HW116880   6.784   0.864   4.460
 5327SOL    HW216881   6.831   1.012   4.510
 5328SOL     OW16882   3.788   4.935   1.103
 5328SOL    HW116883   3.702   4.986   1.096
 5328SOL    HW216884   3.772   4.846   1.145
 5329SOL     OW16885   6.351   5.503   0.408
 5329SOL    HW116886   6.253   5.500   0.388
 5329SOL    HW216887   6.376   5.597   0.431
 5330SOL     OW16888   3.951   4.992   0.439
 5330SOL    HW116889   4.023   5.061   0.434
 5330SOL    HW216890   3.953   4.935   0.357
 5331SOL     OW16891   4.163   2.663   6.649
 5331SOL    HW116892   4.217   2.590   6.607
 5331SOL    HW216893   4.117   2.627   6.730
 5332SOL     OW16894   6.028   2.987   0.312
 5332SOL    HW116895   5.991   2.945   0.229
 5332SOL    HW216896   6.068   3.075   0.289
 5333SOL     OW16897   1.212   2.046   4.173
 5333SOL    HW116898   1.143   2.113   4.144
 5333SOL    HW216899   1.198   1.960   4.123
 5334SOL     OW16900   3.497   5.877   1.547
 5334SOL    HW116901   3.474   5.781   1.561
 5334SOL    HW216902   3.570   5.904   1.610
 5335SOL     OW16903   0.385   4.638   1.267
 5335SOL    HW116904   0.331   4.681   1.339
 5335SOL    HW216905   0.482   4.653   1.283
 5336SOL     OW16906   1.535   2.943   4.889
 5336SOL    HW116907   1.565   3.038   4.888
 5336SOL    HW216908   1.492   2.922   4.977
 5337SOL     OW16909   6.510   5.000   0.440
 5337SOL    HW116910   6.458   4.929   0.487
 5337SOL    HW216911   6.549   5.063   0.508
 5338SOL     OW16912   6.489   3.408   0.855
 5338SOL    HW116913   6.560   3.476   0.872
 5338SOL    HW216914   6.405   3.436   0.901
 5339SOL     OW16915   5.066   3.626   2.723
 5339SOL    HW116916   5.158   3.593   2.704
 5339SOL    HW216917   5.000   3.567   2.676
 5340SOL     OW16918   4.939   3.808   2.064
 5340SOL    HW116919   4.891   3.875   2.006
 5340SOL    HW216920   4.974   3.734   2.008
 5341SOL     OW16921   4.523   4.468   3.622
 5341SOL    HW116922   4.586   4.391   3.626
 5341SOL    HW216923   4.490   4.490   3.714
 5342SOL     OW16924   6.760   5.553   5.050
 5342SOL    HW116925   6.819   5.504   5.114
 5342SOL    HW216926   6.804   5.637   5.020
 5343SOL     OW16927   3.457   2.981   6.152
 5343SOL    HW116928   3.532   2.919   6.131
 5343SOL    HW216929   3.487   3.076   6.137
 5344SOL     OW16930   0.218   1.347   6.284
 5344SOL    HW116931   0.306   1.376   6.246
 5344SOL    HW216932   0.172   1.286   6.219
 5345SOL     OW16933   5.099   1.320   6.713
 5345SOL    HW116934   5.121   1.327   6.810
 5345SOL    HW216935   5.090   1.411   6.674
 5346SOL     OW16936   3.151   5.803   3.194
 5346SOL    HW116937   3.078   5.761   3.249
 5346SOL    HW216938   3.172   5.894   3.230
 5347SOL     OW16939   6.071   2.219   3.962
 5347SOL    HW116940   5.980   2.235   3.925
 5347SOL    HW216941   6.064   2.202   4.061
 5348SOL     OW16942   5.038   2.633   4.536
 5348SOL    HW116943   4.975   2.628   4.459
 5348SOL    HW216944   4.997   2.687   4.610
 5349SOL     OW16945   0.938   3.704   1.245
 5349SOL    HW116946   1.008   3.771   1.221
 5349SOL    HW216947   0.867   3.748   1.299
 5350SOL     OW16948   1.263   6.121   6.832
 5350SOL    HW116949   1.169   6.138   6.862
 5350SOL    HW216950   1.270   6.028   6.796
 5351SOL     OW16951   6.797   6.202   3.707
 5351SOL    HW116952   6.859   6.135   3.748
 5351SOL    HW216953   6.750   6.253   3.779
 5352SOL     OW16954   1.497   3.192   6.259
 5352SOL    HW116955   1.556   3.124   6.302
 5352SOL    HW216956   1.443   3.239   6.329
 5353SOL     OW16957   4.012   4.773   3.541
 5353SOL    HW116958   4.082   4.727   3.595
 5353SOL    HW216959   3.969   4.844   3.597
 5354SOL     OW16960   3.825   5.695   1.542
 5354SOL    HW116961   3.920   5.717   1.522
 5354SOL    HW216962   3.792   5.752   1.617
 5355SOL     OW16963   5.487   4.472   5.344
 5355SOL    HW116964   5.420   4.428   5.405
 5355SOL    HW216965   5.441   4.543   5.290
 5356SOL     OW16966   0.416   5.719   0.814
 5356SOL    HW116967   0.444   5.636   0.862
 5356SOL    HW216968   0.488   5.788   0.823
 5357SOL     OW16969   6.089   3.687   2.937
 5357SOL    HW116970   6.162   3.646   2.883
 5357SOL    HW216971   6.029   3.615   2.972
 5358SOL     OW16972   4.866   0.879   6.690
 5358SOL    HW116973   4.862   0.967   6.644
 5358SOL    HW216974   4.947   0.829   6.660
 5359SOL     OW16975   3.397   2.271   6.426
 5359SOL    HW116976   3.362   2.332   6.355
 5359SOL    HW216977   3.363   2.300   6.515
 5360SOL     OW16978   5.941   5.069   3.987
 5360SOL    HW116979   5.928   5.155   3.938
 5360SOL    HW216980   5.901   4.994   3.934
 5361SOL     OW16981   1.448   5.107   2.452
 5361SOL    HW116982   1.437   5.182   2.518
 5361SOL    HW216983   1.544   5.100   2.427
 5362SOL     OW16984   5.714   1.644   2.442
 5362SOL    HW116985   5.693   1.645   2.539
 5362SOL    HW216986   5.813   1.648   2.429
 5363SOL     OW16987   5.600   4.945   3.793
 5363SOL    HW116988   5.673   5.012   3.777
 5363SOL    HW216989   5.595   4.883   3.715
 5364SOL     OW16990   4.663   1.944   2.990
 5364SOL    HW116991   4.721   2.025   2.980
 5364SOL    HW216992   4.609   1.931   2.908
 5365SOL     OW16993   2.969   3.492   4.509
 5365SOL    HW116994   3.002   3.437   4.586
 5365SOL    HW216995   2.963   3.435   4.427
 5366SOL     OW16996   6.506   6.180   3.599
 5366SOL    HW116997   6.504   6.157   3.696
 5366SOL    HW216998   6.560   6.113   3.549
 5367SOL     OW16999   6.215   5.757   1.422
 5367SOL    HW117000   6.253   5.850   1.433
 5367SOL    HW217001   6.175   5.748   1.331
 5368SOL     OW17002   6.836   5.814   4.575
 5368SOL    HW117003   6.737   5.819   4.590
 5368SOL    HW217004   6.859   5.725   4.534
 5369SOL     OW17005   3.990   5.935   2.373
 5369SOL    HW117006   4.025   5.917   2.465
 5369SOL    HW217007   3.906   5.988   2.379
 5370SOL     OW17008   1.668   2.929   0.555
 5370SOL    HW117009   1.570   2.947   0.557
 5370SOL    HW217010   1.692   2.887   0.467
 5371SOL     OW17011   6.236   5.376   4.823
 5371SOL    HW117012   6.174   5.454   4.829
 5371SOL    HW217013   6.318   5.395   4.877
 5372SOL     OW17014   1.690   6.972   2.865
 5372SOL    HW117015   1.662   7.020   2.781
 5372SOL    HW217016   1.768   7.020   2.906
 5373SOL     OW17017   3.050   1.309   6.419
 5373SOL    HW117018   2.988   1.345   6.349
 5373SOL    HW217019   2.999   1.248   6.480
 5374SOL     OW17020   2.015   3.931   1.801
 5374SOL    HW117021   1.917   3.928   1.782
 5374SOL    HW217022   2.048   3.838   1.819
 5375SOL     OW17023   2.459   4.894   4.852
 5375SOL    HW117024   2.504   4.944   4.778
 5375SOL    HW217025   2.377   4.849   4.817
 5376SOL     OW17026   0.629   0.145   5.959
 5376SOL    HW117027   0.549   0.171   6.012
 5376SOL    HW217028   0.665   0.226   5.912
 5377SOL     OW17029   1.530   1.502   2.789
 5377SOL    HW117030   1.456   1.547   2.739
 5377SOL    HW217031   1.604   1.479   2.726
 5378SOL     OW17032   4.240   0.171   2.697
 5378SOL    HW117033   4.198   0.082   2.679
 5378SOL    HW217034   4.234   0.191   2.795
 5379SOL     OW17035   2.302   2.249   4.439
 5379SOL    HW117036   2.382   2.191   4.455
 5379SOL    HW217037   2.220   2.193   4.431
 5380SOL     OW17038   4.546   6.209   1.760
 5380SOL    HW117039   4.493   6.125   1.745
 5380SOL    HW217040   4.637   6.186   1.794
 5381SOL     OW17041   2.780   0.255   3.507
 5381SOL    HW117042   2.683   0.230   3.498
 5381SOL    HW217043   2.828   0.232   3.422
 5382SOL     OW17044   4.741   0.999   2.427
 5382SOL    HW117045   4.777   0.906   2.433
 5382SOL    HW217046   4.642   0.998   2.441
 5383SOL     OW17047   2.271   2.858   4.421
 5383SOL    HW117048   2.234   2.934   4.475
 5383SOL    HW217049   2.342   2.812   4.474
 5384SOL     OW17050   5.664   5.428   5.551
 5384SOL    HW117051   5.617   5.345   5.519
 5384SOL    HW217052   5.597   5.501   5.562
 5385SOL     OW17053   3.873   3.428   6.165
 5385SOL    HW117054   3.818   3.487   6.223
 5385SOL    HW217055   3.932   3.483   6.106
 5386SOL     OW17056   5.066   4.637   4.150
 5386SOL    HW117057   5.027   4.727   4.128
 5386SOL    HW217058   5.142   4.648   4.214
 5387SOL     OW17059   1.169   1.739   4.309
 5387SOL    HW117060   1.170   1.759   4.211
 5387SOL    HW217061   1.147   1.822   4.360
 5388SOL     OW17062   0.289   6.955   3.036
 5388SOL    HW117063   0.222   6.940   3.108
 5388SOL    HW217064   0.381   6.957   3.075
 5389SOL     OW17065   5.223   1.096   3.514
 5389SOL    HW117066   5.290   1.069   3.445
 5389SOL    HW217067   5.175   1.178   3.483
 5390SOL     OW17068   6.924   3.712   3.442
 5390SOL    HW117069   6.840   3.679   3.398
 5390SOL    HW217070   6.976   3.767   3.376
 5391SOL     OW17071   3.093   2.704   0.716
 5391SOL    HW117072   3.167   2.637   0.708
 5391SOL    HW217073   3.064   2.733   0.625
 5392SOL     OW17074   6.068   0.665   3.779
 5392SOL    HW117075   6.059   0.598   3.705
 5392SOL    HW217076   6.011   0.745   3.758
 5393SOL     OW17077   4.500   2.420   4.189
 5393SOL    HW117078   4.549   2.424   4.276
 5393SOL    HW217079   4.520   2.502   4.136
 5394SOL     OW17080   0.778   2.081   1.462
 5394SOL    HW117081   0.847   2.081   1.535
 5394SOL    HW217082   0.689   2.103   1.500
 5395SOL     OW17083   6.436   1.120   0.781
 5395SOL    HW117084   6.454   1.021   0.784
 5395SOL    HW217085   6.356   1.137   0.724
 5396SOL     OW17086   4.343   3.876   0.667
 5396SOL    HW117087   4.309   3.970   0.681
 5396SOL    HW217088   4.369   3.837   0.755
 5397SOL     OW17089   6.950   0.770   2.699
 5397SOL    HW117090   6.963   0.841   2.769
 5397SOL    HW217091   6.853   0.765   2.675
 5398SOL     OW17092   6.150   3.068   2.190
 5398SOL    HW117093   6.243   3.062   2.226
 5398SOL    HW217094   6.097   2.989   2.219
 5399SOL     OW17095   1.700   1.976   0.125
 5399SOL    HW117096   1.778   2.013   0.075
 5399SOL    HW217097   1.615   2.017   0.091
 5400SOL     OW17098   4.887   3.124   1.352
 5400SOL    HW117099   4.933   3.153   1.435
 5400SOL    HW217100   4.792   3.099   1.373
 5401SOL     OW17101   5.384   2.269   1.230
 5401SOL    HW117102   5.381   2.343   1.297
 5401SOL    HW217103   5.404   2.307   1.140
 5402SOL     OW17104   1.250   6.114   2.526
 5402SOL    HW117105   1.314   6.190   2.520
 5402SOL    HW217106   1.203   6.116   2.614
 5403SOL     OW17107   4.626   2.395   0.007
 5403SOL    HW117108   4.670   2.444   6.959
 5403SOL    HW217109   4.667   2.422   0.094
 5404SOL     OW17110   4.925   0.025   0.140
 5404SOL    HW117111   4.881   0.115   0.144
 5404SOL    HW217112   4.969   0.015   0.051
 5405SOL     OW17113   0.142   4.828   0.257
 5405SOL    HW117114   0.099   4.866   0.339
 5405SOL    HW217115   0.200   4.750   0.283
 5406SOL     OW17116   2.310   1.034   5.960
 5406SOL    HW117117   2.352   1.024   5.870
 5406SOL    HW217118   2.262   1.122   5.965
 5407SOL     OW17119   1.690   6.814   3.085
 5407SOL    HW117120   1.778   6.769   3.073
 5407SOL    HW217121   1.672   6.874   3.007
 5408SOL     OW17122   2.223   1.773   4.471
 5408SOL    HW117123   2.273   1.787   4.556
 5408SOL    HW217124   2.274   1.712   4.411
 5409SOL     OW17125   1.191   2.542   2.022
 5409SOL    HW117126   1.164   2.520   1.928
 5409SOL    HW217127   1.115   2.522   2.084
 5410SOL     OW17128   6.464   2.392   0.613
 5410SOL    HW117129   6.487   2.444   0.695
 5410SOL    HW217130   6.369   2.408   0.589
 5411SOL     OW17131   3.505   5.544   6.910
 5411SOL    HW117132   3.419   5.572   6.952
 5411SOL    HW217133   3.579   5.602   6.945
 5412SOL     OW17134   0.358   2.373   6.011
 5412SOL    HW117135   0.260   2.372   5.988
 5412SOL    HW217136   0.409   2.329   5.937
 5413SOL     OW17137   1.077   5.345   4.719
 5413SOL    HW117138   1.040   5.431   4.684
 5413SOL    HW217139   1.138   5.305   4.651
 5414SOL     OW17140   5.231   4.599   6.003
 5414SOL    HW117141   5.313   4.588   6.058
 5414SOL    HW217142   5.256   4.640   5.915
 5415SOL     OW17143   3.894   1.097   0.360
 5415SOL    HW117144   3.945   1.110   0.444
 5415SOL    HW217145   3.957   1.088   0.283
 5416SOL     OW17146   3.988   5.626   0.273
 5416SOL    HW117147   3.888   5.618   0.271
 5416SOL    HW217148   4.028   5.540   0.241
 5417SOL     OW17149   4.420   6.535   4.000
 5417SOL    HW117150   4.459   6.614   4.047
 5417SOL    HW217151   4.482   6.457   4.009
 5418SOL     OW17152   6.479   3.224   5.596
 5418SOL    HW117153   6.546   3.299   5.595
 5418SOL    HW217154   6.415   3.239   5.671
 5419SOL     OW17155   4.151   1.597   5.948
 5419SOL    HW117156   4.148   1.514   6.005
 5419SOL    HW217157   4.176   1.675   6.005
 5420SOL     OW17158   1.680   2.120   1.900
 5420SOL    HW117159   1.593   2.125   1.949
 5420SOL    HW217160   1.680   2.039   1.841
 5421SOL     OW17161   3.494   4.941   2.173
 5421SOL    HW117162   3.546   4.890   2.104
 5421SOL    HW217163   3.506   5.039   2.156
 5422SOL     OW17164   3.000   5.015   3.910
 5422SOL    HW117165   2.924   4.968   3.954
 5422SOL    HW217166   3.035   4.959   3.834
 5423SOL     OW17167   5.041   6.912   1.862
 5423SOL    HW117168   5.102   6.968   1.806
 5423SOL    HW217169   5.076   6.819   1.866
 5424SOL     OW17170   4.028   3.587   5.434
 5424SOL    HW117171   4.076   3.559   5.517
 5424SOL    HW217172   4.092   3.629   5.370
 5425SOL     OW17173   1.373   4.437   5.834
 5425SOL    HW117174   1.459   4.481   5.808
 5425SOL    HW217175   1.376   4.340   5.808
 5426SOL     OW17176   6.776   5.212   1.360
 5426SOL    HW117177   6.712   5.266   1.414
 5426SOL    HW217178   6.865   5.259   1.356
 5427SOL     OW17179   4.089   3.253   0.554
 5427SOL    HW117180   4.159   3.256   0.625
 5427SOL    HW217181   4.034   3.170   0.564
 5428SOL     OW17182   5.336   5.229   3.236
 5428SOL    HW117183   5.348   5.326   3.213
 5428SOL    HW217184   5.243   5.201   3.211
 5429SOL     OW17185   2.673   0.079   4.489
 5429SOL    HW117186   2.702   0.168   4.455
 5429SOL    HW217187   2.575   0.080   4.509
 5430SOL     OW17188   2.685   3.932   5.502
 5430SOL    HW117189   2.777   3.907   5.531
 5430SOL    HW217190   2.650   3.863   5.440
 5431SOL     OW17191   4.568   4.506   0.533
 5431SOL    HW117192   4.521   4.542   0.614
 5431SOL    HW217193   4.660   4.476   0.558
 5432SOL     OW17194   0.351   5.462   6.737
 5432SOL    HW117195   0.284   5.439   6.807
 5432SOL    HW217196   0.355   5.562   6.726
 5433SOL     OW17197   3.482   0.324   1.207
 5433SOL    HW117198   3.384   0.323   1.226
 5433SOL    HW217199   3.533   0.330   1.293
 5434SOL     OW17200   4.782   0.537   4.354
 5434SOL    HW117201   4.707   0.505   4.412
 5434SOL    HW217202   4.867   0.536   4.407
 5435SOL     OW17203   6.650   5.016   0.735
 5435SOL    HW117204   6.692   4.975   0.815
 5435SOL    HW217205   6.716   5.074   0.688
 5436SOL     OW17206   1.928   4.628   2.784
 5436SOL    HW117207   1.982   4.578   2.716
 5436SOL    HW217208   1.836   4.590   2.789
 5437SOL     OW17209   3.340   6.323   1.034
 5437SOL    HW117210   3.344   6.336   0.935
 5437SOL    HW217211   3.427   6.351   1.075
 5438SOL     OW17212   4.672   6.135   2.206
 5438SOL    HW117213   4.738   6.064   2.186
 5438SOL    HW217214   4.673   6.204   2.134
 5439SOL     OW17215   1.132   4.402   1.356
 5439SOL    HW117216   1.215   4.411   1.412
 5439SOL    HW217217   1.115   4.488   1.307
 5440SOL     OW17218   6.052   6.457   3.744
 5440SOL    HW117219   6.028   6.362   3.767
 5440SOL    HW217220   6.028   6.475   3.649
 5441SOL     OW17221   5.518   2.433   4.849
 5441SOL    HW117222   5.481   2.344   4.825
 5441SOL    HW217223   5.600   2.422   4.905
 5442SOL     OW17224   2.983   0.492   6.673
 5442SOL    HW117225   2.991   0.393   6.688
 5442SOL    HW217226   2.911   0.509   6.606
 5443SOL     OW17227   5.432   1.236   3.044
 5443SOL    HW117228   5.528   1.227   3.071
 5443SOL    HW217229   5.417   1.329   3.010
 5444SOL     OW17230   6.752   0.716   6.090
 5444SOL    HW117231   6.665   0.675   6.062
 5444SOL    HW217232   6.751   0.735   6.188
 5445SOL     OW17233   5.729   5.768   6.138
 5445SOL    HW117234   5.679   5.805   6.060
 5445SOL    HW217235   5.689   5.801   6.223
 5446SOL     OW17236   6.974   4.484   6.186
 5446SOL    HW117237   6.998   4.581   6.174
 5446SOL    HW217238   0.019   4.428   6.145
 5447SOL     OW17239   0.056   1.339   1.837
 5447SOL    HW117240   0.090   1.311   1.747
 5447SOL    HW217241   6.985   1.320   1.844
 5448SOL     OW17242   5.032   4.706   3.030
 5448SOL    HW117243   5.002   4.614   3.002
 5448SOL    HW217244   5.002   4.772   2.961
 5449SOL     OW17245   3.067   1.194   2.037
 5449SOL    HW117246   3.030   1.265   1.976
 5449SOL    HW217247   2.992   1.142   2.076
 5450SOL     OW17248   4.387   5.838   2.264
 5450SOL    HW117249   4.409   5.922   2.313
 5450SOL    HW217250   4.298   5.803   2.294
 5451SOL     OW17251   6.372   6.434   3.515
 5451SOL    HW117252   6.347   6.374   3.591
 5451SOL    HW217253   6.437   6.386   3.456
 5452SOL     OW17254   2.135   3.998   2.633
 5452SOL    HW117255   2.184   4.070   2.583
 5452SOL    HW217256   2.078   3.946   2.569
 5453SOL     OW17257   6.902   4.918   3.996
 5453SOL    HW117258   6.820   4.968   4.023
 5453SOL    HW217259   6.886   4.820   4.005
 5454SOL     OW17260   6.083   4.068   3.430
 5454SOL    HW117261   6.132   4.017   3.360
 5454SOL    HW217262   6.108   4.032   3.520
 5455SOL     OW17263   2.454   2.078   3.528
 5455SOL    HW117264   2.545   2.053   3.561
 5455SOL    HW217265   2.456   2.171   3.491
 5456SOL     OW17266   5.188   2.556   0.665
 5456SOL    HW117267   5.219   2.463   0.648
 5456SOL    HW217268   5.093   2.566   0.633
 5457SOL     OW17269   5.716   1.225   6.301
 5457SOL    HW117270   5.752   1.210   6.393
 5457SOL    HW217271   5.617   1.210   6.302
 5458SOL     OW17272   5.862   3.535   0.204
 5458SOL    HW117273   5.934   3.547   0.136
 5458SOL    HW217274   5.776   3.514   0.157
 5459SOL     OW17275   1.728   3.476   4.784
 5459SOL    HW117276   1.705   3.546   4.851
 5459SOL    HW217277   1.764   3.395   4.832
 5460SOL     OW17278   1.132   0.738   1.496
 5460SOL    HW117279   1.076   0.799   1.553
 5460SOL    HW217280   1.123   0.764   1.400
 5461SOL     OW17281   6.509   0.989   5.749
 5461SOL    HW117282   6.465   1.064   5.700
 5461SOL    HW217283   6.606   1.007   5.759
 5462SOL     OW17284   5.016   4.319   6.430
 5462SOL    HW117285   5.110   4.327   6.462
 5462SOL    HW217286   4.957   4.288   6.505
 5463SOL     OW17287   1.125   3.157   6.062
 5463SOL    HW117288   1.088   3.223   6.128
 5463SOL    HW217289   1.051   3.102   6.025
 5464SOL     OW17290   1.872   5.897   5.628
 5464SOL    HW117291   1.844   5.956   5.703
 5464SOL    HW217292   1.837   5.933   5.542
 5465SOL     OW17293   0.566   6.804   4.249
 5465SOL    HW117294   0.573   6.889   4.198
 5465SOL    HW217295   0.522   6.735   4.192
 5466SOL     OW17296   5.808   2.160   4.663
 5466SOL    HW117297   5.868   2.239   4.677
 5466SOL    HW217298   5.845   2.103   4.589
 5467SOL     OW17299   4.912   3.191   4.120
 5467SOL    HW117300   4.990   3.251   4.104
 5467SOL    HW217301   4.843   3.239   4.175
 5468SOL     OW17302   0.041   1.031   0.831
 5468SOL    HW117303   6.998   1.023   0.903
 5468SOL    HW217304   0.131   1.013   0.871
 5469SOL     OW17305   3.538   0.564   4.131
 5469SOL    HW117306   3.558   0.605   4.220
 5469SOL    HW217307   3.440   0.570   4.113
 5470SOL     OW17308   4.198   5.135   4.098
 5470SOL    HW117309   4.170   5.119   4.003
 5470SOL    HW217310   4.216   5.048   4.143
 5471SOL     OW17311   4.926   0.951   2.986
 5471SOL    HW117312   4.934   0.858   3.022
 5471SOL    HW217313   5.014   0.982   2.952
 5472SOL     OW17314   3.194   3.469   6.684
 5472SOL    HW117315   3.227   3.495   6.593
 5472SOL    HW217316   3.125   3.397   6.675
 5473SOL     OW17317   2.505   4.954   1.938
 5473SOL    HW117318   2.567   4.885   1.901
 5473SOL    HW217319   2.525   4.968   2.035
 5474SOL     OW17320   1.034   4.879   2.568
 5474SOL    HW117321   1.133   4.882   2.552
 5474SOL    HW217322   1.015   4.829   2.653
 5475SOL     OW17323   0.580   1.078   4.807
 5475SOL    HW117324   0.490   1.113   4.835
 5475SOL    HW217325   0.634   1.058   4.889
 5476SOL     OW17326   2.448   6.940   5.016
 5476SOL    HW117327   2.537   6.972   5.049
 5476SOL    HW217328   2.383   7.016   5.018
 5477SOL     OW17329   1.670   3.978   4.175
 5477SOL    HW117330   1.665   4.010   4.081
 5477SOL    HW217331   1.589   4.010   4.225
 5478SOL     OW17332   5.040   4.924   5.977
 5478SOL    HW117333   5.024   4.863   5.899
 5478SOL    HW217334   4.973   4.999   5.975
 5479SOL     OW17335   4.998   1.941   4.640
 5479SOL    HW117336   4.987   1.933   4.541
 5479SOL    HW217337   4.908   1.937   4.684
 5480SOL     OW17338   0.858   3.549   4.364
 5480SOL    HW117339   0.772   3.543   4.415
 5480SOL    HW217340   0.858   3.481   4.291
 5481SOL     OW17341   4.546   1.839   6.223
 5481SOL    HW117342   4.517   1.922   6.175
 5481SOL    HW217343   4.527   1.759   6.165
 5482SOL     OW17344   5.380   3.139   1.583
 5482SOL    HW117345   5.304   3.075   1.574
 5482SOL    HW217346   5.466   3.089   1.595
 5483SOL     OW17347   6.811   2.736   6.606
 5483SOL    HW117348   6.725   2.778   6.637
 5483SOL    HW217349   6.795   2.688   6.519
 5484SOL     OW17350   6.886   6.666   4.820
 5484SOL    HW117351   6.904   6.764   4.829
 5484SOL    HW217352   6.969   6.620   4.790
 5485SOL     OW17353   3.564   0.349   5.304
 5485SOL    HW117354   3.545   0.446   5.289
 5485SOL    HW217355   3.507   0.294   5.243
 5486SOL     OW17356   1.235   0.651   3.879
 5486SOL    HW117357   1.204   0.743   3.859
 5486SOL    HW217358   1.333   0.652   3.899
 5487SOL     OW17359   4.475   4.859   1.046
 5487SOL    HW117360   4.460   4.763   1.068
 5487SOL    HW217361   4.401   4.893   0.988
 5488SOL     OW17362   4.829   0.997   5.878
 5488SOL    HW117363   4.734   1.016   5.904
 5488SOL    HW217364   4.870   1.079   5.838
 5489SOL     OW17365   0.681   4.023   3.407
 5489SOL    HW117366   0.770   3.979   3.395
 5489SOL    HW217367   0.666   4.041   3.505
 5490SOL     OW17368   1.815   2.163   6.921
 5490SOL    HW117369   1.808   2.123   6.830
 5490SOL    HW217370   1.746   2.235   6.931
 5491SOL     OW17371   0.309   5.350   1.461
 5491SOL    HW117372   0.362   5.375   1.380
 5491SOL    HW217373   0.340   5.261   1.495
 5492SOL     OW17374   1.590   1.127   5.127
 5492SOL    HW117375   1.663   1.064   5.100
 5492SOL    HW217376   1.630   1.216   5.150
 5493SOL     OW17377   2.902   2.861   0.190
 5493SOL    HW117378   2.890   2.956   0.161
 5493SOL    HW217379   2.969   2.816   0.131
 5494SOL     OW17380   6.086   2.740   2.173
 5494SOL    HW117381   6.081   2.644   2.198
 5494SOL    HW217382   6.034   2.756   2.089
 5495SOL     OW17383   3.589   2.829   2.263
 5495SOL    HW117384   3.601   2.729   2.262
 5495SOL    HW217385   3.492   2.851   2.248
 5496SOL     OW17386   3.670   5.691   1.321
 5496SOL    HW117387   3.584   5.742   1.314
 5496SOL    HW217388   3.707   5.701   1.414
 5497SOL     OW17389   6.278   6.792   2.320
 5497SOL    HW117390   6.207   6.863   2.323
 5497SOL    HW217391   6.356   6.821   2.374
 5498SOL     OW17392   4.506   0.640   5.300
 5498SOL    HW117393   4.548   0.675   5.384
 5498SOL    HW217394   4.569   0.576   5.255
 5499SOL     OW17395   0.263   2.104   4.121
 5499SOL    HW117396   0.329   2.056   4.063
 5499SOL    HW217397   0.311   2.146   4.198
 5500SOL     OW17398   1.855   6.185   1.758
 5500SOL    HW117399   1.775   6.185   1.819
 5500SOL    HW217400   1.907   6.101   1.772
 5501SOL     OW17401   2.270   6.961   2.534
 5501SOL    HW117402   2.309   0.007   2.589
 5501SOL    HW217403   2.334   6.935   2.461
 5502SOL     OW17404   4.332   4.004   0.119
 5502SOL    HW117405   4.333   3.954   0.033
 5502SOL    HW217406   4.354   4.100   0.103
 5503SOL     OW17407   1.587   5.530   4.423
 5503SOL    HW117408   1.638   5.512   4.507
 5503SOL    HW217409   1.605   5.624   4.392
 5504SOL     OW17410   3.360   2.098   5.004
 5504SOL    HW117411   3.451   2.124   4.972
 5504SOL    HW217412   3.300   2.178   5.007
 5505SOL     OW17413   2.768   4.497   5.855
 5505SOL    HW117414   2.851   4.446   5.832
 5505SOL    HW217415   2.688   4.444   5.826
 5506SOL     OW17416   6.314   0.097   5.343
 5506SOL    HW117417   6.339   0.168   5.408
 5506SOL    HW217418   6.311   0.136   5.251
 5507SOL     OW17419   3.052   5.703   3.928
 5507SOL    HW117420   3.091   5.623   3.883
 5507SOL    HW217421   3.093   5.786   3.890
 5508SOL     OW17422   2.169   0.870   6.126
 5508SOL    HW117423   2.227   0.796   6.160
 5508SOL    HW217424   2.206   0.903   6.039
 5509SOL     OW17425   5.703   6.268   6.703
 5509SOL    HW117426   5.627   6.212   6.668
 5509SOL    HW217427   5.773   6.208   6.741
 5510SOL     OW17428   5.007   0.835   5.340
 5510SOL    HW117429   5.006   0.924   5.385
 5510SOL    HW217430   5.073   0.836   5.264
 5511SOL     OW17431   0.486   1.331   2.249
 5511SOL    HW117432   0.524   1.316   2.158
 5511SOL    HW217433   0.486   1.429   2.270
 5512SOL     OW17434   2.154   0.188   1.165
 5512SOL    HW117435   2.201   0.234   1.090
 5512SOL    HW217436   2.106   0.107   1.131
 5513SOL     OW17437   3.794   4.888   4.489
 5513SOL    HW117438   3.843   4.853   4.568
 5513SOL    HW217439   3.778   4.986   4.500
 5514SOL     OW17440   5.946   4.950   3.281
 5514SOL    HW117441   5.954   4.851   3.276
 5514SOL    HW217442   5.970   4.990   3.192
 5515SOL     OW17443   0.037   2.621   1.641
 5515SOL    HW117444   0.083   2.552   1.586
 5515SOL    HW217445   6.970   2.632   1.609
 5516SOL     OW17446   1.621   3.497   6.176
 5516SOL    HW117447   1.592   3.403   6.190
 5516SOL    HW217448   1.570   3.557   6.238
 5517SOL     OW17449   2.447   1.369   2.805
 5517SOL    HW117450   2.510   1.397   2.732
 5517SOL    HW217451   2.374   1.436   2.814
 5518SOL     OW17452   5.958   4.790   4.673
 5518SOL    HW117453   5.964   4.873   4.728
 5518SOL    HW217454   5.962   4.814   4.576
 5519SOL     OW17455   5.123   3.367   4.092
 5519SOL    HW117456   5.154   3.408   4.006
 5519SOL    HW217457   5.195   3.309   4.129
 5520SOL     OW17458   1.716   3.872   1.658
 5520SOL    HW117459   1.698   3.969   1.640
 5520SOL    HW217460   1.651   3.816   1.606
 5521SOL     OW17461   5.542   5.288   1.945
 5521SOL    HW117462   5.524   5.296   2.043
 5521SOL    HW217463   5.462   5.249   1.899
 5522SOL     OW17464   2.119   3.687   1.847
 5522SOL    HW117465   2.097   3.641   1.761
 5522SOL    HW217466   2.147   3.619   1.915
 5523SOL     OW17467   2.922   0.931   1.998
 5523SOL    HW117468   2.917   0.856   2.065
 5523SOL    HW217469   3.014   0.936   1.961
 5524SOL     OW17470   0.027   5.816   6.042
 5524SOL    HW117471   0.122   5.810   6.012
 5524SOL    HW217472   0.022   5.874   6.124
 5525SOL     OW17473   0.163   5.261   5.008
 5525SOL    HW117474   0.102   5.182   4.995
 5525SOL    HW217475   0.250   5.244   4.962
 5526SOL     OW17476   6.286   2.909   4.737
 5526SOL    HW117477   6.337   2.925   4.821
 5526SOL    HW217478   6.333   2.842   4.680
 5527SOL     OW17479   2.085   3.597   1.226
 5527SOL    HW117480   2.139   3.626   1.146
 5527SOL    HW217481   2.107   3.502   1.248
 5528SOL     OW17482   0.462   3.239   3.458
 5528SOL    HW117483   0.504   3.196   3.538
 5528SOL    HW217484   0.496   3.196   3.375
 5529SOL     OW17485   1.440   1.691   5.171
 5529SOL    HW117486   1.417   1.594   5.180
 5529SOL    HW217487   1.493   1.720   5.251
 5530SOL     OW17488   0.900   2.617   0.950
 5530SOL    HW117489   0.947   2.680   0.888
 5530SOL    HW217490   0.946   2.618   1.038
 5531SOL     OW17491   3.336   2.795   5.951
 5531SOL    HW117492   3.384   2.840   5.876
 5531SOL    HW217493   3.372   2.827   6.038
 5532SOL     OW17494   2.750   1.418   1.116
 5532SOL    HW117495   2.834   1.471   1.132
 5532SOL    HW217496   2.681   1.444   1.183
 5533SOL     OW17497   4.272   0.880   1.214
 5533SOL    HW117498   4.180   0.903   1.184
 5533SOL    HW217499   4.267   0.812   1.288
 5534SOL     OW17500   6.938   4.120   5.755
 5534SOL    HW117501   6.872   4.163   5.817
 5534SOL    HW217502   6.979   4.190   5.696
 5535SOL     OW17503   6.457   2.932   3.406
 5535SOL    HW117504   6.462   3.031   3.420
 5535SOL    HW217505   6.421   2.914   3.314
 5536SOL     OW17506   1.783   0.504   3.384
 5536SOL    HW117507   1.813   0.565   3.457
 5536SOL    HW217508   1.718   0.437   3.421
 5537SOL     OW17509   4.305   1.060   4.581
 5537SOL    HW117510   4.379   1.027   4.523
 5537SOL    HW217511   4.222   1.071   4.527
 5538SOL     OW17512   5.175   1.805   0.307
 5538SOL    HW117513   5.108   1.867   0.347
 5538SOL    HW217514   5.176   1.719   0.357
 5539SOL     OW17515   3.045   6.891   0.168
 5539SOL    HW117516   3.130   6.907   0.118
 5539SOL    HW217517   3.062   6.827   0.243
 5540SOL     OW17518   5.348   0.562   6.844
 5540SOL    HW117519   5.373   0.467   6.821
 5540SOL    HW217520   5.250   0.568   6.858
 5541SOL     OW17521   4.720   3.547   5.836
 5541SOL    HW117522   4.761   3.581   5.920
 5541SOL    HW217523   4.620   3.544   5.846
 5542SOL     OW17524   3.941   4.772   0.286
 5542SOL    HW117525   4.030   4.728   0.303
 5542SOL    HW217526   3.869   4.719   0.330
 5543SOL     OW17527   1.390   0.393   1.013
 5543SOL    HW117528   1.368   0.490   1.008
 5543SOL    HW217529   1.370   0.349   0.926
 5544SOL     OW17530   3.897   5.923   5.859
 5544SOL    HW117531   3.948   5.852   5.810
 5544SOL    HW217532   3.821   5.882   5.908
 5545SOL     OW17533   3.627   0.223   3.044
 5545SOL    HW117534   3.706   0.222   3.105
 5545SOL    HW217535   3.560   0.289   3.077
 5546SOL     OW17536   0.834   5.565   4.837
 5546SOL    HW117537   0.855   5.476   4.879
 5546SOL    HW217538   0.810   5.630   4.909
 5547SOL     OW17539   5.375   1.430   4.644
 5547SOL    HW117540   5.425   1.344   4.644
 5547SOL    HW217541   5.427   1.499   4.594
 5548SOL     OW17542   6.185   4.776   5.520
 5548SOL    HW117543   6.110   4.776   5.585
 5548SOL    HW217544   6.167   4.708   5.449
 5549SOL     OW17545   4.417   2.874   0.845
 5549SOL    HW117546   4.413   2.839   0.939
 5549SOL    HW217547   4.490   2.942   0.838
 5550SOL     OW17548   1.879   3.639   2.296
 5550SOL    HW117549   1.948   3.691   2.246
 5550SOL    HW217550   1.796   3.631   2.240
 5551SOL     OW17551   1.971   5.219   4.395
 5551SOL    HW117552   2.058   5.269   4.398
 5551SOL    HW217553   1.927   5.224   4.484
 5552SOL     OW17554   0.390   6.613   6.869
 5552SOL    HW117555   0.483   6.604   6.835
 5552SOL    HW217556   0.393   6.645   6.964
 5553SOL     OW17557   4.569   0.133   6.908
 5553SOL    HW117558   4.568   0.211   6.845
 5553SOL    HW217559   4.519   0.157   6.991
 5554SOL     OW17560   4.881   2.700   1.525
 5554SOL    HW117561   4.908   2.727   1.433
 5554SOL    HW217562   4.880   2.601   1.532
 5555SOL     OW17563   1.745   4.359   2.306
 5555SOL    HW117564   1.744   4.277   2.248
 5555SOL    HW217565   1.839   4.378   2.334
 5556SOL     OW17566   0.050   0.381   5.003
 5556SOL    HW117567   0.115   0.454   5.021
 5556SOL    HW217568   0.019   0.387   4.908
 5557SOL     OW17569   3.257   6.411   1.876
 5557SOL    HW117570   3.223   6.448   1.962
 5557SOL    HW217571   3.182   6.365   1.828
 5558SOL     OW17572   3.879   4.577   6.867
 5558SOL    HW117573   3.780   4.580   6.882
 5558SOL    HW217574   3.899   4.595   6.771
 5559SOL     OW17575   1.884   0.265   2.400
 5559SOL    HW117576   1.945   0.217   2.462
 5559SOL    HW217577   1.931   0.285   2.314
 5560SOL     OW17578   0.441   6.019   3.092
 5560SOL    HW117579   0.420   5.922   3.081
 5560SOL    HW217580   0.509   6.046   3.024
 5561SOL     OW17581   3.486   6.867   4.110
 5561SOL    HW117582   3.532   6.948   4.145
 5561SOL    HW217583   3.408   6.894   4.054
 5562SOL     OW17584   3.982   3.802   1.401
 5562SOL    HW117585   4.030   3.887   1.422
 5562SOL    HW217586   4.046   3.725   1.405
 5563SOL     OW17587   2.741   4.665   2.743
 5563SOL    HW117588   2.779   4.666   2.836
 5563SOL    HW217589   2.812   4.637   2.678
 5564SOL     OW17590   5.487   0.762   5.877
 5564SOL    HW117591   5.522   0.827   5.945
 5564SOL    HW217592   5.536   0.675   5.886
 5565SOL     OW17593   2.987   2.256   6.767
 5565SOL    HW117594   3.071   2.297   6.733
 5565SOL    HW217595   3.007   2.197   6.845
 5566SOL     OW17596   1.078   3.211   6.524
 5566SOL    HW117597   1.010   3.138   6.514
 5566SOL    HW217598   1.062   3.259   6.610
 5567SOL     OW17599   6.644   4.699   1.577
 5567SOL    HW117600   6.564   4.683   1.519
 5567SOL    HW217601   6.701   4.770   1.536
 5568SOL     OW17602   4.658   6.554   1.555
 5568SOL    HW117603   4.752   6.587   1.543
 5568SOL    HW217604   4.621   6.588   1.641
 5569SOL     OW17605   2.276   2.670   4.228
 5569SOL    HW117606   2.266   2.745   4.294
 5569SOL    HW217607   2.361   2.621   4.246
 5570SOL     OW17608   0.166   3.896   2.948
 5570SOL    HW117609   0.202   3.944   3.029
 5570SOL    HW217610   0.233   3.901   2.874
 5571SOL     OW17611   6.413   5.140   1.978
 5571SOL    HW117612   6.361   5.055   1.987
 5571SOL    HW217613   6.353   5.218   2.000
 5572SOL     OW17614   1.283   3.098   4.825
 5572SOL    HW117615   1.323   3.036   4.892
 5572SOL    HW217616   1.350   3.121   4.755
 5573SOL     OW17617   2.852   5.428   4.096
 5573SOL    HW117618   2.769   5.463   4.054
 5573SOL    HW217619   2.842   5.429   4.195
 5574SOL     OW17620   6.956   2.162   6.405
 5574SOL    HW117621   6.988   2.180   6.498
 5574SOL    HW217622   6.857   2.150   6.405
 5575SOL     OW17623   0.513   0.096   1.519
 5575SOL    HW117624   0.441   0.165   1.529
 5575SOL    HW217625   0.472   0.009   1.494
 5576SOL     OW17626   2.148   4.390   3.431
 5576SOL    HW117627   2.181   4.481   3.407
 5576SOL    HW217628   2.051   4.394   3.454
 5577SOL     OW17629   1.492   3.673   6.336
 5577SOL    HW117630   1.434   3.755   6.340
 5577SOL    HW217631   1.516   3.645   6.429
 5578SOL     OW17632   3.691   3.206   2.619
 5578SOL    HW117633   3.720   3.111   2.616
 5578SOL    HW217634   3.766   3.265   2.588
 5579SOL     OW17635   0.417   2.945   1.639
 5579SOL    HW117636   0.333   2.897   1.667
 5579SOL    HW217637   0.394   3.040   1.615
 5580SOL     OW17638   5.128   2.035   5.268
 5580SOL    HW117639   5.058   2.014   5.199
 5580SOL    HW217640   5.101   2.117   5.319
 5581SOL     OW17641   0.515   1.780   6.997
 5581SOL    HW117642   0.475   1.691   7.019
 5581SOL    HW217643   0.546   1.825   0.053
 5582SOL     OW17644   2.340   2.967   6.553
 5582SOL    HW117645   2.297   2.916   6.478
 5582SOL    HW217646   2.434   2.991   6.527
 5583SOL     OW17647   5.177   1.202   2.080
 5583SOL    HW117648   5.145   1.296   2.090
 5583SOL    HW217649   5.269   1.201   2.042
 5584SOL     OW17650   0.435   4.242   5.257
 5584SOL    HW117651   0.524   4.270   5.295
 5584SOL    HW217652   0.447   4.164   5.197
 5585SOL     OW17653   4.445   4.927   1.883
 5585SOL    HW117654   4.479   5.020   1.900
 5585SOL    HW217655   4.464   4.870   1.963
 5586SOL     OW17656   6.904   2.734   6.227
 5586SOL    HW117657   6.810   2.744   6.260
 5586SOL    HW217658   6.913   2.646   6.180
 5587SOL     OW17659   5.128   0.395   6.369
 5587SOL    HW117660   5.119   0.495   6.361
 5587SOL    HW217661   5.198   0.373   6.437
 5588SOL     OW17662   3.218   6.463   1.243
 5588SOL    HW117663   3.222   6.409   1.327
 5588SOL    HW217664   3.271   6.416   1.172
 5589SOL     OW17665   5.866   4.681   6.440
 5589SOL    HW117666   5.860   4.732   6.354
 5589SOL    HW217667   5.911   4.736   6.509
 5590SOL     OW17668   6.036   5.811   4.454
 5590SOL    HW117669   5.990   5.898   4.433
 5590SOL    HW217670   5.976   5.755   4.511
 5591SOL     OW17671   6.120   1.488   1.441
 5591SOL    HW117672   6.111   1.533   1.530
 5591SOL    HW217673   6.215   1.494   1.410
 5592SOL     OW17674   0.991   4.666   3.265
 5592SOL    HW117675   1.089   4.648   3.276
 5592SOL    HW217676   0.946   4.665   3.354
 5593SOL     OW17677   6.254   1.925   0.332
 5593SOL    HW117678   6.333   1.986   0.328
 5593SOL    HW217679   6.241   1.894   0.426
 5594SOL     OW17680   5.413   2.190   5.465
 5594SOL    HW117681   5.415   2.169   5.367
 5594SOL    HW217682   5.318   2.199   5.495
 5595SOL     OW17683   0.791   2.968   5.413
 5595SOL    HW117684   0.861   2.924   5.470
 5595SOL    HW217685   0.835   3.033   5.351
 5596SOL     OW17686   4.333   6.946   2.461
 5596SOL    HW117687   4.246   6.934   2.508
 5596SOL    HW217688   4.392   7.007   2.514
 5597SOL     OW17689   4.909   3.459   3.401
 5597SOL    HW117690   4.811   3.442   3.415
 5597SOL    HW217691   4.934   3.432   3.308
 5598SOL     OW17692   5.119   2.241   4.360
 5598SOL    HW117693   5.182   2.270   4.433
 5598SOL    HW217694   5.137   2.146   4.337
 5599SOL     OW17695   0.599   2.055   4.172
 5599SOL    HW117696   0.654   1.974   4.156
 5599SOL    HW217697   0.527   2.034   4.239
 5600SOL     OW17698   1.430   2.682   3.917
 5600SOL    HW117699   1.445   2.584   3.908
 5600SOL    HW217700   1.506   2.723   3.968
 5601SOL     OW17701   2.539   1.455   5.612
 5601SOL    HW117702   2.596   1.478   5.533
 5601SOL    HW217703   2.585   1.385   5.667
 5602SOL     OW17704   0.751   1.412   0.754
 5602SOL    HW117705   0.821   1.483   0.756
 5602SOL    HW217706   0.679   1.434   0.820
 5603SOL     OW17707   5.214   2.018   7.008
 5603SOL    HW117708   5.278   1.981   0.049
 5603SOL    HW217709   5.155   2.086   0.025
 5604SOL     OW17710   5.663   2.183   5.775
 5604SOL    HW117711   5.615   2.107   5.731
 5604SOL    HW217712   5.731   2.147   5.840
 5605SOL     OW17713   0.678   2.031   4.736
 5605SOL    HW117714   0.583   2.006   4.754
 5605SOL    HW217715   0.704   2.001   4.645
 5606SOL     OW17716   4.479   0.336   1.740
 5606SOL    HW117717   4.441   0.278   1.812
 5606SOL    HW217718   4.573   0.308   1.721
 5607SOL     OW17719   5.423   1.787   1.824
 5607SOL    HW117720   5.366   1.772   1.905
 5607SOL    HW217721   5.408   1.712   1.759
 5608SOL     OW17722   4.331   0.044   4.879
 5608SOL    HW117723   4.252   0.036   4.818
 5608SOL    HW217724   4.380   0.129   4.859
 5609SOL     OW17725   2.692   6.520   6.679
 5609SOL    HW117726   2.715   6.429   6.711
 5609SOL    HW217727   2.657   6.574   6.755
 5610SOL     OW17728   5.246   0.267   0.364
 5610SOL    HW117729   5.235   0.180   0.317
 5610SOL    HW217730   5.321   0.319   0.322
 5611SOL     OW17731   1.138   4.882   3.357
 5611SOL    HW117732   1.056   4.895   3.302
 5611SOL    HW217733   1.113   4.839   3.444
 5612SOL     OW17734   3.069   0.641   5.770
 5612SOL    HW117735   3.011   0.706   5.721
 5612SOL    HW217736   3.014   0.589   5.835
 5613SOL     OW17737   4.242   4.628   1.927
 5613SOL    HW117738   4.316   4.659   1.867
 5613SOL    HW217739   4.224   4.531   1.910
 5614SOL     OW17740   4.665   2.580   3.137
 5614SOL    HW117741   4.678   2.674   3.166
 5614SOL    HW217742   4.753   2.533   3.134
 5615SOL     OW17743   1.545   0.698   0.103
 5615SOL    HW117744   1.561   0.677   0.007
 5615SOL    HW217745   1.619   0.755   0.138
 5616SOL     OW17746   2.308   1.009   4.427
 5616SOL    HW117747   2.348   1.054   4.348
 5616SOL    HW217748   2.224   0.962   4.400
 5617SOL     OW17749   2.056   0.682   4.733
 5617SOL    HW117750   1.961   0.656   4.751
 5617SOL    HW217751   2.117   0.611   4.767
 5618SOL     OW17752   6.545   4.038   4.056
 5618SOL    HW117753   6.621   4.033   4.121
 5618SOL    HW217754   6.511   4.132   4.051
 5619SOL     OW17755   2.280   3.847   5.519
 5619SOL    HW117756   2.269   3.780   5.592
 5619SOL    HW217757   2.358   3.906   5.539
 5620SOL     OW17758   3.548   2.358   6.779
 5620SOL    HW117759   3.486   2.335   6.853
 5620SOL    HW217760   3.512   2.436   6.728
 5621SOL     OW17761   1.486   2.022   5.514
 5621SOL    HW117762   1.474   2.099   5.452
 5621SOL    HW217763   1.408   1.959   5.505
 5622SOL     OW17764   4.858   0.735   5.989
 5622SOL    HW117765   4.801   0.694   5.918
 5622SOL    HW217766   4.862   0.834   5.975
 5623SOL     OW17767   1.598   6.438   6.615
 5623SOL    HW117768   1.500   6.442   6.633
 5623SOL    HW217769   1.623   6.505   6.545
 5624SOL     OW17770   1.046   4.767   3.576
 5624SOL    HW117771   1.018   4.702   3.647
 5624SOL    HW217772   1.057   4.858   3.618
 5625SOL     OW17773   6.621   2.808   4.931
 5625SOL    HW117774   6.642   2.791   5.028
 5625SOL    HW217775   6.665   2.894   4.903
 5626SOL     OW17776   3.738   0.250   5.070
 5626SOL    HW117777   3.721   0.322   5.137
 5626SOL    HW217778   3.753   0.163   5.118
 5627SOL     OW17779   1.150   6.100   1.497
 5627SOL    HW117780   1.121   6.057   1.411
 5627SOL    HW217781   1.250   6.105   1.499
 5628SOL     OW17782   2.248   2.000   5.118
 5628SOL    HW117783   2.183   1.960   5.054
 5628SOL    HW217784   2.293   1.928   5.170
 5629SOL     OW17785   3.596   3.812   2.732
 5629SOL    HW117786   3.691   3.786   2.752
 5629SOL    HW217787   3.579   3.905   2.764
 5630SOL     OW17788   0.800   4.602   1.134
 5630SOL    HW117789   0.866   4.532   1.106
 5630SOL    HW217790   0.734   4.616   1.060
 5631SOL     OW17791   4.827   0.981   0.362
 5631SOL    HW117792   4.774   0.902   0.396
 5631SOL    HW217793   4.918   0.979   0.403
 5632SOL     OW17794   4.410   3.990   6.698
 5632SOL    HW117795   4.394   4.087   6.716
 5632SOL    HW217796   4.358   3.962   6.617
 5633SOL     OW17797   6.389   2.736   4.536
 5633SOL    HW117798   6.399   2.637   4.541
 5633SOL    HW217799   6.328   2.760   4.460
 5634SOL     OW17800   4.053   5.433   4.176
 5634SOL    HW117801   4.009   5.519   4.149
 5634SOL    HW217802   4.147   5.451   4.203
 5635SOL     OW17803   2.481   2.417   4.822
 5635SOL    HW117804   2.481   2.459   4.913
 5635SOL    HW217805   2.566   2.366   4.810
 5636SOL     OW17806   4.456   5.514   2.834
 5636SOL    HW117807   4.463   5.585   2.764
 5636SOL    HW217808   4.530   5.447   2.821
 5637SOL     OW17809   5.543   6.636   3.829
 5637SOL    HW117810   5.588   6.618   3.742
 5637SOL    HW217811   5.456   6.586   3.832
 5638SOL     OW17812   5.224   2.769   6.657
 5638SOL    HW117813   5.266   2.828   6.727
 5638SOL    HW217814   5.132   2.801   6.638
 5639SOL     OW17815   1.133   1.662   6.192
 5639SOL    HW117816   1.197   1.586   6.186
 5639SOL    HW217817   1.050   1.633   6.239
 5640SOL     OW17818   2.517   0.216   3.456
 5640SOL    HW117819   2.492   0.244   3.363
 5640SOL    HW217820   2.471   0.129   3.477
 5641SOL     OW17821   6.557   5.154   5.605
 5641SOL    HW117822   6.467   5.188   5.577
 5641SOL    HW217823   6.570   5.169   5.703
 5642SOL     OW17824   1.527   2.028   6.286
 5642SOL    HW117825   1.503   2.093   6.358
 5642SOL    HW217826   1.624   2.037   6.264
 5643SOL     OW17827   6.126   2.376   4.465
 5643SOL    HW117828   6.107   2.363   4.563
 5643SOL    HW217829   6.188   2.453   4.453
 5644SOL     OW17830   3.031   6.873   6.768
 5644SOL    HW117831   3.106   6.918   6.816
 5644SOL    HW217832   3.066   6.835   6.682
 5645SOL     OW17833   5.897   3.310   4.031
 5645SOL    HW117834   5.936   3.399   4.008
 5645SOL    HW217835   5.965   3.256   4.080
 5646SOL     OW17836   1.700   4.362   2.969
 5646SOL    HW117837   1.632   4.293   2.995
 5646SOL    HW217838   1.655   4.440   2.927
 5647SOL     OW17839   6.446   6.044   3.168
 5647SOL    HW117840   6.460   6.118   3.102
 5647SOL    HW217841   6.526   6.038   3.228
 5648SOL     OW17842   4.247   6.477   2.596
 5648SOL    HW117843   4.217   6.480   2.500
 5648SOL    HW217844   4.295   6.562   2.617
 5649SOL     OW17845   0.568   6.051   3.920
 5649SOL    HW117846   0.545   6.114   3.993
 5649SOL    HW217847   0.664   6.065   3.892
 5650SOL     OW17848   6.712   4.230   0.763
 5650SOL    HW117849   6.724   4.275   0.675
 5650SOL    HW217850   6.792   4.172   0.782
 5651SOL     OW17851   1.601   0.655   1.345
 5651SOL    HW117852   1.596   0.560   1.374
 5651SOL    HW217853   1.548   0.712   1.409
 5652SOL     OW17854   1.361   5.641   1.567
 5652SOL    HW117855   1.283   5.690   1.527
 5652SOL    HW217856   1.398   5.577   1.499
 5653SOL     OW17857   0.353   6.494   1.782
 5653SOL    HW117858   0.253   6.493   1.790
 5653SOL    HW217859   0.380   6.565   1.717
 5654SOL     OW17860   2.551   5.846   5.046
 5654SOL    HW117861   2.466   5.896   5.061
 5654SOL    HW217862   2.555   5.816   4.951
 5655SOL     OW17863   6.200   2.772   4.309
 5655SOL    HW117864   6.178   2.852   4.254
 5655SOL    HW217865   6.275   2.721   4.266
 5656SOL     OW17866   0.430   3.222   6.913
 5656SOL    HW117867   0.430   3.123   6.929
 5656SOL    HW217868   0.372   3.243   6.834
 5657SOL     OW17869   4.426   5.745   5.056
 5657SOL    HW117870   4.495   5.701   4.999
 5657SOL    HW217871   4.417   5.841   5.030
 5658SOL     OW17872   1.805   1.819   5.640
 5658SOL    HW117873   1.874   1.854   5.704
 5658SOL    HW217874   1.714   1.840   5.676
 5659SOL     OW17875   3.653   4.118   6.338
 5659SOL    HW117876   3.718   4.180   6.294
 5659SOL    HW217877   3.592   4.170   6.397
 5660SOL     OW17878   4.149   0.525   6.606
 5660SOL    HW117879   4.227   0.503   6.665
 5660SOL    HW217880   4.146   0.460   6.530
 5661SOL     OW17881   0.989   5.296   5.852
 5661SOL    HW117882   0.931   5.218   5.828
 5661SOL    HW217883   0.951   5.380   5.813
 5662SOL     OW17884   2.412   6.070   2.198
 5662SOL    HW117885   2.452   6.027   2.117
 5662SOL    HW217886   2.350   6.143   2.170
 5663SOL     OW17887   0.870   2.644   0.566
 5663SOL    HW117888   0.840   2.702   0.490
 5663SOL    HW217889   0.942   2.582   0.535
 5664SOL     OW17890   5.131   4.268   4.164
 5664SOL    HW117891   5.120   4.231   4.257
 5664SOL    HW217892   5.049   4.248   4.111
 5665SOL     OW17893   2.653   1.153   1.064
 5665SOL    HW117894   2.714   1.230   1.046
 5665SOL    HW217895   2.595   1.174   1.142
 5666SOL     OW17896   5.535   1.027   4.980
 5666SOL    HW117897   5.595   0.967   4.927
 5666SOL    HW217898   5.450   1.041   4.930
 5667SOL     OW17899   2.638   5.252   4.827
 5667SOL    HW117900   2.684   5.202   4.754
 5667SOL    HW217901   2.706   5.305   4.878
 5668SOL     OW17902   5.205   3.050   3.431
 5668SOL    HW117903   5.239   3.023   3.521
 5668SOL    HW217904   5.110   3.081   3.439
 5669SOL     OW17905   6.401   4.289   6.837
 5669SOL    HW117906   6.430   4.294   6.932
 5669SOL    HW217907   6.476   4.319   6.778
 5670SOL     OW17908   1.329   2.373   2.183
 5670SOL    HW117909   1.293   2.456   2.140
 5670SOL    HW217910   1.256   2.329   2.236
 5671SOL     OW17911   0.433   6.972   3.274
 5671SOL    HW117912   0.400   6.947   3.365
 5671SOL    HW217913   0.445   0.044   3.270
 5672SOL     OW17914   5.184   3.735   5.341
 5672SOL    HW117915   5.111   3.670   5.320
 5672SOL    HW217916   5.180   3.759   5.438
 5673SOL     OW17917   0.899   0.723   0.942
 5673SOL    HW117918   0.923   0.747   0.848
 5673SOL    HW217919   0.810   0.763   0.965
 5674SOL     OW17920   1.949   5.466   5.550
 5674SOL    HW117921   1.949   5.564   5.532
 5674SOL    HW217922   2.032   5.425   5.511
 5675SOL     OW17923   2.381   1.870   0.402
 5675SOL    HW117924   2.331   1.922   0.471
 5675SOL    HW217925   2.358   1.904   0.311
 5676SOL     OW17926   2.728   1.987   1.679
 5676SOL    HW117927   2.745   2.072   1.729
 5676SOL    HW217928   2.714   2.009   1.582
 5677SOL     OW17929   0.003   0.558   1.616
 5677SOL    HW117930   6.970   0.479   1.602
 5677SOL    HW217931   6.974   0.640   1.634
 5678SOL     OW17932   3.374   2.116   1.979
 5678SOL    HW117933   3.283   2.078   1.964
 5678SOL    HW217934   3.425   2.057   2.042
 5679SOL     OW17935   6.003   3.602   5.280
 5679SOL    HW117936   5.963   3.524   5.232
 5679SOL    HW217937   5.930   3.661   5.313
 5680SOL     OW17938   1.871   6.047   5.864
 5680SOL    HW117939   1.886   6.146   5.869
 5680SOL    HW217940   1.806   6.020   5.935
 5681SOL     OW17941   0.891   3.856   3.396
 5681SOL    HW117942   0.870   3.812   3.484
 5681SOL    HW217943   0.895   3.786   3.324
 5682SOL     OW17944   2.186   4.129   1.814
 5682SOL    HW117945   2.129   4.208   1.832
 5682SOL    HW217946   2.131   4.046   1.820
 5683SOL     OW17947   5.713   1.463   6.504
 5683SOL    HW117948   5.641   1.394   6.519
 5683SOL    HW217949   5.795   1.436   6.554
 5684SOL     OW17950   2.147   2.760   5.441
 5684SOL    HW117951   2.053   2.759   5.476
 5684SOL    HW217952   2.144   2.756   5.341
 5685SOL     OW17953   2.537   1.390   3.728
 5685SOL    HW117954   2.500   1.312   3.778
 5685SOL    HW217955   2.589   1.358   3.649
 5686SOL     OW17956   3.440   6.286   6.163
 5686SOL    HW117957   3.536   6.259   6.175
 5686SOL    HW217958   3.387   6.259   6.243
 5687SOL     OW17959   2.530   6.603   6.175
 5687SOL    HW117960   2.495   6.695   6.190
 5687SOL    HW217961   2.485   6.562   6.095
 5688SOL     OW17962   2.195   2.884   3.502
 5688SOL    HW117963   2.231   2.945   3.432
 5688SOL    HW217964   2.242   2.900   3.588
 5689SOL     OW17965   0.538   1.911   1.687
 5689SOL    HW117966   0.601   1.911   1.765
 5689SOL    HW217967   0.509   2.005   1.669
 5690SOL     OW17968   1.541   5.779   0.155
 5690SOL    HW117969   1.446   5.804   0.175
 5690SOL    HW217970   1.546   5.683   0.129
 5691SOL     OW17971   3.533   0.895   2.811
 5691SOL    HW117972   3.524   0.955   2.731
 5691SOL    HW217973   3.507   0.802   2.785
 5692SOL     OW17974   4.284   4.968   1.329
 5692SOL    HW117975   4.321   4.948   1.420
 5692SOL    HW217976   4.227   4.891   1.299
 5693SOL     OW17977   3.794   1.211   1.225
 5693SOL    HW117978   3.855   1.172   1.157
 5693SOL    HW217979   3.729   1.273   1.180
 5694SOL     OW17980   0.847   6.664   1.773
 5694SOL    HW117981   0.776   6.599   1.745
 5694SOL    HW217982   0.841   6.680   1.871
 5695SOL     OW17983   1.659   0.670   0.755
 5695SOL    HW117984   1.572   0.714   0.732
 5695SOL    HW217985   1.657   0.640   0.850
 5696SOL     OW17986   1.691   6.857   3.717
 5696SOL    HW117987   1.656   6.950   3.728
 5696SOL    HW217988   1.697   6.813   3.807
 5697SOL     OW17989   6.386   2.796   0.341
 5697SOL    HW117990   6.476   2.753   0.349
 5697SOL    HW217991   6.384   2.878   0.398
 5698SOL     OW17992   2.556   2.466   3.861
 5698SOL    HW117993   2.478   2.403   3.862
 5698SOL    HW217994   2.530   2.551   3.814
 5699SOL     OW17995   2.276   2.492   2.652
 5699SOL    HW117996   2.193   2.509   2.706
 5699SOL    HW217997   2.257   2.423   2.582
 5700SOL     OW17998   6.116   0.791   3.412
 5700SOL    HW117999   6.142   0.825   3.321
 5700SOL    HW218000   6.178   0.718   3.439
 5701SOL     OW18001   0.397   0.693   1.385
 5701SOL    HW118002   0.335   0.633   1.436
 5701SOL    HW218003   0.480   0.708   1.439
 5702SOL     OW18004   2.867   6.737   4.659
 5702SOL    HW118005   2.869   6.836   4.667
 5702SOL    HW218006   2.948   6.706   4.609
 5703SOL     OW18007   0.057   2.746   6.573
 5703SOL    HW118008   0.090   2.771   6.663
 5703SOL    HW218009   6.984   2.748   6.572
 5704SOL     OW18010   5.395   4.255   3.754
 5704SOL    HW118011   5.382   4.213   3.664
 5704SOL    HW218012   5.365   4.191   3.825
 5705SOL     OW18013   6.224   6.594   5.919
 5705SOL    HW118014   6.141   6.547   5.888
 5705SOL    HW218015   6.229   6.684   5.876
 5706SOL     OW18016   4.965   2.321   6.912
 5706SOL    HW118017   4.956   2.403   6.855
 5706SOL    HW218018   4.877   2.273   6.916
 5707SOL     OW18019   5.728   5.766   2.594
 5707SOL    HW118020   5.792   5.807   2.529
 5707SOL    HW218021   5.657   5.833   2.618
 5708SOL     OW18022   4.363   5.918   2.886
 5708SOL    HW118023   4.404   5.989   2.829
 5708SOL    HW218024   4.434   5.858   2.921
 5709SOL     OW18025   0.847   1.560   2.450
 5709SOL    HW118026   0.835   1.486   2.516
 5709SOL    HW218027   0.898   1.526   2.371
 5710SOL     OW18028   2.606   2.072   0.931
 5710SOL    HW118029   2.687   2.108   0.978
 5710SOL    HW218030   2.567   2.142   0.872
 5711SOL     OW18031   5.264   2.468   2.335
 5711SOL    HW118032   5.250   2.514   2.247
 5711SOL    HW218033   5.356   2.490   2.369
 5712SOL     OW18034   6.218   6.361   1.579
 5712SOL    HW118035   6.255   6.366   1.487
 5712SOL    HW218036   6.292   6.354   1.645
 5713SOL     OW18037   2.264   6.411   0.822
 5713SOL    HW118038   2.236   6.339   0.758
 5713SOL    HW218039   2.363   6.416   0.826
 5714SOL     OW18040   6.295   6.901   1.388
 5714SOL    HW118041   6.219   6.879   1.327
 5714SOL    HW218042   6.380   6.906   1.334
 5715SOL     OW18043   0.958   0.230   1.448
 5715SOL    HW118044   0.879   0.240   1.508
 5715SOL    HW218045   1.015   0.312   1.454
 5716SOL     OW18046   6.689   4.768   5.988
 5716SOL    HW118047   6.664   4.801   5.896
 5716SOL    HW218048   6.709   4.846   6.047
 5717SOL     OW18049   1.318   4.966   2.869
 5717SOL    HW118050   1.311   4.955   2.769
 5717SOL    HW218051   1.226   4.968   2.908
 5718SOL     OW18052   0.767   3.286   0.296
 5718SOL    HW118053   0.697   3.350   0.263
 5718SOL    HW218054   0.854   3.334   0.303
 5719SOL     OW18055   2.417   4.001   0.739
 5719SOL    HW118056   2.442   4.071   0.805
 5719SOL    HW218057   2.320   4.010   0.716
 5720SOL     OW18058   2.416   4.674   5.825
 5720SOL    HW118059   2.490   4.608   5.810
 5720SOL    HW218060   2.355   4.674   5.746
 5721SOL     OW18061   3.829   4.186   0.375
 5721SOL    HW118062   3.868   4.096   0.394
 5721SOL    HW218063   3.735   4.190   0.408
 5722SOL     OW18064   0.615   1.004   5.769
 5722SOL    HW118065   0.560   0.989   5.687
 5722SOL    HW218066   0.712   0.992   5.746
 5723SOL     OW18067   4.341   3.150   6.889
 5723SOL    HW118068   4.311   3.218   6.956
 5723SOL    HW218069   4.273   3.077   6.882
 5724SOL     OW18070   5.823   2.610   3.808
 5724SOL    HW118071   5.907   2.647   3.846
 5724SOL    HW218072   5.773   2.682   3.760
 5725SOL     OW18073   6.761   3.959   3.856
 5725SOL    HW118074   6.692   3.934   3.924
 5725SOL    HW218075   6.759   4.058   3.842
 5726SOL     OW18076   5.368   4.704   2.488
 5726SOL    HW118077   5.404   4.700   2.581
 5726SOL    HW218078   5.279   4.750   2.489
 5727SOL     OW18079   0.466   2.471   5.101
 5727SOL    HW118080   0.381   2.521   5.120
 5727SOL    HW218081   0.445   2.377   5.077
 5728SOL     OW18082   5.024   6.374   4.702
 5728SOL    HW118083   4.943   6.415   4.742
 5728SOL    HW218084   5.098   6.441   4.699
 5729SOL     OW18085   1.965   1.570   5.390
 5729SOL    HW118086   2.032   1.637   5.358
 5729SOL    HW218087   1.980   1.552   5.487
 5730SOL     OW18088   6.734   4.262   5.260
 5730SOL    HW118089   6.768   4.175   5.225
 5730SOL    HW218090   6.811   4.322   5.281
 5731SOL     OW18091   0.600   6.108   1.946
 5731SOL    HW118092   0.679   6.159   1.979
 5731SOL    HW218093   0.517   6.144   1.987
 5732SOL     OW18094   1.188   0.034   3.524
 5732SOL    HW118095   1.170   6.966   3.549
 5732SOL    HW218096   1.170   0.093   3.603
 5733SOL     OW18097   3.847   0.687   5.494
 5733SOL    HW118098   3.784   0.623   5.537
 5733SOL    HW218099   3.808   0.779   5.496
 5734SOL     OW18100   2.010   6.359   2.773
 5734SOL    HW118101   2.019   6.308   2.858
 5734SOL    HW218102   2.049   6.305   2.698
 5735SOL     OW18103   2.976   1.613   2.114
 5735SOL    HW118104   3.066   1.655   2.100
 5735SOL    HW218105   2.965   1.536   2.051
 5736SOL     OW18106   1.652   5.279   0.264
 5736SOL    HW118107   1.715   5.213   0.306
 5736SOL    HW218108   1.568   5.232   0.237
 5737SOL     OW18109   5.337   4.814   0.990
 5737SOL    HW118110   5.278   4.750   0.940
 5737SOL    HW218111   5.426   4.772   1.005
 5738SOL     OW18112   1.317   4.139   6.031
 5738SOL    HW118113   1.402   4.095   6.063
 5738SOL    HW218114   1.258   4.157   6.109
 5739SOL     OW18115   0.918   1.207   1.194
 5739SOL    HW118116   1.004   1.251   1.221
 5739SOL    HW218117   0.929   1.107   1.197
 5740SOL     OW18118   4.076   5.853   6.374
 5740SOL    HW118119   3.999   5.803   6.334
 5740SOL    HW218120   4.068   5.851   6.474
 5741SOL     OW18121   0.788   4.997   3.721
 5741SOL    HW118122   0.824   4.951   3.640
 5741SOL    HW218123   0.727   5.071   3.694
 5742SOL     OW18124   6.574   6.591   4.253
 5742SOL    HW118125   6.612   6.564   4.342
 5742SOL    HW218126   6.643   6.578   4.182
 5743SOL     OW18127   1.602   6.569   5.343
 5743SOL    HW118128   1.505   6.577   5.321
 5743SOL    HW218129   1.612   6.515   5.427
 5744SOL     OW18130   5.720   6.691   2.475
 5744SOL    HW118131   5.628   6.730   2.468
 5744SOL    HW218132   5.786   6.756   2.438
 5745SOL     OW18133   0.996   1.852   3.786
 5745SOL    HW118134   1.078   1.808   3.749
 5745SOL    HW218135   0.973   1.932   3.730
 5746SOL     OW18136   5.751   3.827   0.191
 5746SOL    HW118137   5.756   3.920   0.228
 5746SOL    HW218138   5.659   3.790   0.205
 5747SOL     OW18139   1.179   5.942   3.099
 5747SOL    HW118140   1.134   6.031   3.104
 5747SOL    HW218141   1.157   5.888   3.180
 5748SOL     OW18142   2.465   6.188   2.674
 5748SOL    HW118143   2.378   6.232   2.699
 5748SOL    HW218144   2.476   6.104   2.727
 5749SOL     OW18145   2.281   1.532   3.698
 5749SOL    HW118146   2.253   1.609   3.756
 5749SOL    HW218147   2.339   1.470   3.750
 5750SOL     OW18148   6.655   5.691   2.733
 5750SOL    HW118149   6.672   5.628   2.657
 5750SOL    HW218150   6.734   5.752   2.743
 5751SOL     OW18151   2.364   4.050   6.117
 5751SOL    HW118152   2.340   3.989   6.041
 5751SOL    HW218153   2.281   4.096   6.149
 5752SOL     OW18154   6.455   0.334   7.009
 5752SOL    HW118155   6.471   0.370   0.074
 5752SOL    HW218156   6.358   0.313   6.998
 5753SOL     OW18157   3.480   2.271   0.319
 5753SOL    HW118158   3.405   2.205   0.316
 5753SOL    HW218159   3.558   2.231   0.367
 5754SOL     OW18160   6.325   4.533   1.157
 5754SOL    HW118161   6.322   4.526   1.057
 5754SOL    HW218162   6.251   4.591   1.189
 5755SOL     OW18163   3.635   3.972   1.672
 5755SOL    HW118164   3.540   3.943   1.683
 5755SOL    HW218165   3.696   3.896   1.696
 5756SOL     OW18166   0.305   6.278   4.558
 5756SOL    HW118167   0.380   6.219   4.529
 5756SOL    HW218168   0.235   6.223   4.604
 5757SOL     OW18169   0.745   5.376   1.181
 5757SOL    HW118170   0.756   5.336   1.272
 5757SOL    HW218171   0.760   5.306   1.111
 5758SOL     OW18172   0.998   1.835   5.509
 5758SOL    HW118173   1.004   1.892   5.427
 5758SOL    HW218174   0.925   1.768   5.499
 5759SOL     OW18175   5.418   1.822   5.038
 5759SOL    HW118176   5.401   1.862   5.128
 5759SOL    HW218177   5.339   1.839   4.978
 5760SOL     OW18178   1.600   5.671   2.142
 5760SOL    HW118179   1.562   5.702   2.229
 5760SOL    HW218180   1.555   5.587   2.114
 5761SOL     OW18181   4.953   0.119   4.914
 5761SOL    HW118182   4.898   0.047   4.956
 5761SOL    HW218183   5.026   0.146   4.976
 5762SOL     OW18184   5.562   6.141   1.497
 5762SOL    HW118185   5.576   6.184   1.408
 5762SOL    HW218186   5.567   6.041   1.487
 5763SOL     OW18187   0.971   1.186   1.517
 5763SOL    HW118188   1.070   1.201   1.525
 5763SOL    HW218189   0.946   1.181   1.420
 5764SOL     OW18190   4.392   3.775   5.269
 5764SOL    HW118191   4.388   3.827   5.354
 5764SOL    HW218192   4.487   3.773   5.236
 5765SOL     OW18193   5.672   4.666   0.513
 5765SOL    HW118194   5.624   4.658   0.601
 5765SOL    HW218195   5.633   4.741   0.460
 5766SOL     OW18196   2.955   1.384   3.265
 5766SOL    HW118197   2.895   1.404   3.343
 5766SOL    HW218198   3.001   1.296   3.280
 5767SOL     OW18199   0.181   6.629   1.439
 5767SOL    HW118200   0.153   6.539   1.472
 5767SOL    HW218201   0.280   6.629   1.422
 5768SOL     OW18202   6.816   1.217   3.004
 5768SOL    HW118203   6.807   1.244   3.100
 5768SOL    HW218204   6.836   1.298   2.949
 5769SOL     OW18205   2.396   5.431   3.701
 5769SOL    HW118206   2.302   5.450   3.730
 5769SOL    HW218207   2.395   5.360   3.630
 5770SOL     OW18208   6.176   0.233   1.700
 5770SOL    HW118209   6.174   0.133   1.691
 5770SOL    HW218210   6.261   0.261   1.745
 5771SOL     OW18211   0.634   1.660   1.987
 5771SOL    HW118212   0.688   1.735   1.949
 5771SOL    HW218213   0.648   1.578   1.932
 5772SOL     OW18214   6.525   4.128   0.066
 5772SOL    HW118215   6.587   4.055   0.037
 5772SOL    HW218216   6.431   4.105   0.040
 5773SOL     OW18217   5.805   5.683   3.936
 5773SOL    HW118218   5.791   5.597   3.987
 5773SOL    HW218219   5.754   5.756   3.982
 5774SOL     OW18220   2.344   5.148   3.245
 5774SOL    HW118221   2.418   5.131   3.181
 5774SOL    HW218222   2.256   5.142   3.198
 5775SOL     OW18223   0.155   0.378   0.611
 5775SOL    HW118224   0.064   0.397   0.649
 5775SOL    HW218225   0.217   0.452   0.636
 5776SOL     OW18226   5.448   1.093   5.609
 5776SOL    HW118227   5.469   1.108   5.706
 5776SOL    HW218228   5.392   1.011   5.600
 5777SOL     OW18229   6.622   0.622   5.260
 5777SOL    HW118230   6.644   0.625   5.162
 5777SOL    HW218231   6.622   0.714   5.297
 5778SOL     OW18232   2.735   0.135   3.787
 5778SOL    HW118233   2.783   0.204   3.841
 5778SOL    HW218234   2.800   0.063   3.761
 5779SOL     OW18235   4.350   1.303   2.684
 5779SOL    HW118236   4.273   1.302   2.749
 5779SOL    HW218237   4.320   1.344   2.598
 5780SOL     OW18238   6.134   3.922   1.677
 5780SOL    HW118239   6.205   3.990   1.698
 5780SOL    HW218240   6.069   3.962   1.612
 5781SOL     OW18241   2.443   5.231   5.024
 5781SOL    HW118242   2.497   5.222   4.940
 5781SOL    HW218243   2.485   5.176   5.097
 5782SOL     OW18244   2.559   1.289   3.037
 5782SOL    HW118245   2.492   1.322   2.971
 5782SOL    HW218246   2.651   1.311   3.004
 5783SOL     OW18247   2.382   6.719   0.987
 5783SOL    HW118248   2.342   6.782   0.920
 5783SOL    HW218249   2.335   6.731   1.075
 5784SOL     OW18250   1.824   5.527   6.929
 5784SOL    HW118251   1.849   5.522   7.026
 5784SOL    HW218252   1.906   5.540   6.874
 5785SOL     OW18253   2.351   1.324   0.331
 5785SOL    HW118254   2.306   1.404   0.372
 5785SOL    HW218255   2.380   1.347   0.238
 5786SOL     OW18256   1.503   3.293   0.933
 5786SOL    HW118257   1.414   3.331   0.957
 5786SOL    HW218258   1.561   3.290   1.015
 5787SOL     OW18259   6.960   2.974   5.832
 5787SOL    HW118260   6.918   2.986   5.742
 5787SOL    HW218261   6.896   3.005   5.903
 5788SOL     OW18262   2.000   2.352   1.814
 5788SOL    HW118263   2.077   2.406   1.778
 5788SOL    HW218264   1.969   2.288   1.744
 5789SOL     OW18265   3.118   5.159   6.940
 5789SOL    HW118266   3.084   5.110   6.860
 5789SOL    HW218267   3.160   5.094   7.003
 5790SOL     OW18268   6.395   5.758   3.549
 5790SOL    HW118269   6.427   5.783   3.458
 5790SOL    HW218270   6.450   5.683   3.585
 5791SOL     OW18271   4.166   1.292   2.164
 5791SOL    HW118272   4.255   1.249   2.178
 5791SOL    HW218273   4.176   1.369   2.101
 5792SOL     OW18274   4.702   2.820   2.941
 5792SOL    HW118275   4.658   2.808   3.030
 5792SOL    HW218276   4.661   2.757   2.875
 5793SOL     OW18277   3.898   2.501   6.494
 5793SOL    HW118278   3.987   2.465   6.465
 5793SOL    HW218279   3.852   2.433   6.551
 5794SOL     OW18280   3.857   6.555   6.992
 5794SOL    HW118281   3.939   6.612   6.995
 5794SOL    HW218282   3.879   6.463   7.027
 5795SOL     OW18283   2.349   5.954   1.466
 5795SOL    HW118284   2.266   5.982   1.419
 5795SOL    HW218285   2.428   5.974   1.409
 5796SOL     OW18286   5.469   0.801   6.744
 5796SOL    HW118287   5.414   0.732   6.791
 5796SOL    HW218288   5.448   0.798   6.646
 5797SOL     OW18289   6.595   2.628   1.383
 5797SOL    HW118290   6.577   2.727   1.378
 5797SOL    HW218291   6.519   2.578   1.342
 5798SOL     OW18292   1.621   3.800   4.718
 5798SOL    HW118293   1.619   3.734   4.792
 5798SOL    HW218294   1.541   3.788   4.660
 5799SOL     OW18295   2.428   6.975   3.491
 5799SOL    HW118296   2.467   6.894   3.535
 5799SOL    HW218297   2.381   6.948   3.407
 5800SOL     OW18298   1.933   0.432   1.250
 5800SOL    HW118299   1.958   0.395   1.161
 5800SOL    HW218300   1.874   0.367   1.298
 5801SOL     OW18301   2.155   1.616   2.029
 5801SOL    HW118302   2.250   1.647   2.042
 5801SOL    HW218303   2.154   1.517   2.015
 5802SOL     OW18304   0.757   0.240   1.878
 5802SOL    HW118305   0.834   0.272   1.933
 5802SOL    HW218306   0.726   0.151   1.913
 5803SOL     OW18307   0.473   5.621   3.968
 5803SOL    HW118308   0.423   5.539   3.996
 5803SOL    HW218309   0.409   5.691   3.938
 5804SOL     OW18310   6.197   1.924   2.988
 5804SOL    HW118311   6.132   1.890   2.920
 5804SOL    HW218312   6.271   1.972   2.941
 5805SOL     OW18313   1.476   2.551   1.955
 5805SOL    HW118314   1.377   2.568   1.953
 5805SOL    HW218315   1.494   2.460   1.992
 5806SOL     OW18316   6.678   4.091   1.878
 5806SOL    HW118317   6.724   4.031   1.943
 5806SOL    HW218318   6.735   4.172   1.863
 5807SOL     OW18319   2.174   1.217   1.534
 5807SOL    HW118320   2.231   1.139   1.511
 5807SOL    HW218321   2.128   1.200   1.622
 5808SOL     OW18322   6.806   0.502   5.785
 5808SOL    HW118323   6.902   0.494   5.757
 5808SOL    HW218324   6.760   0.569   5.727
 5809SOL     OW18325   0.127   2.348   5.252
 5809SOL    HW118326   0.211   2.351   5.306
 5809SOL    HW218327   0.124   2.427   5.190
 5810SOL     OW18328   2.963   6.478   5.081
 5810SOL    HW118329   3.054   6.505   5.113
 5810SOL    HW218330   2.973   6.423   4.998
 5811SOL     OW18331   4.065   4.737   6.388
 5811SOL    HW118332   4.078   4.823   6.338
 5811SOL    HW218333   4.149   4.711   6.434
 5812SOL     OW18334   5.218   2.896   6.905
 5812SOL    HW118335   5.156   2.970   6.929
 5812SOL    HW218336   5.196   2.815   6.959
 5813SOL     OW18337   4.886   5.548   0.568
 5813SOL    HW118338   4.847   5.491   0.640
 5813SOL    HW218339   4.948   5.616   0.608
 5814SOL     OW18340   5.427   1.181   1.974
 5814SOL    HW118341   5.435   1.221   1.883
 5814SOL    HW218342   5.476   1.093   1.976
 5815SOL     OW18343   6.294   2.736   4.015
 5815SOL    HW118344   6.345   2.717   3.932
 5815SOL    HW218345   6.220   2.670   4.026
 5816SOL     OW18346   0.240   3.708   2.522
 5816SOL    HW118347   0.201   3.666   2.440
 5816SOL    HW218348   0.300   3.784   2.496
 5817SOL     OW18349   5.979   3.655   3.540
 5817SOL    HW118350   6.063   3.691   3.498
 5817SOL    HW218351   6.003   3.586   3.608
 5818SOL     OW18352   2.354   0.607   4.348
 5818SOL    HW118353   2.276   0.588   4.407
 5818SOL    HW218354   2.403   0.688   4.380
 5819SOL     OW18355   4.110   4.390   0.727
 5819SOL    HW118356   4.013   4.363   0.728
 5819SOL    HW218357   4.165   4.312   0.696
 5820SOL     OW18358   6.048   6.375   2.642
 5820SOL    HW118359   6.111   6.302   2.669
 5820SOL    HW218360   6.084   6.423   2.562
 5821SOL     OW18361   0.096   0.137   1.641
 5821SOL    HW118362   0.088   0.198   1.720
 5821SOL    HW218363   0.163   0.174   1.577
 5822SOL     OW18364   1.507   3.713   3.170
 5822SOL    HW118365   1.443   3.731   3.244
 5822SOL    HW218366   1.519   3.614   3.159
 5823SOL     OW18367   1.513   6.275   3.637
 5823SOL    HW118368   1.597   6.236   3.600
 5823SOL    HW218369   1.525   6.373   3.654
 5824SOL     OW18370   1.465   7.001   2.509
 5824SOL    HW118371   1.498   6.922   2.457
 5824SOL    HW218372   1.452   0.052   2.448
 5825SOL     OW18373   5.067   1.504   4.061
 5825SOL    HW118374   5.086   1.492   3.963
 5825SOL    HW218375   5.108   1.429   4.112
 5826SOL     OW18376   1.162   6.888   5.944
 5826SOL    HW118377   1.096   6.828   5.989
 5826SOL    HW218378   1.252   6.846   5.945
 5827SOL     OW18379   1.851   4.373   3.749
 5827SOL    HW118380   1.843   4.473   3.742
 5827SOL    HW218381   1.896   4.349   3.835
 5828SOL     OW18382   4.011   1.029   5.562
 5828SOL    HW118383   4.013   1.055   5.466
 5828SOL    HW218384   3.941   1.084   5.609
 5829SOL     OW18385   2.168   0.480   3.374
 5829SOL    HW118386   2.253   0.473   3.323
 5829SOL    HW218387   2.092   0.490   3.310
 5830SOL     OW18388   4.101   5.169   4.392
 5830SOL    HW118389   4.020   5.196   4.341
 5830SOL    HW218390   4.134   5.081   4.357
 5831SOL     OW18391   1.625   2.102   5.017
 5831SOL    HW118392   1.712   2.117   4.970
 5831SOL    HW218393   1.593   2.009   4.998
 5832SOL     OW18394   2.936   5.418   2.103
 5832SOL    HW118395   2.980   5.494   2.056
 5832SOL    HW218396   2.882   5.453   2.179
 5833SOL     OW18397   3.951   5.360   0.180
 5833SOL    HW118398   3.925   5.312   0.096
 5833SOL    HW218399   3.874   5.360   0.244
 5834SOL     OW18400   5.955   2.575   6.664
 5834SOL    HW118401   6.004   2.543   6.584
 5834SOL    HW218402   5.967   2.674   6.674
 5835SOL     OW18403   4.840   2.176   2.736
 5835SOL    HW118404   4.922   2.119   2.745
 5835SOL    HW218405   4.860   2.254   2.676
 5836SOL     OW18406   5.120   6.172   2.821
 5836SOL    HW118407   5.105   6.111   2.743
 5836SOL    HW218408   5.199   6.140   2.873
 5837SOL     OW18409   2.917   5.260   6.239
 5837SOL    HW118410   2.880   5.284   6.328
 5837SOL    HW218411   2.843   5.223   6.181
 5838SOL     OW18412   3.973   2.725   0.716
 5838SOL    HW118413   3.919   2.652   0.758
 5838SOL    HW218414   3.953   2.729   0.618
 5839SOL     OW18415   1.645   2.269   0.553
 5839SOL    HW118416   1.658   2.342   0.486
 5839SOL    HW218417   1.608   2.307   0.638
 5840SOL     OW18418   0.056   3.520   3.581
 5840SOL    HW118419   0.100   3.473   3.504
 5840SOL    HW218420   7.013   3.582   3.546
 5841SOL     OW18421   4.943   1.001   0.832
 5841SOL    HW118422   4.963   1.010   0.929
 5841SOL    HW218423   4.844   0.994   0.819
 5842SOL     OW18424   2.328   2.006   0.991
 5842SOL    HW118425   2.285   2.040   0.907
 5842SOL    HW218426   2.427   2.012   0.983
 5843SOL     OW18427   2.930   3.630   0.821
 5843SOL    HW118428   2.939   3.533   0.841
 5843SOL    HW218429   2.833   3.656   0.823
 5844SOL     OW18430   0.496   5.917   4.746
 5844SOL    HW118431   0.554   5.956   4.818
 5844SOL    HW218432   0.551   5.856   4.689
 5845SOL     OW18433   1.658   6.885   2.305
 5845SOL    HW118434   1.725   6.846   2.242
 5845SOL    HW218435   1.706   6.921   2.386
 5846SOL     OW18436   0.118   3.977   5.542
 5846SOL    HW118437   0.136   4.059   5.595
 5846SOL    HW218438   0.069   4.001   5.458
 5847SOL     OW18439   1.631   4.221   6.388
 5847SOL    HW118440   1.694   4.258   6.456
 5847SOL    HW218441   1.676   4.217   6.299
 5848SOL     OW18442   1.734   5.612   2.449
 5848SOL    HW118443   1.751   5.550   2.372
 5848SOL    HW218444   1.797   5.590   2.524
 5849SOL     OW18445   3.404   5.824   6.035
 5849SOL    HW118446   3.308   5.824   6.064
 5849SOL    HW218447   3.413   5.878   5.951
 5850SOL     OW18448   0.703   1.258   2.069
 5850SOL    HW118449   0.777   1.206   2.112
 5850SOL    HW218450   0.725   1.356   2.072
 5851SOL     OW18451   6.326   3.449   4.271
 5851SOL    HW118452   6.259   3.492   4.211
 5851SOL    HW218453   6.282   3.380   4.329
 5852SOL     OW18454   4.978   4.275   2.186
 5852SOL    HW118455   4.990   4.373   2.170
 5852SOL    HW218456   5.057   4.225   2.150
 5853SOL     OW18457   4.708   5.037   6.445
 5853SOL    HW118458   4.777   4.969   6.421
 5853SOL    HW218459   4.699   5.103   6.371
 5854SOL     OW18460   3.605   5.066   5.499
 5854SOL    HW118461   3.543   5.003   5.545
 5854SOL    HW218462   3.615   5.040   5.403
 5855SOL     OW18463   2.360   2.715   2.988
 5855SOL    HW118464   2.308   2.782   2.934
 5855SOL    HW218465   2.353   2.738   3.085
 5856SOL     OW18466   1.200   5.732   2.925
 5856SOL    HW118467   1.197   5.818   2.976
 5856SOL    HW218468   1.201   5.752   2.827
 5857SOL     OW18469   5.552   4.959   6.566
 5857SOL    HW118470   5.622   5.028   6.587
 5857SOL    HW218471   5.511   4.927   6.652
 5858SOL     OW18472   1.820   0.713   2.356
 5858SOL    HW118473   1.762   0.705   2.437
 5858SOL    HW218474   1.889   0.784   2.371
 5859SOL     OW18475   5.447   5.675   1.387
 5859SOL    HW118476   5.396   5.590   1.402
 5859SOL    HW218477   5.508   5.664   1.309
 5860SOL     OW18478   0.293   4.180   2.837
 5860SOL    HW118479   0.364   4.120   2.799
 5860SOL    HW218480   0.320   4.208   2.929
 5861SOL     OW18481   5.005   0.949   4.973
 5861SOL    HW118482   4.993   1.013   4.898
 5861SOL    HW218483   4.990   0.996   5.060
 5862SOL     OW18484   6.393   5.742   2.785
 5862SOL    HW118485   6.369   5.656   2.739
 5862SOL    HW218486   6.492   5.752   2.787
 5863SOL     OW18487   4.141   6.918   6.520
 5863SOL    HW118488   4.205   6.994   6.505
 5863SOL    HW218489   4.115   6.878   6.431
 5864SOL     OW18490   3.402   3.936   2.390
 5864SOL    HW118491   3.485   3.990   2.398
 5864SOL    HW218492   3.362   3.949   2.299
 5865SOL     OW18493   6.559   0.325   6.268
 5865SOL    HW118494   6.578   0.347   6.172
 5865SOL    HW218495   6.525   0.407   6.315
 5866SOL     OW18496   3.174   3.084   2.640
 5866SOL    HW118497   3.260   3.132   2.661
 5866SOL    HW218498   3.177   3.052   2.545
 5867SOL     OW18499   2.771   1.722   1.943
 5867SOL    HW118500   2.777   1.821   1.961
 5867SOL    HW218501   2.823   1.673   2.012
 5868SOL     OW18502   0.919   1.505   6.272
 5868SOL    HW118503   0.850   1.552   6.327
 5868SOL    HW218504   0.930   1.411   6.305
 5869SOL     OW18505   1.079   6.152   3.297
 5869SOL    HW118506   1.151   6.121   3.360
 5869SOL    HW218507   1.077   6.252   3.295
 5870SOL     OW18508   3.330   5.906   4.356
 5870SOL    HW118509   3.382   5.962   4.421
 5870SOL    HW218510   3.284   5.833   4.406
 5871SOL     OW18511   3.064   3.234   3.599
 5871SOL    HW118512   3.159   3.233   3.567
 5871SOL    HW218513   3.056   3.177   3.680
 5872SOL     OW18514   4.945   5.744   1.204
 5872SOL    HW118515   4.929   5.646   1.199
 5872SOL    HW218516   4.996   5.773   1.123
 5873SOL     OW18517   4.410   6.076   2.437
 5873SOL    HW118518   4.430   6.172   2.460
 5873SOL    HW218519   4.400   6.023   2.522
 5874SOL     OW18520   1.223   3.968   5.201
 5874SOL    HW118521   1.198   3.871   5.200
 5874SOL    HW218522   1.233   3.999   5.295
 5875SOL     OW18523   3.150   2.008   1.266
 5875SOL    HW118524   3.161   1.952   1.184
 5875SOL    HW218525   3.217   2.082   1.265
 5876SOL     OW18526   3.256   2.926   1.624
 5876SOL    HW118527   3.295   2.860   1.560
 5876SOL    HW218528   3.284   2.902   1.717
 5877SOL     OW18529   5.789   4.553   1.248
 5877SOL    HW118530   5.744   4.528   1.163
 5877SOL    HW218531   5.834   4.472   1.287
 5878SOL     OW18532   2.214   4.646   2.680
 5878SOL    HW118533   2.307   4.639   2.716
 5878SOL    HW218534   2.187   4.742   2.678
 5879SOL     OW18535   0.520   4.177   4.320
 5879SOL    HW118536   0.589   4.142   4.257
 5879SOL    HW218537   0.547   4.154   4.414
 5880SOL     OW18538   3.044   5.527   0.501
 5880SOL    HW118539   3.027   5.623   0.479
 5880SOL    HW218540   2.961   5.474   0.484
 5881SOL     OW18541   1.354   5.814   4.655
 5881SOL    HW118542   1.440   5.857   4.628
 5881SOL    HW218543   1.364   5.715   4.656
 5882SOL     OW18544   4.842   0.756   2.433
 5882SOL    HW118545   4.941   0.745   2.428
 5882SOL    HW218546   4.802   0.681   2.486
 5883SOL     OW18547   0.294   3.394   5.368
 5883SOL    HW118548   0.251   3.357   5.450
 5883SOL    HW218549   0.359   3.327   5.331
 5884SOL     OW18550   0.729   1.595   3.531
 5884SOL    HW118551   0.824   1.567   3.516
 5884SOL    HW218552   0.667   1.528   3.489
 5885SOL     OW18553   5.760   6.978   1.079
 5885SOL    HW118554   5.821   6.925   1.020
 5885SOL    HW218555   5.811   0.023   1.125
 5886SOL     OW18556   6.974   1.224   6.761
 5886SOL    HW118557   6.961   1.128   6.782
 5886SOL    HW218558   6.934   1.245   6.672
 5887SOL     OW18559   4.461   6.555   3.014
 5887SOL    HW118560   4.394   6.566   3.088
 5887SOL    HW218561   4.450   6.629   2.948
 5888SOL     OW18562   1.404   0.492   3.188
 5888SOL    HW118563   1.448   0.579   3.164
 5888SOL    HW218564   1.336   0.508   3.259
 5889SOL     OW18565   2.755   0.586   0.693
 5889SOL    HW118566   2.787   0.534   0.772
 5889SOL    HW218567   2.656   0.574   0.683
 5890SOL     OW18568   3.464   5.103   5.958
 5890SOL    HW118569   3.528   5.098   5.881
 5890SOL    HW218570   3.487   5.181   6.016
 5891SOL     OW18571   1.940   3.434   6.763
 5891SOL    HW118572   1.911   3.387   6.847
 5891SOL    HW218573   2.037   3.457   6.770
 5892SOL     OW18574   1.428   0.185   2.342
 5892SOL    HW118575   1.333   0.202   2.315
 5892SOL    HW218576   1.483   0.169   2.260
 5893SOL     OW18577   2.048   1.026   3.104
 5893SOL    HW118578   1.969   1.082   3.078
 5893SOL    HW218579   2.021   0.930   3.106
 5894SOL     OW18580   0.632   3.273   3.685
 5894SOL    HW118581   0.681   3.337   3.626
 5894SOL    HW218582   0.683   3.262   3.771
 5895SOL     OW18583   5.327   3.941   3.723
 5895SOL    HW118584   5.249   3.965   3.665
 5895SOL    HW218585   5.397   3.897   3.668
 5896SOL     OW18586   4.615   2.304   5.503
 5896SOL    HW118587   4.594   2.207   5.512
 5896SOL    HW218588   4.666   2.320   5.419
 5897SOL     OW18589   4.189   0.298   1.742
 5897SOL    HW118590   4.175   0.396   1.728
 5897SOL    HW218591   4.118   0.262   1.802
 5898SOL     OW18592   1.589   0.080   2.118
 5898SOL    HW118593   1.543   0.027   2.048
 5898SOL    HW218594   1.639   0.019   2.180
 5899SOL     OW18595   5.520   6.969   3.833
 5899SOL    HW118596   5.548   6.886   3.786
 5899SOL    HW218597   5.578   0.018   3.804
 5900SOL     OW18598   4.341   5.300   2.295
 5900SOL    HW118599   4.359   5.359   2.374
 5900SOL    HW218600   4.280   5.226   2.322
 5901SOL     OW18601   3.459   0.013   5.519
 5901SOL    HW118602   3.384   6.992   5.566
 5901SOL    HW218603   3.458   7.016   5.422
 5902SOL     OW18604   6.234   1.220   6.607
 5902SOL    HW118605   6.308   1.269   6.652
 5902SOL    HW218606   6.273   1.155   6.541
 5903SOL     OW18607   6.624   3.368   6.364
 5903SOL    HW118608   6.630   3.428   6.284
 5903SOL    HW218609   6.636   3.422   6.447
 5904SOL     OW18610   0.291   4.480   2.492
 5904SOL    HW118611   0.282   4.451   2.588
 5904SOL    HW218612   0.328   4.573   2.489
 5905SOL     OW18613   6.652   4.928   2.295
 5905SOL    HW118614   6.694   5.017   2.312
 5905SOL    HW218615   6.590   4.906   2.370
 5906SOL     OW18616   6.594   1.478   4.175
 5906SOL    HW118617   6.603   1.391   4.126
 5906SOL    HW218618   6.497   1.500   4.185
 5907SOL     OW18619   2.037   0.196   1.664
 5907SOL    HW118620   2.067   0.178   1.571
 5907SOL    HW218621   1.937   0.194   1.668
 5908SOL     OW18622   0.359   2.777   6.289
 5908SOL    HW118623   0.325   2.754   6.380
 5908SOL    HW218624   0.451   2.741   6.277
 5909SOL     OW18625   6.631   3.869   0.777
 5909SOL    HW118626   6.693   3.946   0.789
 5909SOL    HW218627   6.536   3.902   0.777
 5910SOL     OW18628   2.241   1.752   3.871
 5910SOL    HW118629   2.283   1.702   3.947
 5910SOL    HW218630   2.308   1.812   3.829
 5911SOL     OW18631   0.218   5.353   6.067
 5911SOL    HW118632   0.139   5.413   6.052
 5911SOL    HW218633   0.292   5.405   6.109
 5912SOL     OW18634   0.739   0.914   3.843
 5912SOL    HW118635   0.782   0.888   3.756
 5912SOL    HW218636   0.641   0.926   3.829
 5913SOL     OW18637   5.335   1.539   6.863
 5913SOL    HW118638   5.433   1.526   6.849
 5913SOL    HW218639   5.316   1.636   6.876
 5914SOL     OW18640   6.960   5.910   0.610
 5914SOL    HW118641   6.933   5.992   0.661
 5914SOL    HW218642   6.919   5.913   0.519
 5915SOL     OW18643   3.875   1.638   5.889
 5915SOL    HW118644   3.966   1.597   5.894
 5915SOL    HW218645   3.852   1.679   5.977
 5916SOL     OW18646   0.804   6.121   2.624
 5916SOL    HW118647   0.789   6.218   2.642
 5916SOL    HW218648   0.809   6.106   2.525
 5917SOL     OW18649   3.575   4.770   0.331
 5917SOL    HW118650   3.638   4.723   0.393
 5917SOL    HW218651   3.547   4.857   0.371
 5918SOL     OW18652   3.052   6.606   5.583
 5918SOL    HW118653   3.070   6.631   5.678
 5918SOL    HW218654   2.958   6.628   5.559
 5919SOL     OW18655   3.178   2.995   4.136
 5919SOL    HW118656   3.124   3.055   4.194
 5919SOL    HW218657   3.271   2.989   4.171
 5920SOL     OW18658   5.898   0.691   4.881
 5920SOL    HW118659   5.961   0.735   4.818
 5920SOL    HW218660   5.880   0.597   4.852
 5921SOL     OW18661   2.599   4.464   6.197
 5921SOL    HW118662   2.502   4.448   6.216
 5921SOL    HW218663   2.632   4.394   6.133
 5922SOL     OW18664   5.321   3.529   2.681
 5922SOL    HW118665   5.341   3.435   2.708
 5922SOL    HW218666   5.398   3.567   2.631
 5923SOL     OW18667   6.740   0.165   3.366
 5923SOL    HW118668   6.669   0.106   3.406
 5923SOL    HW218669   6.807   0.109   3.318
 5924SOL     OW18670   5.382   0.218   3.286
 5924SOL    HW118671   5.321   0.139   3.282
 5924SOL    HW218672   5.345   0.285   3.351
 5925SOL     OW18673   4.272   0.442   1.353
 5925SOL    HW118674   4.341   0.371   1.368
 5925SOL    HW218675   4.201   0.407   1.291
 5926SOL     OW18676   4.767   4.987   4.118
 5926SOL    HW118677   4.677   5.028   4.137
 5926SOL    HW218678   4.773   4.898   4.165
 5927SOL     OW18679   0.984   4.550   1.978
 5927SOL    HW118680   0.926   4.577   2.054
 5927SOL    HW218681   0.979   4.451   1.967
 5928SOL     OW18682   2.989   0.807   0.408
 5928SOL    HW118683   3.065   0.751   0.440
 5928SOL    HW218684   2.999   0.823   0.309
 5929SOL     OW18685   1.696   0.982   6.417
 5929SOL    HW118686   1.793   0.957   6.408
 5929SOL    HW218687   1.677   1.062   6.361
 5930SOL     OW18688   1.577   3.409   2.169
 5930SOL    HW118689   1.578   3.424   2.268
 5930SOL    HW218690   1.484   3.425   2.134
 5931SOL     OW18691   4.862   6.277   2.885
 5931SOL    HW118692   4.814   6.357   2.847
 5931SOL    HW218693   4.925   6.241   2.816
 5932SOL     OW18694   2.832   0.923   6.616
 5932SOL    HW118695   2.788   0.999   6.568
 5932SOL    HW218696   2.762   0.862   6.652
 5933SOL     OW18697   6.174   5.936   4.052
 5933SOL    HW118698   6.216   5.884   4.126
 5933SOL    HW218699   6.114   6.006   4.091
 5934SOL     OW18700   3.281   3.550   6.447
 5934SOL    HW118701   3.310   3.644   6.467
 5934SOL    HW218702   3.362   3.491   6.443
 5935SOL     OW18703   1.189   5.905   6.049
 5935SOL    HW118704   1.097   5.938   6.028
 5935SOL    HW218705   1.183   5.821   6.103
 5936SOL     OW18706   3.067   3.043   1.971
 5936SOL    HW118707   3.064   3.126   2.027
 5936SOL    HW218708   3.010   3.056   1.889
 5937SOL     OW18709   0.089   3.107   1.685
 5937SOL    HW118710   0.055   3.186   1.633
 5937SOL    HW218711   0.074   3.123   1.783
 5938SOL     OW18712   0.447   4.586   4.683
 5938SOL    HW118713   0.374   4.591   4.752
 5938SOL    HW218714   0.421   4.523   4.611
 5939SOL     OW18715   3.355   1.040   4.742
 5939SOL    HW118716   3.416   1.011   4.668
 5939SOL    HW218717   3.347   1.140   4.743
 5940SOL     OW18718   5.457   5.585   2.242
 5940SOL    HW118719   5.473   5.667   2.188
 5940SOL    HW218720   5.363   5.552   2.225
 5941SOL     OW18721   0.299   2.462   2.609
 5941SOL    HW118722   0.257   2.522   2.677
 5941SOL    HW218723   0.370   2.407   2.653
 5942SOL     OW18724   5.134   2.938   6.215
 5942SOL    HW118725   5.173   3.004   6.279
 5942SOL    HW218726   5.206   2.901   6.156
 5943SOL     OW18727   3.050   4.240   1.735
 5943SOL    HW118728   2.982   4.310   1.756
 5943SOL    HW218729   3.014   4.177   1.666
 5944SOL     OW18730   0.149   3.502   6.826
 5944SOL    HW118731   0.143   3.403   6.839
 5944SOL    HW218732   0.101   3.548   6.901
 5945SOL     OW18733   6.802   6.071   4.917
 5945SOL    HW118734   6.799   5.971   4.912
 5945SOL    HW218735   6.812   6.109   4.825
 5946SOL     OW18736   2.927   4.265   0.840
 5946SOL    HW118737   3.015   4.233   0.805
 5946SOL    HW218738   2.942   4.328   0.916
 5947SOL     OW18739   3.707   3.202   4.649
 5947SOL    HW118740   3.802   3.226   4.670
 5947SOL    HW218741   3.696   3.103   4.654
 5948SOL     OW18742   4.849   3.813   1.652
 5948SOL    HW118743   4.898   3.749   1.710
 5948SOL    HW218744   4.795   3.875   1.708
 5949SOL     OW18745   6.728   4.182   2.452
 5949SOL    HW118746   6.821   4.160   2.481
 5949SOL    HW218747   6.676   4.097   2.440
 5950SOL     OW18748   4.292   0.433   5.010
 5950SOL    HW118749   4.194   0.415   4.997
 5950SOL    HW218750   4.307   0.474   5.100
 5951SOL     OW18751   0.442   3.754   6.390
 5951SOL    HW118752   0.400   3.701   6.317
 5951SOL    HW218753   0.511   3.699   6.437
 5952SOL     OW18754   4.006   4.908   0.907
 5952SOL    HW118755   3.933   4.857   0.953
 5952SOL    HW218756   4.001   5.005   0.934
 5953SOL     OW18757   6.406   2.967   5.000
 5953SOL    HW118758   6.384   2.934   5.091
 5953SOL    HW218759   6.490   2.924   4.968
 5954SOL     OW18760   1.904   5.791   4.165
 5954SOL    HW118761   1.932   5.810   4.071
 5954SOL    HW218762   1.952   5.711   4.199
 5955SOL     OW18763   5.440   3.542   0.365
 5955SOL    HW118764   5.421   3.615   0.430
 5955SOL    HW218765   5.525   3.496   0.391
 5956SOL     OW18766   5.334   2.552   5.279
 5956SOL    HW118767   5.237   2.562   5.300
 5956SOL    HW218768   5.347   2.476   5.216
 5957SOL     OW18769   0.832   1.770   2.936
 5957SOL    HW118770   0.752   1.739   2.987
 5957SOL    HW218771   0.902   1.802   2.999
 5958SOL     OW18772   3.651   0.167   2.515
 5958SOL    HW118773   3.708   0.126   2.444
 5958SOL    HW218774   3.591   0.097   2.554
 5959SOL     OW18775   4.997   2.491   4.237
 5959SOL    HW118776   4.950   2.467   4.152
 5959SOL    HW218777   5.036   2.408   4.278
 5960SOL     OW18778   4.257   0.378   6.152
 5960SOL    HW118779   4.353   0.407   6.152
 5960SOL    HW218780   4.211   0.417   6.073
 5961SOL     OW18781   2.810   2.033   3.193
 5961SOL    HW118782   2.879   2.084   3.244
 5961SOL    HW218783   2.851   1.948   3.159
 5962SOL     OW18784   4.926   6.451   1.161
 5962SOL    HW118785   4.895   6.489   1.073
 5962SOL    HW218786   5.008   6.396   1.146
 5963SOL     OW18787   3.284   4.418   7.015
 5963SOL    HW118788   3.262   4.422   6.918
 5963SOL    HW218789   3.341   4.496   0.013
 5964SOL     OW18790   2.556   6.736   2.515
 5964SOL    HW118791   2.549   6.796   2.435
 5964SOL    HW218792   2.475   6.677   2.519
 5965SOL     OW18793   2.087   0.573   7.005
 5965SOL    HW118794   2.016   0.607   6.943
 5965SOL    HW218795   2.045   0.522   0.053
 5966SOL     OW18796   2.567   0.892   4.701
 5966SOL    HW118797   2.485   0.946   4.722
 5966SOL    HW218798   2.604   0.853   4.786
 5967SOL     OW18799   3.431   1.959   4.269
 5967SOL    HW118800   3.400   1.868   4.296
 5967SOL    HW218801   3.377   2.028   4.318
 5968SOL     OW18802   5.415   2.502   1.399
 5968SOL    HW118803   5.480   2.552   1.341
 5968SOL    HW218804   5.446   2.508   1.494
 5969SOL     OW18805   5.131   0.640   0.013
 5969SOL    HW118806   5.127   0.739   0.009
 5969SOL    HW218807   5.217   0.611   0.056
 5970SOL     OW18808   0.282   3.082   0.753
 5970SOL    HW118809   0.364   3.026   0.769
 5970SOL    HW218810   0.201   3.023   0.756
 5971SOL     OW18811   0.444   6.831   3.526
 5971SOL    HW118812   0.527   6.794   3.485
 5971SOL    HW218813   0.379   6.756   3.542
 5972SOL     OW18814   4.662   5.121   1.025
 5972SOL    HW118815   4.578   5.119   1.080
 5972SOL    HW218816   4.649   5.067   0.942
 5973SOL     OW18817   2.441   2.179   2.773
 5973SOL    HW118818   2.418   2.104   2.835
 5973SOL    HW218819   2.496   2.247   2.821
 5974SOL     OW18820   5.533   1.976   5.632
 5974SOL    HW118821   5.504   2.044   5.564
 5974SOL    HW218822   5.596   1.911   5.589
 5975SOL     OW18823   4.569   4.803   0.726
 5975SOL    HW118824   4.497   4.810   0.658
 5975SOL    HW218825   4.529   4.783   0.816
 5976SOL     OW18826   2.490   3.557   5.949
 5976SOL    HW118827   2.512   3.467   5.912
 5976SOL    HW218828   2.528   3.567   6.040
 5977SOL     OW18829   6.403   4.021   0.483
 5977SOL    HW118830   6.393   4.105   0.430
 5977SOL    HW218831   6.348   3.948   0.441
 5978SOL     OW18832   2.548   4.267   0.565
 5978SOL    HW118833   2.494   4.292   0.645
 5978SOL    HW218834   2.526   4.174   0.536
 5979SOL     OW18835   5.731   0.734   1.571
 5979SOL    HW118836   5.829   0.724   1.584
 5979SOL    HW218837   5.684   0.650   1.601
 5980SOL     OW18838   2.902   3.178   1.150
 5980SOL    HW118839   2.899   3.197   1.248
 5980SOL    HW218840   2.979   3.118   1.130
 5981SOL     OW18841   2.525   2.283   0.744
 5981SOL    HW118842   2.461   2.312   0.673
 5981SOL    HW218843   2.618   2.283   0.708
 5982SOL     OW18844   5.765   2.816   0.761
 5982SOL    HW118845   5.690   2.750   0.772
 5982SOL    HW218846   5.727   2.907   0.742
 5983SOL     OW18847   6.984   1.059   3.666
 5983SOL    HW118848   7.016   1.014   3.582
 5983SOL    HW218849   6.954   0.990   3.731
 5984SOL     OW18850   6.656   6.848   3.659
 5984SOL    HW118851   6.565   6.883   3.639
 5984SOL    HW218852   6.651   6.749   3.672
 5985SOL     OW18853   5.653   2.946   2.748
 5985SOL    HW118854   5.671   2.987   2.659
 5985SOL    HW218855   5.556   2.953   2.770
 5986SOL     OW18856   4.188   3.660   5.112
 5986SOL    HW118857   4.267   3.709   5.148
 5986SOL    HW218858   4.178   3.680   5.014
 5987SOL     OW18859   6.939   7.015   5.469
 5987SOL    HW118860   6.872   6.989   5.538
 5987SOL    HW218861   6.931   6.956   5.389
 5988SOL     OW18862   1.130   2.463   6.387
 5988SOL    HW118863   1.076   2.411   6.322
 5988SOL    HW218864   1.161   2.402   6.461
 5989SOL     OW18865   0.655   6.040   6.727
 5989SOL    HW118866   0.722   5.992   6.783
 5989SOL    HW218867   0.567   5.992   6.732
 5990SOL     OW18868   3.518   4.990   1.833
 5990SOL    HW118869   3.537   4.901   1.875
 5990SOL    HW218870   3.427   4.989   1.792
 5991SOL     OW18871   5.124   6.694   1.028
 5991SOL    HW118872   5.064   6.698   0.948
 5991SOL    HW218873   5.108   6.609   1.077
 5992SOL     OW18874   4.088   6.206   1.803
 5992SOL    HW118875   4.169   6.215   1.746
 5992SOL    HW218876   4.089   6.116   1.848
 5993SOL     OW18877   6.128   1.832   0.091
 5993SOL    HW118878   6.165   1.879   0.171
 5993SOL    HW218879   6.167   1.740   0.086
 5994SOL     OW18880   0.610   3.346   0.633
 5994SOL    HW118881   0.673   3.390   0.569
 5994SOL    HW218882   0.649   3.258   0.661
 5995SOL     OW18883   4.707   4.014   1.417
 5995SOL    HW118884   4.697   4.047   1.511
 5995SOL    HW218885   4.703   3.914   1.417
 5996SOL     OW18886   2.972   5.248   1.140
 5996SOL    HW118887   3.060   5.284   1.108
 5996SOL    HW218888   2.902   5.318   1.133
 5997SOL     OW18889   6.671   0.011   3.877
 5997SOL    HW118890   6.696   6.952   3.832
 5997SOL    HW218891   6.675   0.086   3.811
 5998SOL     OW18892   5.857   6.498   1.331
 5998SOL    HW118893   5.863   6.398   1.337
 5998SOL    HW218894   5.763   6.527   1.347
 5999SOL     OW18895   5.176   2.918   1.159
 5999SOL    HW118896   5.247   2.848   1.168
 5999SOL    HW218897   5.156   2.956   1.250
 6000SOL     OW18898   0.492   3.993   1.449
 6000SOL    HW118899   0.463   4.089   1.455
 6000SOL    HW218900   0.474   3.959   1.357
 6001SOL     OW18901   6.700   5.244   5.880
 6001SOL    HW118902   6.606   5.225   5.912
 6001SOL    HW218903   6.757   5.268   5.959
 6002SOL     OW18904   6.319   5.193   4.651
 6002SOL    HW118905   6.290   5.256   4.723
 6002SOL    HW218906   6.244   5.129   4.632
 6003SOL     OW18907   0.745   2.948   4.607
 6003SOL    HW118908   0.781   3.022   4.550
 6003SOL    HW218909   0.821   2.896   4.645
 6004SOL     OW18910   5.182   2.914   4.494
 6004SOL    HW118911   5.116   2.975   4.449
 6004SOL    HW218912   5.137   2.867   4.570
 6005SOL     OW18913   4.106   5.370   6.270
 6005SOL    HW118914   4.055   5.365   6.356
 6005SOL    HW218915   4.172   5.444   6.275
 6006SOL     OW18916   3.091   6.270   5.784
 6006SOL    HW118917   3.061   6.364   5.799
 6006SOL    HW218918   3.013   6.213   5.759
 6007SOL     OW18919   2.489   5.695   6.380
 6007SOL    HW118920   2.499   5.760   6.455
 6007SOL    HW218921   2.420   5.727   6.316
 6008SOL     OW18922   3.317   3.999   6.049
 6008SOL    HW118923   3.341   3.981   6.144
 6008SOL    HW218924   3.386   4.059   6.008
 6009SOL     OW18925   3.228   5.172   3.108
 6009SOL    HW118926   3.168   5.162   3.188
 6009SOL    HW218927   3.215   5.095   3.046
 6010SOL     OW18928   0.676   5.704   4.615
 6010SOL    HW118929   0.725   5.655   4.687
 6010SOL    HW218930   0.684   5.654   4.529
 6011SOL     OW18931   6.297   1.827   1.468
 6011SOL    HW118932   6.268   1.902   1.528
 6011SOL    HW218933   6.280   1.740   1.514
 6012SOL     OW18934   6.934   0.271   6.086
 6012SOL    HW118935   6.948   0.370   6.089
 6012SOL    HW218936   6.951   0.231   6.176
 6013SOL     OW18937   5.994   1.625   2.405
 6013SOL    HW118938   6.064   1.679   2.451
 6013SOL    HW218939   6.012   1.528   2.420
 6014SOL     OW18940   3.899   3.395   4.086
 6014SOL    HW118941   3.957   3.323   4.049
 6014SOL    HW218942   3.928   3.483   4.049
 6015SOL     OW18943   5.772   1.502   4.418
 6015SOL    HW118944   5.869   1.491   4.436
 6015SOL    HW218945   5.729   1.412   4.410
 6016SOL     OW18946   5.262   0.947   4.418
 6016SOL    HW118947   5.186   1.008   4.437
 6016SOL    HW218948   5.324   0.946   4.497
 6017SOL     OW18949   6.847   2.263   5.488
 6017SOL    HW118950   6.882   2.356   5.478
 6017SOL    HW218951   6.880   2.207   5.412
 6018SOL     OW18952   3.402   1.039   5.381
 6018SOL    HW118953   3.411   1.090   5.467
 6018SOL    HW218954   3.315   0.991   5.380
 6019SOL     OW18955   6.707   3.665   6.931
 6019SOL    HW118956   6.710   3.745   6.871
 6019SOL    HW218957   6.770   3.595   6.897
 6020SOL     OW18958   0.848   4.853   6.886
 6020SOL    HW118959   0.846   4.807   6.798
 6020SOL    HW218960   0.785   4.930   6.885
 6021SOL     OW18961   5.264   6.953   3.504
 6021SOL    HW118962   5.277   6.975   3.600
 6021SOL    HW218963   5.236   0.008   3.454
 6022SOL     OW18964   6.274   1.621   1.650
 6022SOL    HW118965   6.336   1.630   1.728
 6022SOL    HW218966   6.190   1.575   1.679
 6023SOL     OW18967   4.244   0.481   2.229
 6023SOL    HW118968   4.285   0.451   2.143
 6023SOL    HW218969   4.271   0.418   2.302
 6024SOL     OW18970   0.898   5.841   0.210
 6024SOL    HW118971   0.839   5.910   0.168
 6024SOL    HW218972   0.901   5.855   0.309
 6025SOL     OW18973   3.304   0.627   4.641
 6025SOL    HW118974   3.301   0.724   4.620
 6025SOL    HW218975   3.224   0.582   4.602
 6026SOL     OW18976   6.309   4.666   4.547
 6026SOL    HW118977   6.406   4.652   4.527
 6026SOL    HW218978   6.257   4.666   4.461
 6027SOL     OW18979   5.872   4.108   6.691
 6027SOL    HW118980   5.968   4.131   6.674
 6027SOL    HW218981   5.814   4.180   6.655
 6028SOL     OW18982   5.812   5.360   6.144
 6028SOL    HW118983   5.836   5.336   6.050
 6028SOL    HW218984   5.743   5.432   6.143
 6029SOL     OW18985   2.033   0.750   3.168
 6029SOL    HW118986   2.109   0.731   3.106
 6029SOL    HW218987   1.994   0.663   3.200
 6030SOL     OW18988   5.492   3.501   4.163
 6030SOL    HW118989   5.517   3.509   4.066
 6030SOL    HW218990   5.408   3.552   4.180
 6031SOL     OW18991   0.696   6.398   4.696
 6031SOL    HW118992   0.598   6.391   4.715
 6031SOL    HW218993   0.747   6.377   4.779
 6032SOL     OW18994   3.448   6.376   3.378
 6032SOL    HW118995   3.483   6.469   3.363
 6032SOL    HW218996   3.414   6.368   3.471
 6033SOL     OW18997   1.653   1.877   2.456
 6033SOL    HW118998   1.632   1.805   2.390
 6033SOL    HW218999   1.750   1.898   2.453
 6034SOL     OW19000   0.580   0.629   0.454
 6034SOL    HW119001   0.630   0.586   0.379
 6034SOL    HW219002   0.491   0.662   0.421
 6035SOL     OW19003   2.095   0.678   2.691
 6035SOL    HW119004   2.160   0.718   2.756
 6035SOL    HW219005   2.015   0.644   2.740
 6036SOL     OW19006   6.573   2.806   1.058
 6036SOL    HW119007   6.642   2.736   1.038
 6036SOL    HW219008   6.582   2.836   1.153
 6037SOL     OW19009   5.083   2.221   0.098
 6037SOL    HW119010   5.032   2.262   0.022
 6037SOL    HW219011   5.019   2.187   0.167
 6038SOL     OW19012   0.088   1.454   5.957
 6038SOL    HW119013   0.056   1.409   6.041
 6038SOL    HW219014   0.010   1.485   5.903
 6039SOL     OW19015   3.782   3.434   3.383
 6039SOL    HW119016   3.805   3.478   3.296
 6039SOL    HW219017   3.850   3.459   3.452
 6040SOL     OW19018   0.322   1.698   0.339
 6040SOL    HW119019   0.346   1.784   0.384
 6040SOL    HW219020   0.223   1.695   0.324
 6041SOL     OW19021   2.524   3.296   5.887
 6041SOL    HW119022   2.433   3.256   5.893
 6041SOL    HW219023   2.591   3.233   5.926
 6042SOL     OW19024   3.440   6.092   3.345
 6042SOL    HW119025   3.463   6.186   3.372
 6042SOL    HW219026   3.521   6.048   3.305
 6043SOL     OW19027   2.407   0.454   3.666
 6043SOL    HW119028   2.452   0.417   3.584
 6043SOL    HW219029   2.460   0.530   3.702
 6044SOL     OW19030   0.949   3.049   1.631
 6044SOL    HW119031   1.010   3.122   1.663
 6044SOL    HW219032   0.986   3.008   1.548
 6045SOL     OW19033   4.808   2.090   3.234
 6045SOL    HW119034   4.742   2.049   3.297
 6045SOL    HW219035   4.762   2.111   3.147
 6046SOL     OW19036   3.355   2.893   2.143
 6046SOL    HW119037   3.337   2.988   2.118
 6046SOL    HW219038   3.314   2.832   2.076
 6047SOL     OW19039   5.908   1.697   1.236
 6047SOL    HW119040   5.940   1.607   1.264
 6047SOL    HW219041   5.864   1.690   1.146
 6048SOL     OW19042   6.247   5.785   4.269
 6048SOL    HW119043   6.185   5.773   4.346
 6048SOL    HW219044   6.265   5.697   4.226
 6049SOL     OW19045   4.517   5.340   5.247
 6049SOL    HW119046   4.610   5.364   5.219
 6049SOL    HW219047   4.514   5.244   5.272
 6050SOL     OW19048   3.770   6.563   1.722
 6050SOL    HW119049   3.779   6.512   1.637
 6050SOL    HW219050   3.849   6.625   1.731
 6051SOL     OW19051   1.006   1.057   3.398
 6051SOL    HW119052   1.017   1.035   3.301
 6051SOL    HW219053   1.088   1.106   3.430
 6052SOL     OW19054   5.509   6.600   0.274
 6052SOL    HW119055   5.447   6.631   0.203
 6052SOL    HW219056   5.595   6.569   0.233
 6053SOL     OW19057   4.056   3.064   6.393
 6053SOL    HW119058   3.979   3.002   6.380
 6053SOL    HW219059   4.119   3.026   6.460
 6054SOL     OW19060   4.062   4.161   1.113
 6054SOL    HW119061   3.987   4.120   1.060
 6054SOL    HW219062   4.033   4.172   1.208
 6055SOL     OW19063   3.280   4.470   0.859
 6055SOL    HW119064   3.276   4.462   0.958
 6055SOL    HW219065   3.237   4.390   0.817
 6056SOL     OW19066   5.346   5.757   5.135
 6056SOL    HW119067   5.266   5.809   5.104
 6056SOL    HW219068   5.340   5.663   5.102
 6057SOL     OW19069   4.989   0.240   4.335
 6057SOL    HW119070   5.012   0.255   4.432
 6057SOL    HW219071   4.890   0.232   4.326
 6058SOL     OW19072   5.251   2.129   5.816
 6058SOL    HW119073   5.156   2.098   5.818
 6058SOL    HW219074   5.312   2.053   5.842
 6059SOL     OW19075   3.914   3.345   7.019
 6059SOL    HW119076   3.962   3.357   6.932
 6059SOL    HW219077   3.898   3.435   0.034
 6060SOL     OW19078   2.700   3.444   6.782
 6060SOL    HW119079   2.755   3.525   6.760
 6060SOL    HW219080   2.734   3.402   6.865
 6061SOL     OW19081   3.629   5.312   6.936
 6061SOL    HW119082   3.580   5.399   6.941
 6061SOL    HW219083   3.584   5.254   6.868
 6062SOL     OW19084   2.002   1.947   7.012
 6062SOL    HW119085   2.001   1.869   6.949
 6062SOL    HW219086   1.976   2.030   6.963
 6063SOL     OW19087   4.645   4.084   6.309
 6063SOL    HW119088   4.551   4.097   6.342
 6063SOL    HW219089   4.654   4.121   6.217
 6064SOL     OW19090   0.254   5.548   1.031
 6064SOL    HW119091   0.163   5.538   0.991
 6064SOL    HW219092   0.303   5.622   0.985
 6065SOL     OW19093   0.602   6.352   2.765
 6065SOL    HW119094   0.579   6.397   2.851
 6065SOL    HW219095   0.525   6.358   2.702
 6066SOL     OW19096   5.593   6.249   3.485
 6066SOL    HW119097   5.544   6.222   3.568
 6066SOL    HW219098   5.660   6.320   3.508
 6067SOL     OW19099   5.682   0.264   6.362
 6067SOL    HW119100   5.752   0.210   6.409
 6067SOL    HW219101   5.592   0.227   6.384
 6068SOL     OW19102   4.618   1.973   5.140
 6068SOL    HW119103   4.690   2.039   5.117
 6068SOL    HW219104   4.535   1.994   5.089
 6069SOL     OW19105   6.964   3.839   6.501
 6069SOL    HW119106   6.938   3.771   6.432
 6069SOL    HW219107   6.884   3.895   6.523
 6070SOL     OW19108   2.810   1.379   0.487
 6070SOL    HW119109   2.872   1.329   0.548
 6070SOL    HW219110   2.756   1.444   0.541
 6071SOL     OW19111   6.141   0.471   5.122
 6071SOL    HW119112   6.078   0.423   5.060
 6071SOL    HW219113   6.122   0.569   5.119
 6072SOL     OW19114   7.024   2.453   1.007
 6072SOL    HW119115   6.953   2.522   1.024
 6072SOL    HW219116   7.025   2.430   0.910
 6073SOL     OW19117   4.588   2.552   0.439
 6073SOL    HW119118   4.587   2.618   0.514
 6073SOL    HW219119   4.568   2.598   0.353
 6074SOL     OW19120   0.333   6.508   2.666
 6074SOL    HW119121   0.380   6.504   2.578
 6074SOL    HW219122   0.250   6.453   2.662
 6075SOL     OW19123   4.995   6.881   6.613
 6075SOL    HW119124   5.037   6.918   6.696
 6075SOL    HW219125   4.918   6.939   6.586
 6076SOL     OW19126   1.368   5.065   3.706
 6076SOL    HW119127   1.298   5.108   3.650
 6076SOL    HW219128   1.329   4.987   3.755
 6077SOL     OW19129   5.242   6.889   2.207
 6077SOL    HW119130   5.267   6.878   2.303
 6077SOL    HW219131   5.245   6.986   2.183
 6078SOL     OW19132   3.839   3.499   0.668
 6078SOL    HW119133   3.778   3.555   0.723
 6078SOL    HW219134   3.892   3.438   0.727
 6079SOL     OW19135   3.412   3.808   6.554
 6079SOL    HW119136   3.448   3.775   6.642
 6079SOL    HW219137   3.323   3.850   6.569
 6080SOL     OW19138   6.889   4.538   6.875
 6080SOL    HW119139   6.941   4.581   6.949
 6080SOL    HW219140   6.933   4.560   6.787
 6081SOL     OW19141   1.520   3.516   4.142
 6081SOL    HW119142   1.595   3.495   4.205
 6081SOL    HW219143   1.557   3.531   4.050
 6082SOL     OW19144   4.656   0.994   0.931
 6082SOL    HW119145   4.663   1.069   0.864
 6082SOL    HW219146   4.586   1.015   0.998
 6083SOL     OW19147   4.744   0.235   6.274
 6083SOL    HW119148   4.838   0.250   6.244
 6083SOL    HW219149   4.706   0.321   6.308
 6084SOL     OW19150   7.007   6.793   2.851
 6084SOL    HW119151   6.909   6.804   2.868
 6084SOL    HW219152   0.020   6.739   2.925
 6085SOL     OW19153   0.477   6.246   0.743
 6085SOL    HW119154   0.499   6.208   0.833
 6085SOL    HW219155   0.556   6.237   0.683
 6086SOL     OW19156   3.426   3.929   6.279
 6086SOL    HW119157   3.442   3.879   6.365
 6086SOL    HW219158   3.485   4.010   6.276
 6087SOL     OW19159   5.272   6.489   0.625
 6087SOL    HW119160   5.188   6.541   0.612
 6087SOL    HW219161   5.342   6.549   0.665
 6088SOL     OW19162   5.501   6.343   3.257
 6088SOL    HW119163   5.518   6.304   3.347
 6088SOL    HW219164   5.539   6.436   3.254
 6089SOL     OW19165   6.275   3.682   3.444
 6089SOL    HW119166   6.281   3.767   3.390
 6089SOL    HW219167   6.366   3.656   3.475
 6090SOL     OW19168   3.899   5.984   3.938
 6090SOL    HW119169   3.988   5.989   3.982
 6090SOL    HW219170   3.902   6.030   3.849
 6091SOL     OW19171   1.906   1.296   1.779
 6091SOL    HW119172   1.926   1.201   1.757
 6091SOL    HW219173   1.882   1.345   1.695
 6092SOL     OW19174   3.812   6.107   1.175
 6092SOL    HW119175   3.720   6.105   1.136
 6092SOL    HW219176   3.838   6.015   1.204
 6093SOL     OW19177   2.481   1.998   2.126
 6093SOL    HW119178   2.482   1.987   2.027
 6093SOL    HW219179   2.547   2.069   2.153
 6094SOL     OW19180   0.500   6.095   4.463
 6094SOL    HW119181   0.453   6.017   4.423
 6094SOL    HW219182   0.595   6.096   4.434
 6095SOL     OW19183   4.290   5.329   1.052
 6095SOL    HW119184   4.215   5.315   1.118
 6095SOL    HW219185   4.267   5.405   0.992
 6096SOL     OW19186   5.602   6.506   2.873
 6096SOL    HW119187   5.659   6.440   2.825
 6096SOL    HW219188   5.548   6.458   2.943
 6097SOL     OW19189   1.884   5.636   2.122
 6097SOL    HW119190   1.934   5.722   2.126
 6097SOL    HW219191   1.786   5.654   2.129
 6098SOL     OW19192   6.497   1.017   5.031
 6098SOL    HW119193   6.534   1.074   4.959
 6098SOL    HW219194   6.463   0.931   4.992
 6099SOL     OW19195   4.270   0.756   6.173
 6099SOL    HW119196   4.176   0.722   6.179
 6099SOL    HW219197   4.307   0.736   6.082
 6100SOL     OW19198   0.374   6.229   5.001
 6100SOL    HW119199   0.375   6.319   4.956
 6100SOL    HW219200   0.303   6.172   4.960
 6101SOL     OW19201   6.551   2.899   1.335
 6101SOL    HW119202   6.474   2.962   1.351
 6101SOL    HW219203   6.637   2.948   1.346
 6102SOL     OW19204   4.479   0.064   2.639
 6102SOL    HW119205   4.550   0.041   2.706
 6102SOL    HW219206   4.404   0.110   2.686
 6103SOL     OW19207   6.911   1.703   1.765
 6103SOL    HW119208   6.844   1.633   1.790
 6103SOL    HW219209   6.872   1.794   1.779
 6104SOL     OW19210   6.487   0.921   4.359
 6104SOL    HW119211   6.578   0.958   4.375
 6104SOL    HW219212   6.468   0.919   4.261
 6105SOL     OW19213   3.062   4.782   5.416
 6105SOL    HW119214   3.090   4.701   5.468
 6105SOL    HW219215   3.060   4.761   5.319
 6106SOL     OW19216   6.271   5.401   6.433
 6106SOL    HW119217   6.312   5.315   6.465
 6106SOL    HW219218   6.212   5.382   6.355
 6107SOL     OW19219   5.277   4.645   5.691
 6107SOL    HW119220   5.235   4.693   5.614
 6107SOL    HW219221   5.366   4.686   5.711
 6108SOL     OW19222   2.378   1.606   0.788
 6108SOL    HW119223   2.313   1.682   0.793
 6108SOL    HW219224   2.342   1.527   0.837
 6109SOL     OW19225   6.082   6.848   3.256
 6109SOL    HW119226   6.100   6.923   3.192
 6109SOL    HW219227   6.102   6.761   3.212
 6110SOL     OW19228   2.047   1.922   4.925
 6110SOL    HW119229   2.044   1.937   4.826
 6110SOL    HW219230   1.960   1.881   4.954
 6111SOL     OW19231   1.773   4.940   1.074
 6111SOL    HW119232   1.854   4.997   1.078
 6111SOL    HW219233   1.788   4.864   1.010
 6112SOL     OW19234   4.897   0.087   2.512
 6112SOL    HW119235   4.981   0.077   2.458
 6112SOL    HW219236   4.905   0.168   2.570
 6113SOL     OW19237   2.380   5.391   6.842
 6113SOL    HW119238   2.445   5.465   6.824
 6113SOL    HW219239   2.289   5.429   6.856
 6114SOL     OW19240   4.927   1.654   1.077
 6114SOL    HW119241   5.020   1.683   1.098
 6114SOL    HW219242   4.862   1.720   1.114
 6115SOL     OW19243   0.853   0.587   5.299
 6115SOL    HW119244   0.815   0.553   5.213
 6115SOL    HW219245   0.855   0.513   5.366
 6116SOL     OW19246   5.016   1.775   5.646
 6116SOL    HW119247   5.067   1.708   5.700
 6116SOL    HW219248   4.989   1.851   5.705
 6117SOL     OW19249   1.701   2.330   1.062
 6117SOL    HW119250   1.705   2.289   1.153
 6117SOL    HW219251   1.640   2.410   1.064
 6118SOL     OW19252   6.343   0.773   0.447
 6118SOL    HW119253   6.267   0.743   0.390
 6118SOL    HW219254   6.307   0.822   0.527
 6119SOL     OW19255   6.547   1.546   1.024
 6119SOL    HW119256   6.522   1.626   1.079
 6119SOL    HW219257   6.634   1.564   0.977
 6120SOL     OW19258   2.416   1.083   5.300
 6120SOL    HW119259   2.464   1.061   5.215
 6120SOL    HW219260   2.319   1.097   5.280
 6121SOL     OW19261   0.496   2.916   4.723
 6121SOL    HW119262   0.433   2.951   4.654
 6121SOL    HW219263   0.590   2.943   4.699
 6122SOL     OW19264   5.178   5.447   5.793
 6122SOL    HW119265   5.153   5.412   5.883
 6122SOL    HW219266   5.276   5.468   5.791
 6123SOL     OW19267   5.341   1.898   4.726
 6123SOL    HW119268   5.291   1.934   4.804
 6123SOL    HW219269   5.439   1.896   4.747
 6124SOL     OW19270   2.372   6.913   3.905
 6124SOL    HW119271   2.292   6.854   3.887
 6124SOL    HW219272   2.447   6.885   3.845
 6125SOL     OW19273   1.845   2.124   6.429
 6125SOL    HW119274   1.863   2.208   6.480
 6125SOL    HW219275   1.810   2.146   6.337
 6126SOL     OW19276   6.262   2.699   5.694
 6126SOL    HW119277   6.350   2.747   5.698
 6126SOL    HW219278   6.196   2.756   5.645
 6127SOL     OW19279   3.999   2.208   1.908
 6127SOL    HW119280   3.900   2.212   1.918
 6127SOL    HW219281   4.042   2.224   1.997
 6128SOL     OW19282   6.276   5.880   0.357
 6128SOL    HW119283   6.353   5.827   0.392
 6128SOL    HW219284   6.198   5.819   0.343
 6129SOL     OW19285   1.537   5.444   2.831
 6129SOL    HW119286   1.547   5.511   2.759
 6129SOL    HW219287   1.622   5.394   2.844
 6130SOL     OW19288   5.607   2.015   0.787
 6130SOL    HW119289   5.543   2.016   0.710
 6130SOL    HW219290   5.667   1.935   0.780
 6131SOL     OW19291   6.912   1.885   2.445
 6131SOL    HW119292   6.993   1.831   2.422
 6131SOL    HW219293   6.835   1.855   2.389
 6132SOL     OW19294   3.634   1.264   6.573
 6132SOL    HW119295   3.541   1.302   6.566
 6132SOL    HW219296   3.639   1.180   6.519
 6133SOL     OW19297   1.649   1.365   4.153
 6133SOL    HW119298   1.592   1.302   4.207
 6133SOL    HW219299   1.723   1.399   4.211
 6134SOL     OW19300   5.486   6.870   6.236
 6134SOL    HW119301   5.488   6.787   6.181
 6134SOL    HW219302   5.402   6.873   6.290
 6135SOL     OW19303   6.553   0.094   6.842
 6135SOL    HW119304   6.534   0.026   6.771
 6135SOL    HW219305   6.467   0.136   6.871
 6136SOL     OW19306   1.581   3.112   2.575
 6136SOL    HW119307   1.552   3.169   2.498
 6136SOL    HW219308   1.513   3.116   2.648
 6137SOL     OW19309   0.225   4.163   1.990
 6137SOL    HW119310   0.233   4.255   2.030
 6137SOL    HW219311   0.257   4.165   1.895
 6138SOL     OW19312   3.613   0.164   2.064
 6138SOL    HW119313   3.694   0.212   2.098
 6138SOL    HW219314   3.594   0.191   1.970
 6139SOL     OW19315   1.449   0.553   5.514
 6139SOL    HW119316   1.491   0.462   5.516
 6139SOL    HW219317   1.365   0.553   5.568
 6140SOL     OW19318   1.475   6.934   3.220
 6140SOL    HW119319   1.555   6.879   3.197
 6140SOL    HW219320   1.426   6.959   3.137
 6141SOL     OW19321   0.471   0.752   5.802
 6141SOL    HW119322   0.381   0.734   5.844
 6141SOL    HW219323   0.479   0.849   5.781
 6142SOL     OW19324   0.243   0.165   1.242
 6142SOL    HW119325   0.330   0.173   1.193
 6142SOL    HW219326   0.186   0.245   1.222
 6143SOL     OW19327   6.567   4.280   5.484
 6143SOL    HW119328   6.482   4.331   5.499
 6143SOL    HW219329   6.599   4.296   5.391
 6144SOL     OW19330   4.023   5.086   2.964
 6144SOL    HW119331   4.011   5.184   2.945
 6144SOL    HW219332   4.091   5.074   3.036
 6145SOL     OW19333   4.808   3.032   4.570
 6145SOL    HW119334   4.761   2.960   4.519
 6145SOL    HW219335   4.840   3.102   4.505
 6146SOL     OW19336   5.425   0.176   4.824
 6146SOL    HW119337   5.493   0.119   4.778
 6146SOL    HW219338   5.344   0.121   4.845
 6147SOL     OW19339   1.980   2.211   3.410
 6147SOL    HW119340   2.077   2.207   3.433
 6147SOL    HW219341   1.955   2.305   3.387
 6148SOL     OW19342   3.272   5.852   0.330
 6148SOL    HW119343   3.195   5.905   0.297
 6148SOL    HW219344   3.268   5.845   0.430
 6149SOL     OW19345   3.036   0.281   2.067
 6149SOL    HW119346   2.961   0.339   2.036
 6149SOL    HW219347   3.003   0.188   2.081
 6150SOL     OW19348   6.280   4.358   6.359
 6150SOL    HW119349   6.229   4.442   6.340
 6150SOL    HW219350   6.368   4.381   6.401
 6151SOL     OW19351   4.613   4.610   4.619
 6151SOL    HW119352   4.576   4.696   4.583
 6151SOL    HW219353   4.587   4.600   4.715
 6152SOL     OW19354   1.223   4.497   4.311
 6152SOL    HW119355   1.132   4.465   4.337
 6152SOL    HW219356   1.253   4.569   4.373
 6153SOL     OW19357   5.360   5.070   0.954
 6153SOL    HW119358   5.348   4.972   0.973
 6153SOL    HW219359   5.284   5.103   0.899
 6154SOL     OW19360   5.969   3.272   1.770
 6154SOL    HW119361   6.039   3.253   1.838
 6154SOL    HW219362   5.891   3.317   1.815
 6155SOL     OW19363   1.898   1.597   3.075
 6155SOL    HW119364   1.931   1.538   3.148
 6155SOL    HW219365   1.955   1.679   3.070
 6156SOL     OW19366   4.966   5.103   1.260
 6156SOL    HW119367   4.867   5.095   1.254
 6156SOL    HW219368   5.007   5.012   1.251
 6157SOL     OW19369   1.203   2.179   2.335
 6157SOL    HW119370   1.271   2.110   2.360
 6157SOL    HW219371   1.129   2.137   2.283
 6158SOL     OW19372   3.065   3.006   5.605
 6158SOL    HW119373   3.107   2.915   5.604
 6158SOL    HW219374   3.132   3.072   5.640
 6159SOL     OW19375   5.791   2.913   0.415
 6159SOL    HW119376   5.884   2.942   0.393
 6159SOL    HW219377   5.790   2.814   0.433
 6160SOL     OW19378   0.663   7.010   7.008
 6160SOL    HW119379   0.665   6.931   0.042
 6160SOL    HW219380   0.664   0.067   0.036
 6161SOL     OW19381   4.517   2.779   6.430
 6161SOL    HW119382   4.575   2.699   6.443
 6161SOL    HW219383   4.524   2.839   6.509
 6162SOL     OW19384   6.371   5.430   3.055
 6162SOL    HW119385   6.281   5.455   3.018
 6162SOL    HW219386   6.403   5.503   3.116
 6163SOL     OW19387   5.656   5.816   3.342
 6163SOL    HW119388   5.747   5.854   3.322
 6163SOL    HW219389   5.656   5.718   3.324
 6164SOL     OW19390   3.696   4.187   4.862
 6164SOL    HW119391   3.611   4.164   4.909
 6164SOL    HW219392   3.711   4.286   4.866
 6165SOL     OW19393   3.882   1.541   0.613
 6165SOL    HW119394   3.801   1.537   0.672
 6165SOL    HW219395   3.892   1.634   0.577
 6166SOL     OW19396   1.148   2.123   6.972
 6166SOL    HW119397   1.232   2.076   6.945
 6166SOL    HW219398   1.157   2.155   0.039
 6167SOL     OW19399   1.391   3.800   3.445
 6167SOL    HW119400   1.415   3.753   3.530
 6167SOL    HW219401   1.327   3.875   3.465
 6168SOL     OW19402   0.509   3.600   4.312
 6168SOL    HW119403   0.559   3.562   4.390
 6168SOL    HW219404   0.420   3.633   4.342
 6169SOL     OW19405   2.433   6.491   0.075
 6169SOL    HW119406   2.515   6.434   0.074
 6169SOL    HW219407   2.421   6.533   7.012
 6170SOL     OW19408   3.697   4.302   6.958
 6170SOL    HW119409   3.753   4.279   6.878
 6170SOL    HW219410   3.753   4.295   0.014
 6171SOL     OW19411   2.031   4.549   2.485
 6171SOL    HW119412   2.097   4.563   2.559
 6171SOL    HW219413   2.003   4.453   2.484
 6172SOL     OW19414   1.068   6.082   2.724
 6172SOL    HW119415   1.063   6.093   2.824
 6172SOL    HW219416   0.976   6.083   2.686
 6173SOL     OW19417   1.349   5.267   2.654
 6173SOL    HW119418   1.262   5.284   2.701
 6173SOL    HW219419   1.417   5.335   2.682
 6174SOL     OW19420   5.304   5.296   2.891
 6174SOL    HW119421   5.210   5.328   2.898
 6174SOL    HW219422   5.308   5.199   2.914
 6175SOL     OW19423   4.829   0.437   3.383
 6175SOL    HW119424   4.918   0.433   3.429
 6175SOL    HW219425   4.798   0.532   3.380
 6176SOL     OW19426   6.121   3.477   5.893
 6176SOL    HW119427   6.085   3.460   5.985
 6176SOL    HW219428   6.185   3.405   5.869
 6177SOL     OW19429   5.459   2.025   0.551
 6177SOL    HW119430   5.549   2.025   0.509
 6177SOL    HW219431   5.407   2.104   0.519
 6178SOL     OW19432   5.686   3.533   0.797
 6178SOL    HW119433   5.741   3.488   0.867
 6178SOL    HW219434   5.679   3.474   0.717
 6179SOL     OW19435   6.956   2.240   5.774
 6179SOL    HW119436   6.900   2.260   5.694
 6179SOL    HW219437   6.902   2.252   5.857
 6180SOL     OW19438   4.022   6.902   0.819
 6180SOL    HW119439   3.942   6.962   0.819
 6180SOL    HW219440   3.996   6.811   0.850
 6181SOL     OW19441   4.840   6.451   6.760
 6181SOL    HW119442   4.743   6.470   6.774
 6181SOL    HW219443   4.876   6.398   6.837
 6182SOL     OW19444   4.849   6.566   6.461
 6182SOL    HW119445   4.769   6.599   6.411
 6182SOL    HW219446   4.826   6.482   6.509
 6183SOL     OW19447   2.919   0.152   3.286
 6183SOL    HW119448   3.004   0.147   3.233
 6183SOL    HW219449   2.924   0.091   3.365
 6184SOL     OW19450   0.519   0.277   6.596
 6184SOL    HW119451   0.543   0.270   6.499
 6184SOL    HW219452   0.571   0.209   6.648
 6185SOL     OW19453   6.946   3.647   6.279
 6185SOL    HW119454   6.965   3.550   6.291
 6185SOL    HW219455   6.860   3.658   6.229
 6186SOL     OW19456   5.321   0.309   4.461
 6186SOL    HW119457   5.237   0.294   4.514
 6186SOL    HW219458   5.377   0.377   4.508
 6187SOL     OW19459   4.563   4.644   4.214
 6187SOL    HW119460   4.561   4.580   4.291
 6187SOL    HW219461   4.512   4.605   4.137
 6188SOL     OW19462   2.831   6.526   1.347
 6188SOL    HW119463   2.878   6.545   1.433
 6188SOL    HW219464   2.783   6.608   1.316
 6189SOL     OW19465   5.462   5.210   3.492
 6189SOL    HW119466   5.445   5.182   3.398
 6189SOL    HW219467   5.560   5.201   3.512
 6190SOL     OW19468   5.568   2.330   6.921
 6190SOL    HW119469   5.629   2.401   6.886
 6190SOL    HW219470   5.601   2.298   7.010
 6191SOL     OW19471   5.793   1.729   7.016
 6191SOL    HW119472   5.715   1.736   6.954
 6191SOL    HW219473   5.868   1.785   6.980
 6192SOL     OW19474   2.792   2.760   6.609
 6192SOL    HW119475   2.890   2.773   6.624
 6192SOL    HW219476   2.742   2.791   6.690
 6193SOL     OW19477   5.148   0.387   1.903
 6193SOL    HW119478   5.085   0.399   1.980
 6193SOL    HW219479   5.149   0.469   1.847
 6194SOL     OW19480   2.779   0.869   0.768
 6194SOL    HW119481   2.786   0.772   0.743
 6194SOL    HW219482   2.742   0.877   0.861
 6195SOL     OW19483   3.191   0.247   6.267
 6195SOL    HW119484   3.200   0.294   6.179
 6195SOL    HW219485   3.094   0.237   6.290
 6196SOL     OW19486   0.932   1.814   6.039
 6196SOL    HW119487   0.938   1.806   5.939
 6196SOL    HW219488   0.992   1.746   6.081
 6197SOL     OW19489   2.208   3.691   0.637
 6197SOL    HW119490   2.124   3.643   0.662
 6197SOL    HW219491   2.271   3.628   0.592
 6198SOL     OW19492   3.742   4.859   2.340
 6198SOL    HW119493   3.670   4.803   2.297
 6198SOL    HW219494   3.700   4.940   2.381
 6199SOL     OW19495   1.675   6.862   0.043
 6199SOL    HW119496   1.651   6.859   0.140
 6199SOL    HW219497   1.613   6.802   7.018
 6200SOL     OW19498   4.223   1.000   6.479
 6200SOL    HW119499   4.149   0.936   6.501
 6200SOL    HW219500   4.249   0.989   6.384
 6201SOL     OW19501   1.982   3.828   5.577
 6201SOL    HW119502   2.033   3.756   5.624
 6201SOL    HW219503   1.932   3.789   5.500
 6202SOL     OW19504   3.296   2.099   0.933
 6202SOL    HW119505   3.294   2.175   0.867
 6202SOL    HW219506   3.202   2.074   0.958
 6203SOL     OW19507   5.003   1.187   4.131
 6203SOL    HW119508   5.084   1.211   4.184
 6203SOL    HW219509   4.958   1.108   4.173
 6204SOL     OW19510   2.340   6.382   5.425
 6204SOL    HW119511   2.411   6.313   5.412
 6204SOL    HW219512   2.278   6.380   5.346
 6205SOL     OW19513   5.109   5.867   0.014
 6205SOL    HW119514   5.049   5.887   0.092
 6205SOL    HW219515   5.059   5.880   6.956
 6206SOL     OW19516   5.389   0.238   2.655
 6206SOL    HW119517   5.451   0.212   2.730
 6206SOL    HW219518   5.439   0.292   2.587
 6207SOL     OW19519   1.551   4.037   4.871
 6207SOL    HW119520   1.629   4.039   4.933
 6207SOL    HW219521   1.580   4.000   4.782
 6208SOL     OW19522   6.006   6.472   6.219
 6208SOL    HW119523   6.104   6.496   6.220
 6208SOL    HW219524   5.957   6.536   6.160
 6209SOL     OW19525   4.194   6.563   0.416
 6209SOL    HW119526   4.288   6.542   0.445
 6209SOL    HW219527   4.129   6.526   0.482
 6210SOL     OW19528   5.657   4.172   3.850
 6210SOL    HW119529   5.558   4.185   3.848
 6210SOL    HW219530   5.685   4.114   3.774
 6211SOL     OW19531   2.884   7.016   4.664
 6211SOL    HW119532   2.846   7.025   4.756
 6211SOL    HW219533   2.817   0.021   4.597
 6212SOL     OW19534   7.000   6.354   3.897
 6212SOL    HW119535   0.037   6.279   3.883
 6212SOL    HW219536   6.906   6.321   3.884
 6213SOL     OW19537   6.454   0.524   6.408
 6213SOL    HW119538   6.450   0.519   6.507
 6213SOL    HW219539   6.442   0.618   6.378
 6214SOL     OW19540   6.654   4.354   2.672
 6214SOL    HW119541   6.663   4.287   2.598
 6214SOL    HW219542   6.562   4.348   2.711
 6215SOL     OW19543   2.841   3.161   0.863
 6215SOL    HW119544   2.826   3.149   0.961
 6215SOL    HW219545   2.831   3.073   0.817
 6216SOL     OW19546   5.425   2.028   2.204
 6216SOL    HW119547   5.522   2.002   2.206
 6216SOL    HW219548   5.389   2.016   2.112
 6217SOL     OW19549   4.710   2.391   1.057
 6217SOL    HW119550   4.742   2.339   0.978
 6217SOL    HW219551   4.787   2.413   1.117
 6218SOL     OW19552   2.841   5.138   4.642
 6218SOL    HW119553   2.898   5.174   4.568
 6218SOL    HW219554   2.878   5.050   4.674
 6219SOL     OW19555   0.715   2.419   5.176
 6219SOL    HW119556   0.764   2.506   5.189
 6219SOL    HW219557   0.619   2.438   5.153
 6220SOL     OW19558   2.202   4.637   5.279
 6220SOL    HW119559   2.216   4.543   5.247
 6220SOL    HW219560   2.105   4.651   5.299
 6221SOL     OW19561   3.875   4.875   4.231
 6221SOL    HW119562   3.846   4.875   4.327
 6221SOL    HW219563   3.810   4.929   4.177
 6222SOL     OW19564   6.317   6.802   1.910
 6222SOL    HW119565   6.374   6.787   1.991
 6222SOL    HW219566   6.370   6.786   1.828
 6223SOL     OW19567   5.545   3.000   4.946
 6223SOL    HW119568   5.531   3.093   4.913
 6223SOL    HW219569   5.478   2.939   4.904
 6224SOL     OW19570   2.907   1.683   5.750
 6224SOL    HW119571   2.970   1.748   5.709
 6224SOL    HW219572   2.845   1.647   5.680
 6225SOL     OW19573   3.432   3.007   0.686
 6225SOL    HW119574   3.401   2.964   0.601
 6225SOL    HW219575   3.506   2.952   0.725
 6226SOL     OW19576   5.706   0.556   4.306
 6226SOL    HW119577   5.629   0.493   4.311
 6226SOL    HW219578   5.704   0.604   4.218
 6227SOL     OW19579   3.491   4.633   5.908
 6227SOL    HW119580   3.443   4.607   5.824
 6227SOL    HW219581   3.527   4.552   5.953
 6228SOL     OW19582   0.196   1.238   3.344
 6228SOL    HW119583   0.262   1.272   3.277
 6228SOL    HW219584   0.104   1.267   3.318
 6229SOL     OW19585   2.361   2.763   2.556
 6229SOL    HW119586   2.339   2.851   2.597
 6229SOL    HW219587   2.409   2.706   2.622
 6230SOL     OW19588   2.324   2.262   3.856
 6230SOL    HW119589   2.396   2.197   3.833
 6230SOL    HW219590   2.314   2.267   3.956
 6231SOL     OW19591   0.072   5.541   1.535
 6231SOL    HW119592   0.070   5.441   1.530
 6231SOL    HW219593   0.130   5.577   1.461
 6232SOL     OW19594   0.332   0.725   0.366
 6232SOL    HW119595   0.337   0.702   0.269
 6232SOL    HW219596   0.324   0.824   0.377
 6233SOL     OW19597   4.425   2.463   6.712
 6233SOL    HW119598   4.393   2.420   6.797
 6233SOL    HW219599   4.441   2.560   6.728
 6234SOL     OW19600   1.863   1.729   4.300
 6234SOL    HW119601   1.880   1.709   4.396
 6234SOL    HW219602   1.908   1.814   4.275
 6235SOL     OW19603   2.102   0.302   2.221
 6235SOL    HW119604   2.107   0.304   2.121
 6235SOL    HW219605   2.154   0.378   2.258
 6236SOL     OW19606   6.920   4.019   0.812
 6236SOL    HW119607   6.990   4.037   0.882
 6236SOL    HW219608   6.963   3.975   0.733
 6237SOL     OW19609   4.253   6.803   1.210
 6237SOL    HW119610   4.318   6.792   1.136
 6237SOL    HW219611   4.253   6.899   1.240
 6238SOL     OW19612   4.981   5.477   1.218
 6238SOL    HW119613   5.056   5.431   1.266
 6238SOL    HW219614   4.895   5.430   1.237
 6239SOL     OW19615   2.261   6.799   2.759
 6239SOL    HW119616   2.349   6.769   2.797
 6239SOL    HW219617   2.274   6.827   2.664
 6240SOL     OW19618   1.519   3.418   0.490
 6240SOL    HW119619   1.584   3.422   0.565
 6240SOL    HW219620   1.435   3.373   0.522
 6241SOL     OW19621   3.221   0.063   1.403
 6241SOL    HW119622   3.141   0.002   1.400
 6241SOL    HW219623   3.296   0.017   1.451
 6242SOL     OW19624   4.858   2.494   4.003
 6242SOL    HW119625   4.924   2.496   3.928
 6242SOL    HW219626   4.783   2.431   3.979
 6243SOL     OW19627   5.631   6.113   4.324
 6243SOL    HW119628   5.560   6.159   4.377
 6243SOL    HW219629   5.590   6.051   4.259
 6244SOL     OW19630   2.825   1.985   2.047
 6244SOL    HW119631   2.801   2.082   2.058
 6244SOL    HW219632   2.815   1.938   2.135
 6245SOL     OW19633   3.136   4.969   1.397
 6245SOL    HW119634   3.089   5.054   1.420
 6245SOL    HW219635   3.090   4.892   1.441
 6246SOL     OW19636   2.929   2.550   5.583
 6246SOL    HW119637   2.958   2.513   5.672
 6246SOL    HW219638   2.987   2.513   5.511
 6247SOL     OW19639   0.289   6.544   3.078
 6247SOL    HW119640   0.337   6.603   3.013
 6247SOL    HW219641   0.354   6.485   3.124
 6248SOL     OW19642   0.933   5.051   1.328
 6248SOL    HW119643   0.874   4.999   1.266
 6248SOL    HW219644   1.028   5.020   1.318
 6249SOL     OW19645   0.016   4.002   0.395
 6249SOL    HW119646   6.944   4.018   0.397
 6249SOL    HW219647   0.051   3.997   0.489
 6250SOL     OW19648   6.129   6.414   0.151
 6250SOL    HW119649   6.099   6.439   0.244
 6250SOL    HW219650   6.158   6.495   0.102
 6251SOL     OW19651   4.510   1.651   0.463
 6251SOL    HW119652   4.426   1.650   0.517
 6251SOL    HW219653   4.498   1.594   0.382
 6252SOL     OW19654   3.034   6.039   4.958
 6252SOL    HW119655   2.968   5.963   4.959
 6252SOL    HW219656   3.116   6.010   4.909
 6253SOL     OW19657   2.358   3.771   1.743
 6253SOL    HW119658   2.265   3.759   1.779
 6253SOL    HW219659   2.385   3.867   1.752
 6254SOL     OW19660   5.796   6.961   0.246
 6254SOL    HW119661   5.706   6.938   0.282
 6254SOL    HW219662   5.834   0.011   0.297
 6255SOL     OW19663   0.323   1.187   2.403
 6255SOL    HW119664   0.322   1.235   2.491
 6255SOL    HW219665   0.389   1.230   2.342
 6256SOL     OW19666   3.720   4.910   2.696
 6256SOL    HW119667   3.728   5.009   2.710
 6256SOL    HW219668   3.763   4.885   2.610
 6257SOL     OW19669   5.540   2.661   0.186
 6257SOL    HW119670   5.471   2.733   0.184
 6257SOL    HW219671   5.585   2.659   0.275
 6258SOL     OW19672   4.358   2.155   1.913
 6258SOL    HW119673   4.263   2.151   1.885
 6258SOL    HW219674   4.365   2.201   2.002
 6259SOL     OW19675   2.957   2.277   1.650
 6259SOL    HW119676   2.872   2.224   1.647
 6259SOL    HW219677   2.965   2.323   1.739
 6260SOL     OW19678   3.530   4.157   0.153
 6260SOL    HW119679   3.555   4.061   0.144
 6260SOL    HW219680   3.563   4.208   0.073
 6261SOL     OW19681   4.270   1.289   0.432
 6261SOL    HW119682   4.298   1.209   0.379
 6261SOL    HW219683   4.280   1.371   0.376
 6262SOL     OW19684   1.139   4.682   6.677
 6262SOL    HW119685   1.186   4.686   6.765
 6262SOL    HW219686   1.206   4.679   6.603
 6263SOL     OW19687   0.033   6.685   0.784
 6263SOL    HW119688   7.010   6.748   0.726
 6263SOL    HW219689   0.130   6.710   0.786
 6264SOL     OW19690   2.619   1.862   0.181
 6264SOL    HW119691   2.669   1.946   0.202
 6264SOL    HW219692   2.645   1.790   0.246
 6265SOL     OW19693   3.781   3.721   1.224
 6265SOL    HW119694   3.837   3.762   1.296
 6265SOL    HW219695   3.733   3.641   1.260
 6266SOL     OW19696   3.361   0.642   3.020
 6266SOL    HW119697   3.362   0.742   3.028
 6266SOL    HW219698   3.356   0.616   2.923
 6267SOL     OW19699   3.337   0.244   6.498
 6267SOL    HW119700   3.264   0.245   6.430
 6267SOL    HW219701   3.308   0.192   6.578
 6268SOL     OW19702   3.451   4.885   2.854
 6268SOL    HW119703   3.478   4.921   2.943
 6268SOL    HW219704   3.532   4.850   2.807
 6269SOL     OW19705   5.760   5.499   1.374
 6269SOL    HW119706   5.800   5.584   1.409
 6269SOL    HW219707   5.687   5.521   1.310
 6270SOL     OW19708   0.995   0.315   4.693
 6270SOL    HW119709   1.000   0.309   4.594
 6270SOL    HW219710   0.951   0.401   4.720
 6271SOL     OW19711   0.018   1.368   0.432
 6271SOL    HW119712   0.047   1.464   0.438
 6271SOL    HW219713   6.948   1.365   0.408
 6272SOL     OW19714   2.136   2.361   3.698
 6272SOL    HW119715   2.201   2.313   3.757
 6272SOL    HW219716   2.159   2.343   3.602
 6273SOL     OW19717   2.967   1.450   1.353
 6273SOL    HW119718   3.014   1.468   1.440
 6273SOL    HW219719   2.946   1.537   1.308
 6274SOL     OW19720   3.354   6.522   5.867
 6274SOL    HW119721   3.372   6.426   5.848
 6274SOL    HW219722   3.385   6.544   5.960
 6275SOL     OW19723   1.767   0.247   4.375
 6275SOL    HW119724   1.775   0.346   4.387
 6275SOL    HW219725   1.694   0.213   4.434
 6276SOL     OW19726   1.590   5.711   4.048
 6276SOL    HW119727   1.662   5.645   4.071
 6276SOL    HW219728   1.501   5.665   4.049
 6277SOL     OW19729   4.959   2.920   2.909
 6277SOL    HW119730   4.861   2.903   2.918
 6277SOL    HW219731   5.009   2.835   2.923
 6278SOL     OW19732   5.122   0.218   3.976
 6278SOL    HW119733   5.174   0.270   4.044
 6278SOL    HW219734   5.099   0.128   4.013
 6279SOL     OW19735   3.953   1.824   0.651
 6279SOL    HW119736   4.045   1.861   0.658
 6279SOL    HW219737   3.918   1.804   0.742
 6280SOL     OW19738   0.156   4.247   5.723
 6280SOL    HW119739   0.170   4.215   5.817
 6280SOL    HW219740   0.242   4.243   5.673
 6281SOL     OW19741   2.510   0.535   5.105
 6281SOL    HW119742   2.541   0.440   5.101
 6281SOL    HW219743   2.411   0.537   5.113
 6282SOL     OW19744   2.558   6.664   4.498
 6282SOL    HW119745   2.472   6.648   4.449
 6282SOL    HW219746   2.617   6.724   4.443
 6283SOL     OW19747   7.016   2.639   5.197
 6283SOL    HW119748   7.006   2.735   5.172
 6283SOL    HW219749   6.997   2.581   5.117
 6284SOL     OW19750   1.054   4.371   5.351
 6284SOL    HW119751   1.116   4.412   5.418
 6284SOL    HW219752   1.038   4.436   5.277
 6285SOL     OW19753   1.574   3.467   3.099
 6285SOL    HW119754   1.579   3.413   3.182
 6285SOL    HW219755   1.665   3.478   3.060
 6286SOL     OW19756   5.802   1.009   3.444
 6286SOL    HW119757   5.732   0.940   3.465
 6286SOL    HW219758   5.768   1.070   3.372
 6287SOL     OW19759   4.857   4.249   1.739
 6287SOL    HW119760   4.944   4.200   1.739
 6287SOL    HW219761   4.836   4.279   1.831
 6288SOL     OW19762   5.466   3.751   0.154
 6288SOL    HW119763   5.386   3.738   0.213
 6288SOL    HW219764   5.500   3.662   0.123
 6289SOL     OW19765   1.642   1.640   3.977
 6289SOL    HW119766   1.648   1.541   3.972
 6289SOL    HW219767   1.733   1.680   3.975
 6290SOL     OW19768   4.936   4.144   3.434
 6290SOL    HW119769   4.904   4.229   3.475
 6290SOL    HW219770   4.900   4.135   3.341
 6291SOL     OW19771   3.465   4.009   3.528
 6291SOL    HW119772   3.475   4.048   3.619
 6291SOL    HW219773   3.472   3.909   3.534
 6292SOL     OW19774   1.545   1.447   2.171
 6292SOL    HW119775   1.570   1.391   2.250
 6292SOL    HW219776   1.610   1.429   2.096
 6293SOL     OW19777   4.581   6.858   0.484
 6293SOL    HW119778   4.654   6.883   0.421
 6293SOL    HW219779   4.519   6.935   0.496
 6294SOL     OW19780   4.160   5.060   3.178
 6294SOL    HW119781   4.192   5.014   3.261
 6294SOL    HW219782   4.148   5.158   3.197
 6295SOL     OW19783   6.200   6.082   6.196
 6295SOL    HW119784   6.236   6.156   6.139
 6295SOL    HW219785   6.108   6.057   6.164
 6296SOL     OW19786   6.181   0.886   3.171
 6296SOL    HW119787   6.246   0.887   3.095
 6296SOL    HW219788   6.159   0.979   3.197
 6297SOL     OW19789   5.869   6.192   5.987
 6297SOL    HW119790   5.885   6.126   6.060
 6297SOL    HW219791   5.842   6.280   6.028
 6298SOL     OW19792   0.521   3.132   5.038
 6298SOL    HW119793   0.513   3.188   5.121
 6298SOL    HW219794   0.556   3.188   4.963
 6299SOL     OW19795   6.434   3.109   6.692
 6299SOL    HW119796   6.369   3.176   6.726
 6299SOL    HW219797   6.386   3.040   6.638
 6300SOL     OW19798   4.995   0.935   3.534
 6300SOL    HW119799   5.054   1.016   3.528
 6300SOL    HW219800   5.051   0.853   3.530
 6301SOL     OW19801   3.245   6.689   0.604
 6301SOL    HW119802   3.239   6.644   0.693
 6301SOL    HW219803   3.243   6.788   0.616
 6302SOL     OW19804   1.617   1.069   3.242
 6302SOL    HW119805   1.554   1.147   3.240
 6302SOL    HW219806   1.588   1.002   3.173
 6303SOL     OW19807   1.557   6.140   4.887
 6303SOL    HW119808   1.627   6.108   4.823
 6303SOL    HW219809   1.479   6.175   4.836
 6304SOL     OW19810   2.945   1.450   6.906
 6304SOL    HW119811   2.962   1.513   6.981
 6304SOL    HW219812   2.983   1.361   6.928
 6305SOL     OW19813   6.646   6.917   1.527
 6305SOL    HW119814   6.573   6.915   1.458
 6305SOL    HW219815   6.630   6.845   1.595
 6306SOL     OW19816   6.483   2.885   3.660
 6306SOL    HW119817   6.425   2.805   3.673
 6306SOL    HW219818   6.489   2.907   3.563
 6307SOL     OW19819   1.959   5.113   0.077
 6307SOL    HW119820   1.908   5.155   0.003
 6307SOL    HW219821   2.030   5.053   0.039
 6308SOL     OW19822   3.065   1.821   5.212
 6308SOL    HW119823   3.135   1.779   5.270
 6308SOL    HW219824   3.070   1.921   5.220
 6309SOL     OW19825   5.432   1.897   3.853
 6309SOL    HW119826   5.448   1.994   3.873
 6309SOL    HW219827   5.334   1.878   3.856
 6310SOL     OW19828   1.358   4.566   4.558
 6310SOL    HW119829   1.438   4.530   4.510
 6310SOL    HW219830   1.378   4.571   4.656
 6311SOL     OW19831   5.904   0.463   4.697
 6311SOL    HW119832   5.823   0.504   4.655
 6311SOL    HW219833   5.876   0.382   4.749
 6312SOL     OW19834   4.412   5.105   5.561
 6312SOL    HW119835   4.504   5.130   5.593
 6312SOL    HW219836   4.414   5.090   5.463
 6313SOL     OW19837   2.435   5.998   3.235
 6313SOL    HW119838   2.454   5.911   3.191
 6313SOL    HW219839   2.508   6.021   3.300
 6314SOL     OW19840   2.590   6.091   2.437
 6314SOL    HW119841   2.546   6.149   2.506
 6314SOL    HW219842   2.533   6.087   2.355
 6315SOL     OW19843   3.216   4.001   0.246
 6315SOL    HW119844   3.215   4.098   0.223
 6315SOL    HW219845   3.130   3.959   0.218
 6316SOL     OW19846   4.552   2.591   5.722
 6316SOL    HW119847   4.517   2.614   5.631
 6316SOL    HW219848   4.641   2.546   5.714
 6317SOL     OW19849   5.188   6.841   3.800
 6317SOL    HW119850   5.184   6.758   3.745
 6317SOL    HW219851   5.264   6.834   3.865
 6318SOL     OW19852   2.237   2.412   5.105
 6318SOL    HW119853   2.323   2.452   5.072
 6318SOL    HW219854   2.169   2.485   5.117
 6319SOL     OW19855   1.008   1.809   3.385
 6319SOL    HW119856   0.917   1.843   3.361
 6319SOL    HW219857   1.066   1.885   3.413
 6320SOL     OW19858   5.682   3.827   3.126
 6320SOL    HW119859   5.717   3.820   3.033
 6320SOL    HW219860   5.734   3.766   3.186
 6321SOL     OW19861   2.672   4.697   0.470
 6321SOL    HW119862   2.628   4.621   0.423
 6321SOL    HW219863   2.604   4.769   0.487
 6322SOL     OW19864   0.988   1.118   6.571
 6322SOL    HW119865   0.972   1.063   6.654
 6322SOL    HW219866   1.087   1.128   6.557
 6323SOL     OW19867   3.588   2.669   0.616
 6323SOL    HW119868   3.592   2.710   0.525
 6323SOL    HW219869   3.656   2.595   0.622
 6324SOL     OW19870   4.137   1.344   6.087
 6324SOL    HW119871   4.233   1.318   6.100
 6324SOL    HW219872   4.089   1.337   6.174
 6325SOL     OW19873   0.759   2.336   2.470
 6325SOL    HW119874   0.846   2.344   2.519
 6325SOL    HW219875   0.741   2.420   2.420
 6326SOL     OW19876   5.127   5.756   1.466
 6326SOL    HW119877   5.092   5.808   1.545
 6326SOL    HW219878   5.062   5.763   1.391
 6327SOL     OW19879   5.898   5.496   5.707
 6327SOL    HW119880   5.836   5.522   5.781
 6327SOL    HW219881   5.845   5.473   5.626
 6328SOL     OW19882   2.835   4.059   6.682
 6328SOL    HW119883   2.842   4.142   6.626
 6328SOL    HW219884   2.788   3.988   6.630
 6329SOL     OW19885   1.188   1.561   2.978
 6329SOL    HW119886   1.219   1.598   2.890
 6329SOL    HW219887   1.143   1.634   3.030
 6330SOL     OW19888   3.975   1.425   0.217
 6330SOL    HW119889   3.885   1.392   0.246
 6330SOL    HW219890   3.985   1.521   0.244
 6331SOL     OW19891   6.408   2.275   1.570
 6331SOL    HW119892   6.501   2.265   1.605
 6331SOL    HW219893   6.406   2.250   1.473
 6332SOL     OW19894   6.210   5.292   1.546
 6332SOL    HW119895   6.193   5.388   1.567
 6332SOL    HW219896   6.282   5.284   1.477
 6333SOL     OW19897   3.296   4.856   3.457
 6333SOL    HW119898   3.395   4.867   3.450
 6333SOL    HW219899   3.264   4.797   3.383
 6334SOL     OW19900   2.168   0.839   2.093
 6334SOL    HW119901   2.244   0.873   2.037
 6334SOL    HW219902   2.146   0.745   2.067
 6335SOL     OW19903   6.694   1.150   6.414
 6335SOL    HW119904   6.761   1.221   6.392
 6335SOL    HW219905   6.682   1.090   6.334
 6336SOL     OW19906   6.505   2.466   4.440
 6336SOL    HW119907   6.461   2.484   4.352
 6336SOL    HW219908   6.592   2.516   4.445
 6337SOL     OW19909   5.902   4.293   5.592
 6337SOL    HW119910   5.966   4.308   5.516
 6337SOL    HW219911   5.853   4.379   5.610
 6338SOL     OW19912   3.790   1.143   2.920
 6338SOL    HW119913   3.881   1.140   2.960
 6338SOL    HW219914   3.781   1.071   2.852
 6339SOL     OW19915   0.385   1.877   4.023
 6339SOL    HW119916   0.399   1.895   3.926
 6339SOL    HW219917   0.442   1.800   4.051
 6340SOL     OW19918   2.578   5.492   4.033
 6340SOL    HW119919   2.532   5.558   3.973
 6340SOL    HW219920   2.517   5.417   4.054
 6341SOL     OW19921   0.050   4.355   3.391
 6341SOL    HW119922   0.003   4.416   3.328
 6341SOL    HW219923   0.146   4.383   3.399
 6342SOL     OW19924   1.268   2.329   1.063
 6342SOL    HW119925   1.201   2.366   1.127
 6342SOL    HW219926   1.220   2.275   0.993
 6343SOL     OW19927   3.718   1.367   0.011
 6343SOL    HW119928   3.796   1.306   0.004
 6343SOL    HW219929   3.646   1.337   6.975
 6344SOL     OW19930   0.781   4.283   4.554
 6344SOL    HW119931   0.801   4.314   4.647
 6344SOL    HW219932   0.698   4.227   4.555
 6345SOL     OW19933   3.938   1.194   2.342
 6345SOL    HW119934   3.989   1.208   2.257
 6345SOL    HW219935   3.934   1.279   2.393
 6346SOL     OW19936   0.558   3.848   3.793
 6346SOL    HW119937   0.562   3.757   3.751
 6346SOL    HW219938   0.505   3.843   3.877
 6347SOL     OW19939   3.163   6.914   0.895
 6347SOL    HW119940   3.179   6.917   0.796
 6347SOL    HW219941   3.118   6.998   0.924
 6348SOL     OW19942   0.579   2.931   4.082
 6348SOL    HW119943   0.523   2.892   4.155
 6348SOL    HW219944   0.544   3.022   4.058
 6349SOL     OW19945   2.906   1.004   0.570
 6349SOL    HW119946   2.950   0.935   0.513
 6349SOL    HW219947   2.872   0.962   0.654
 6350SOL     OW19948   1.526   6.052   2.344
 6350SOL    HW119949   1.624   6.059   2.324
 6350SOL    HW219950   1.496   6.134   2.393
 6351SOL     OW19951   0.220   1.404   2.586
 6351SOL    HW119952   0.187   1.462   2.661
 6351SOL    HW219953   0.268   1.460   2.519
 6352SOL     OW19954   0.619   5.349   2.430
 6352SOL    HW119955   0.583   5.307   2.347
 6352SOL    HW219956   0.642   5.445   2.412
 6353SOL     OW19957   0.471   0.155   1.090
 6353SOL    HW119958   0.475   0.057   1.110
 6353SOL    HW219959   0.416   0.170   1.008
 6354SOL     OW19960   0.816   6.720   3.096
 6354SOL    HW119961   0.840   6.655   3.169
 6354SOL    HW219962   0.817   6.813   3.133
 6355SOL     OW19963   1.825   2.646   3.099
 6355SOL    HW119964   1.870   2.720   3.049
 6355SOL    HW219965   1.785   2.581   3.034
 6356SOL     OW19966   3.677   3.958   1.384
 6356SOL    HW119967   3.678   3.957   1.484
 6356SOL    HW219968   3.635   3.873   1.351
 6357SOL     OW19969   4.133   1.992   0.319
 6357SOL    HW119970   4.040   2.028   0.327
 6357SOL    HW219971   4.174   2.027   0.234
 6358SOL     OW19972   0.408   2.053   3.370
 6358SOL    HW119973   0.458   2.124   3.320
 6358SOL    HW219974   0.439   2.051   3.465
 6359SOL     OW19975   6.857   0.514   6.499
 6359SOL    HW119976   6.796   0.466   6.562
 6359SOL    HW219977   6.803   0.574   6.439
 6360SOL     OW19978   3.165   5.493   3.816
 6360SOL    HW119979   3.264   5.490   3.799
 6360SOL    HW219980   3.134   5.403   3.848
 6361SOL     OW19981   4.441   6.033   6.053
 6361SOL    HW119982   4.443   6.109   5.988
 6361SOL    HW219983   4.345   6.010   6.072
 6362SOL     OW19984   6.026   5.183   6.487
 6362SOL    HW119985   6.101   5.246   6.507
 6362SOL    HW219986   5.984   5.153   6.573
 6363SOL     OW19987   1.653   5.797   4.317
 6363SOL    HW119988   1.752   5.786   4.316
 6363SOL    HW219989   1.618   5.798   4.223
 6364SOL     OW19990   2.267   2.806   5.850
 6364SOL    HW119991   2.297   2.867   5.923
 6364SOL    HW219992   2.346   2.772   5.800
 6365SOL     OW19993   4.739   6.575   3.128
 6365SOL    HW119994   4.740   6.675   3.117
 6365SOL    HW219995   4.654   6.539   3.089
 6366SOL     OW19996   0.488   5.826   5.400
 6366SOL    HW119997   0.501   5.882   5.482
 6366SOL    HW219998   0.417   5.867   5.343
 6367SOL     OW19999   5.132   6.755   4.166
 6367SOL    HW120000   5.134   6.695   4.246
 6367SOL    HW220001   5.123   6.850   4.196
 6368SOL     OW20002   3.142   6.915   4.657
 6368SOL    HW120003   3.055   6.956   4.684
 6368SOL    HW220004   3.154   6.925   4.558
 6369SOL     OW20005   2.592   5.011   4.191
 6369SOL    HW120006   2.590   5.082   4.262
 6369SOL    HW220007   2.638   4.930   4.227
 6370SOL     OW20008   6.026   2.301   1.161
 6370SOL    HW120009   5.928   2.289   1.176
 6370SOL    HW220010   6.057   2.236   1.091
 6371SOL     OW20011   4.640   2.199   2.331
 6371SOL    HW120012   4.555   2.196   2.278
 6371SOL    HW220013   4.654   2.111   2.376
 6372SOL     OW20014   3.360   6.075   2.232
 6372SOL    HW120015   3.265   6.088   2.262
 6372SOL    HW220016   3.378   6.132   2.152
 6373SOL     OW20017   4.408   4.141   6.378
 6373SOL    HW120018   4.340   4.069   6.363
 6373SOL    HW220019   4.361   4.229   6.391
 6374SOL     OW20020   3.004   3.243   2.781
 6374SOL    HW120021   3.039   3.153   2.758
 6374SOL    HW220022   2.983   3.247   2.879
 6375SOL     OW20023   1.445   6.297   2.489
 6375SOL    HW120024   1.433   6.385   2.444
 6375SOL    HW220025   1.526   6.301   2.548
 6376SOL     OW20026   6.712   2.376   5.119
 6376SOL    HW120027   6.624   2.413   5.090
 6376SOL    HW220028   6.785   2.408   5.058
 6377SOL     OW20029   0.459   1.275   4.426
 6377SOL    HW120030   0.519   1.344   4.385
 6377SOL    HW220031   0.508   1.229   4.500
 6378SOL     OW20032   4.739   4.198   4.122
 6378SOL    HW120033   4.780   4.211   4.031
 6378SOL    HW220034   4.666   4.264   4.136
 6379SOL     OW20035   2.316   4.253   3.643
 6379SOL    HW120036   2.270   4.291   3.563
 6379SOL    HW220037   2.415   4.266   3.635
 6380SOL     OW20038   0.491   0.615   6.246
 6380SOL    HW120039   0.512   0.697   6.194
 6380SOL    HW220040   0.560   0.601   6.317
 6381SOL     OW20041   3.081   3.949   3.012
 6381SOL    HW120042   3.096   3.962   2.914
 6381SOL    HW220043   3.138   4.014   3.063
 6382SOL     OW20044   1.099   3.431   5.906
 6382SOL    HW120045   1.128   3.347   5.952
 6382SOL    HW220046   1.077   3.411   5.810
 6383SOL     OW20047   2.354   1.594   4.086
 6383SOL    HW120048   2.434   1.536   4.096
 6383SOL    HW220049   2.326   1.628   4.176
 6384SOL     OW20050   6.877   4.505   2.658
 6384SOL    HW120051   6.921   4.499   2.569
 6384SOL    HW220052   6.784   4.469   2.652
 6385SOL     OW20053   0.726   5.220   4.759
 6385SOL    HW120054   0.671   5.267   4.690
 6385SOL    HW220055   0.800   5.169   4.714
 6386SOL     OW20056   2.678   4.791   1.232
 6386SOL    HW120057   2.606   4.856   1.255
 6386SOL    HW220058   2.663   4.706   1.281
 6387SOL     OW20059   6.401   1.175   5.209
 6387SOL    HW120060   6.468   1.128   5.150
 6387SOL    HW220061   6.377   1.116   5.286
 6388SOL     OW20062   3.119   4.895   2.371
 6388SOL    HW120063   3.193   4.949   2.411
 6388SOL    HW220064   3.152   4.849   2.288
 6389SOL     OW20065   1.467   5.464   3.431
 6389SOL    HW120066   1.522   5.384   3.455
 6389SOL    HW220067   1.485   5.491   3.337
 6390SOL     OW20068   0.793   2.892   3.915
 6390SOL    HW120069   0.720   2.908   3.981
 6390SOL    HW220070   0.848   2.813   3.944
 6391SOL     OW20071   2.908   1.755   0.368
 6391SOL    HW120072   2.951   1.665   0.362
 6391SOL    HW220073   2.810   1.746   0.355
 6392SOL     OW20074   1.836   6.392   4.053
 6392SOL    HW120075   1.842   6.307   4.105
 6392SOL    HW220076   1.825   6.370   3.956
 6393SOL     OW20077   6.366   5.990   0.107
 6393SOL    HW120078   6.443   6.050   0.127
 6393SOL    HW220079   6.340   5.941   0.191
 6394SOL     OW20080   2.147   4.935   7.017
 6394SOL    HW120081   2.206   4.867   0.033
 6394SOL    HW220082   2.197   4.980   6.943
 6395SOL     OW20083   6.131   1.368   0.780
 6395SOL    HW120084   6.215   1.347   0.829
 6395SOL    HW220085   6.143   1.450   0.724
 6396SOL     OW20086   4.993   4.157   5.684
 6396SOL    HW120087   5.035   4.246   5.670
 6396SOL    HW220088   5.007   4.127   5.778
 6397SOL     OW20089   6.658   1.299   0.772
 6397SOL    HW120090   6.707   1.235   0.714
 6397SOL    HW220091   6.561   1.274   0.775
 6398SOL     OW20092   3.229   1.597   1.121
 6398SOL    HW120093   3.296   1.666   1.148
 6398SOL    HW220094   3.261   1.507   1.149
 6399SOL     OW20095   2.296   5.630   6.568
 6399SOL    HW120096   2.351   5.646   6.487
 6399SOL    HW220097   2.199   5.626   6.543
 6400SOL     OW20098   2.592   6.016   3.446
 6400SOL    HW120099   2.646   6.097   3.466
 6400SOL    HW220100   2.627   5.938   3.499
 6401SOL     OW20101   0.628   4.533   3.962
 6401SOL    HW120102   0.635   4.479   4.047
 6401SOL    HW220103   0.550   4.595   3.969
 6402SOL     OW20104   2.421   0.949   3.034
 6402SOL    HW120105   2.512   0.982   3.058
 6402SOL    HW220106   2.377   1.013   2.971
 6403SOL     OW20107   0.924   5.176   6.922
 6403SOL    HW120108   0.872   5.152   7.004
 6403SOL    HW220109   0.983   5.100   6.896
 6404SOL     OW20110   5.513   1.393   3.332
 6404SOL    HW120111   5.543   1.469   3.274
 6404SOL    HW220112   5.415   1.379   3.320
 6405SOL     OW20113   2.623   1.479   2.627
 6405SOL    HW120114   2.588   1.567   2.597
 6405SOL    HW220115   2.711   1.461   2.584
 6406SOL     OW20116   2.350   1.209   4.199
 6406SOL    HW120117   2.296   1.272   4.255
 6406SOL    HW220118   2.446   1.215   4.226
 6407SOL     OW20119   3.457   5.615   5.767
 6407SOL    HW120120   3.450   5.535   5.708
 6407SOL    HW220121   3.409   5.597   5.853
 6408SOL     OW20122   5.378   1.461   6.562
 6408SOL    HW120123   5.290   1.415   6.573
 6408SOL    HW220124   5.367   1.559   6.582
 6409SOL     OW20125   0.413   3.928   2.365
 6409SOL    HW120126   0.513   3.933   2.369
 6409SOL    HW220127   0.382   3.957   2.274
 6410SOL     OW20128   1.623   1.660   0.500
 6410SOL    HW120129   1.690   1.725   0.466
 6410SOL    HW220130   1.585   1.693   0.587
 6411SOL     OW20131   0.765   1.155   3.420
 6411SOL    HW120132   0.738   1.173   3.515
 6411SOL    HW220133   0.857   1.115   3.420
 6412SOL     OW20134   0.378   2.695   5.541
 6412SOL    HW120135   0.281   2.717   5.546
 6412SOL    HW220136   0.416   2.730   5.456
 6413SOL     OW20137   6.746   4.577   0.785
 6413SOL    HW120138   6.812   4.650   0.803
 6413SOL    HW220139   6.773   4.527   0.703
 6414SOL     OW20140   6.400   6.890   2.557
 6414SOL    HW120141   6.306   6.873   2.585
 6414SOL    HW220142   6.454   6.920   2.635
 6415SOL     OW20143   1.838   1.365   1.526
 6415SOL    HW120144   1.904   1.441   1.531
 6415SOL    HW220145   1.824   1.340   1.430
 6416SOL     OW20146   1.544   0.601   6.536
 6416SOL    HW120147   1.550   0.614   6.634
 6416SOL    HW220148   1.455   0.632   6.503
 6417SOL     OW20149   0.889   0.033   3.431
 6417SOL    HW120150   0.889   0.001   3.526
 6417SOL    HW220151   0.976   0.012   3.388
 6418SOL     OW20152   7.026   6.133   2.302
 6418SOL    HW120153   0.074   6.068   2.316
 6418SOL    HW220154   0.036   6.216   2.259
 6419SOL     OW20155   3.471   5.030   1.408
 6419SOL    HW120156   3.419   5.102   1.453
 6419SOL    HW220157   3.566   5.057   1.400
 6420SOL     OW20158   2.092   4.407   6.374
 6420SOL    HW120159   2.156   4.479   6.399
 6420SOL    HW220160   2.015   4.446   6.322
 6421SOL     OW20161   5.962   1.226   1.606
 6421SOL    HW120162   5.868   1.208   1.578
 6421SOL    HW220163   6.025   1.173   1.550
 6422SOL     OW20164   6.269   1.632   3.310
 6422SOL    HW120165   6.352   1.585   3.279
 6422SOL    HW220166   6.289   1.729   3.326
 6423SOL     OW20167   4.965   3.659   0.595
 6423SOL    HW120168   5.012   3.734   0.641
 6423SOL    HW220169   5.010   3.642   0.506
 6424SOL     OW20170   6.754   4.276   5.929
 6424SOL    HW120171   6.760   4.375   5.919
 6424SOL    HW220172   6.659   4.246   5.919
 6425SOL     OW20173   0.747   4.893   2.226
 6425SOL    HW120174   0.784   4.973   2.178
 6425SOL    HW220175   0.653   4.912   2.254
 6426SOL     OW20176   0.997   2.436   3.760
 6426SOL    HW120177   1.069   2.442   3.829
 6426SOL    HW220178   0.921   2.496   3.787
 6427SOL     OW20179   1.290   3.536   5.541
 6427SOL    HW120180   1.255   3.627   5.518
 6427SOL    HW220181   1.308   3.531   5.639
 6428SOL     OW20182   0.062   3.145   1.974
 6428SOL    HW120183   7.018   3.170   2.039
 6428SOL    HW220184   0.120   3.073   2.013
 6429SOL     OW20185   1.262   0.208   3.990
 6429SOL    HW120186   1.196   0.210   3.915
 6429SOL    HW220187   1.330   0.137   3.973
 6430SOL     OW20188   5.714   2.267   1.118
 6430SOL    HW120189   5.672   2.214   1.192
 6430SOL    HW220190   5.732   2.206   1.041
 6431SOL     OW20191   5.392   6.521   2.658
 6431SOL    HW120192   5.311   6.468   2.686
 6431SOL    HW220193   5.468   6.499   2.719
 6432SOL     OW20194   4.861   3.347   0.886
 6432SOL    HW120195   4.836   3.435   0.845
 6432SOL    HW220196   4.897   3.286   0.816
 6433SOL     OW20197   2.952   4.081   1.489
 6433SOL    HW120198   2.901   4.032   1.418
 6433SOL    HW220199   2.990   4.015   1.554
 6434SOL     OW20200   1.245   3.929   0.576
 6434SOL    HW120201   1.284   4.021   0.583
 6434SOL    HW220202   1.204   3.917   0.486
 6435SOL     OW20203   4.395   4.255   6.784
 6435SOL    HW120204   4.377   4.240   6.881
 6435SOL    HW220205   4.379   4.351   6.762
 6436SOL     OW20206   1.687   2.833   3.652
 6436SOL    HW120207   1.683   2.734   3.663
 6436SOL    HW220208   1.781   2.865   3.665
 6437SOL     OW20209   1.488   0.153   6.551
 6437SOL    HW120210   1.501   0.067   6.502
 6437SOL    HW220211   1.519   0.229   6.493
 6438SOL     OW20212   0.799   3.920   3.937
 6438SOL    HW120213   0.721   3.902   3.876
 6438SOL    HW220214   0.844   3.834   3.959
 6439SOL     OW20215   1.174   0.009   1.445
 6439SOL    HW120216   1.094   0.069   1.450
 6439SOL    HW220217   1.200   7.023   1.349
 6440SOL     OW20218   1.415   1.562   2.537
 6440SOL    HW120219   1.357   1.642   2.524
 6440SOL    HW220220   1.503   1.577   2.493
 6441SOL     OW20221   1.809   0.942   3.812
 6441SOL    HW120222   1.849   1.034   3.804
 6441SOL    HW220223   1.767   0.916   3.726
 6442SOL     OW20224   2.548   2.050   4.371
 6442SOL    HW120225   2.591   1.967   4.404
 6442SOL    HW220226   2.618   2.120   4.355
 6443SOL     OW20227   2.616   2.050   0.400
 6443SOL    HW120228   2.568   1.966   0.375
 6443SOL    HW220229   2.624   2.056   0.500
 6444SOL     OW20230   0.623   1.378   2.913
 6444SOL    HW120231   0.632   1.467   2.867
 6444SOL    HW220232   0.697   1.318   2.882
 6445SOL     OW20233   4.115   2.939   5.308
 6445SOL    HW120234   4.111   3.027   5.355
 6445SOL    HW220235   4.024   2.915   5.275
 6446SOL     OW20236   5.930   1.009   7.000
 6446SOL    HW120237   5.965   0.917   7.018
 6446SOL    HW220238   5.971   1.044   6.916
 6447SOL     OW20239   1.524   0.471   2.037
 6447SOL    HW120240   1.473   0.432   1.961
 6447SOL    HW220241   1.461   0.520   2.098
 6448SOL     OW20242   5.585   2.543   3.465
 6448SOL    HW120243   5.566   2.569   3.371
 6448SOL    HW220244   5.504   2.500   3.505
 6449SOL     OW20245   3.199   3.523   0.759
 6449SOL    HW120246   3.116   3.557   0.804
 6449SOL    HW220247   3.232   3.443   0.808
 6450SOL     OW20248   5.941   3.642   0.691
 6450SOL    HW120249   5.868   3.631   0.759
 6450SOL    HW220250   5.968   3.738   0.687
 6451SOL     OW20251   2.744   5.717   5.177
 6451SOL    HW120252   2.685   5.774   5.121
 6451SOL    HW220253   2.689   5.672   5.248
 6452SOL     OW20254   3.553   6.272   4.002
 6452SOL    HW120255   3.606   6.232   4.076
 6452SOL    HW220256   3.487   6.204   3.968
 6453SOL     OW20257   1.810   6.237   6.419
 6453SOL    HW120258   1.754   6.301   6.471
 6453SOL    HW220259   1.821   6.153   6.471
 6454SOL     OW20260   3.363   1.717   4.367
 6454SOL    HW120261   3.421   1.671   4.434
 6454SOL    HW220262   3.267   1.710   4.395
 6455SOL     OW20263   5.962   2.962   5.102
 6455SOL    HW120264   5.874   3.009   5.097
 6455SOL    HW220265   5.979   2.915   5.016
 6456SOL     OW20266   0.469   0.668   3.232
 6456SOL    HW120267   0.540   0.625   3.176
 6456SOL    HW220268   0.482   0.641   3.327
 6457SOL     OW20269   6.421   2.444   0.904
 6457SOL    HW120270   6.521   2.446   0.902
 6457SOL    HW220271   6.389   2.351   0.884
 6458SOL     OW20272   1.951   5.775   3.435
 6458SOL    HW120273   2.042   5.771   3.477
 6458SOL    HW220274   1.918   5.870   3.436
 6459SOL     OW20275   5.296   4.582   6.864
 6459SOL    HW120276   5.198   4.581   6.883
 6459SOL    HW220277   5.337   4.663   6.904
 6460SOL     OW20278   3.537   4.781   6.301
 6460SOL    HW120279   3.448   4.828   6.298
 6460SOL    HW220280   3.588   4.801   6.218
 6461SOL     OW20281   3.700   5.212   5.091
 6461SOL    HW120282   3.634   5.229   5.164
 6461SOL    HW220283   3.742   5.122   5.104
 6462SOL     OW20284   2.115   3.611   4.946
 6462SOL    HW120285   2.167   3.691   4.918
 6462SOL    HW220286   2.065   3.631   5.030
 6463SOL     OW20287   1.749   4.101   6.109
 6463SOL    HW120288   1.707   4.012   6.128
 6463SOL    HW220289   1.848   4.091   6.103
 6464SOL     OW20290   0.429   5.435   3.062
 6464SOL    HW120291   0.482   5.438   2.977
 6464SOL    HW220292   0.340   5.477   3.047
 6465SOL     OW20293   6.404   1.856   3.319
 6465SOL    HW120294   6.343   1.928   3.355
 6465SOL    HW220295   6.474   1.898   3.262
 6466SOL     OW20296   0.367   2.420   5.394
 6466SOL    HW120297   0.453   2.382   5.361
 6466SOL    HW220298   0.384   2.505   5.444
 6467SOL     OW20299   2.399   1.064   6.457
 6467SOL    HW120300   2.363   1.123   6.529
 6467SOL    HW220301   2.499   1.069   6.456
 6468SOL     OW20302   5.137   6.132   1.299
 6468SOL    HW120303   5.189   6.110   1.382
 6468SOL    HW220304   5.045   6.164   1.326
 6469SOL     OW20305   6.772   1.296   5.759
 6469SOL    HW120306   6.840   1.282   5.687
 6469SOL    HW220307   6.802   1.371   5.819
 6470SOL     OW20308   6.229   6.899   5.820
 6470SOL    HW120309   6.201   6.949   5.902
 6470SOL    HW220310   6.327   6.909   5.806
 6471SOL     OW20311   6.301   4.890   6.629
 6471SOL    HW120312   6.348   4.806   6.602
 6471SOL    HW220313   6.209   4.891   6.590
 6472SOL     OW20314   0.779   6.307   2.087
 6472SOL    HW120315   0.855   6.266   2.138
 6472SOL    HW220316   0.808   6.394   2.048
 6473SOL     OW20317   1.952   1.845   6.377
 6473SOL    HW120318   1.883   1.773   6.371
 6473SOL    HW220319   1.920   1.917   6.439
 6474SOL     OW20320   1.621   3.166   5.007
 6474SOL    HW120321   1.690   3.209   4.948
 6474SOL    HW220322   1.578   3.235   5.064
 6475SOL     OW20323   4.292   6.139   4.162
 6475SOL    HW120324   4.276   6.200   4.239
 6475SOL    HW220325   4.300   6.193   4.078
 6476SOL     OW20326   4.660   4.889   2.467
 6476SOL    HW120327   4.676   4.797   2.431
 6476SOL    HW220328   4.617   4.946   2.397
 6477SOL     OW20329   6.491   5.691   0.764
 6477SOL    HW120330   6.585   5.697   0.796
 6477SOL    HW220331   6.484   5.622   0.692
 6478SOL     OW20332   5.550   6.675   1.877
 6478SOL    HW120333   5.538   6.685   1.778
 6478SOL    HW220334   5.646   6.692   1.900
 6479SOL     OW20335   4.147   5.116   2.337
 6479SOL    HW120336   4.084   5.181   2.379
 6479SOL    HW220337   4.106   5.025   2.338
 6480SOL     OW20338   3.098   2.285   0.131
 6480SOL    HW120339   3.150   2.264   0.213
 6480SOL    HW220340   3.135   2.368   0.089
 6481SOL     OW20341   4.149   1.069   1.408
 6481SOL    HW120342   4.121   1.059   1.313
 6481SOL    HW220343   4.225   1.135   1.413
 6482SOL     OW20344   0.009   0.257   6.763
 6482SOL    HW120345   0.042   0.174   6.809
 6482SOL    HW220346   0.086   0.301   6.717
 6483SOL     OW20347   1.401   6.559   2.408
 6483SOL    HW120348   1.439   6.604   2.327
 6483SOL    HW220349   1.456   6.585   2.488
 6484SOL     OW20350   4.525   0.012   3.468
 6484SOL    HW120351   4.600   0.037   3.408
 6484SOL    HW220352   4.561   7.009   3.556
 6485SOL     OW20353   1.747   2.291   3.105
 6485SOL    HW120354   1.726   2.354   3.029
 6485SOL    HW220355   1.843   2.265   3.101
 6486SOL     OW20356   1.433   3.684   3.675
 6486SOL    HW120357   1.521   3.678   3.722
 6486SOL    HW220358   1.364   3.637   3.730
 6487SOL     OW20359   5.821   6.448   4.510
 6487SOL    HW120360   5.919   6.449   4.491
 6487SOL    HW220361   5.772   6.414   4.430
 6488SOL     OW20362   3.284   5.253   5.478
 6488SOL    HW120363   3.311   5.196   5.556
 6488SOL    HW220364   3.211   5.208   5.428
 6489SOL     OW20365   2.336   1.605   5.366
 6489SOL    HW120366   2.349   1.593   5.465
 6489SOL    HW220367   2.282   1.688   5.350
 6490SOL     OW20368   3.529   1.453   0.593
 6490SOL    HW120369   3.567   1.535   0.636
 6490SOL    HW220370   3.486   1.395   0.663
 6491SOL     OW20371   4.288   2.089   6.286
 6491SOL    HW120372   4.331   2.094   6.196
 6491SOL    HW220373   4.322   2.009   6.336
 6492SOL     OW20374   6.087   6.156   0.195
 6492SOL    HW120375   6.107   6.127   0.289
 6492SOL    HW220376   6.103   6.254   0.186
 6493SOL     OW20377   1.556   6.427   5.986
 6493SOL    HW120378   1.594   6.438   6.078
 6493SOL    HW220379   1.459   6.406   5.993
 6494SOL     OW20380   1.056   0.568   3.458
 6494SOL    HW120381   0.997   0.622   3.397
 6494SOL    HW220382   1.134   0.623   3.486
 6495SOL     OW20383   5.511   5.026   3.103
 6495SOL    HW120384   5.483   5.117   3.133
 6495SOL    HW220385   5.431   4.976   3.069
 6496SOL     OW20386   0.682   6.789   2.596
 6496SOL    HW120387   0.604   6.830   2.643
 6496SOL    HW220388   0.766   6.836   2.624
 6497SOL     OW20389   1.513   4.087   0.382
 6497SOL    HW120390   1.436   4.039   0.339
 6497SOL    HW220391   1.522   4.178   0.341
 6498SOL     OW20392   2.412   4.369   3.914
 6498SOL    HW120393   2.347   4.425   3.862
 6498SOL    HW220394   2.379   4.275   3.918
 6499SOL     OW20395   5.718   1.389   3.530
 6499SOL    HW120396   5.641   1.363   3.471
 6499SOL    HW220397   5.795   1.418   3.473
 6500SOL     OW20398   4.706   4.685   3.778
 6500SOL    HW120399   4.786   4.736   3.811
 6500SOL    HW220400   4.706   4.684   3.678
 6501SOL     OW20401   6.340   4.159   1.342
 6501SOL    HW120402   6.275   4.120   1.408
 6501SOL    HW220403   6.422   4.188   1.390
 6502SOL     OW20404   1.045   4.940   2.918
 6502SOL    HW120405   0.982   5.004   2.873
 6502SOL    HW220406   1.023   4.847   2.890
 6503SOL     OW20407   4.558   6.689   4.478
 6503SOL    HW120408   4.475   6.732   4.514
 6503SOL    HW220409   4.638   6.737   4.513
 6504SOL     OW20410   3.141   0.690   0.673
 6504SOL    HW120411   3.160   0.602   0.717
 6504SOL    HW220412   3.182   0.691   0.582
 6505SOL     OW20413   6.044   4.974   1.289
 6505SOL    HW120414   6.122   4.924   1.329
 6505SOL    HW220415   5.962   4.917   1.296
 6506SOL     OW20416   2.106   3.045   0.937
 6506SOL    HW120417   2.089   3.116   0.869
 6506SOL    HW220418   2.026   3.034   0.996
 6507SOL     OW20419   2.459   6.913   1.783
 6507SOL    HW120420   2.398   6.890   1.707
 6507SOL    HW220421   2.499   7.003   1.768
 6508SOL     OW20422   2.240   1.840   3.244
 6508SOL    HW120423   2.262   1.781   3.323
 6508SOL    HW220424   2.266   1.934   3.265
 6509SOL     OW20425   0.979   2.789   4.665
 6509SOL    HW120426   1.026   2.796   4.577
 6509SOL    HW220427   0.993   2.698   4.704
 6510SOL     OW20428   6.019   4.812   6.650
 6510SOL    HW120429   5.991   4.907   6.661
 6510SOL    HW220430   6.034   4.770   6.740
 6511SOL     OW20431   6.606   6.271   6.429
 6511SOL    HW120432   6.678   6.310   6.373
 6511SOL    HW220433   6.642   6.250   6.520
 6512SOL     OW20434   5.472   6.763   3.538
 6512SOL    HW120435   5.514   6.852   3.555
 6512SOL    HW220436   5.383   6.775   3.494
 6513SOL     OW20437   3.880   6.468   2.621
 6513SOL    HW120438   3.952   6.537   2.634
 6513SOL    HW220439   3.902   6.411   2.543
 6514SOL     OW20440   4.214   0.119   4.211
 6514SOL    HW120441   4.132   0.065   4.192
 6514SOL    HW220442   4.227   0.186   4.138
 6515SOL     OW20443   0.908   7.005   4.920
 6515SOL    HW120444   0.943   0.072   4.917
 6515SOL    HW220445   0.851   6.989   4.839
 6516SOL     OW20446   0.800   1.666   5.209
 6516SOL    HW120447   0.700   1.676   5.203
 6516SOL    HW220448   0.843   1.756   5.202
 6517SOL     OW20449   0.844   1.497   0.168
 6517SOL    HW120450   0.778   1.527   0.237
 6517SOL    HW220451   0.802   1.428   0.110
 6518SOL     OW20452   6.759   6.384   1.526
 6518SOL    HW120453   6.808   6.350   1.607
 6518SOL    HW220454   6.718   6.307   1.477
 6519SOL     OW20455   1.935   2.021   4.205
 6519SOL    HW120456   1.836   2.017   4.219
 6519SOL    HW220457   1.955   2.064   4.118
 6520SOL     OW20458   6.115   5.557   1.591
 6520SOL    HW120459   6.167   5.609   1.523
 6520SOL    HW220460   6.105   5.613   1.674
 6521SOL     OW20461   6.961   1.794   5.048
 6521SOL    HW120462   6.933   1.886   5.078
 6521SOL    HW220463   6.879   1.738   5.034
 6522SOL     OW20464   2.565   5.350   6.121
 6522SOL    HW120465   2.533   5.416   6.053
 6522SOL    HW220466   2.643   5.300   6.085
 6523SOL     OW20467   1.934   1.865   5.923
 6523SOL    HW120468   2.025   1.859   5.883
 6523SOL    HW220469   1.938   1.919   6.007
 6524SOL     OW20470   4.048   3.217   3.715
 6524SOL    HW120471   4.117   3.253   3.653
 6524SOL    HW220472   4.001   3.140   3.673
 6525SOL     OW20473   0.509   2.937   3.589
 6525SOL    HW120474   0.494   2.885   3.505
 6525SOL    HW220475   0.603   2.922   3.621
 6526SOL     OW20476   1.613   6.308   5.136
 6526SOL    HW120477   1.638   6.403   5.116
 6526SOL    HW220478   1.598   6.259   5.050
 6527SOL     OW20479   1.408   6.951   4.933
 6527SOL    HW120480   1.497   6.917   4.963
 6527SOL    HW220481   1.338   6.920   4.998
 6528SOL     OW20482   0.119   1.496   4.455
 6528SOL    HW120483   0.038   1.438   4.441
 6528SOL    HW220484   0.140   1.545   4.371
 6529SOL     OW20485   6.812   1.301   1.838
 6529SOL    HW120486   6.773   1.219   1.881
 6529SOL    HW220487   6.744   1.375   1.841
 6530SOL     OW20488   0.084   1.794   0.264
 6530SOL    HW120489   0.004   1.747   0.226
 6530SOL    HW220490   0.105   1.874   0.208
 6531SOL     OW20491   5.191   2.836   4.092
 6531SOL    HW120492   5.168   2.782   4.011
 6531SOL    HW220493   5.185   2.779   4.174
 6532SOL     OW20494   6.624   1.453   6.296
 6532SOL    HW120495   6.624   1.474   6.198
 6532SOL    HW220496   6.713   1.414   6.321
 6533SOL     OW20497   4.691   0.130   1.166
 6533SOL    HW120498   4.616   0.159   1.107
 6533SOL    HW220499   4.762   0.086   1.111
 6534SOL     OW20500   2.142   4.393   1.026
 6534SOL    HW120501   2.136   4.312   0.967
 6534SOL    HW220502   2.211   4.455   0.991
 6535SOL     OW20503   0.240   3.603   5.136
 6535SOL    HW120504   0.248   3.644   5.226
 6535SOL    HW220505   0.145   3.605   5.107
 6536SOL     OW20506   6.267   2.048   6.916
 6536SOL    HW120507   6.214   1.989   6.977
 6536SOL    HW220508   6.355   2.006   6.895
 6537SOL     OW20509   0.662   6.849   0.204
 6537SOL    HW120510   0.647   6.936   0.251
 6537SOL    HW220511   0.599   6.780   0.240
 6538SOL     OW20512   3.043   3.273   0.128
 6538SOL    HW120513   3.061   3.219   0.045
 6538SOL    HW220514   3.084   3.363   0.119
 6539SOL     OW20515   2.744   1.721   6.690
 6539SOL    HW120516   2.820   1.761   6.638
 6539SOL    HW220517   2.752   1.748   6.786
 6540SOL     OW20518   2.903   1.164   4.955
 6540SOL    HW120519   2.920   1.254   4.995
 6540SOL    HW220520   2.974   1.143   4.888
 6541SOL     OW20521   2.397   2.518   6.096
 6541SOL    HW120522   2.302   2.532   6.067
 6541SOL    HW220523   2.416   2.576   6.175
 6542SOL     OW20524   5.961   4.091   3.923
 6542SOL    HW120525   5.986   4.182   3.891
 6542SOL    HW220526   5.864   4.074   3.905
 6543SOL     OW20527   6.336   6.076   6.625
 6543SOL    HW120528   6.424   6.036   6.600
 6543SOL    HW220529   6.266   6.045   6.561
 6544SOL     OW20530   6.290   6.480   4.239
 6544SOL    HW120531   6.369   6.540   4.243
 6544SOL    HW220532   6.254   6.478   4.146
 6545SOL     OW20533   4.939   1.813   5.389
 6545SOL    HW120534   5.011   1.814   5.319
 6545SOL    HW220535   4.982   1.804   5.479
 6546SOL     OW20536   3.180   4.949   5.671
 6546SOL    HW120537   3.182   4.999   5.757
 6546SOL    HW220538   3.131   5.002   5.602
 6547SOL     OW20539   4.901   2.261   6.592
 6547SOL    HW120540   4.949   2.244   6.506
 6547SOL    HW220541   4.947   2.335   6.642
 6548SOL     OW20542   6.784   4.553   5.865
 6548SOL    HW120543   6.884   4.562   5.859
 6548SOL    HW220544   6.750   4.610   5.940
 6549SOL     OW20545   3.254   2.331   0.789
 6549SOL    HW120546   3.347   2.365   0.801
 6549SOL    HW220547   3.193   2.374   0.856
 6550SOL     OW20548   0.620   5.710   3.270
 6550SOL    HW120549   0.666   5.662   3.195
 6550SOL    HW220550   0.537   5.755   3.235
 6551SOL     OW20551   1.892   4.864   1.738
 6551SOL    HW120552   1.976   4.818   1.710
 6551SOL    HW220553   1.910   4.923   1.817
 6552SOL     OW20554   3.162   5.029   5.367
 6552SOL    HW120555   3.142   4.933   5.386
 6552SOL    HW220556   3.161   5.044   5.268
 6553SOL     OW20557   1.149   3.270   2.679
 6553SOL    HW120558   1.079   3.199   2.669
 6553SOL    HW220559   1.125   3.331   2.754
 6554SOL     OW20560   6.432   2.355   5.388
 6554SOL    HW120561   6.343   2.353   5.433
 6554SOL    HW220562   6.425   2.313   5.297
 6555SOL     OW20563   0.848   1.450   1.631
 6555SOL    HW120564   0.819   1.509   1.555
 6555SOL    HW220565   0.886   1.365   1.594
 6556SOL     OW20566   3.450   6.096   4.519
 6556SOL    HW120567   3.505   6.150   4.455
 6556SOL    HW220568   3.448   6.140   4.608
 6557SOL     OW20569   6.432   5.117   1.143
 6557SOL    HW120570   6.373   5.177   1.197
 6557SOL    HW220571   6.483   5.172   1.076
 6558SOL     OW20572   6.489   5.766   6.858
 6558SOL    HW120573   6.414   5.781   6.922
 6558SOL    HW220574   6.513   5.853   6.814
 6559SOL     OW20575   3.989   3.716   0.791
 6559SOL    HW120576   4.027   3.625   0.807
 6559SOL    HW220577   3.933   3.743   0.869
 6560SOL     OW20578   3.765   2.211   0.160
 6560SOL    HW120579   3.778   2.183   0.255
 6560SOL    HW220580   3.768   2.311   0.153
 6561SOL     OW20581   4.082   3.233   3.108
 6561SOL    HW120582   4.045   3.141   3.095
 6561SOL    HW220583   4.034   3.278   3.183
 6562SOL     OW20584   6.330   4.180   6.171
 6562SOL    HW120585   6.298   4.221   6.257
 6562SOL    HW220586   6.257   4.122   6.134
 6563SOL     OW20587   1.205   5.436   1.696
 6563SOL    HW120588   1.237   5.525   1.665
 6563SOL    HW220589   1.250   5.413   1.783
 6564SOL     OW20590   1.277   4.746   1.922
 6564SOL    HW120591   1.295   4.761   1.825
 6564SOL    HW220592   1.194   4.692   1.933
 6565SOL     OW20593   6.511   2.726   5.452
 6565SOL    HW120594   6.529   2.780   5.535
 6565SOL    HW220595   6.593   2.674   5.428
 6566SOL     OW20596   3.458   6.793   1.009
 6566SOL    HW120597   3.517   6.721   1.046
 6566SOL    HW220598   3.461   6.872   1.070
 6567SOL     OW20599   5.241   2.637   1.194
 6567SOL    HW120600   5.297   2.592   1.263
 6567SOL    HW220601   5.191   2.569   1.141
 6568SOL     OW20602   4.190   4.341   1.416
 6568SOL    HW120603   4.202   4.245   1.391
 6568SOL    HW220604   4.279   4.387   1.415
 6569SOL     OW20605   1.137   4.440   6.922
 6569SOL    HW120606   1.219   4.389   6.950
 6569SOL    HW220607   1.119   4.424   6.825
 6570SOL     OW20608   5.670   2.184   1.560
 6570SOL    HW120609   5.571   2.196   1.546
 6570SOL    HW220610   5.694   2.088   1.545
 6571SOL     OW20611   2.792   5.950   3.238
 6571SOL    HW120612   2.792   5.932   3.337
 6571SOL    HW220613   2.839   6.036   3.220
 6572SOL     OW20614   0.597   4.322   5.820
 6572SOL    HW120615   0.603   4.222   5.811
 6572SOL    HW220616   0.502   4.351   5.808
 6573SOL     OW20617   2.416   1.355   2.511
 6573SOL    HW120618   2.415   1.363   2.411
 6573SOL    HW220619   2.485   1.417   2.549
 6574SOL     OW20620   3.170   4.935   2.916
 6574SOL    HW120621   3.129   4.988   2.841
 6574SOL    HW220622   3.259   4.900   2.886
 6575SOL     OW20623   1.161   1.736   2.282
 6575SOL    HW120624   1.111   1.781   2.209
 6575SOL    HW220625   1.138   1.639   2.284
 6576SOL     OW20626   1.402   6.172   6.379
 6576SOL    HW120627   1.316   6.194   6.425
 6576SOL    HW220628   1.384   6.149   6.284
 6577SOL     OW20629   6.870   2.057   3.697
 6577SOL    HW120630   6.869   2.088   3.602
 6577SOL    HW220631   6.785   2.083   3.741
 6578SOL     OW20632   6.360   4.939   3.785
 6578SOL    HW120633   6.302   4.959   3.864
 6578SOL    HW220634   6.439   4.999   3.785
 6579SOL     OW20635   6.738   4.055   3.179
 6579SOL    HW120636   6.754   4.103   3.265
 6579SOL    HW220637   6.650   4.007   3.184
 6580SOL     OW20638   5.888   1.744   2.146
 6580SOL    HW120639   5.974   1.773   2.104
 6580SOL    HW220640   5.908   1.694   2.231
 6581SOL     OW20641   3.090   1.964   6.605
 6581SOL    HW120642   3.042   1.882   6.572
 6581SOL    HW220643   3.025   2.037   6.620
 6582SOL     OW20644   6.216   0.476   2.785
 6582SOL    HW120645   6.203   0.565   2.829
 6582SOL    HW220646   6.312   0.464   2.760
 6583SOL     OW20647   5.205   1.785   5.969
 6583SOL    HW120648   5.197   1.759   6.066
 6583SOL    HW220649   5.270   1.860   5.960
 6584SOL     OW20650   6.098   1.838   6.667
 6584SOL    HW120651   6.035   1.817   6.742
 6584SOL    HW220652   6.190   1.808   6.691
 6585SOL     OW20653   1.148   1.784   6.582
 6585SOL    HW120654   1.069   1.725   6.568
 6585SOL    HW220655   1.194   1.799   6.494
 6586SOL     OW20656   6.446   2.462   6.108
 6586SOL    HW120657   6.427   2.413   6.023
 6586SOL    HW220658   6.440   2.400   6.185
 6587SOL     OW20659   2.117   6.383   3.146
 6587SOL    HW120660   2.180   6.418   3.077
 6587SOL    HW220661   2.052   6.321   3.102
 6588SOL     OW20662   1.444   3.017   0.324
 6588SOL    HW120663   1.385   3.016   0.243
 6588SOL    HW220664   1.509   3.093   0.317
 6589SOL     OW20665   4.527   1.647   5.545
 6589SOL    HW120666   4.543   1.696   5.630
 6589SOL    HW220667   4.444   1.592   5.552
 6590SOL     OW20668   0.628   1.493   5.547
 6590SOL    HW120669   0.665   1.407   5.583
 6590SOL    HW220670   0.557   1.472   5.480
 6591SOL     OW20671   5.837   0.874   2.959
 6591SOL    HW120672   5.752   0.916   2.990
 6591SOL    HW220673   5.816   0.795   2.901
 6592SOL     OW20674   4.639   5.607   4.803
 6592SOL    HW120675   4.736   5.614   4.778
 6592SOL    HW220676   4.589   5.686   4.768
 6593SOL     OW20677   3.612   1.557   2.668
 6593SOL    HW120678   3.641   1.644   2.710
 6593SOL    HW220679   3.620   1.565   2.568
 6594SOL     OW20680   5.504   0.315   6.755
 6594SOL    HW120681   5.551   0.234   6.718
 6594SOL    HW220682   5.570   0.371   6.805
 6595SOL     OW20683   1.696   3.596   1.302
 6595SOL    HW120684   1.678   3.503   1.332
 6595SOL    HW220685   1.738   3.594   1.211
 6596SOL     OW20686   4.433   6.882   5.216
 6596SOL    HW120687   4.355   6.847   5.164
 6596SOL    HW220688   4.497   6.927   5.153
 6597SOL     OW20689   0.362   5.783   5.007
 6597SOL    HW120690   0.319   5.693   5.014
 6597SOL    HW220691   0.385   5.801   4.911
 6598SOL     OW20692   1.800   5.480   5.202
 6598SOL    HW120693   1.767   5.441   5.116
 6598SOL    HW220694   1.747   5.443   5.279
 6599SOL     OW20695   4.343   4.586   5.708
 6599SOL    HW120696   4.285   4.666   5.697
 6599SOL    HW220697   4.415   4.605   5.775
 6600SOL     OW20698   4.650   5.923   3.827
 6600SOL    HW120699   4.622   5.834   3.863
 6600SOL    HW220700   4.612   5.996   3.883
 6601SOL     OW20701   0.533   0.040   0.301
 6601SOL    HW120702   0.443   0.017   0.265
 6601SOL    HW220703   0.547   0.139   0.295
 6602SOL     OW20704   6.644   1.260   1.515
 6602SOL    HW120705   6.735   1.218   1.509
 6602SOL    HW220706   6.648   1.340   1.575
 6603SOL     OW20707   2.177   3.743   3.105
 6603SOL    HW120708   2.231   3.797   3.170
 6603SOL    HW220709   2.188   3.781   3.013
 6604SOL     OW20710   3.215   5.627   2.409
 6604SOL    HW120711   3.209   5.647   2.507
 6604SOL    HW220712   3.292   5.565   2.392
 6605SOL     OW20713   5.857   5.971   0.193
 6605SOL    HW120714   5.859   5.901   0.122
 6605SOL    HW220715   5.943   6.022   0.192
 6606SOL     OW20716   5.404   1.097   2.573
 6606SOL    HW120717   5.386   1.064   2.666
 6606SOL    HW220718   5.323   1.080   2.516
 6607SOL     OW20719   1.798   1.623   2.121
 6607SOL    HW120720   1.869   1.689   2.145
 6607SOL    HW220721   1.708   1.666   2.127
 6608SOL     OW20722   5.977   3.581   3.970
 6608SOL    HW120723   6.020   3.549   3.885
 6608SOL    HW220724   5.924   3.664   3.952
 6609SOL     OW20725   5.509   1.149   5.877
 6609SOL    HW120726   5.590   1.207   5.869
 6609SOL    HW220727   5.531   1.068   5.932
 6610SOL     OW20728   2.326   0.408   0.073
 6610SOL    HW120729   2.275   0.491   0.049
 6610SOL    HW220730   2.337   0.402   0.172
 6611SOL     OW20731   5.668   2.263   2.588
 6611SOL    HW120732   5.678   2.356   2.624
 6611SOL    HW220733   5.713   2.199   2.650
 6612SOL     OW20734   1.584   6.647   6.872
 6612SOL    HW120735   1.543   6.651   6.780
 6612SOL    HW220736   1.559   6.560   6.915
 6613SOL     OW20737   5.005   5.316   1.992
 6613SOL    HW120738   4.965   5.407   2.002
 6613SOL    HW220739   4.990   5.283   1.899
 6614SOL     OW20740   4.918   5.808   6.076
 6614SOL    HW120741   4.823   5.822   6.046
 6614SOL    HW220742   4.962   5.897   6.089
 6615SOL     OW20743   0.888   3.886   5.345
 6615SOL    HW120744   0.911   3.893   5.247
 6615SOL    HW220745   0.874   3.978   5.382
 6616SOL     OW20746   4.995   0.846   4.495
 6616SOL    HW120747   5.003   0.943   4.473
 6616SOL    HW220748   5.059   0.793   4.439
 6617SOL     OW20749   3.939   6.940   5.358
 6617SOL    HW120750   4.031   6.900   5.359
 6617SOL    HW220751   3.941   7.026   5.307
 6618SOL     OW20752   1.000   4.534   1.701
 6618SOL    HW120753   0.983   4.551   1.798
 6618SOL    HW220754   1.090   4.568   1.676
 6619SOL     OW20755   4.881   5.650   2.502
 6619SOL    HW120756   4.922   5.592   2.573
 6619SOL    HW220757   4.877   5.744   2.535
 6620SOL     OW20758   1.502   2.826   5.624
 6620SOL    HW120759   1.493   2.832   5.723
 6620SOL    HW220760   1.596   2.847   5.598
 6621SOL     OW20761   2.737   4.323   0.181
 6621SOL    HW120762   2.799   4.395   0.212
 6621SOL    HW220763   2.784   4.235   0.181
 6622SOL     OW20764   6.838   6.030   0.365
 6622SOL    HW120765   6.894   5.979   0.299
 6622SOL    HW220766   6.801   6.112   0.320
 6623SOL     OW20767   3.170   3.505   2.503
 6623SOL    HW120768   3.216   3.593   2.510
 6623SOL    HW220769   3.196   3.448   2.581
 6624SOL     OW20770   4.189   4.889   4.215
 6624SOL    HW120771   4.090   4.875   4.213
 6624SOL    HW220772   4.227   4.851   4.299
 6625SOL     OW20773   6.227   0.756   6.787
 6625SOL    HW120774   6.321   0.745   6.819
 6625SOL    HW220775   6.226   0.816   6.706
 6626SOL     OW20776   3.989   5.222   3.349
 6626SOL    HW120777   3.902   5.203   3.304
 6626SOL    HW220778   3.973   5.246   3.445
 6627SOL     OW20779   2.069   0.201   0.710
 6627SOL    HW120780   2.095   0.107   0.731
 6627SOL    HW220781   2.098   0.261   0.785
 6628SOL     OW20782   4.109   5.746   2.901
 6628SOL    HW120783   4.110   5.689   2.983
 6628SOL    HW220784   4.200   5.782   2.884
 6629SOL     OW20785   3.083   5.111   0.682
 6629SOL    HW120786   3.098   5.088   0.778
 6629SOL    HW220787   3.043   5.203   0.675
 6630SOL     OW20788   3.420   1.904   0.169
 6630SOL    HW120789   3.443   1.837   0.238
 6630SOL    HW220790   3.355   1.970   0.207
 6631SOL     OW20791   5.221   0.631   2.517
 6631SOL    HW120792   5.178   0.697   2.454
 6631SOL    HW220793   5.257   0.554   2.465
 6632SOL     OW20794   6.776   0.858   1.234
 6632SOL    HW120795   6.685   0.894   1.211
 6632SOL    HW220796   6.796   0.780   1.175
 6633SOL     OW20797   1.917   6.821   0.916
 6633SOL    HW120798   1.936   6.724   0.903
 6633SOL    HW220799   1.832   6.845   0.870
 6634SOL     OW20800   6.965   2.516   6.095
 6634SOL    HW120801   7.011   2.436   6.134
 6634SOL    HW220802   0.002   2.566   6.036
 6635SOL     OW20803   4.522   4.679   3.170
 6635SOL    HW120804   4.465   4.617   3.116
 6635SOL    HW220805   4.605   4.701   3.119
 6636SOL     OW20806   2.292   2.295   4.137
 6636SOL    HW120807   2.313   2.253   4.226
 6636SOL    HW220808   2.314   2.393   4.141
 6637SOL     OW20809   6.914   0.227   1.043
 6637SOL    HW120810   6.863   0.234   1.129
 6637SOL    HW220811   6.987   0.295   1.042
 6638SOL     OW20812   2.501   5.895   5.644
 6638SOL    HW120813   2.437   5.956   5.692
 6638SOL    HW220814   2.494   5.910   5.546
 6639SOL     OW20815   5.753   5.504   6.739
 6639SOL    HW120816   5.695   5.535   6.814
 6639SOL    HW220817   5.844   5.482   6.774
 6640SOL     OW20818   6.558   2.437   3.366
 6640SOL    HW120819   6.502   2.362   3.333
 6640SOL    HW220820   6.610   2.407   3.446
 6641SOL     OW20821   2.138   4.207   6.013
 6641SOL    HW120822   2.112   4.301   6.032
 6641SOL    HW220823   2.190   4.203   5.928
 6642SOL     OW20824   0.358   5.955   6.675
 6642SOL    HW120825   0.284   6.020   6.658
 6642SOL    HW220826   0.410   5.940   6.591
 6643SOL     OW20827   5.041   4.660   6.569
 6643SOL    HW120828   5.072   4.621   6.482
 6643SOL    HW220829   5.113   4.716   6.609
 6644SOL     OW20830   2.874   4.887   2.121
 6644SOL    HW120831   2.963   4.930   2.108
 6644SOL    HW220832   2.847   4.839   2.038
 6645SOL     OW20833   0.396   5.027   5.506
 6645SOL    HW120834   0.365   5.016   5.411
 6645SOL    HW220835   0.384   4.940   5.554
 6646SOL     OW20836   2.479   5.676   3.802
 6646SOL    HW120837   2.479   5.580   3.773
 6646SOL    HW220838   2.385   5.710   3.802
 6647SOL     OW20839   3.202   1.730   1.984
 6647SOL    HW120840   3.163   1.786   1.911
 6647SOL    HW220841   3.287   1.688   1.952
 6648SOL     OW20842   5.203   5.747   2.402
 6648SOL    HW120843   5.107   5.747   2.375
 6648SOL    HW220844   5.260   5.753   2.320
 6649SOL     OW20845   4.059   2.180   6.728
 6649SOL    HW120846   4.143   2.188   6.675
 6649SOL    HW220847   3.994   2.251   6.700
 6650SOL     OW20848   3.988   1.944   3.599
 6650SOL    HW120849   3.944   1.989   3.677
 6650SOL    HW220850   3.942   1.857   3.581
 6651SOL     OW20851   0.704   2.755   6.859
 6651SOL    HW120852   0.708   2.855   6.854
 6651SOL    HW220853   0.752   2.716   6.780
 6652SOL     OW20854   6.858   5.746   2.389
 6652SOL    HW120855   6.797   5.825   2.382
 6652SOL    HW220856   6.824   5.671   2.332
 6653SOL     OW20857   3.438   3.825   3.842
 6653SOL    HW120858   3.373   3.896   3.816
 6653SOL    HW220859   3.527   3.866   3.863
 6654SOL     OW20860   2.227   3.217   1.755
 6654SOL    HW120861   2.248   3.310   1.783
 6654SOL    HW220862   2.311   3.170   1.729
 6655SOL     OW20863   2.869   6.545   1.907
 6655SOL    HW120864   2.804   6.602   1.856
 6655SOL    HW220865   2.892   6.464   1.852
 6656SOL     OW20866   6.277   2.276   1.289
 6656SOL    HW120867   6.323   2.353   1.247
 6656SOL    HW220868   6.178   2.285   1.275
 6657SOL     OW20869   3.019   6.240   6.257
 6657SOL    HW120870   2.997   6.143   6.260
 6657SOL    HW220871   3.081   6.258   6.181
 6658SOL     OW20872   5.520   1.311   5.066
 6658SOL    HW120873   5.481   1.266   5.146
 6658SOL    HW220874   5.455   1.378   5.030
 6659SOL     OW20875   2.112   3.021   0.419
 6659SOL    HW120876   2.164   2.949   0.465
 6659SOL    HW220877   2.024   3.033   0.464
 6660SOL     OW20878   6.736   6.788   2.899
 6660SOL    HW120879   6.705   6.878   2.932
 6660SOL    HW220880   6.696   6.717   2.956
 6661SOL     OW20881   0.443   5.892   3.553
 6661SOL    HW120882   0.534   5.856   3.571
 6661SOL    HW220883   0.395   5.832   3.489
 6662SOL     OW20884   1.408   2.062   0.148
 6662SOL    HW120885   1.372   2.023   0.232
 6662SOL    HW220886   1.380   2.006   0.070
 6663SOL     OW20887   6.998   5.710   2.632
 6663SOL    HW120888   0.044   5.779   2.627
 6663SOL    HW220889   6.950   5.706   2.544
 6664SOL     OW20890   1.474   0.845   2.602
 6664SOL    HW120891   1.399   0.781   2.586
 6664SOL    HW220892   1.467   0.882   2.695
 6665SOL     OW20893   2.040   6.656   2.847
 6665SOL    HW120894   2.121   6.703   2.813
 6665SOL    HW220895   2.031   6.568   2.801
 6666SOL     OW20896   5.825   0.595   6.264
 6666SOL    HW120897   5.800   0.503   6.296
 6666SOL    HW220898   5.742   0.645   6.239
 6667SOL     OW20899   6.632   4.798   5.176
 6667SOL    HW120900   6.589   4.886   5.196
 6667SOL    HW220901   6.717   4.814   5.125
 6668SOL     OW20902   1.258   4.572   1.657
 6668SOL    HW120903   1.305   4.507   1.597
 6668SOL    HW220904   1.314   4.653   1.669
 6669SOL     OW20905   1.983   5.706   3.086
 6669SOL    HW120906   2.053   5.766   3.124
 6669SOL    HW220907   1.897   5.719   3.136
 6670SOL     OW20908   3.788   5.172   0.560
 6670SOL    HW120909   3.720   5.197   0.491
 6670SOL    HW220910   3.848   5.100   0.524
 6671SOL     OW20911   6.243   3.179   4.930
 6671SOL    HW120912   6.164   3.192   4.989
 6671SOL    HW220913   6.308   3.117   4.974
 6672SOL     OW20914   0.894   1.051   5.720
 6672SOL    HW120915   0.872   1.091   5.808
 6672SOL    HW220916   0.941   1.118   5.663
 6673SOL     OW20917   4.585   4.735   1.587
 6673SOL    HW120918   4.685   4.738   1.584
 6673SOL    HW220919   4.556   4.665   1.652
 6674SOL     OW20920   0.770   6.275   4.454
 6674SOL    HW120921   0.745   6.332   4.376
 6674SOL    HW220922   0.757   6.326   4.539
 6675SOL     OW20923   5.811   4.964   0.351
 6675SOL    HW120924   5.806   5.061   0.374
 6675SOL    HW220925   5.719   4.926   0.345
 6676SOL     OW20926   0.748   2.039   5.898
 6676SOL    HW120927   0.798   2.117   5.861
 6676SOL    HW220928   0.805   1.957   5.893
 6677SOL     OW20929   0.752   3.065   0.443
 6677SOL    HW120930   0.656   3.053   0.467
 6677SOL    HW220931   0.759   3.132   0.369
 6678SOL     OW20932   0.655   2.983   5.862
 6678SOL    HW120933   0.733   2.943   5.814
 6678SOL    HW220934   0.575   2.926   5.848
 6679SOL     OW20935   1.846   2.349   5.009
 6679SOL    HW120936   1.858   2.327   4.913
 6679SOL    HW220937   1.930   2.327   5.059
 6680SOL     OW20938   3.085   6.819   6.501
 6680SOL    HW120939   3.034   6.757   6.442
 6680SOL    HW220940   3.151   6.871   6.446
 6681SOL     OW20941   5.226   5.295   0.711
 6681SOL    HW120942   5.187   5.318   0.621
 6681SOL    HW220943   5.170   5.335   0.783
 6682SOL     OW20944   0.872   5.439   2.048
 6682SOL    HW120945   0.966   5.405   2.047
 6682SOL    HW220946   0.821   5.396   2.123
 6683SOL     OW20947   5.304   1.806   4.473
 6683SOL    HW120948   5.209   1.786   4.449
 6683SOL    HW220949   5.306   1.859   4.558
 6684SOL     OW20950   1.837   6.923   2.503
 6684SOL    HW120951   1.907   6.994   2.510
 6684SOL    HW220952   1.834   6.869   2.587
 6685SOL     OW20953   4.804   3.222   6.563
 6685SOL    HW120954   4.875   3.156   6.588
 6685SOL    HW220955   4.778   3.275   6.643
 6686SOL     OW20956   6.532   3.797   2.881
 6686SOL    HW120957   6.457   3.802   2.815
 6686SOL    HW220958   6.618   3.821   2.836
 6687SOL     OW20959   0.790   1.888   0.772
 6687SOL    HW120960   0.691   1.890   0.784
 6687SOL    HW220961   0.827   1.980   0.786
 6688SOL     OW20962   0.809   4.576   2.527
 6688SOL    HW120963   0.898   4.587   2.483
 6688SOL    HW220964   0.756   4.507   2.477
 6689SOL     OW20965   4.707   4.580   0.269
 6689SOL    HW120966   4.791   4.591   0.323
 6689SOL    HW220967   4.640   4.648   0.298
 6690SOL     OW20968   2.157   2.450   0.734
 6690SOL    HW120969   2.097   2.423   0.809
 6690SOL    HW220970   2.207   2.533   0.760
 6691SOL     OW20971   2.682   4.730   1.544
 6691SOL    HW120972   2.779   4.706   1.544
 6691SOL    HW220973   2.627   4.646   1.538
 6692SOL     OW20974   3.374   4.153   5.475
 6692SOL    HW120975   3.465   4.174   5.511
 6692SOL    HW220976   3.305   4.204   5.526
 6693SOL     OW20977   4.219   3.396   5.163
 6693SOL    HW120978   4.212   3.494   5.144
 6693SOL    HW220979   4.284   3.381   5.237
 6694SOL     OW20980   3.769   5.724   0.986
 6694SOL    HW120981   3.810   5.777   1.061
 6694SOL    HW220982   3.822   5.640   0.973
 6695SOL     OW20983   1.386   1.659   6.864
 6695SOL    HW120984   1.405   1.569   6.901
 6695SOL    HW220985   1.288   1.679   6.872
 6696SOL     OW20986   1.772   3.037   1.854
 6696SOL    HW120987   1.842   3.075   1.794
 6696SOL    HW220988   1.811   2.962   1.908
 6697SOL     OW20989   4.624   1.287   3.132
 6697SOL    HW120990   4.683   1.363   3.105
 6697SOL    HW220991   4.675   1.225   3.192
 6698SOL     OW20992   3.708   3.508   0.238
 6698SOL    HW120993   3.698   3.567   0.318
 6698SOL    HW220994   3.758   3.557   0.166
 6699SOL     OW20995   1.932   4.129   6.688
 6699SOL    HW120996   1.930   4.033   6.660
 6699SOL    HW220997   1.975   4.137   6.778
 6700SOL     OW20998   0.025   5.508   0.885
 6700SOL    HW120999   0.013   5.554   0.797
 6700SOL    HW221000   6.972   5.525   0.942
 6701SOL     OW21001   0.101   1.801   0.751
 6701SOL    HW121002   0.087   1.879   0.812
 6701SOL    HW221003   0.114   1.718   0.806
 6702SOL     OW21004   2.780   1.771   1.402
 6702SOL    HW121005   2.745   1.696   1.457
 6702SOL    HW221006   2.709   1.801   1.338
 6703SOL     OW21007   6.897   1.477   6.716
 6703SOL    HW121008   6.866   1.534   6.792
 6703SOL    HW221009   6.963   1.410   6.750
 6704SOL     OW21010   5.271   1.744   2.318
 6704SOL    HW121011   5.172   1.740   2.306
 6704SOL    HW221012   5.308   1.818   2.261
 6705SOL     OW21013   5.473   1.679   0.404
 6705SOL    HW121014   5.460   1.663   0.306
 6705SOL    HW221015   5.384   1.684   0.449
 6706SOL     OW21016   0.411   4.345   6.195
 6706SOL    HW121017   0.353   4.263   6.193
 6706SOL    HW221018   0.498   4.323   6.239
 6707SOL     OW21019   0.993   5.708   2.551
 6707SOL    HW121020   0.986   5.735   2.455
 6707SOL    HW221021   1.065   5.640   2.561
 6708SOL     OW21022   1.988   6.423   1.715
 6708SOL    HW121023   1.947   6.335   1.740
 6708SOL    HW221024   2.009   6.475   1.797
 6709SOL     OW21025   4.715   1.441   2.337
 6709SOL    HW121026   4.767   1.367   2.379
 6709SOL    HW221027   4.628   1.452   2.384
 6710SOL     OW21028   3.008   2.493   0.344
 6710SOL    HW121029   2.982   2.590   0.341
 6710SOL    HW221030   3.108   2.486   0.345
 6711SOL     OW21031   3.965   4.430   0.333
 6711SOL    HW121032   3.954   4.353   0.396
 6711SOL    HW221033   3.880   4.444   0.282
 6712SOL     OW21034   3.779   6.082   0.058
 6712SOL    HW121035   3.869   6.043   0.076
 6712SOL    HW221036   3.721   6.014   0.015
 6713SOL     OW21037   2.023   1.912   1.494
 6713SOL    HW121038   1.967   1.867   1.425
 6713SOL    HW221039   2.081   1.843   1.539
 6714SOL     OW21040   6.347   0.531   4.426
 6714SOL    HW121041   6.317   0.457   4.487
 6714SOL    HW221042   6.274   0.552   4.361
 6715SOL     OW21043   0.576   1.218   0.899
 6715SOL    HW121044   0.637   1.247   0.825
 6715SOL    HW221045   0.626   1.160   0.963
 6716SOL     OW21046   1.913   6.051   1.200
 6716SOL    HW121047   1.849   6.007   1.136
 6716SOL    HW221048   2.003   6.058   1.157
 6717SOL     OW21049   4.031   1.779   6.665
 6717SOL    HW121050   3.980   1.704   6.706
 6717SOL    HW221051   3.977   1.863   6.669
 6718SOL     OW21052   3.219   0.289   0.664
 6718SOL    HW121053   3.129   0.329   0.645
 6718SOL    HW221054   3.212   0.190   0.662
 6719SOL     OW21055   6.404   6.895   5.103
 6719SOL    HW121056   6.414   6.960   5.178
 6719SOL    HW221057   6.488   6.841   5.094
 6720SOL     OW21058   2.088   4.484   1.606
 6720SOL    HW121059   1.992   4.505   1.628
 6720SOL    HW221060   2.105   4.503   1.510
 6721SOL     OW21061   5.525   6.182   3.908
 6721SOL    HW121062   5.473   6.256   3.865
 6721SOL    HW221063   5.509   6.097   3.858
 6722SOL     OW21064   4.278   3.289   6.683
 6722SOL    HW121065   4.348   3.278   6.612
 6722SOL    HW221066   4.302   3.232   6.761
 6723SOL     OW21067   4.427   6.743   2.633
 6723SOL    HW121068   4.421   6.811   2.560
 6723SOL    HW221069   4.507   6.685   2.618
 6724SOL     OW21070   3.344   5.218   4.794
 6724SOL    HW121071   3.355   5.243   4.890
 6724SOL    HW221072   3.362   5.120   4.782
 6725SOL     OW21073   0.254   4.776   2.597
 6725SOL    HW121074   0.270   4.725   2.681
 6725SOL    HW221075   0.164   4.754   2.561
 6726SOL     OW21076   2.581   2.313   3.386
 6726SOL    HW121077   2.610   2.271   3.301
 6726SOL    HW221078   2.577   2.413   3.374
 6727SOL     OW21079   3.547   3.830   6.922
 6727SOL    HW121080   3.499   3.753   6.879
 6727SOL    HW221081   3.522   3.915   6.876
 6728SOL     OW21082   4.092   1.470   3.748
 6728SOL    HW121083   4.014   1.488   3.807
 6728SOL    HW221084   4.059   1.448   3.655
 6729SOL     OW21085   5.891   0.782   2.264
 6729SOL    HW121086   5.828   0.812   2.192
 6729SOL    HW221087   5.954   0.714   2.228
 6730SOL     OW21088   2.482   1.094   0.416
 6730SOL    HW121089   2.430   1.178   0.399
 6730SOL    HW221090   2.444   1.047   0.496
 6731SOL     OW21091   2.677   4.754   1.826
 6731SOL    HW121092   2.744   4.692   1.866
 6731SOL    HW221093   2.674   4.740   1.727
 6732SOL     OW21094   2.313   5.204   1.069
 6732SOL    HW121095   2.346   5.268   1.139
 6732SOL    HW221096   2.309   5.251   0.981
 6733SOL     OW21097   5.240   5.970   5.388
 6733SOL    HW121098   5.329   5.934   5.363
 6733SOL    HW221099   5.249   6.031   5.467
 6734SOL     OW21100   2.408   3.674   5.694
 6734SOL    HW121101   2.431   3.596   5.636
 6734SOL    HW221102   2.448   3.661   5.784
 6735SOL     OW21103   0.223   5.088   6.016
 6735SOL    HW121104   0.237   5.185   6.036
 6735SOL    HW221105   0.133   5.075   5.974
 6736SOL     OW21106   2.088   3.451   2.333
 6736SOL    HW121107   2.160   3.469   2.265
 6736SOL    HW221108   2.017   3.521   2.324
 6737SOL     OW21109   3.024   0.770   1.464
 6737SOL    HW121110   2.992   0.854   1.507
 6737SOL    HW221111   3.033   0.698   1.533
 6738SOL     OW21112   3.162   1.164   2.500
 6738SOL    HW121113   3.141   1.257   2.472
 6738SOL    HW221114   3.236   1.128   2.442
 6739SOL     OW21115   3.696   6.465   4.494
 6739SOL    HW121116   3.682   6.410   4.412
 6739SOL    HW221117   3.734   6.408   4.566
 6740SOL     OW21118   0.386   2.177   4.356
 6740SOL    HW121119   0.354   2.266   4.390
 6740SOL    HW221120   0.389   2.112   4.431
 6741SOL     OW21121   6.295   7.008   6.216
 6741SOL    HW121122   6.242   0.002   6.133
 6741SOL    HW221123   6.314   0.066   6.265
 6742SOL     OW21124   6.277   5.849   6.016
 6742SOL    HW121125   6.262   5.920   6.085
 6742SOL    HW221126   6.203   5.782   6.021
 6743SOL     OW21127   4.661   3.083   0.829
 6743SOL    HW121128   4.742   3.098   0.773
 6743SOL    HW221129   4.688   3.063   0.923
 6744SOL     OW21130   4.795   4.601   5.434
 6744SOL    HW121131   4.702   4.585   5.465
 6744SOL    HW221132   4.860   4.576   5.506
 6745SOL     OW21133   0.277   4.475   3.511
 6745SOL    HW121134   0.220   4.555   3.529
 6745SOL    HW221135   0.355   4.475   3.573
 6746SOL     OW21136   0.257   1.183   0.719
 6746SOL    HW121137   0.342   1.142   0.754
 6746SOL    HW221138   0.182   1.160   0.780
 6747SOL     OW21139   5.409   6.298   5.724
 6747SOL    HW121140   5.482   6.309   5.657
 6747SOL    HW221141   5.327   6.265   5.678
 6748SOL     OW21142   0.271   0.255   2.139
 6748SOL    HW121143   0.197   0.253   2.071
 6748SOL    HW221144   0.258   0.181   2.205
 6749SOL     OW21145   4.210   6.162   1.130
 6749SOL    HW121146   4.213   6.262   1.133
 6749SOL    HW221147   4.144   6.133   1.061
 6750SOL     OW21148   2.542   3.211   5.361
 6750SOL    HW121149   2.562   3.148   5.436
 6750SOL    HW221150   2.532   3.159   5.276
 6751SOL     OW21151   3.215   2.066   5.515
 6751SOL    HW121152   3.278   2.142   5.532
 6751SOL    HW221153   3.196   2.060   5.417
 6752SOL     OW21154   6.177   1.571   0.108
 6752SOL    HW121155   6.211   1.548   0.199
 6752SOL    HW221156   6.211   1.505   0.042
 6753SOL     OW21157   5.110   2.042   6.615
 6753SOL    HW121158   5.035   2.100   6.647
 6753SOL    HW221159   5.181   2.098   6.573
 6754SOL     OW21160   5.789   0.687   0.252
 6754SOL    HW121161   5.729   0.693   0.332
 6754SOL    HW221162   5.742   0.724   0.172
 6755SOL     OW21163   4.612   2.050   3.425
 6755SOL    HW121164   4.568   2.080   3.510
 6755SOL    HW221165   4.631   1.952   3.429
 6756SOL     OW21166   5.207   4.635   4.604
 6756SOL    HW121167   5.266   4.658   4.527
 6756SOL    HW221168   5.112   4.653   4.579
 6757SOL     OW21169   5.749   5.291   1.730
 6757SOL    HW121170   5.708   5.292   1.639
 6757SOL    HW221171   5.677   5.284   1.799
 6758SOL     OW21172   5.462   2.640   2.699
 6758SOL    HW121173   5.493   2.723   2.653
 6758SOL    HW221174   5.396   2.593   2.641
 6759SOL     OW21175   0.101   4.663   3.542
 6759SOL    HW121176   0.113   4.762   3.532
 6759SOL    HW221177   0.009   4.644   3.576
 6760SOL     OW21178   6.796   4.124   4.791
 6760SOL    HW121179   6.740   4.173   4.723
 6760SOL    HW221180   6.737   4.065   4.846
 6761SOL     OW21181   5.103   3.293   6.524
 6761SOL    HW121182   5.003   3.295   6.513
 6761SOL    HW221183   5.126   3.315   6.619
 6762SOL     OW21184   5.859   5.011   4.261
 6762SOL    HW121185   5.888   5.004   4.166
 6762SOL    HW221186   5.763   5.035   4.265
 6763SOL     OW21187   5.318   6.438   5.936
 6763SOL    HW121188   5.229   6.413   5.974
 6763SOL    HW221189   5.348   6.368   5.872
 6764SOL     OW21190   2.310   4.042   6.810
 6764SOL    HW121191   2.396   4.092   6.813
 6764SOL    HW221192   2.328   3.945   6.790
 6765SOL     OW21193   5.766   5.084   2.999
 6765SOL    HW121194   5.674   5.054   3.024
 6765SOL    HW221195   5.776   5.079   2.899
 6766SOL     OW21196   1.318   1.241   5.515
 6766SOL    HW121197   1.411   1.251   5.551
 6766SOL    HW221198   1.321   1.185   5.432
 6767SOL     OW21199   0.307   2.455   6.283
 6767SOL    HW121200   0.397   2.481   6.318
 6767SOL    HW221201   0.312   2.441   6.184
 6768SOL     OW21202   0.332   0.224   5.445
 6768SOL    HW121203   0.364   0.195   5.535
 6768SOL    HW221204   0.253   0.285   5.455
 6769SOL     OW21205   2.229   3.370   6.259
 6769SOL    HW121206   2.267   3.312   6.187
 6769SOL    HW221207   2.247   3.329   6.348
 6770SOL     OW21208   0.260   1.607   3.372
 6770SOL    HW121209   0.177   1.553   3.389
 6770SOL    HW221210   0.298   1.637   3.459
 6771SOL     OW21211   4.108   1.293   2.813
 6771SOL    HW121212   4.023   1.345   2.801
 6771SOL    HW221213   4.090   1.214   2.872
 6772SOL     OW21214   1.044   0.905   2.198
 6772SOL    HW121215   1.017   0.993   2.157
 6772SOL    HW221216   0.963   0.860   2.235
 6773SOL     OW21217   1.124   6.804   1.142
 6773SOL    HW121218   1.056   6.783   1.213
 6773SOL    HW221219   1.105   6.748   1.061
 6774SOL     OW21220   2.601   2.511   5.927
 6774SOL    HW121221   2.549   2.526   6.010
 6774SOL    HW221222   2.576   2.423   5.887
 6775SOL     OW21223   0.606   2.290   4.798
 6775SOL    HW121224   0.615   2.193   4.775
 6775SOL    HW221225   0.697   2.327   4.817
 6776SOL     OW21226   3.870   3.529   3.139
 6776SOL    HW121227   3.873   3.623   3.107
 6776SOL    HW221228   3.862   3.467   3.060
 6777SOL     OW21229   6.953   6.172   6.415
 6777SOL    HW121230   6.873   6.118   6.440
 6777SOL    HW221231   6.925   6.265   6.393
 6778SOL     OW21232   5.853   6.260   1.720
 6778SOL    HW121233   5.927   6.294   1.779
 6778SOL    HW221234   5.766   6.269   1.768
 6779SOL     OW21235   4.889   3.978   6.677
 6779SOL    HW121236   4.862   4.069   6.647
 6779SOL    HW221237   4.981   3.982   6.716
 6780SOL     OW21238   3.890   1.945   2.841
 6780SOL    HW121239   3.819   1.875   2.834
 6780SOL    HW221240   3.967   1.920   2.781
 6781SOL     OW21241   6.436   2.262   3.203
 6781SOL    HW121242   6.360   2.197   3.211
 6781SOL    HW221243   6.515   2.216   3.163
 6782SOL     OW21244   0.001   2.089   3.199
 6782SOL    HW121245   7.020   1.994   3.169
 6782SOL    HW221246   7.021   2.093   3.299
 6783SOL     OW21247   0.340   5.366   5.748
 6783SOL    HW121248   0.397   5.349   5.668
 6783SOL    HW221249   0.395   5.356   5.831
 6784SOL     OW21250   2.174   3.993   1.434
 6784SOL    HW121251   2.168   4.009   1.336
 6784SOL    HW221252   2.264   4.021   1.467
 6785SOL     OW21253   5.642   5.386   4.336
 6785SOL    HW121254   5.716   5.419   4.393
 6785SOL    HW221255   5.647   5.287   4.327
 6786SOL     OW21256   5.445   1.930   5.885
 6786SOL    HW121257   5.521   1.932   5.950
 6786SOL    HW221258   5.478   1.905   5.794
 6787SOL     OW21259   2.980   2.028   0.314
 6787SOL    HW121260   2.965   1.938   0.355
 6787SOL    HW221261   2.902   2.051   0.256
 6788SOL     OW21262   0.726   4.491   1.740
 6788SOL    HW121263   0.812   4.537   1.718
 6788SOL    HW221264   0.744   4.396   1.766
 6789SOL     OW21265   5.224   4.657   3.204
 6789SOL    HW121266   5.181   4.631   3.291
 6789SOL    HW221267   5.153   4.679   3.137
 6790SOL     OW21268   0.885   4.824   6.632
 6790SOL    HW121269   0.970   4.771   6.634
 6790SOL    HW221270   0.906   4.920   6.617
 6791SOL     OW21271   2.778   6.884   2.919
 6791SOL    HW121272   2.684   6.909   2.943
 6791SOL    HW221273   2.776   6.802   2.860
 6792SOL     OW21274   4.509   0.091   5.941
 6792SOL    HW121275   4.503   0.157   5.866
 6792SOL    HW221276   4.605   0.080   5.968
 6793SOL     OW21277   2.092   3.604   5.683
 6793SOL    HW121278   2.032   3.598   5.762
 6793SOL    HW221279   2.187   3.598   5.713
 6794SOL     OW21280   5.920   2.495   5.506
 6794SOL    HW121281   6.019   2.483   5.502
 6794SOL    HW221282   5.889   2.542   5.424
 6795SOL     OW21283   1.315   0.944   1.648
 6795SOL    HW121284   1.261   0.882   1.705
 6795SOL    HW221285   1.356   0.892   1.573
 6796SOL     OW21286   6.817   1.637   2.514
 6796SOL    HW121287   6.858   1.729   2.508
 6796SOL    HW221288   6.890   1.570   2.529
 6797SOL     OW21289   1.345   3.434   1.297
 6797SOL    HW121290   1.344   3.519   1.243
 6797SOL    HW221291   1.263   3.381   1.276
 6798SOL     OW21292   5.229   0.664   1.784
 6798SOL    HW121293   5.183   0.699   1.866
 6798SOL    HW221294   5.266   0.740   1.731
 6799SOL     OW21295   5.926   6.860   3.513
 6799SOL    HW121296   5.990   6.883   3.440
 6799SOL    HW221297   5.935   6.926   3.587
 6800SOL     OW21298   6.575   3.169   1.533
 6800SOL    HW121299   6.482   3.147   1.505
 6800SOL    HW221300   6.630   3.190   1.452
 6801SOL     OW21301   0.558   6.280   6.827
 6801SOL    HW121302   0.594   6.195   6.787
 6801SOL    HW221303   0.517   6.336   6.754
 6802SOL     OW21304   3.057   4.758   1.889
 6802SOL    HW121305   2.989   4.687   1.909
 6802SOL    HW221306   3.092   4.795   1.975
 6803SOL     OW21307   5.191   5.372   6.074
 6803SOL    HW121308   5.213   5.289   6.124
 6803SOL    HW221309   5.156   5.441   6.138
 6804SOL     OW21310   3.596   5.480   2.760
 6804SOL    HW121311   3.630   5.507   2.670
 6804SOL    HW221312   3.503   5.445   2.751
 6805SOL     OW21313   0.167   4.296   4.235
 6805SOL    HW121314   0.225   4.242   4.296
 6805SOL    HW221315   0.216   4.313   4.149
 6806SOL     OW21316   6.323   3.078   1.441
 6806SOL    HW121317   6.245   3.018   1.461
 6806SOL    HW221318   6.290   3.163   1.401
 6807SOL     OW21319   3.225   3.910   2.144
 6807SOL    HW121320   3.172   3.833   2.180
 6807SOL    HW221321   3.177   3.948   2.065
 6808SOL     OW21322   3.433   0.839   4.187
 6808SOL    HW121323   3.446   0.838   4.088
 6808SOL    HW221324   3.519   0.864   4.232
 6809SOL     OW21325   6.053   2.866   6.736
 6809SOL    HW121326   6.037   2.934   6.664
 6809SOL    HW221327   6.069   2.914   6.823
 6810SOL     OW21328   2.749   0.650   4.501
 6810SOL    HW121329   2.703   0.728   4.458
 6810SOL    HW221330   2.805   0.683   4.577
 6811SOL     OW21331   6.021   0.787   0.345
 6811SOL    HW121332   6.005   0.872   0.395
 6811SOL    HW221333   5.934   0.755   0.306
 6812SOL     OW21334   3.664   4.280   5.417
 6812SOL    HW121335   3.616   4.338   5.351
 6812SOL    HW221336   3.762   4.291   5.407
 6813SOL     OW21337   0.290   3.414   2.758
 6813SOL    HW121338   0.338   3.447   2.676
 6813SOL    HW221339   0.282   3.488   2.824
 6814SOL     OW21340   5.596   0.633   0.420
 6814SOL    HW121341   5.616   0.537   0.438
 6814SOL    HW221342   5.508   0.641   0.373
 6815SOL     OW21343   0.892   5.522   6.414
 6815SOL    HW121344   0.807   5.483   6.449
 6815SOL    HW221345   0.930   5.462   6.343
 6816SOL     OW21346   6.977   0.137   3.669
 6816SOL    HW121347   6.888   0.184   3.671
 6816SOL    HW221348   6.964   0.041   3.692
 6817SOL     OW21349   4.093   1.850   1.257
 6817SOL    HW121350   4.102   1.923   1.189
 6817SOL    HW221351   4.077   1.890   1.347
 6818SOL     OW21352   1.328   6.574   5.068
 6818SOL    HW121353   1.268   6.495   5.063
 6818SOL    HW221354   1.409   6.559   5.010
 6819SOL     OW21355   4.521   4.515   1.783
 6819SOL    HW121356   4.496   4.464   1.701
 6819SOL    HW221357   4.499   4.461   1.864
 6820SOL     OW21358   2.559   5.125   1.740
 6820SOL    HW121359   2.461   5.133   1.721
 6820SOL    HW221360   2.573   5.053   1.808
 6821SOL     OW21361   3.627   2.740   5.298
 6821SOL    HW121362   3.583   2.801   5.233
 6821SOL    HW221363   3.574   2.655   5.305
 6822SOL     OW21364   6.064   3.428   5.494
 6822SOL    HW121365   6.047   3.476   5.408
 6822SOL    HW221366   6.012   3.471   5.568
 6823SOL     OW21367   0.098   2.626   5.483
 6823SOL    HW121368   0.017   2.584   5.525
 6823SOL    HW221369   0.084   2.633   5.384
 6824SOL     OW21370   0.642   6.968   5.404
 6824SOL    HW121371   0.606   6.915   5.481
 6824SOL    HW221372   0.713   6.915   5.358
 6825SOL     OW21373   4.305   4.027   1.043
 6825SOL    HW121374   4.267   4.114   1.076
 6825SOL    HW221375   4.390   4.008   1.092
 6826SOL     OW21376   6.223   6.816   3.830
 6826SOL    HW121377   6.272   6.854   3.751
 6826SOL    HW221378   6.142   6.767   3.799
 6827SOL     OW21379   4.547   5.914   5.287
 6827SOL    HW121380   4.508   5.988   5.342
 6827SOL    HW221381   4.601   5.953   5.213
 6828SOL     OW21382   3.378   1.935   2.386
 6828SOL    HW121383   3.310   2.006   2.366
 6828SOL    HW221384   3.369   1.860   2.321
 6829SOL     OW21385   3.925   6.996   3.129
 6829SOL    HW121386   3.898   6.982   3.224
 6829SOL    HW221387   3.911   0.065   3.104
 6830SOL     OW21388   4.443   4.927   2.743
 6830SOL    HW121389   4.527   4.879   2.766
 6830SOL    HW221390   4.462   4.996   2.674
 6831SOL     OW21391   1.409   1.852   6.086
 6831SOL    HW121392   1.477   1.860   6.013
 6831SOL    HW221393   1.455   1.831   6.172
 6832SOL     OW21394   2.452   2.516   6.679
 6832SOL    HW121395   2.504   2.474   6.753
 6832SOL    HW221396   2.381   2.453   6.648
 6833SOL     OW21397   3.859   5.565   5.948
 6833SOL    HW121398   3.909   5.501   6.005
 6833SOL    HW221399   3.820   5.517   5.869
 6834SOL     OW21400   6.575   6.622   6.665
 6834SOL    HW121401   6.575   6.606   6.764
 6834SOL    HW221402   6.481   6.628   6.632
 6835SOL     OW21403   2.601   1.256   4.307
 6835SOL    HW121404   2.673   1.211   4.254
 6835SOL    HW221405   2.616   1.239   4.404
 6836SOL     OW21406   1.533   4.886   6.822
 6836SOL    HW121407   1.625   4.911   6.792
 6836SOL    HW221408   1.489   4.966   6.863
 6837SOL     OW21409   6.411   0.787   2.627
 6837SOL    HW121410   6.442   0.856   2.561
 6837SOL    HW221411   6.412   0.697   2.583
 6838SOL     OW21412   2.923   4.146   5.326
 6838SOL    HW121413   2.968   4.172   5.240
 6838SOL    HW221414   2.853   4.213   5.349
 6839SOL     OW21415   6.267   3.192   4.374
 6839SOL    HW121416   6.218   3.136   4.441
 6839SOL    HW221417   6.357   3.218   4.411
 6840SOL     OW21418   3.115   6.544   4.562
 6840SOL    HW121419   3.114   6.562   4.661
 6840SOL    HW221420   3.069   6.457   4.544
 6841SOL     OW21421   5.248   6.699   1.388
 6841SOL    HW121422   5.313   6.653   1.328
 6841SOL    HW221423   5.158   6.704   1.343
 6842SOL     OW21424   0.122   3.318   4.634
 6842SOL    HW121425   0.185   3.370   4.692
 6842SOL    HW221426   0.153   3.322   4.539
 6843SOL     OW21427   4.039   2.089   1.439
 6843SOL    HW121428   4.026   2.109   1.536
 6843SOL    HW221429   3.961   2.126   1.387
 6844SOL     OW21430   3.689   5.396   4.417
 6844SOL    HW121431   3.663   5.438   4.330
 6844SOL    HW221432   3.615   5.337   4.449
 6845SOL     OW21433   4.093   4.593   0.913
 6845SOL    HW121434   4.117   4.519   0.850
 6845SOL    HW221435   3.994   4.608   0.911
 6846SOL     OW21436   3.240   3.001   2.381
 6846SOL    HW121437   3.259   3.097   2.364
 6846SOL    HW221438   3.281   2.946   2.308
 6847SOL     OW21439   6.138   3.639   2.057
 6847SOL    HW121440   6.046   3.642   2.095
 6847SOL    HW221441   6.194   3.575   2.109
 6848SOL     OW21442   6.815   6.572   3.596
 6848SOL    HW121443   6.803   6.580   3.695
 6848SOL    HW221444   6.911   6.590   3.573
 6849SOL     OW21445   3.405   6.514   3.969
 6849SOL    HW121446   3.418   6.417   3.987
 6849SOL    HW221447   3.431   6.567   4.049
 6850SOL     OW21448   5.384   3.237   1.247
 6850SOL    HW121449   5.315   3.221   1.176
 6850SOL    HW221450   5.361   3.320   1.298
 6851SOL     OW21451   1.801   5.935   5.358
 6851SOL    HW121452   1.870   5.873   5.321
 6851SOL    HW221453   1.711   5.911   5.321
 6852SOL     OW21454   0.645   4.706   1.910
 6852SOL    HW121455   0.659   4.647   1.830
 6852SOL    HW221456   0.716   4.689   1.977
 6853SOL     OW21457   6.599   3.890   5.806
 6853SOL    HW121458   6.690   3.892   5.847
 6853SOL    HW221459   6.599   3.828   5.727
 6854SOL     OW21460   0.492   1.854   6.338
 6854SOL    HW121461   0.413   1.915   6.343
 6854SOL    HW221462   0.461   1.761   6.315
 6855SOL     OW21463   3.434   6.123   1.673
 6855SOL    HW121464   3.423   6.043   1.614
 6855SOL    HW221465   3.530   6.151   1.675
 6856SOL     OW21466   6.963   4.375   5.375
 6856SOL    HW121467   0.033   4.357   5.390
 6856SOL    HW221468   6.916   4.374   5.463
 6857SOL     OW21469   4.780   1.423   5.770
 6857SOL    HW121470   4.683   1.402   5.781
 6857SOL    HW221471   4.794   1.469   5.682
 6858SOL     OW21472   3.898   3.091   5.016
 6858SOL    HW121473   3.851   3.073   4.930
 6858SOL    HW221474   3.846   3.049   5.091
 6859SOL     OW21475   3.397   0.188   0.143
 6859SOL    HW121476   3.396   0.095   0.105
 6859SOL    HW221477   3.415   0.183   0.241
 6860SOL     OW21478   4.938   4.680   0.383
 6860SOL    HW121479   4.919   4.717   0.474
 6860SOL    HW221480   5.037   4.667   0.373
 6861SOL     OW21481   6.017   4.415   0.876
 6861SOL    HW121482   5.947   4.444   0.811
 6861SOL    HW221483   6.082   4.489   0.891
 6862SOL     OW21484   3.731   5.529   3.553
 6862SOL    HW121485   3.643   5.571   3.575
 6862SOL    HW221486   3.797   5.551   3.626
 6863SOL     OW21487   7.000   2.677   4.141
 6863SOL    HW121488   6.977   2.650   4.048
 6863SOL    HW221489   6.974   2.773   4.156
 6864SOL     OW21490   4.396   5.845   5.515
 6864SOL    HW121491   4.481   5.797   5.492
 6864SOL    HW221492   4.329   5.830   5.443
 6865SOL     OW21493   5.879   3.454   4.364
 6865SOL    HW121494   5.978   3.455   4.379
 6865SOL    HW221495   5.859   3.482   4.270
 6866SOL     OW21496   0.678   3.692   2.155
 6866SOL    HW121497   0.597   3.661   2.106
 6866SOL    HW221498   0.760   3.656   2.111
 6867SOL     OW21499   2.268   4.335   2.174
 6867SOL    HW121500   2.266   4.355   2.077
 6867SOL    HW221501   2.316   4.408   2.223
 6868SOL     OW21502   2.171   5.275   4.992
 6868SOL    HW121503   2.267   5.252   5.011
 6868SOL    HW221504   2.113   5.233   5.061
 6869SOL     OW21505   5.886   3.999   5.535
 6869SOL    HW121506   5.973   3.950   5.543
 6869SOL    HW221507   5.896   4.077   5.473
 6870SOL     OW21508   5.160   4.242   2.905
 6870SOL    HW121509   5.188   4.211   2.815
 6870SOL    HW221510   5.197   4.180   2.975
 6871SOL     OW21511   5.255   0.188   2.026
 6871SOL    HW121512   5.210   0.176   2.115
 6871SOL    HW221513   5.214   0.266   1.979
 6872SOL     OW21514   3.037   3.623   6.858
 6872SOL    HW121515   2.954   3.623   6.801
 6872SOL    HW221516   3.105   3.562   6.818
 6873SOL     OW21517   5.038   4.417   6.023
 6873SOL    HW121518   4.981   4.398   5.942
 6873SOL    HW221519   5.107   4.485   6.001
 6874SOL     OW21520   0.911   2.665   5.655
 6874SOL    HW121521   0.955   2.690   5.569
 6874SOL    HW221522   0.834   2.604   5.638
 6875SOL     OW21523   2.915   1.968   4.179
 6875SOL    HW121524   2.909   2.067   4.168
 6875SOL    HW221525   2.944   1.927   4.092
 6876SOL     OW21526   3.529   5.834   6.328
 6876SOL    HW121527   3.509   5.931   6.337
 6876SOL    HW221528   3.603   5.820   6.263
 6877SOL     OW21529   2.697   4.529   6.807
 6877SOL    HW121530   2.649   4.465   6.747
 6877SOL    HW221531   2.721   4.612   6.755
 6878SOL     OW21532   1.535   1.841   4.960
 6878SOL    HW121533   1.493   1.828   4.871
 6878SOL    HW221534   1.486   1.788   5.029
 6879SOL     OW21535   0.962   1.539   5.815
 6879SOL    HW121536   0.980   1.467   5.881
 6879SOL    HW221537   0.863   1.558   5.813
 6880SOL     OW21538   1.989   4.401   4.707
 6880SOL    HW121539   1.903   4.432   4.666
 6880SOL    HW221540   2.004   4.450   4.792
 6881SOL     OW21541   6.491   4.607   1.371
 6881SOL    HW121542   6.578   4.633   1.328
 6881SOL    HW221543   6.431   4.567   1.302
 6882SOL     OW21544   2.050   6.914   5.287
 6882SOL    HW121545   2.042   6.875   5.196
 6882SOL    HW221546   2.146   6.915   5.315
 6883SOL     OW21547   3.134   5.521   1.695
 6883SOL    HW121548   3.154   5.594   1.631
 6883SOL    HW221549   3.207   5.516   1.764
 6884SOL     OW21550   2.927   4.876   3.014
 6884SOL    HW121551   3.026   4.895   3.016
 6884SOL    HW221552   2.893   4.866   3.108
 6885SOL     OW21553   3.289   5.434   4.645
 6885SOL    HW121554   3.336   5.432   4.556
 6885SOL    HW221555   3.316   5.354   4.699
 6886SOL     OW21556   5.770   2.087   3.150
 6886SOL    HW121557   5.856   2.137   3.138
 6886SOL    HW221558   5.754   2.028   3.071
 6887SOL     OW21559   5.562   0.517   4.847
 6887SOL    HW121560   5.517   0.433   4.816
 6887SOL    HW221561   5.594   0.569   4.768
 6888SOL     OW21562   5.834   5.953   4.724
 6888SOL    HW121563   5.881   5.890   4.785
 6888SOL    HW221564   5.897   5.982   4.651
 6889SOL     OW21565   1.472   3.965   5.577
 6889SOL    HW121566   1.542   4.013   5.524
 6889SOL    HW221567   1.515   3.897   5.636
 6890SOL     OW21568   2.206   0.680   0.300
 6890SOL    HW121569   2.268   0.602   0.314
 6890SOL    HW221570   2.123   0.666   0.355
 6891SOL     OW21571   3.428   4.955   4.208
 6891SOL    HW121572   3.521   4.953   4.172
 6891SOL    HW221573   3.397   5.050   4.215
 6892SOL     OW21574   3.725   0.750   3.937
 6892SOL    HW121575   3.736   0.651   3.927
 6892SOL    HW221576   3.706   0.790   3.847
 6893SOL     OW21577   5.627   6.541   2.235
 6893SOL    HW121578   5.600   6.598   2.158
 6893SOL    HW221579   5.563   6.554   2.311
 6894SOL     OW21580   6.135   4.610   6.356
 6894SOL    HW121581   6.039   4.616   6.385
 6894SOL    HW221582   6.139   4.594   6.258
 6895SOL     OW21583   4.280   5.592   6.275
 6895SOL    HW121584   4.226   5.665   6.232
 6895SOL    HW221585   4.376   5.603   6.249
 6896SOL     OW21586   4.330   0.003   3.134
 6896SOL    HW121587   4.324   6.971   3.214
 6896SOL    HW221588   4.311   0.098   3.160
 6897SOL     OW21589   3.545   1.921   0.488
 6897SOL    HW121590   3.557   1.840   0.429
 6897SOL    HW221591   3.482   1.898   0.562
 6898SOL     OW21592   4.230   1.574   2.726
 6898SOL    HW121593   4.160   1.520   2.773
 6898SOL    HW221594   4.320   1.536   2.745
 6899SOL     OW21595   5.201   6.353   0.075
 6899SOL    HW121596   5.211   6.431   0.136
 6899SOL    HW221597   5.288   6.335   0.028
 6900SOL     OW21598   3.897   1.341   5.639
 6900SOL    HW121599   3.878   1.375   5.547
 6900SOL    HW221600   3.820   1.363   5.699
 6901SOL     OW21601   1.244   0.554   0.070
 6901SOL    HW121602   1.266   0.646   0.102
 6901SOL    HW221603   1.147   0.535   0.088
 6902SOL     OW21604   6.554   5.277   0.958
 6902SOL    HW121605   6.493   5.273   0.880
 6902SOL    HW221606   6.649   5.276   0.927
 6903SOL     OW21607   4.419   3.542   1.155
 6903SOL    HW121608   4.332   3.536   1.107
 6903SOL    HW221609   4.408   3.600   1.236
 6904SOL     OW21610   0.391   1.980   2.880
 6904SOL    HW121611   0.400   1.881   2.878
 6904SOL    HW221612   0.340   2.008   2.962
 6905SOL     OW21613   4.277   5.247   1.468
 6905SOL    HW121614   4.200   5.189   1.494
 6905SOL    HW221615   4.358   5.191   1.454
 6906SOL     OW21616   4.509   6.692   3.338
 6906SOL    HW121617   4.574   6.751   3.290
 6906SOL    HW221618   4.556   6.643   3.411
 6907SOL     OW21619   3.447   1.787   1.694
 6907SOL    HW121620   3.452   1.693   1.725
 6907SOL    HW221621   3.489   1.795   1.604
 6908SOL     OW21622   0.777   6.899   6.306
 6908SOL    HW121623   0.871   6.871   6.329
 6908SOL    HW221624   0.712   6.839   6.352
 6909SOL     OW21625   4.702   3.361   6.847
 6909SOL    HW121626   4.757   3.404   6.918
 6909SOL    HW221627   4.618   3.414   6.833
 6910SOL     OW21628   6.853   1.348   2.238
 6910SOL    HW121629   6.890   1.297   2.316
 6910SOL    HW221630   6.848   1.287   2.159
 6911SOL     OW21631   3.931   0.680   5.029
 6911SOL    HW121632   4.031   0.675   5.026
 6911SOL    HW221633   3.893   0.633   4.949
 6912SOL     OW21634   4.729   5.393   0.720
 6912SOL    HW121635   4.716   5.416   0.817
 6912SOL    HW221636   4.686   5.305   0.701
 6913SOL     OW21637   5.440   5.373   5.310
 6913SOL    HW121638   5.409   5.278   5.303
 6913SOL    HW221639   5.518   5.388   5.249
 6914SOL     OW21640   6.007   4.905   0.635
 6914SOL    HW121641   5.923   4.951   0.665
 6914SOL    HW221642   6.026   4.930   0.540
 6915SOL     OW21643   0.968   5.514   1.041
 6915SOL    HW121644   0.932   5.432   1.085
 6915SOL    HW221645   0.988   5.494   0.945
 6916SOL     OW21646   6.591   1.189   6.920
 6916SOL    HW121647   6.500   1.169   6.958
 6916SOL    HW221648   6.583   1.211   6.823
 6917SOL     OW21649   4.513   6.948   6.425
 6917SOL    HW121650   4.449   7.020   6.453
 6917SOL    HW221651   4.468   6.859   6.435
 6918SOL     OW21652   1.928   2.947   3.545
 6918SOL    HW121653   1.922   3.046   3.557
 6918SOL    HW221654   2.024   2.920   3.539
 6919SOL     OW21655   1.724   6.420   3.231
 6919SOL    HW121656   1.664   6.346   3.198
 6919SOL    HW221657   1.782   6.451   3.156
 6920SOL     OW21658   5.022   6.340   5.088
 6920SOL    HW121659   4.939   6.304   5.046
 6920SOL    HW221660   5.014   6.336   5.188
 6921SOL     OW21661   0.160   0.281   3.167
 6921SOL    HW121662   0.163   0.262   3.069
 6921SOL    HW221663   0.246   0.253   3.210
 6922SOL     OW21664   1.806   5.801   0.607
 6922SOL    HW121665   1.728   5.802   0.545
 6922SOL    HW221666   1.787   5.859   0.686
 6923SOL     OW21667   4.559   6.661   4.191
 6923SOL    HW121668   4.622   6.725   4.146
 6923SOL    HW221669   4.548   6.687   4.287
 6924SOL     OW21670   0.236   5.670   1.345
 6924SOL    HW121671   0.300   5.744   1.365
 6924SOL    HW221672   0.280   5.604   1.283
 6925SOL     OW21673   5.923   5.999   2.430
 6925SOL    HW121674   5.924   6.073   2.363
 6925SOL    HW221675   5.859   6.021   2.504
 6926SOL     OW21676   2.886   3.568   5.047
 6926SOL    HW121677   2.855   3.563   4.952
 6926SOL    HW221678   2.827   3.512   5.105
 6927SOL     OW21679   4.586   3.781   5.636
 6927SOL    HW121680   4.584   3.804   5.734
 6927SOL    HW221681   4.678   3.749   5.611
 6928SOL     OW21682   5.872   0.100   6.446
 6928SOL    HW121683   5.826   0.029   6.499
 6928SOL    HW221684   5.923   0.160   6.508
 6929SOL     OW21685   3.087   5.305   0.147
 6929SOL    HW121686   3.100   5.260   0.058
 6929SOL    HW221687   3.173   5.305   0.197
 6930SOL     OW21688   0.814   6.075   3.353
 6930SOL    HW121689   0.912   6.096   3.356
 6930SOL    HW221690   0.781   6.083   3.259
 6931SOL     OW21691   1.782   1.357   1.249
 6931SOL    HW121692   1.878   1.332   1.232
 6931SOL    HW221693   1.753   1.425   1.182
 6932SOL     OW21694   2.740   2.898   0.820
 6932SOL    HW121695   2.724   2.800   0.805
 6932SOL    HW221696   2.662   2.949   0.785
 6933SOL     OW21697   3.638   6.588   6.339
 6933SOL    HW121698   3.639   6.663   6.405
 6933SOL    HW221699   3.601   6.506   6.382
 6934SOL     OW21700   5.928   3.516   6.387
 6934SOL    HW121701   5.921   3.425   6.429
 6934SOL    HW221702   5.975   3.578   6.450
 6935SOL     OW21703   4.370   5.638   3.098
 6935SOL    HW121704   4.450   5.657   3.041
 6935SOL    HW221705   4.335   5.547   3.078
 6936SOL     OW21706   1.655   4.584   1.346
 6936SOL    HW121707   1.671   4.680   1.369
 6936SOL    HW221708   1.742   4.542   1.322
 6937SOL     OW21709   4.728   6.871   5.530
 6937SOL    HW121710   4.693   6.825   5.611
 6937SOL    HW221711   4.801   6.816   5.489
 6938SOL     OW21712   4.942   2.078   5.053
 6938SOL    HW121713   5.015   2.065   4.986
 6938SOL    HW221714   4.946   2.171   5.089
 6939SOL     OW21715   1.093   4.237   2.569
 6939SOL    HW121716   1.138   4.280   2.647
 6939SOL    HW221717   1.150   4.162   2.535
 6940SOL     OW21718   4.318   0.840   5.276
 6940SOL    HW121719   4.395   0.776   5.267
 6940SOL    HW221720   4.257   0.808   5.349
 6941SOL     OW21721   3.899   3.055   3.055
 6941SOL    HW121722   3.826   2.989   3.037
 6941SOL    HW221723   3.860   3.147   3.058
 6942SOL     OW21724   6.496   1.615   0.193
 6942SOL    HW121725   6.550   1.699   0.191
 6942SOL    HW221726   6.428   1.618   0.120
 6943SOL     OW21727   4.784   6.134   6.331
 6943SOL    HW121728   4.808   6.200   6.403
 6943SOL    HW221729   4.841   6.150   6.251
 6944SOL     OW21730   1.914   6.668   6.007
 6944SOL    HW121731   1.945   6.656   5.912
 6944SOL    HW221732   1.891   6.578   6.045
 6945SOL     OW21733   5.025   2.689   6.326
 6945SOL    HW121734   5.057   2.762   6.265
 6945SOL    HW221735   5.103   2.644   6.369
 6946SOL     OW21736   5.917   4.346   3.309
 6946SOL    HW121737   5.949   4.252   3.320
 6946SOL    HW221738   5.826   4.355   3.348
 6947SOL     OW21739   3.567   7.014   2.759
 6947SOL    HW121740   3.563   0.072   2.812
 6947SOL    HW221741   3.478   6.969   2.760
 6948SOL     OW21742   3.848   1.472   5.425
 6948SOL    HW121743   3.754   1.503   5.411
 6948SOL    HW221744   3.911   1.547   5.402
 6949SOL     OW21745   5.271   0.475   2.736
 6949SOL    HW121746   5.237   0.533   2.662
 6949SOL    HW221747   5.298   0.386   2.698
 6950SOL     OW21748   1.779   0.816   3.453
 6950SOL    HW121749   1.702   0.837   3.513
 6950SOL    HW221750   1.746   0.801   3.360
 6951SOL     OW21751   6.167   5.193   6.004
 6951SOL    HW121752   6.140   5.164   6.096
 6951SOL    HW221753   6.086   5.215   5.950
 6952SOL     OW21754   0.504   4.781   4.505
 6952SOL    HW121755   0.586   4.772   4.448
 6952SOL    HW221756   0.507   4.714   4.578
 6953SOL     OW21757   5.212   1.640   4.727
 6953SOL    HW121758   5.262   1.717   4.688
 6953SOL    HW221759   5.257   1.554   4.702
 6954SOL     OW21760   1.155   4.214   3.145
 6954SOL    HW121761   1.224   4.186   3.212
 6954SOL    HW221762   1.072   4.244   3.193
 6955SOL     OW21763   6.485   5.611   2.377
 6955SOL    HW121764   6.479   5.642   2.283
 6955SOL    HW221765   6.394   5.595   2.414
 6956SOL     OW21766   3.339   4.609   1.711
 6956SOL    HW121767   3.419   4.624   1.769
 6956SOL    HW221768   3.257   4.639   1.760
 6957SOL     OW21769   0.703   4.416   0.302
 6957SOL    HW121770   0.764   4.356   0.250
 6957SOL    HW221771   0.623   4.438   0.247
 6958SOL     OW21772   2.531   3.849   6.269
 6958SOL    HW121773   2.467   3.848   6.346
 6958SOL    HW221774   2.492   3.903   6.195
 6959SOL     OW21775   3.249   1.177   4.381
 6959SOL    HW121776   3.222   1.267   4.414
 6959SOL    HW221777   3.322   1.186   4.314
 6960SOL     OW21778   0.208   5.105   0.196
 6960SOL    HW121779   0.175   5.013   0.217
 6960SOL    HW221780   0.134   5.158   0.153
 6961SOL     OW21781   6.932   1.419   2.863
 6961SOL    HW121782   7.022   1.406   2.904
 6961SOL    HW221783   6.942   1.446   2.768
 6962SOL     OW21784   4.144   3.785   0.495
 6962SOL    HW121785   4.231   3.772   0.544
 6962SOL    HW221786   4.077   3.719   0.529
 6963SOL     OW21787   6.458   5.681   2.103
 6963SOL    HW121788   6.403   5.764   2.092
 6963SOL    HW221789   6.496   5.655   2.015
 6964SOL     OW21790   3.970   6.663   5.267
 6964SOL    HW121791   4.019   6.724   5.329
 6964SOL    HW221792   4.003   6.569   5.280
 6965SOL     OW21793   6.654   2.833   5.866
 6965SOL    HW121794   6.589   2.790   5.928
 6965SOL    HW221795   6.731   2.771   5.850
 6966SOL     OW21796   4.724   2.710   4.099
 6966SOL    HW121797   4.798   2.655   4.061
 6966SOL    HW221798   4.648   2.712   4.034
 6967SOL     OW21799   2.155   1.090   6.348
 6967SOL    HW121800   2.157   1.019   6.276
 6967SOL    HW221801   2.242   1.091   6.396
 6968SOL     OW21802   4.906   6.839   2.297
 6968SOL    HW121803   4.810   6.861   2.278
 6968SOL    HW221804   4.930   6.869   2.390
 6969SOL     OW21805   3.319   1.678   1.388
 6969SOL    HW121806   3.376   1.750   1.426
 6969SOL    HW221807   3.224   1.707   1.388
 6970SOL     OW21808   4.925   4.131   0.523
 6970SOL    HW121809   4.995   4.191   0.484
 6970SOL    HW221810   4.876   4.084   0.449
 6971SOL     OW21811   5.201   0.720   2.053
 6971SOL    HW121812   5.300   0.729   2.058
 6971SOL    HW221813   5.158   0.805   2.085
 6972SOL     OW21814   6.030   4.819   4.366
 6972SOL    HW121815   6.064   4.742   4.313
 6972SOL    HW221816   5.965   4.872   4.311
 6973SOL     OW21817   2.082   4.829   3.811
 6973SOL    HW121818   2.158   4.863   3.755
 6973SOL    HW221819   2.085   4.873   3.901
 6974SOL     OW21820   3.404   3.955   4.778
 6974SOL    HW121821   3.305   3.941   4.778
 6974SOL    HW221822   3.430   4.009   4.858
 6975SOL     OW21823   3.607   1.626   5.828
 6975SOL    HW121824   3.575   1.549   5.883
 6975SOL    HW221825   3.705   1.638   5.840
 6976SOL     OW21826   2.222   5.111   6.236
 6976SOL    HW121827   2.185   5.133   6.146
 6976SOL    HW221828   2.321   5.099   6.230
 6977SOL     OW21829   3.979   2.126   3.051
 6977SOL    HW121830   3.930   2.068   2.986
 6977SOL    HW221831   3.969   2.088   3.143
 6978SOL     OW21832   6.179   0.216   2.887
 6978SOL    HW121833   6.199   0.306   2.850
 6978SOL    HW221834   6.111   0.223   2.960
 6979SOL     OW21835   0.656   4.540   2.787
 6979SOL    HW121836   0.711   4.557   2.706
 6979SOL    HW221837   0.701   4.579   2.867
 6980SOL     OW21838   3.537   1.051   4.549
 6980SOL    HW121839   3.561   1.003   4.465
 6980SOL    HW221840   3.540   1.150   4.533
 6981SOL     OW21841   3.006   4.955   6.537
 6981SOL    HW121842   2.955   4.891   6.479
 6981SOL    HW221843   2.967   4.954   6.629
 6982SOL     OW21844   0.273   6.953   4.518
 6982SOL    HW121845   0.257   6.971   4.421
 6982SOL    HW221846   0.369   6.932   4.532
 6983SOL     OW21847   6.308   0.706   3.676
 6983SOL    HW121848   6.225   0.692   3.729
 6983SOL    HW221849   6.388   0.691   3.733
 6984SOL     OW21850   1.677   1.165   6.026
 6984SOL    HW121851   1.704   1.259   6.005
 6984SOL    HW221852   1.733   1.101   5.974
 6985SOL     OW21853   5.524   5.874   1.546
 6985SOL    HW121854   5.490   5.877   1.640
 6985SOL    HW221855   5.486   5.794   1.500
 6986SOL     OW21856   2.070   6.943   4.885
 6986SOL    HW121857   2.121   6.907   4.806
 6986SOL    HW221858   1.972   6.944   4.864
 6987SOL     OW21859   0.302   3.458   6.492
 6987SOL    HW121860   0.243   3.534   6.519
 6987SOL    HW221861   0.383   3.494   6.445
 6988SOL     OW21862   5.316   0.668   3.879
 6988SOL    HW121863   5.339   0.725   3.801
 6988SOL    HW221864   5.305   0.725   3.961
 6989SOL     OW21865   1.866   2.393   3.984
 6989SOL    HW121866   1.852   2.437   3.896
 6989SOL    HW221867   1.932   2.447   4.038
 6990SOL     OW21868   3.888   3.060   0.521
 6990SOL    HW121869   3.845   3.126   0.461
 6990SOL    HW221870   3.858   3.076   0.615
 6991SOL     OW21871   3.951   4.395   5.477
 6991SOL    HW121872   3.932   4.485   5.516
 6991SOL    HW221873   3.970   4.330   5.550
 6992SOL     OW21874   5.238   6.541   4.718
 6992SOL    HW121875   5.249   6.503   4.810
 6992SOL    HW221876   5.320   6.522   4.664
 6993SOL     OW21877   0.642   0.406   3.163
 6993SOL    HW121878   0.627   0.395   3.064
 6993SOL    HW221879   0.723   0.354   3.190
 6994SOL     OW21880   1.472   2.861   6.953
 6994SOL    HW121881   1.496   2.788   7.018
 6994SOL    HW221882   1.383   2.842   6.912
 6995SOL     OW21883   0.396   5.771   2.976
 6995SOL    HW121884   0.322   5.707   2.996
 6995SOL    HW221885   0.482   5.721   2.969
 6996SOL     OW21886   2.403   7.025   5.784
 6996SOL    HW121887   2.321   6.972   5.806
 6996SOL    HW221888   2.379   0.094   5.772
 6997SOL     OW21889   4.942   0.375   4.841
 6997SOL    HW121890   4.858   0.428   4.830
 6997SOL    HW221891   4.919   0.279   4.859
 6998SOL     OW21892   1.284   2.718   3.323
 6998SOL    HW121893   1.284   2.641   3.260
 6998SOL    HW221894   1.371   2.719   3.374
 6999SOL     OW21895   3.622   1.924   6.385
 6999SOL    HW121896   3.579   1.882   6.305
 6999SOL    HW221897   3.551   1.963   6.444
 7000SOL     OW21898   0.363   6.363   2.026
 7000SOL    HW121899   0.382   6.439   1.964
 7000SOL    HW221900   0.271   6.328   2.009
 7001SOL     OW21901   2.796   2.864   5.803
 7001SOL    HW121902   2.809   2.795   5.874
 7001SOL    HW221903   2.850   2.841   5.722
 7002SOL     OW21904   1.336   4.539   3.354
 7002SOL    HW121905   1.418   4.590   3.378
 7002SOL    HW221906   1.357   4.476   3.279
 7003SOL     OW21907   2.481   5.964   0.635
 7003SOL    HW121908   2.451   5.898   0.703
 7003SOL    HW221909   2.572   5.999   0.659
 7004SOL     OW21910   1.450   4.450   1.262
 7004SOL    HW121911   1.533   4.499   1.290
 7004SOL    HW221912   1.421   4.483   1.172
 7005SOL     OW21913   5.095   6.731   5.563
 7005SOL    HW121914   5.107   6.828   5.583
 7005SOL    HW221915   5.183   6.684   5.569
 7006SOL     OW21916   4.308   4.740   4.837
 7006SOL    HW121917   4.318   4.650   4.879
 7006SOL    HW221918   4.387   4.797   4.861
 7007SOL     OW21919   4.982   5.192   2.780
 7007SOL    HW121920   4.922   5.140   2.719
 7007SOL    HW221921   4.935   5.210   2.867
 7008SOL     OW21922   0.651   4.926   4.101
 7008SOL    HW121923   0.591   4.960   4.174
 7008SOL    HW221924   0.712   4.999   4.071
 7009SOL     OW21925   0.509   4.965   2.365
 7009SOL    HW121926   0.480   5.037   2.427
 7009SOL    HW221927   0.433   4.941   2.304
 7010SOL     OW21928   4.116   5.060   6.266
 7010SOL    HW121929   4.167   4.993   6.319
 7010SOL    HW221930   4.129   5.151   6.306
 7011SOL     OW21931   2.582   1.159   4.950
 7011SOL    HW121932   2.579   1.211   5.035
 7011SOL    HW221933   2.667   1.180   4.901
 7012SOL     OW21934   1.263   1.079   2.232
 7012SOL    HW121935   1.181   1.024   2.246
 7012SOL    HW221936   1.327   1.064   2.308
 7013SOL     OW21937   1.064   0.581   2.034
 7013SOL    HW121938   1.142   0.625   2.079
 7013SOL    HW221939   0.980   0.625   2.065
 7014SOL     OW21940   2.504   4.510   1.517
 7014SOL    HW121941   2.531   4.426   1.565
 7014SOL    HW221942   2.431   4.555   1.568
 7015SOL     OW21943   5.122   2.946   2.533
 7015SOL    HW121944   5.098   2.858   2.574
 7015SOL    HW221945   5.047   3.011   2.549
 7016SOL     OW21946   3.738   5.384   1.223
 7016SOL    HW121947   3.756   5.467   1.275
 7016SOL    HW221948   3.723   5.308   1.286
 7017SOL     OW21949   3.629   1.248   3.833
 7017SOL    HW121950   3.694   1.213   3.900
 7017SOL    HW221951   3.564   1.176   3.809
 7018SOL     OW21952   0.630   5.427   4.174
 7018SOL    HW121953   0.612   5.391   4.083
 7018SOL    HW221954   0.543   5.440   4.222
 7019SOL     OW21955   2.056   6.038   0.223
 7019SOL    HW121956   1.979   6.008   0.166
 7019SOL    HW221957   2.131   5.973   0.214
 7020SOL     OW21958   6.265   6.270   6.027
 7020SOL    HW121959   6.279   6.270   5.928
 7020SOL    HW221960   6.280   6.362   6.064
 7021SOL     OW21961   2.830   1.494   5.934
 7021SOL    HW121962   2.870   1.555   5.866
 7021SOL    HW221963   2.746   1.454   5.898
 7022SOL     OW21964   4.977   4.812   0.154
 7022SOL    HW121965   4.933   4.888   0.107
 7022SOL    HW221966   4.925   4.789   0.236
 7023SOL     OW21967   6.154   4.072   2.728
 7023SOL    HW121968   6.097   4.031   2.657
 7023SOL    HW221969   6.156   4.013   2.808
 7024SOL     OW21970   0.362   5.776   0.430
 7024SOL    HW121971   0.330   5.867   0.401
 7024SOL    HW221972   0.316   5.750   0.515
 7025SOL     OW21973   2.281   1.355   5.472
 7025SOL    HW121974   2.307   1.430   5.412
 7025SOL    HW221975   2.361   1.324   5.524
 7026SOL     OW21976   4.075   2.352   0.949
 7026SOL    HW121977   4.068   2.409   1.031
 7026SOL    HW221978   4.171   2.341   0.925
 7027SOL     OW21979   4.304   6.800   4.515
 7027SOL    HW121980   4.290   6.722   4.577
 7027SOL    HW221981   4.280   6.774   4.422
 7028SOL     OW21982   3.907   0.208   4.554
 7028SOL    HW121983   3.873   0.279   4.491
 7028SOL    HW221984   3.850   0.205   4.636
 7029SOL     OW21985   3.352   0.817   5.913
 7029SOL    HW121986   3.319   0.739   5.967
 7029SOL    HW221987   3.327   0.902   5.958
 7030SOL     OW21988   1.744   3.998   4.582
 7030SOL    HW121989   1.699   3.931   4.642
 7030SOL    HW221990   1.675   4.044   4.526
 7031SOL     OW21991   2.507   6.054   4.426
 7031SOL    HW121992   2.474   6.021   4.338
 7031SOL    HW221993   2.538   6.149   4.417
 7032SOL     OW21994   6.311   1.454   2.178
 7032SOL    HW121995   6.211   1.450   2.179
 7032SOL    HW221996   6.344   1.501   2.260
 7033SOL     OW21997   6.493   0.627   3.862
 7033SOL    HW121998   6.544   0.647   3.946
 7033SOL    HW221999   6.554   0.633   3.783
 7034SOL     OW22000   6.189   6.370   3.060
 7034SOL    HW122001   6.135   6.292   3.027
 7034SOL    HW222002   6.162   6.391   3.154
 7035SOL     OW22003   6.607   5.354   1.540
 7035SOL    HW122004   6.651   5.328   1.626
 7035SOL    HW222005   6.545   5.431   1.557
 7036SOL     OW22006   6.426   4.480   1.934
 7036SOL    HW122007   6.380   4.525   1.858
 7036SOL    HW222008   6.383   4.391   1.951
 7037SOL     OW22009   1.407   6.696   6.229
 7037SOL    HW122010   1.477   6.703   6.157
 7037SOL    HW222011   1.421   6.611   6.280
 7038SOL     OW22012   1.165   4.177   4.049
 7038SOL    HW122013   1.235   4.249   4.052
 7038SOL    HW222014   1.167   4.126   4.135
 7039SOL     OW22015   4.204   1.297   6.945
 7039SOL    HW122016   4.234   1.392   6.950
 7039SOL    HW222017   4.233   1.257   6.857
 7040SOL     OW22018   4.472   2.711   6.175
 7040SOL    HW122019   4.433   2.623   6.201
 7040SOL    HW222020   4.495   2.763   6.257
 7041SOL     OW22021   2.499   2.182   2.423
 7041SOL    HW122022   2.566   2.226   2.364
 7041SOL    HW222023   2.546   2.134   2.498
 7042SOL     OW22024   2.532   0.480   6.608
 7042SOL    HW122025   2.526   0.415   6.533
 7042SOL    HW222026   2.442   0.493   6.649
 7043SOL     OW22027   1.430   1.859   2.949
 7043SOL    HW122028   1.401   1.948   2.983
 7043SOL    HW222029   1.497   1.819   3.012
 7044SOL     OW22030   4.905   5.913   2.568
 7044SOL    HW122031   4.842   5.983   2.533
 7044SOL    HW222032   4.997   5.931   2.536
 7045SOL     OW22033   5.364   5.481   1.027
 7045SOL    HW122034   5.387   5.415   1.099
 7045SOL    HW222035   5.271   5.463   0.995
 7046SOL     OW22036   2.952   0.548   5.009
 7046SOL    HW122037   2.895   0.614   5.058
 7046SOL    HW222038   3.031   0.525   5.066
 7047SOL     OW22039   1.498   1.212   4.328
 7047SOL    HW122040   1.508   1.124   4.282
 7047SOL    HW222041   1.510   1.199   4.427
 7048SOL     OW22042   6.658   6.620   0.107
 7048SOL    HW122043   6.673   6.687   0.179
 7048SOL    HW222044   6.740   6.565   0.095
 7049SOL     OW22045   2.567   1.064   0.691
 7049SOL    HW122046   2.623   1.079   0.610
 7049SOL    HW222047   2.609   0.993   0.748
 7050SOL     OW22048   3.930   4.026   4.814
 7050SOL    HW122049   3.855   4.091   4.797
 7050SOL    HW222050   3.933   3.959   4.740
 7051SOL     OW22051   6.530   6.632   2.360
 7051SOL    HW122052   6.457   6.605   2.423
 7051SOL    HW222053   6.602   6.563   2.362
 7052SOL     OW22054   6.727   2.411   3.561
 7052SOL    HW122055   6.736   2.357   3.644
 7052SOL    HW222056   6.783   2.493   3.568
 7053SOL     OW22057   0.257   4.850   6.922
 7053SOL    HW122058   0.236   4.752   6.918
 7053SOL    HW222059   0.178   4.899   6.959
 7054SOL     OW22060   6.847   6.756   1.822
 7054SOL    HW122061   6.849   6.725   1.727
 7054SOL    HW222062   6.890   6.846   1.828
 7055SOL     OW22063   3.750   0.213   4.804
 7055SOL    HW122064   3.670   0.267   4.779
 7055SOL    HW222065   3.764   0.217   4.903
 7056SOL     OW22066   5.291   5.013   3.641
 7056SOL    HW122067   5.327   5.082   3.579
 7056SOL    HW222068   5.361   4.943   3.658
 7057SOL     OW22069   0.510   6.169   3.331
 7057SOL    HW122070   0.488   6.088   3.276
 7057SOL    HW222071   0.590   6.149   3.388
 7058SOL     OW22072   0.937   5.639   5.530
 7058SOL    HW122073   1.014   5.594   5.486
 7058SOL    HW222074   0.869   5.664   5.461
 7059SOL     OW22075   1.686   0.460   2.323
 7059SOL    HW122076   1.733   0.539   2.363
 7059SOL    HW222077   1.738   0.377   2.344
 7060SOL     OW22078   2.968   6.498   1.590
 7060SOL    HW122079   3.058   6.457   1.582
 7060SOL    HW222080   2.899   6.426   1.598
 7061SOL     OW22081   0.647   1.090   2.625
 7061SOL    HW122082   0.636   1.095   2.526
 7061SOL    HW222083   0.597   1.012   2.661
 7062SOL     OW22084   5.629   1.923   4.729
 7062SOL    HW122085   5.681   1.852   4.683
 7062SOL    HW222086   5.687   2.004   4.742
 7063SOL     OW22087   3.867   6.431   1.163
 7063SOL    HW122088   3.948   6.459   1.111
 7063SOL    HW222089   3.852   6.333   1.152
 7064SOL     OW22090   3.815   2.510   0.178
 7064SOL    HW122091   3.858   2.466   0.256
 7064SOL    HW222092   3.835   2.608   0.181
 7065SOL     OW22093   4.208   3.645   1.508
 7065SOL    HW122094   4.290   3.696   1.482
 7065SOL    HW222095   4.230   3.548   1.516
 7066SOL     OW22096   3.595   6.393   0.603
 7066SOL    HW122097   3.543   6.450   0.539
 7066SOL    HW222098   3.624   6.309   0.558
 7067SOL     OW22099   0.067   4.066   5.298
 7067SOL    HW122100   0.071   4.022   5.208
 7067SOL    HW222101   0.120   4.151   5.296
 7068SOL     OW22102   1.448   0.488   3.487
 7068SOL    HW122103   1.498   0.500   3.572
 7068SOL    HW222104   1.507   0.445   3.419
 7069SOL     OW22105   1.703   4.477   4.851
 7069SOL    HW122106   1.710   4.448   4.946
 7069SOL    HW222107   1.648   4.411   4.800
 7070SOL     OW22108   6.118   5.038   4.562
 7070SOL    HW122109   6.042   5.054   4.624
 7070SOL    HW222110   6.093   4.966   4.496
 7071SOL     OW22111   1.432   6.586   5.614
 7071SOL    HW122112   1.434   6.667   5.555
 7071SOL    HW222113   1.510   6.527   5.593
 7072SOL     OW22114   0.251   6.512   6.370
 7072SOL    HW122115   0.201   6.455   6.305
 7072SOL    HW222116   0.206   6.509   6.459
 7073SOL     OW22117   0.723   0.599   5.824
 7073SOL    HW122118   0.729   0.499   5.812
 7073SOL    HW222119   0.628   0.627   5.820
 7074SOL     OW22120   3.582   2.379   1.472
 7074SOL    HW122121   3.653   2.436   1.514
 7074SOL    HW222122   3.531   2.332   1.544
 7075SOL     OW22123   1.756   5.795   3.218
 7075SOL    HW122124   1.659   5.784   3.242
 7075SOL    HW222125   1.812   5.776   3.298
 7076SOL     OW22126   2.596   2.414   6.927
 7076SOL    HW122127   2.648   2.370   6.854
 7076SOL    HW222128   2.659   2.448   6.997
 7077SOL     OW22129   2.076   5.715   5.511
 7077SOL    HW122130   2.012   5.787   5.537
 7077SOL    HW222131   2.076   5.706   5.411
 7078SOL     OW22132   6.047   0.998   3.594
 7078SOL    HW122133   6.096   0.911   3.582
 7078SOL    HW222134   5.978   1.007   3.522
 7079SOL     OW22135   5.837   6.050   5.560
 7079SOL    HW122136   5.899   6.046   5.482
 7079SOL    HW222137   5.853   6.133   5.612
 7080SOL     OW22138   4.963   0.613   3.787
 7080SOL    HW122139   5.042   0.551   3.793
 7080SOL    HW222140   4.884   0.563   3.752
 7081SOL     OW22141   3.798   1.093   4.648
 7081SOL    HW122142   3.819   1.037   4.728
 7081SOL    HW222143   3.711   1.062   4.608
 7082SOL     OW22144   5.315   0.530   6.185
 7082SOL    HW122145   5.366   0.467   6.127
 7082SOL    HW222146   5.240   0.570   6.133
 7083SOL     OW22147   3.573   0.285   6.319
 7083SOL    HW122148   3.548   0.253   6.228
 7083SOL    HW222149   3.494   0.276   6.381
 7084SOL     OW22150   6.907   6.353   6.030
 7084SOL    HW122151   6.912   6.278   5.964
 7084SOL    HW222152   6.812   6.370   6.054
 7085SOL     OW22153   2.562   2.303   1.567
 7085SOL    HW122154   2.597   2.383   1.517
 7085SOL    HW222155   2.599   2.220   1.525
 7086SOL     OW22156   6.148   0.059   6.005
 7086SOL    HW122157   6.182   0.149   5.976
 7086SOL    HW222158   6.052   0.067   6.032
 7087SOL     OW22159   1.064   3.424   4.196
 7087SOL    HW122160   1.003   3.372   4.137
 7087SOL    HW222161   1.159   3.405   4.171
 7088SOL     OW22162   6.156   2.697   5.955
 7088SOL    HW122163   6.224   2.753   6.003
 7088SOL    HW222164   6.189   2.676   5.863
 7089SOL     OW22165   2.675   1.657   0.380
 7089SOL    HW122166   2.678   1.585   0.310
 7089SOL    HW222167   2.619   1.626   0.456
 7090SOL     OW22168   2.483   2.127   5.045
 7090SOL    HW122169   2.463   2.128   4.947
 7090SOL    HW222170   2.403   2.096   5.096
 7091SOL     OW22171   6.836   6.018   6.731
 7091SOL    HW122172   6.869   6.112   6.742
 7091SOL    HW222173   6.833   5.995   6.633
 7092SOL     OW22174   3.370   3.966   0.897
 7092SOL    HW122175   3.417   4.047   0.862
 7092SOL    HW222176   3.387   3.889   0.837
 7093SOL     OW22177   3.244   3.408   4.688
 7093SOL    HW122178   3.320   3.344   4.675
 7093SOL    HW222179   3.256   3.487   4.628
 7094SOL     OW22180   0.810   0.308   5.794
 7094SOL    HW122181   0.895   0.290   5.845
 7094SOL    HW222182   0.811   0.256   5.709
 7095SOL     OW22183   0.705   3.037   6.809
 7095SOL    HW122184   0.707   3.030   6.709
 7095SOL    HW222185   0.746   3.123   6.838
 7096SOL     OW22186   4.662   1.629   2.932
 7096SOL    HW122187   4.651   1.728   2.944
 7096SOL    HW222188   4.738   1.597   2.988
 7097SOL     OW22189   0.585   0.428   1.798
 7097SOL    HW122190   0.496   0.389   1.774
 7097SOL    HW222191   0.642   0.356   1.838
 7098SOL     OW22192   1.766   6.905   6.038
 7098SOL    HW122193   1.717   6.876   5.956
 7098SOL    HW222194   1.826   6.831   6.068
 7099SOL     OW22195   0.669   0.882   6.639
 7099SOL    HW122196   0.724   0.856   6.560
 7099SOL    HW222197   0.642   0.978   6.631
 7100SOL     OW22198   5.721   2.903   1.329
 7100SOL    HW122199   5.816   2.926   1.306
 7100SOL    HW222200   5.664   2.986   1.323
 7101SOL     OW22201   2.496   0.257   5.073
 7101SOL    HW122202   2.552   0.179   5.099
 7101SOL    HW222203   2.487   0.259   4.973
 7102SOL     OW22204   4.337   2.357   0.816
 7102SOL    HW122205   4.365   2.423   0.886
 7102SOL    HW222206   4.381   2.379   0.729
 7103SOL     OW22207   3.598   6.772   6.541
 7103SOL    HW122208   3.659   6.803   6.614
 7103SOL    HW222209   3.523   6.719   6.581
 7104SOL     OW22210   1.072   2.388   3.050
 7104SOL    HW122211   1.090   2.382   2.952
 7104SOL    HW222212   1.029   2.476   3.071
 7105SOL     OW22213   3.223   3.586   4.922
 7105SOL    HW122214   3.239   3.670   4.871
 7105SOL    HW222215   3.274   3.511   4.880
 7106SOL     OW22216   3.210   2.961   5.262
 7106SOL    HW122217   3.245   2.953   5.169
 7106SOL    HW222218   3.232   2.879   5.314
 7107SOL     OW22219   2.889   1.931   0.637
 7107SOL    HW122220   2.793   1.950   0.655
 7107SOL    HW222221   2.901   1.913   0.539
 7108SOL     OW22222   4.813   0.352   1.528
 7108SOL    HW122223   4.863   0.439   1.531
 7108SOL    HW222224   4.864   0.282   1.577
 7109SOL     OW22225   3.536   6.917   6.308
 7109SOL    HW122226   3.537   6.879   6.401
 7109SOL    HW222227   3.623   6.962   6.290
 7110SOL     OW22228   4.365   5.056   3.619
 7110SOL    HW122229   4.355   5.151   3.591
 7110SOL    HW222230   4.321   4.996   3.552
 7111SOL     OW22231   2.055   3.285   4.264
 7111SOL    HW122232   1.988   3.292   4.190
 7111SOL    HW222233   2.027   3.345   4.339
 7112SOL     OW22234   0.865   6.434   3.592
 7112SOL    HW122235   0.925   6.461   3.668
 7112SOL    HW222236   0.876   6.498   3.516
 7113SOL     OW22237   4.156   3.465   4.431
 7113SOL    HW122238   4.158   3.515   4.517
 7113SOL    HW222239   4.148   3.529   4.355
 7114SOL     OW22240   3.908   1.187   0.929
 7114SOL    HW122241   3.867   1.226   0.846
 7114SOL    HW222242   3.996   1.146   0.907
 7115SOL     OW22243   4.786   1.607   0.859
 7115SOL    HW122244   4.775   1.706   0.867
 7115SOL    HW222245   4.822   1.571   0.945
 7116SOL     OW22246   5.427   4.404   2.977
 7116SOL    HW122247   5.344   4.447   2.941
 7116SOL    HW222248   5.452   4.447   3.064
 7117SOL     OW22249   5.797   6.663   1.744
 7117SOL    HW122250   5.889   6.627   1.730
 7117SOL    HW222251   5.763   6.705   1.659
 7118SOL     OW22252   6.436   3.023   0.957
 7118SOL    HW122253   6.486   2.948   0.999
 7118SOL    HW222254   6.500   3.097   0.935
 7119SOL     OW22255   7.011   1.848   3.398
 7119SOL    HW122256   6.914   1.872   3.390
 7119SOL    HW222257   0.025   1.898   3.475
 7120SOL     OW22258   5.324   1.079   3.257
 7120SOL    HW122259   5.304   0.983   3.236
 7120SOL    HW222260   5.379   1.118   3.183
 7121SOL     OW22261   3.268   6.675   2.838
 7121SOL    HW122262   3.204   6.649   2.911
 7121SOL    HW222263   3.350   6.618   2.843
 7122SOL     OW22264   5.841   0.706   6.567
 7122SOL    HW122265   5.922   0.666   6.524
 7122SOL    HW222266   5.759   0.673   6.520
 7123SOL     OW22267   2.573   5.272   1.221
 7123SOL    HW122268   2.666   5.261   1.185
 7123SOL    HW222269   2.544   5.367   1.210
 7124SOL     OW22270   0.491   4.936   0.693
 7124SOL    HW122271   0.526   4.843   0.685
 7124SOL    HW222272   0.555   5.001   0.652
 7125SOL     OW22273   6.003   6.677   2.840
 7125SOL    HW122274   5.914   6.708   2.874
 7125SOL    HW222275   5.993   6.587   2.798
 7126SOL     OW22276   1.388   4.392   0.238
 7126SOL    HW122277   1.362   4.340   0.157
 7126SOL    HW222278   1.476   4.438   0.222
 7127SOL     OW22279   3.733   6.880   4.488
 7127SOL    HW122280   3.721   6.858   4.584
 7127SOL    HW222281   3.660   6.838   4.435
 7128SOL     OW22282   3.071   4.003   1.142
 7128SOL    HW122283   3.100   3.950   1.062
 7128SOL    HW222284   2.972   3.994   1.153
 7129SOL     OW22285   2.597   0.098   1.658
 7129SOL    HW122286   2.671   0.053   1.609
 7129SOL    HW222287   2.510   0.080   1.611
 7130SOL     OW22288   2.171   4.669   3.328
 7130SOL    HW122289   2.102   4.655   3.257
 7130SOL    HW222290   2.233   4.743   3.302
 7131SOL     OW22291   2.730   0.970   2.866
 7131SOL    HW122292   2.758   0.910   2.791
 7131SOL    HW222293   2.676   1.046   2.830
 7132SOL     OW22294   3.272   4.149   3.342
 7132SOL    HW122295   3.298   4.102   3.426
 7132SOL    HW222296   3.222   4.232   3.365
 7133SOL     OW22297   5.212   5.070   2.995
 7133SOL    HW122298   5.147   5.125   3.047
 7133SOL    HW222299   5.163   5.014   2.928
 7134SOL     OW22300   5.392   4.352   4.435
 7134SOL    HW122301   5.447   4.427   4.472
 7134SOL    HW222302   5.388   4.360   4.335
 7135SOL     OW22303   0.929   2.189   4.931
 7135SOL    HW122304   0.891   2.278   4.905
 7135SOL    HW222305   1.028   2.189   4.915
 7136SOL     OW22306   1.789   1.675   0.203
 7136SOL    HW122307   1.706   1.703   0.153
 7136SOL    HW222308   1.802   1.576   0.192
 7137SOL     OW22309   4.267   0.519   4.597
 7137SOL    HW122310   4.229   0.583   4.530
 7137SOL    HW222311   4.325   0.452   4.549
 7138SOL     OW22312   2.070   4.202   0.854
 7138SOL    HW122313   2.028   4.268   0.791
 7138SOL    HW222314   2.104   4.124   0.803
 7139SOL     OW22315   3.543   2.475   1.208
 7139SOL    HW122316   3.512   2.450   1.300
 7139SOL    HW222317   3.638   2.505   1.212
 7140SOL     OW22318   6.196   3.906   5.203
 7140SOL    HW122319   6.248   3.989   5.218
 7140SOL    HW222320   6.248   3.845   5.143
 7141SOL     OW22321   2.883   6.512   0.438
 7141SOL    HW122322   2.853   6.531   0.345
 7141SOL    HW222323   2.817   6.549   0.503
 7142SOL     OW22324   3.962   5.740   4.208
 7142SOL    HW122325   4.028   5.809   4.176
 7142SOL    HW222326   3.892   5.726   4.139
 7143SOL     OW22327   1.999   3.672   5.200
 7143SOL    HW122328   1.917   3.721   5.228
 7143SOL    HW222329   2.079   3.710   5.246
 7144SOL     OW22330   0.765   2.580   3.790
 7144SOL    HW122331   0.686   2.623   3.834
 7144SOL    HW222332   0.738   2.545   3.700
 7145SOL     OW22333   4.710   6.941   6.834
 7145SOL    HW122334   4.653   7.011   6.876
 7145SOL    HW222335   4.727   6.964   6.738
 7146SOL     OW22336   3.328   5.324   0.261
 7146SOL    HW122337   3.270   5.297   0.337
 7146SOL    HW222338   3.396   5.253   0.243
 7147SOL     OW22339   0.256   0.546   3.556
 7147SOL    HW122340   0.341   0.575   3.510
 7147SOL    HW222341   0.241   0.602   3.637
 7148SOL     OW22342   0.986   0.926   1.642
 7148SOL    HW122343   1.009   1.008   1.589
 7148SOL    HW222344   1.019   0.937   1.735
 7149SOL     OW22345   6.565   1.623   3.280
 7149SOL    HW122346   6.661   1.654   3.284
 7149SOL    HW222347   6.510   1.681   3.340
 7150SOL     OW22348   6.488   3.159   0.188
 7150SOL    HW122349   6.545   3.126   0.264
 7150SOL    HW222350   6.401   3.191   0.224
 7151SOL     OW22351   2.581   6.236   1.907
 7151SOL    HW122352   2.647   6.292   1.858
 7151SOL    HW222353   2.509   6.206   1.845
 7152SOL     OW22354   1.365   2.809   3.650
 7152SOL    HW122355   1.295   2.880   3.657
 7152SOL    HW222356   1.394   2.781   3.742
 7153SOL     OW22357   3.828   1.443   3.870
 7153SOL    HW122358   3.845   1.392   3.954
 7153SOL    HW222359   3.762   1.394   3.814
 7154SOL     OW22360   4.963   5.792   3.965
 7154SOL    HW122361   5.022   5.757   3.893
 7154SOL    HW222362   4.900   5.720   3.994
 7155SOL     OW22363   3.032   0.112   1.126
 7155SOL    HW122364   2.996   0.187   1.183
 7155SOL    HW222365   3.132   0.116   1.127
 7156SOL     OW22366   6.986   5.774   5.031
 7156SOL    HW122367   7.025   5.685   5.055
 7156SOL    HW222368   7.014   5.799   4.938
 7157SOL     OW22369   4.781   4.525   1.135
 7157SOL    HW122370   4.772   4.552   1.040
 7157SOL    HW222371   4.712   4.572   1.190
 7158SOL     OW22372   6.689   6.594   3.857
 7158SOL    HW122373   6.596   6.627   3.873
 7158SOL    HW222374   6.744   6.608   3.939
 7159SOL     OW22375   0.942   5.373   0.485
 7159SOL    HW122376   0.885   5.403   0.409
 7159SOL    HW222377   1.032   5.414   0.479
 7160SOL     OW22378   5.464   0.337   1.853
 7160SOL    HW122379   5.503   0.246   1.864
 7160SOL    HW222380   5.365   0.330   1.839
 7161SOL     OW22381   3.582   3.227   3.850
 7161SOL    HW122382   3.632   3.224   3.936
 7161SOL    HW222383   3.510   3.296   3.856
 7162SOL     OW22384   3.133   5.038   3.541
 7162SOL    HW122385   3.080   5.000   3.617
 7162SOL    HW222386   3.210   4.978   3.521
 7163SOL     OW22387   2.497   0.603   2.946
 7163SOL    HW122388   2.568   0.644   3.002
 7163SOL    HW222389   2.522   0.509   2.923
 7164SOL     OW22390   2.206   1.195   3.331
 7164SOL    HW122391   2.138   1.269   3.325
 7164SOL    HW222392   2.166   1.110   3.296
 7165SOL     OW22393   5.179   1.172   1.215
 7165SOL    HW122394   5.150   1.266   1.195
 7165SOL    HW222395   5.252   1.145   1.152
 7166SOL     OW22396   4.976   4.829   1.262
 7166SOL    HW122397   4.906   4.797   1.199
 7166SOL    HW222398   4.975   4.771   1.344
 7167SOL     OW22399   4.929   3.178   5.160
 7167SOL    HW122400   4.986   3.157   5.239
 7167SOL    HW222401   4.880   3.264   5.176
 7168SOL     OW22402   0.931   0.614   3.903
 7168SOL    HW122403   1.029   0.632   3.908
 7168SOL    HW222404   0.911   0.561   3.821
 7169SOL     OW22405   1.531   2.508   5.265
 7169SOL    HW122406   1.522   2.471   5.173
 7169SOL    HW222407   1.561   2.436   5.327
 7170SOL     OW22408   6.597   4.606   4.211
 7170SOL    HW122409   6.575   4.628   4.306
 7170SOL    HW222410   6.584   4.508   4.195
 7171SOL     OW22411   4.105   3.253   5.407
 7171SOL    HW122412   4.053   3.303   5.476
 7171SOL    HW222413   4.109   3.308   5.323
 7172SOL     OW22414   1.275   0.456   0.510
 7172SOL    HW122415   1.343   0.488   0.444
 7172SOL    HW222416   1.184   0.482   0.479
 7173SOL     OW22417   6.949   5.901   5.789
 7173SOL    HW122418   0.012   5.883   5.750
 7173SOL    HW222419   6.945   5.866   5.882
 7174SOL     OW22420   1.734   5.348   0.644
 7174SOL    HW122421   1.741   5.252   0.617
 7174SOL    HW222422   1.824   5.380   0.676
 7175SOL     OW22423   6.483   4.356   6.038
 7175SOL    HW122424   6.551   4.407   6.090
 7175SOL    HW222425   6.435   4.293   6.100
 7176SOL     OW22426   6.041   4.069   1.431
 7176SOL    HW122427   5.954   4.022   1.436
 7176SOL    HW222428   6.046   4.139   1.502
 7177SOL     OW22429   0.402   5.828   2.315
 7177SOL    HW122430   0.345   5.781   2.383
 7177SOL    HW222431   0.498   5.826   2.345
 7178SOL     OW22432   0.732   2.619   6.198
 7178SOL    HW122433   0.740   2.527   6.236
 7178SOL    HW222434   0.726   2.614   6.098
 7179SOL     OW22435   2.865   3.651   6.076
 7179SOL    HW122436   2.909   3.567   6.106
 7179SOL    HW222437   2.766   3.641   6.080
 7180SOL     OW22438   0.209   6.088   2.049
 7180SOL    HW122439   0.184   5.999   2.009
 7180SOL    HW222440   0.240   6.074   2.143
 7181SOL     OW22441   5.123   0.499   1.298
 7181SOL    HW122442   5.057   0.572   1.315
 7181SOL    HW222443   5.200   0.508   1.361
 7182SOL     OW22444   2.902   4.263   5.798
 7182SOL    HW122445   2.867   4.298   5.711
 7182SOL    HW222446   2.941   4.172   5.784
 7183SOL     OW22447   1.113   5.345   2.827
 7183SOL    HW122448   1.177   5.320   2.899
 7183SOL    HW222449   1.048   5.413   2.861
 7184SOL     OW22450   2.175   6.696   3.835
 7184SOL    HW122451   2.124   6.641   3.769
 7184SOL    HW222452   2.249   6.641   3.874
 7185SOL     OW22453   4.710   2.554   6.831
 7185SOL    HW122454   4.683   2.562   6.736
 7185SOL    HW222455   4.805   2.583   6.842
 7186SOL     OW22456   0.670   6.691   4.654
 7186SOL    HW122457   0.626   6.619   4.708
 7186SOL    HW222458   0.734   6.649   4.589
 7187SOL     OW22459   2.219   4.233   1.254
 7187SOL    HW122460   2.179   4.285   1.179
 7187SOL    HW222461   2.305   4.193   1.225
 7188SOL     OW22462   5.413   1.315   1.719
 7188SOL    HW122463   5.412   1.303   1.620
 7188SOL    HW222464   5.486   1.379   1.744
 7189SOL     OW22465   6.247   1.086   4.902
 7189SOL    HW122466   6.317   1.098   4.972
 7189SOL    HW222467   6.230   1.173   4.855
 7190SOL     OW22468   4.774   4.779   3.535
 7190SOL    HW122469   4.863   4.817   3.512
 7190SOL    HW222470   4.748   4.710   3.467
 7191SOL     OW22471   1.829   3.297   2.141
 7191SOL    HW122472   1.907   3.304   2.079
 7191SOL    HW222473   1.755   3.354   2.107
 7192SOL     OW22474   3.097   4.693   5.756
 7192SOL    HW122475   3.086   4.633   5.677
 7192SOL    HW222476   3.119   4.785   5.726
 7193SOL     OW22477   4.170   2.212   3.695
 7193SOL    HW122478   4.185   2.205   3.596
 7193SOL    HW222479   4.074   2.192   3.716
 7194SOL     OW22480   2.609   1.604   2.264
 7194SOL    HW122481   2.681   1.673   2.268
 7194SOL    HW222482   2.521   1.648   2.280
 7195SOL     OW22483   0.965   5.585   1.437
 7195SOL    HW122484   1.046   5.548   1.391
 7195SOL    HW222485   0.892   5.517   1.437
 7196SOL     OW22486   3.190   3.295   2.318
 7196SOL    HW122487   3.261   3.343   2.267
 7196SOL    HW222488   3.142   3.359   2.378
 7197SOL     OW22489   6.953   1.772   5.978
 7197SOL    HW122490   6.981   1.751   6.072
 7197SOL    HW222491   6.970   1.869   5.959
 7198SOL     OW22492   1.051   6.540   6.920
 7198SOL    HW122493   1.010   6.515   7.008
 7198SOL    HW222494   1.143   6.501   6.914
 7199SOL     OW22495   6.561   6.571   2.976
 7199SOL    HW122496   6.542   6.483   3.019
 7199SOL    HW222497   6.503   6.642   3.017
 7200SOL     OW22498   2.049   1.233   1.250
 7200SOL    HW122499   2.131   1.239   1.194
 7200SOL    HW222500   2.074   1.208   1.343
 7201SOL     OW22501   2.220   4.537   3.810
 7201SOL    HW122502   2.166   4.474   3.754
 7201SOL    HW222503   2.185   4.630   3.798
 7202SOL     OW22504   4.043   0.789   6.534
 7202SOL    HW122505   4.070   0.695   6.556
 7202SOL    HW222506   4.028   0.840   6.618
 7203SOL     OW22507   5.245   0.904   7.011
 7203SOL    HW122508   5.149   0.903   0.013
 7203SOL    HW222509   5.263   0.988   6.960
 7204SOL     OW22510   6.231   1.651   2.951
 7204SOL    HW122511   6.251   1.737   2.998
 7204SOL    HW222512   6.317   1.603   2.931
 7205SOL     OW22513   1.963   4.815   2.485
 7205SOL    HW122514   2.011   4.729   2.468
 7205SOL    HW222515   1.869   4.808   2.451
 7206SOL     OW22516   6.414   0.809   1.627
 7206SOL    HW122517   6.408   0.746   1.550
 7206SOL    HW222518   6.426   0.903   1.593
 7207SOL     OW22519   3.757   6.946   1.759
 7207SOL    HW122520   3.797   0.010   1.770
 7207SOL    HW222521   3.657   6.954   1.756
 7208SOL     OW22522   3.303   0.554   5.649
 7208SOL    HW122523   3.319   0.455   5.656
 7208SOL    HW222524   3.229   0.580   5.710
 7209SOL     OW22525   4.039   3.289   4.716
 7209SOL    HW122526   4.100   3.366   4.696
 7209SOL    HW222527   4.020   3.287   4.814
 7210SOL     OW22528   4.689   1.116   4.133
 7210SOL    HW122529   4.710   1.105   4.036
 7210SOL    HW222530   4.756   1.066   4.188
 7211SOL     OW22531   1.564   5.295   3.158
 7211SOL    HW122532   1.478   5.247   3.174
 7211SOL    HW222533   1.564   5.336   3.067
 7212SOL     OW22534   6.000   6.133   4.176
 7212SOL    HW122535   5.935   6.089   4.114
 7212SOL    HW222536   6.001   6.232   4.159
 7213SOL     OW22537   5.578   1.279   5.388
 7213SOL    HW122538   5.537   1.235   5.468
 7213SOL    HW222539   5.580   1.214   5.312
 7214SOL     OW22540   1.645   4.926   4.924
 7214SOL    HW122541   1.736   4.961   4.946
 7214SOL    HW222542   1.593   4.996   4.875
 7215SOL     OW22543   1.078   3.635   3.515
 7215SOL    HW122544   1.106   3.540   3.523
 7215SOL    HW222545   1.125   3.690   3.584
 7216SOL     OW22546   2.315   1.023   1.359
 7216SOL    HW122547   2.297   0.967   1.277
 7216SOL    HW222548   2.392   0.984   1.409
 7217SOL     OW22549   0.943   2.916   2.389
 7217SOL    HW122550   0.975   2.822   2.403
 7217SOL    HW222551   0.844   2.915   2.376
 7218SOL     OW22552   5.225   2.732   5.688
 7218SOL    HW122553   5.286   2.771   5.758
 7218SOL    HW222554   5.223   2.632   5.698
 7219SOL     OW22555   3.574   0.830   2.355
 7219SOL    HW122556   3.673   0.828   2.337
 7219SOL    HW222557   3.543   0.925   2.363
 7220SOL     OW22558   6.872   0.976   2.896
 7220SOL    HW122559   6.784   0.931   2.912
 7220SOL    HW222560   6.864   1.073   2.921
 7221SOL     OW22561   5.591   5.550   6.165
 7221SOL    HW122562   5.551   5.544   6.256
 7221SOL    HW222563   5.640   5.636   6.155
 7222SOL     OW22564   0.190   6.150   1.395
 7222SOL    HW122565   0.108   6.105   1.360
 7222SOL    HW222566   0.237   6.088   1.458
 7223SOL     OW22567   3.642   0.891   5.523
 7223SOL    HW122568   3.586   0.932   5.450
 7223SOL    HW222569   3.582   0.846   5.589
 7224SOL     OW22570   5.074   7.027   4.561
 7224SOL    HW122571   5.012   7.000   4.487
 7224SOL    HW222572   5.124   6.947   4.594
 7225SOL     OW22573   2.405   5.947   0.062
 7225SOL    HW122574   2.397   6.045   0.048
 7225SOL    HW222575   2.346   5.919   0.139
 7226SOL     OW22576   6.701   6.739   0.919
 7226SOL    HW122577   6.669   6.645   0.929
 7226SOL    HW222578   6.788   6.751   0.966
 7227SOL     OW22579   6.747   2.299   6.768
 7227SOL    HW122580   6.797   2.235   6.827
 7227SOL    HW222581   6.783   2.391   6.781
 7228SOL     OW22582   1.395   0.680   2.864
 7228SOL    HW122583   1.320   0.662   2.928
 7228SOL    HW222584   1.382   0.626   2.781
 7229SOL     OW22585   0.524   0.593   3.502
 7229SOL    HW122586   0.581   0.511   3.501
 7229SOL    HW222587   0.580   0.673   3.521
 7230SOL     OW22588   5.176   4.016   3.089
 7230SOL    HW122589   5.120   3.936   3.067
 7230SOL    HW222590   5.264   3.985   3.126
 7231SOL     OW22591   5.449   0.927   6.475
 7231SOL    HW122592   5.395   0.863   6.421
 7231SOL    HW222593   5.400   1.013   6.485
 7232SOL     OW22594   3.770   4.413   1.108
 7232SOL    HW122595   3.827   4.371   1.037
 7232SOL    HW222596   3.828   4.442   1.184
 7233SOL     OW22597   6.407   2.014   6.381
 7233SOL    HW122598   6.351   2.043   6.458
 7233SOL    HW222599   6.453   2.093   6.341
 7234SOL     OW22600   5.764   2.202   1.977
 7234SOL    HW122601   5.844   2.154   1.942
 7234SOL    HW222602   5.707   2.139   2.029
 7235SOL     OW22603   5.800   3.776   5.387
 7235SOL    HW122604   5.814   3.863   5.435
 7235SOL    HW222605   5.754   3.711   5.447
 7236SOL     OW22606   3.150   0.654   3.213
 7236SOL    HW122607   3.070   0.676   3.159
 7236SOL    HW222608   3.230   0.648   3.154
 7237SOL     OW22609   5.973   5.809   5.926
 7237SOL    HW122610   5.932   5.787   6.014
 7237SOL    HW222611   6.007   5.726   5.882
 7238SOL     OW22612   1.719   1.517   1.018
 7238SOL    HW122613   1.634   1.545   1.061
 7238SOL    HW222614   1.755   1.590   0.961
 7239SOL     OW22615   4.169   1.446   1.720
 7239SOL    HW122616   4.207   1.539   1.716
 7239SOL    HW222617   4.109   1.438   1.799
 7240SOL     OW22618   2.834   4.636   0.048
 7240SOL    HW122619   2.798   4.585   6.997
 7240SOL    HW222620   2.850   4.573   0.124
 7241SOL     OW22621   3.572   0.433   4.919
 7241SOL    HW122622   3.597   0.357   4.979
 7241SOL    HW222623   3.492   0.480   4.957
 7242SOL     OW22624   4.887   4.742   6.898
 7242SOL    HW122625   4.788   4.728   6.905
 7242SOL    HW222626   4.923   4.765   6.989
 7243SOL     OW22627   0.490   5.551   0.324
 7243SOL    HW122628   0.451   5.635   0.360
 7243SOL    HW222629   0.550   5.571   0.247
 7244SOL     OW22630   5.950   0.815   1.228
 7244SOL    HW122631   5.861   0.783   1.259
 7244SOL    HW222632   5.950   0.823   1.128
 7245SOL     OW22633   0.530   2.022   3.597
 7245SOL    HW122634   0.477   1.946   3.633
 7245SOL    HW222635   0.543   2.090   3.669
 7246SOL     OW22636   0.432   6.089   6.001
 7246SOL    HW122637   0.340   6.114   6.032
 7246SOL    HW222638   0.455   5.999   6.039
 7247SOL     OW22639   3.508   5.894   2.545
 7247SOL    HW122640   3.497   5.795   2.541
 7247SOL    HW222641   3.590   5.916   2.597
 7248SOL     OW22642   3.095   0.462   4.575
 7248SOL    HW122643   3.104   0.369   4.612
 7248SOL    HW222644   3.023   0.510   4.624
 7249SOL     OW22645   6.185   5.809   6.644
 7249SOL    HW122646   6.148   5.872   6.576
 7249SOL    HW222647   6.240   5.861   6.710
 7250SOL     OW22648   2.882   4.301   6.522
 7250SOL    HW122649   2.882   4.240   6.442
 7250SOL    HW222650   2.822   4.379   6.505
 7251SOL     OW22651   5.766   0.261   4.857
 7251SOL    HW122652   5.863   0.261   4.882
 7251SOL    HW222653   5.712   0.227   4.934
 7252SOL     OW22654   3.619   3.748   4.935
 7252SOL    HW122655   3.582   3.765   4.843
 7252SOL    HW222656   3.637   3.835   4.980
 7253SOL     OW22657   5.290   6.177   1.533
 7253SOL    HW122658   5.379   6.134   1.521
 7253SOL    HW222659   5.250   6.147   1.619
 7254SOL     OW22660   4.829   5.962   5.522
 7254SOL    HW122661   4.841   6.005   5.433
 7254SOL    HW222662   4.793   5.869   5.510
 7255SOL     OW22663   3.726   3.803   2.130
 7255SOL    HW122664   3.680   3.805   2.218
 7255SOL    HW222665   3.721   3.711   2.092
 7256SOL     OW22666   4.806   4.751   4.270
 7256SOL    HW122667   4.884   4.689   4.271
 7256SOL    HW222668   4.721   4.697   4.265
 7257SOL     OW22669   5.714   4.084   3.181
 7257SOL    HW122670   5.689   3.987   3.184
 7257SOL    HW222671   5.648   4.134   3.125
 7258SOL     OW22672   3.607   6.888   4.763
 7258SOL    HW122673   3.679   6.956   4.772
 7258SOL    HW222674   3.524   6.920   4.810
 7259SOL     OW22675   2.191   5.681   5.809
 7259SOL    HW122676   2.171   5.676   5.711
 7259SOL    HW222677   2.157   5.768   5.844
 7260SOL     OW22678   3.677   1.985   1.833
 7260SOL    HW122679   3.588   1.990   1.786
 7260SOL    HW222680   3.697   2.073   1.875
 7261SOL     OW22681   1.801   4.155   2.126
 7261SOL    HW122682   1.900   4.146   2.136
 7261SOL    HW222683   1.764   4.071   2.086
 7262SOL     OW22684   6.143   2.201   5.338
 7262SOL    HW122685   6.057   2.234   5.298
 7262SOL    HW222686   6.214   2.201   5.268
 7263SOL     OW22687   4.301   6.441   2.164
 7263SOL    HW122688   4.269   6.361   2.215
 7263SOL    HW222689   4.400   6.434   2.150
 7264SOL     OW22690   1.089   6.603   5.673
 7264SOL    HW122691   1.185   6.627   5.656
 7264SOL    HW222692   1.030   6.647   5.606
 7265SOL     OW22693   4.259   4.332   5.779
 7265SOL    HW122694   4.163   4.316   5.754
 7265SOL    HW222695   4.283   4.428   5.764
 7266SOL     OW22696   5.732   1.573   1.991
 7266SOL    HW122697   5.781   1.643   2.042
 7266SOL    HW222698   5.636   1.573   2.017
 7267SOL     OW22699   0.082   3.807   4.339
 7267SOL    HW122700   0.060   3.740   4.268
 7267SOL    HW222701   0.028   3.890   4.324
 7268SOL     OW22702   3.236   6.747   1.189
 7268SOL    HW122703   3.314   6.754   1.127
 7268SOL    HW222704   3.214   6.651   1.206
 7269SOL     OW22705   1.637   6.918   1.588
 7269SOL    HW122706   1.637   6.819   1.573
 7269SOL    HW222707   1.681   6.938   1.676
 7270SOL     OW22708   3.176   1.588   2.514
 7270SOL    HW122709   3.222   1.548   2.594
 7270SOL    HW222710   3.167   1.687   2.527
 7271SOL     OW22711   6.251   3.784   3.918
 7271SOL    HW122712   6.273   3.694   3.881
 7271SOL    HW222713   6.268   3.785   4.016
 7272SOL     OW22714   5.872   2.257   1.386
 7272SOL    HW122715   5.900   2.352   1.375
 7272SOL    HW222716   5.794   2.252   1.449
 7273SOL     OW22717   5.729   5.692   6.559
 7273SOL    HW122718   5.651   5.647   6.517
 7273SOL    HW222719   5.764   5.636   6.634
 7274SOL     OW22720   6.726   4.676   5.450
 7274SOL    HW122721   6.652   4.692   5.386
 7274SOL    HW222722   6.703   4.715   5.539
 7275SOL     OW22723   5.883   0.192   1.187
 7275SOL    HW122724   5.825   0.263   1.228
 7275SOL    HW222725   5.979   0.214   1.202
 7276SOL     OW22726   2.798   1.884   3.815
 7276SOL    HW122727   2.728   1.843   3.756
 7276SOL    HW222728   2.772   1.978   3.838
 7277SOL     OW22729   5.924   1.468   4.171
 7277SOL    HW122730   5.950   1.557   4.135
 7277SOL    HW222731   5.858   1.479   4.245
 7278SOL     OW22732   2.584   1.727   3.230
 7278SOL    HW122733   2.514   1.794   3.206
 7278SOL    HW222734   2.578   1.649   3.168
 7279SOL     OW22735   4.508   4.235   1.053
 7279SOL    HW122736   4.567   4.170   1.005
 7279SOL    HW222737   4.438   4.269   0.991
 7280SOL     OW22738   6.046   2.227   5.598
 7280SOL    HW122739   6.052   2.147   5.657
 7280SOL    HW222740   6.111   2.219   5.523
 7281SOL     OW22741   4.024   5.402   1.777
 7281SOL    HW122742   4.115   5.424   1.814
 7281SOL    HW222743   3.985   5.325   1.828
 7282SOL     OW22744   6.222   3.699   2.369
 7282SOL    HW122745   6.125   3.677   2.372
 7282SOL    HW222746   6.233   3.799   2.368
 7283SOL     OW22747   4.383   5.120   2.959
 7283SOL    HW122748   4.374   5.052   2.886
 7283SOL    HW222749   4.385   5.074   3.048
 7284SOL     OW22750   0.140   1.917   2.653
 7284SOL    HW122751   0.214   1.905   2.718
 7284SOL    HW222752   0.052   1.902   2.699
 7285SOL     OW22753   4.732   3.252   1.699
 7285SOL    HW122754   4.652   3.289   1.651
 7285SOL    HW222755   4.703   3.182   1.763
 7286SOL     OW22756   0.118   1.746   3.154
 7286SOL    HW122757   0.057   1.722   3.079
 7286SOL    HW222758   0.068   1.739   3.241
 7287SOL     OW22759   2.306   2.106   3.249
 7287SOL    HW122760   2.283   2.164   3.171
 7287SOL    HW222761   2.405   2.107   3.263
 7288SOL     OW22762   2.455   1.691   2.619
 7288SOL    HW122763   2.535   1.749   2.631
 7288SOL    HW222764   2.407   1.681   2.706
 7289SOL     OW22765   6.784   1.659   1.292
 7289SOL    HW122766   6.751   1.685   1.383
 7289SOL    HW222767   6.727   1.704   1.222
 7290SOL     OW22768   3.975   1.146   4.894
 7290SOL    HW122769   4.056   1.164   4.949
 7290SOL    HW222770   3.909   1.221   4.905
 7291SOL     OW22771   2.944   1.254   0.667
 7291SOL    HW122772   2.954   1.166   0.621
 7291SOL    HW222773   3.016   1.264   0.735
 7292SOL     OW22774   2.561   0.325   2.381
 7292SOL    HW122775   2.464   0.307   2.393
 7292SOL    HW222776   2.576   0.424   2.372
 7293SOL     OW22777   7.022   1.523   4.085
 7293SOL    HW122778   6.933   1.479   4.087
 7293SOL    HW222779   0.064   1.457   4.055
 7294SOL     OW22780   3.456   6.294   2.048
 7294SOL    HW122781   3.499   6.373   2.093
 7294SOL    HW222782   3.390   6.326   1.980
 7295SOL     OW22783   6.167   4.587   1.536
 7295SOL    HW122784   6.077   4.572   1.575
 7295SOL    HW222785   6.174   4.682   1.503
 7296SOL     OW22786   4.800   5.045   2.075
 7296SOL    HW122787   4.719   5.062   2.129
 7296SOL    HW222788   4.824   5.127   2.022
 7297SOL     OW22789   4.217   0.011   1.337
 7297SOL    HW122790   4.248   0.093   1.385
 7297SOL    HW222791   4.150   6.990   1.393
 7298SOL     OW22792   4.199   4.976   0.137
 7298SOL    HW122793   4.210   5.074   0.121
 7298SOL    HW222794   4.119   4.943   0.087
 7299SOL     OW22795   1.132   2.754   6.311
 7299SOL    HW122796   1.116   2.676   6.371
 7299SOL    HW222797   1.044   2.797   6.289
 7300SOL     OW22798   0.285   4.843   2.232
 7300SOL    HW122799   0.266   4.877   2.140
 7300SOL    HW222800   0.214   4.778   2.258
 7301SOL     OW22801   4.637   1.785   5.754
 7301SOL    HW122802   4.712   1.763   5.817
 7301SOL    HW222803   4.553   1.798   5.805
 7302SOL     OW22804   5.679   1.878   6.062
 7302SOL    HW122805   5.724   1.801   6.019
 7302SOL    HW222806   5.709   1.886   6.157
 7303SOL     OW22807   2.420   1.708   2.103
 7303SOL    HW122808   2.437   1.794   2.151
 7303SOL    HW222809   2.495   1.689   2.039
 7304SOL     OW22810   2.634   5.723   0.965
 7304SOL    HW122811   2.687   5.724   0.880
 7304SOL    HW222812   2.641   5.812   1.010
 7305SOL     OW22813   6.210   1.449   0.363
 7305SOL    HW122814   6.161   1.363   0.375
 7305SOL    HW222815   6.309   1.432   0.364
 7306SOL     OW22816   0.704   2.869   1.669
 7306SOL    HW122817   0.777   2.937   1.675
 7306SOL    HW222818   0.615   2.913   1.681
 7307SOL     OW22819   2.149   0.536   0.618
 7307SOL    HW122820   2.051   0.527   0.637
 7307SOL    HW222821   2.170   0.491   0.531
 7308SOL     OW22822   4.659   1.284   2.620
 7308SOL    HW122823   4.583   1.260   2.681
 7308SOL    HW222824   4.724   1.208   2.615
 7309SOL     OW22825   2.628   5.099   3.506
 7309SOL    HW122826   2.669   5.068   3.421
 7309SOL    HW222827   2.701   5.121   3.572
 7310SOL     OW22828   2.245   3.191   5.886
 7310SOL    HW122829   2.287   3.140   5.961
 7310SOL    HW222830   2.146   3.195   5.901
 7311SOL     OW22831   0.472   6.031   6.288
 7311SOL    HW122832   0.415   5.956   6.255
 7311SOL    HW222833   0.565   6.018   6.255
 7312SOL     OW22834   6.673   2.157   3.879
 7312SOL    HW122835   6.702   2.089   3.946
 7312SOL    HW222836   6.737   2.233   3.878
 7313SOL     OW22837   2.607   0.838   2.570
 7313SOL    HW122838   2.548   0.919   2.571
 7313SOL    HW222839   2.586   0.783   2.489
 7314SOL     OW22840   0.481   4.717   5.916
 7314SOL    HW122841   0.539   4.667   5.980
 7314SOL    HW222842   0.439   4.795   5.962
 7315SOL     OW22843   2.044   4.888   2.718
 7315SOL    HW122844   2.022   4.807   2.773
 7315SOL    HW222845   2.016   4.873   2.623
 7316SOL     OW22846   3.332   2.232   1.216
 7316SOL    HW122847   3.243   2.243   1.173
 7316SOL    HW222848   3.400   2.287   1.167
 7317SOL     OW22849   3.684   2.128   0.432
 7317SOL    HW122850   3.739   2.137   0.516
 7317SOL    HW222851   3.624   2.049   0.440
 7318SOL     OW22852   5.475   5.829   0.913
 7318SOL    HW122853   5.459   5.919   0.872
 7318SOL    HW222854   5.402   5.809   0.979
 7319SOL     OW22855   5.727   5.922   6.389
 7319SOL    HW122856   5.655   5.976   6.432
 7319SOL    HW222857   5.738   5.836   6.440
 7320SOL     OW22858   0.423   2.308   1.326
 7320SOL    HW122859   0.424   2.208   1.323
 7320SOL    HW222860   0.382   2.344   1.242
 7321SOL     OW22861   1.264   1.192   6.597
 7321SOL    HW122862   1.223   1.272   6.554
 7321SOL    HW222863   1.338   1.220   6.658
 7322SOL     OW22864   1.307   3.396   3.227
 7322SOL    HW122865   1.246   3.473   3.244
 7322SOL    HW222866   1.388   3.403   3.286
 7323SOL     OW22867   0.855   2.978   0.912
 7323SOL    HW122868   0.928   2.924   0.871
 7323SOL    HW222869   0.877   2.997   1.008
 7324SOL     OW22870   5.769   4.335   4.024
 7324SOL    HW122871   5.713   4.269   3.973
 7324SOL    HW222872   5.736   4.427   4.005
 7325SOL     OW22873   4.286   1.102   5.886
 7325SOL    HW122874   4.330   1.131   5.971
 7325SOL    HW222875   4.223   1.173   5.855
 7326SOL     OW22876   3.539   0.646   0.614
 7326SOL    HW122877   3.612   0.653   0.681
 7326SOL    HW222878   3.462   0.704   0.641
 7327SOL     OW22879   1.409   4.403   3.134
 7327SOL    HW122880   1.344   4.426   3.062
 7327SOL    HW222881   1.446   4.312   3.118
 7328SOL     OW22882   4.560   4.895   4.545
 7328SOL    HW122883   4.625   4.928   4.478
 7328SOL    HW222884   4.468   4.924   4.519
 7329SOL     OW22885   3.164   3.431   1.144
 7329SOL    HW122886   3.216   3.378   1.211
 7329SOL    HW222887   3.150   3.524   1.178
 7330SOL     OW22888   2.707   3.283   1.785
 7330SOL    HW122889   2.697   3.185   1.796
 7330SOL    HW222890   2.620   3.323   1.757
 7331SOL     OW22891   5.319   2.879   2.144
 7331SOL    HW122892   5.339   2.921   2.055
 7331SOL    HW222893   5.376   2.921   2.215
 7332SOL     OW22894   3.192   6.265   6.041
 7332SOL    HW122895   3.292   6.266   6.044
 7332SOL    HW222896   3.163   6.255   5.946
 7333SOL     OW22897   0.718   0.994   1.035
 7333SOL    HW122898   0.797   1.004   1.095
 7333SOL    HW222899   0.665   0.913   1.063
 7334SOL     OW22900   2.880   6.295   4.072
 7334SOL    HW122901   2.878   6.202   4.108
 7334SOL    HW222902   2.852   6.359   4.144
 7335SOL     OW22903   6.718   3.318   2.051
 7335SOL    HW122904   6.623   3.349   2.055
 7335SOL    HW222905   6.725   3.238   1.991
 7336SOL     OW22906   2.277   6.376   2.164
 7336SOL    HW122907   2.365   6.357   2.206
 7336SOL    HW222908   2.262   6.475   2.160
 7337SOL     OW22909   2.454   1.395   3.268
 7337SOL    HW122910   2.487   1.355   3.183
 7337SOL    HW222911   2.418   1.323   3.327
 7338SOL     OW22912   5.263   3.459   1.374
 7338SOL    HW122913   5.250   3.432   1.470
 7338SOL    HW222914   5.175   3.487   1.335
 7339SOL     OW22915   0.037   5.871   4.758
 7339SOL    HW122916   6.976   5.861   4.711
 7339SOL    HW222917   0.105   5.906   4.693
 7340SOL     OW22918   2.891   6.824   0.823
 7340SOL    HW122919   2.814   6.781   0.870
 7340SOL    HW222920   2.975   6.775   0.846
 7341SOL     OW22921   6.498   5.494   4.618
 7341SOL    HW122922   6.551   5.422   4.574
 7341SOL    HW222923   6.401   5.476   4.606
 7342SOL     OW22924   1.273   5.321   1.024
 7342SOL    HW122925   1.191   5.274   1.057
 7342SOL    HW222926   1.313   5.268   0.949
 7343SOL     OW22927   5.336   3.079   2.723
 7343SOL    HW122928   5.273   3.058   2.649
 7343SOL    HW222929   5.292   3.062   2.811
 7344SOL     OW22930   2.410   1.131   0.079
 7344SOL    HW122931   2.478   1.077   0.129
 7344SOL    HW222932   2.392   1.088   7.017
 7345SOL     OW22933   3.779   5.415   0.697
 7345SOL    HW122934   3.749   5.335   0.645
 7345SOL    HW222935   3.745   5.498   0.654
 7346SOL     OW22936   3.659   4.835   1.632
 7346SOL    HW122937   3.610   4.770   1.690
 7346SOL    HW222938   3.658   4.926   1.674
 7347SOL     OW22939   6.201   2.871   2.626
 7347SOL    HW122940   6.222   2.868   2.724
 7347SOL    HW222941   6.126   2.809   2.606
 7348SOL     OW22942   0.713   2.154   5.106
 7348SOL    HW122943   0.798   2.138   5.054
 7348SOL    HW222944   0.705   2.251   5.129
 7349SOL     OW22945   3.838   1.244   0.628
 7349SOL    HW122946   3.881   1.334   0.625
 7349SOL    HW222947   3.794   1.226   0.540
 7350SOL     OW22948   2.209   1.081   2.896
 7350SOL    HW122949   2.159   1.047   2.976
 7350SOL    HW222950   2.197   1.180   2.889
 7351SOL     OW22951   4.318   4.516   6.802
 7351SOL    HW122952   4.252   4.465   6.858
 7351SOL    HW222953   4.368   4.581   6.859
 7352SOL     OW22954   6.659   1.117   3.640
 7352SOL    HW122955   6.589   1.173   3.595
 7352SOL    HW222956   6.740   1.172   3.657
 7353SOL     OW22957   5.052   2.436   4.919
 7353SOL    HW122958   4.999   2.397   4.843
 7353SOL    HW222959   5.024   2.531   4.932
 7354SOL     OW22960   6.509   4.229   5.113
 7354SOL    HW122961   6.600   4.245   5.152
 7354SOL    HW222962   6.491   4.296   5.041
 7355SOL     OW22963   1.373   4.276   2.035
 7355SOL    HW122964   1.408   4.304   1.946
 7355SOL    HW222965   1.324   4.352   2.077
 7356SOL     OW22966   6.089   1.518   5.407
 7356SOL    HW122967   6.064   1.422   5.395
 7356SOL    HW222968   6.151   1.545   5.333
 7357SOL     OW22969   6.413   1.563   0.648
 7357SOL    HW122970   6.313   1.557   0.645
 7357SOL    HW222971   6.442   1.599   0.737
 7358SOL     OW22972   2.965   0.893   4.073
 7358SOL    HW122973   3.031   0.907   4.146
 7358SOL    HW222974   3.005   0.923   3.986
 7359SOL     OW22975   3.496   3.118   2.978
 7359SOL    HW122976   3.416   3.112   3.039
 7359SOL    HW222977   3.466   3.110   2.883
 7360SOL     OW22978   0.332   2.791   5.986
 7360SOL    HW122979   0.348   2.780   6.084
 7360SOL    HW222980   0.417   2.778   5.936
 7361SOL     OW22981   5.301   6.883   2.466
 7361SOL    HW122982   5.351   6.856   2.548
 7361SOL    HW222983   5.204   6.866   2.479
 7362SOL     OW22984   1.979   6.573   5.659
 7362SOL    HW122985   1.948   6.668   5.656
 7362SOL    HW222986   1.976   6.533   5.567
 7363SOL     OW22987   4.841   2.842   6.481
 7363SOL    HW122988   4.796   2.914   6.428
 7363SOL    HW222989   4.911   2.798   6.425
 7364SOL     OW22990   5.557   0.934   1.641
 7364SOL    HW122991   5.572   0.946   1.739
 7364SOL    HW222992   5.613   0.858   1.608
 7365SOL     OW22993   3.208   0.895   2.382
 7365SOL    HW122994   3.199   0.851   2.293
 7365SOL    HW222995   3.223   0.825   2.452
 7366SOL     OW22996   0.671   5.476   0.098
 7366SOL    HW122997   0.638   5.422   0.021
 7366SOL    HW222998   0.747   5.534   0.069
 7367SOL     OW22999   4.914   3.381   0.048
 7367SOL    HW123000   4.902   3.423   0.138
 7367SOL    HW223001   5.003   3.406   0.011
 7368SOL     OW23002   3.268   3.632   3.691
 7368SOL    HW123003   3.181   3.585   3.673
 7368SOL    HW223004   3.250   3.714   3.746
 7369SOL     OW23005   4.342   2.380   6.965
 7369SOL    HW123006   4.262   2.418   7.011
 7369SOL    HW223007   4.424   2.406   7.016
 7370SOL     OW23008   1.845   6.320   1.294
 7370SOL    HW123009   1.937   6.342   1.324
 7370SOL    HW223010   1.839   6.222   1.272
 7371SOL     OW23011   2.599   5.002   4.642
 7371SOL    HW123012   2.575   4.915   4.598
 7371SOL    HW223013   2.694   5.024   4.623
 7372SOL     OW23014   3.072   0.065   5.981
 7372SOL    HW123015   3.004   7.020   5.974
 7372SOL    HW223016   3.163   0.024   5.991
 7373SOL     OW23017   3.929   0.732   1.445
 7373SOL    HW123018   3.994   0.774   1.509
 7373SOL    HW223019   3.930   0.784   1.359
 7374SOL     OW23020   1.865   3.626   6.153
 7374SOL    HW123021   1.783   3.575   6.177
 7374SOL    HW223022   1.903   3.590   6.068
 7375SOL     OW23023   0.637   0.002   2.987
 7375SOL    HW123024   0.657   7.004   3.082
 7375SOL    HW223025   0.699   0.075   2.958
 7376SOL     OW23026   3.027   4.065   5.555
 7376SOL    HW123027   3.015   3.967   5.572
 7376SOL    HW223028   3.008   4.085   5.459
 7377SOL     OW23029   4.600   4.656   1.298
 7377SOL    HW123030   4.500   4.651   1.295
 7377SOL    HW223031   4.628   4.737   1.349
 7378SOL     OW23032   6.587   2.123   5.502
 7378SOL    HW123033   6.678   2.086   5.479
 7378SOL    HW223034   6.589   2.222   5.493
 7379SOL     OW23035   3.595   1.443   1.649
 7379SOL    HW123036   3.647   1.463   1.566
 7379SOL    HW223037   3.646   1.472   1.729
 7380SOL     OW23038   6.930   2.896   5.208
 7380SOL    HW123039   6.960   2.978   5.160
 7380SOL    HW223040   6.914   2.919   5.305
 7381SOL     OW23041   5.792   2.362   0.446
 7381SOL    HW123042   5.779   2.439   0.509
 7381SOL    HW223043   5.823   2.397   0.357
 7382SOL     OW23044   0.172   6.258   3.424
 7382SOL    HW123045   0.245   6.319   3.393
 7382SOL    HW223046   0.204   6.203   3.501
 7383SOL     OW23047   6.885   6.301   3.459
 7383SOL    HW123048   6.983   6.320   3.463
 7383SOL    HW223049   6.846   6.311   3.551
 7384SOL     OW23050   6.048   1.349   2.435
 7384SOL    HW123051   6.128   1.296   2.406
 7384SOL    HW223052   5.970   1.288   2.446
 7385SOL     OW23053   4.748   0.215   1.899
 7385SOL    HW123054   4.693   0.132   1.889
 7385SOL    HW223055   4.820   0.215   1.829
 7386SOL     OW23056   0.145   2.393   5.841
 7386SOL    HW123057   0.118   2.487   5.821
 7386SOL    HW223058   0.070   2.331   5.819
 7387SOL     OW23059   3.971   5.595   3.129
 7387SOL    HW123060   3.908   5.553   3.195
 7387SOL    HW223061   4.029   5.661   3.176
 7388SOL     OW23062   6.652   4.964   4.381
 7388SOL    HW123063   6.646   4.879   4.433
 7388SOL    HW223064   6.744   5.002   4.387
 7389SOL     OW23065   1.193   3.969   5.859
 7389SOL    HW123066   1.220   4.012   5.945
 7389SOL    HW223067   1.226   3.875   5.857
 7390SOL     OW23068   2.345   6.661   5.378
 7390SOL    HW123069   2.349   6.562   5.394
 7390SOL    HW223070   2.256   6.684   5.338
 7391SOL     OW23071   6.855   3.169   0.678
 7391SOL    HW123072   6.842   3.266   0.696
 7391SOL    HW223073   6.775   3.132   0.631
 7392SOL     OW23074   2.699   4.636   3.040
 7392SOL    HW123075   2.732   4.609   3.131
 7392SOL    HW223076   2.635   4.568   3.006
 7393SOL     OW23077   0.768   3.467   1.523
 7393SOL    HW123078   0.743   3.389   1.581
 7393SOL    HW223079   0.818   3.534   1.578
 7394SOL     OW23080   2.888   3.645   6.421
 7394SOL    HW123081   2.978   3.680   6.394
 7394SOL    HW223082   2.834   3.626   6.339
 7395SOL     OW23083   1.256   6.553   0.578
 7395SOL    HW123084   1.266   6.514   0.487
 7395SOL    HW223085   1.279   6.484   0.647
 7396SOL     OW23086   0.991   0.058   0.467
 7396SOL    HW123087   0.939   7.001   0.481
 7396SOL    HW223088   0.985   0.115   0.548
 7397SOL     OW23089   6.554   5.434   4.897
 7397SOL    HW123090   6.538   5.469   4.805
 7397SOL    HW223091   6.616   5.495   4.946
 7398SOL     OW23092   4.186   5.801   3.208
 7398SOL    HW123093   4.253   5.749   3.155
 7398SOL    HW223094   4.233   5.876   3.255
 7399SOL     OW23095   4.833   4.073   4.916
 7399SOL    HW123096   4.769   4.150   4.914
 7399SOL    HW223097   4.902   4.085   4.845
 7400SOL     OW23098   2.216   5.272   6.651
 7400SOL    HW123099   2.286   5.306   6.713
 7400SOL    HW223100   2.238   5.300   6.557
 7401SOL     OW23101   6.209   1.965   4.680
 7401SOL    HW123102   6.256   1.941   4.596
 7401SOL    HW223103   6.147   1.891   4.707
 7402SOL     OW23104   2.199   7.004   3.683
 7402SOL    HW123105   2.278   7.025   3.626
 7402SOL    HW223106   2.188   6.905   3.691
 7403SOL     OW23107   1.873   3.386   1.512
 7403SOL    HW123108   1.791   3.430   1.548
 7403SOL    HW223109   1.853   3.347   1.423
 7404SOL     OW23110   1.520   1.303   2.408
 7404SOL    HW123111   1.426   1.300   2.440
 7404SOL    HW223112   1.551   1.211   2.385
 7405SOL     OW23113   2.689   4.755   6.185
 7405SOL    HW123114   2.720   4.776   6.093
 7405SOL    HW223115   2.631   4.673   6.183
 7406SOL     OW23116   0.419   5.304   1.762
 7406SOL    HW123117   0.508   5.323   1.806
 7406SOL    HW223118   0.373   5.391   1.743
 7407SOL     OW23119   2.119   0.079   6.501
 7407SOL    HW123120   2.059   0.151   6.465
 7407SOL    HW223121   2.170   0.114   6.579
 7408SOL     OW23122   0.753   3.788   5.716
 7408SOL    HW123123   0.673   3.819   5.664
 7408SOL    HW223124   0.827   3.766   5.652
 7409SOL     OW23125   2.967   5.760   5.814
 7409SOL    HW123126   3.058   5.776   5.777
 7409SOL    HW223127   2.899   5.811   5.761
 7410SOL     OW23128   5.868   5.234   0.989
 7410SOL    HW123129   5.831   5.326   0.975
 7410SOL    HW223130   5.848   5.204   1.082
 7411SOL     OW23131   4.648   5.753   5.471
 7411SOL    HW123132   4.628   5.810   5.391
 7411SOL    HW223133   4.618   5.659   5.453
 7412SOL     OW23134   1.152   2.470   0.152
 7412SOL    HW123135   1.134   2.372   0.167
 7412SOL    HW223136   1.115   2.497   0.063
 7413SOL     OW23137   6.619   3.371   4.598
 7413SOL    HW123138   6.654   3.422   4.676
 7413SOL    HW223139   6.559   3.298   4.629
 7414SOL     OW23140   6.897   5.599   3.301
 7414SOL    HW123141   6.968   5.547   3.351
 7414SOL    HW223142   6.808   5.583   3.344
 7415SOL     OW23143   2.135   2.172   2.822
 7415SOL    HW123144   2.233   2.194   2.824
 7415SOL    HW223145   2.097   2.196   2.733
 7416SOL     OW23146   4.990   6.432   4.150
 7416SOL    HW123147   4.956   6.496   4.080
 7416SOL    HW223148   4.959   6.462   4.240
 7417SOL     OW23149   0.599   5.900   0.453
 7417SOL    HW123150   0.507   5.862   0.449
 7417SOL    HW223151   0.627   5.930   0.362
 7418SOL     OW23152   1.442   3.711   0.496
 7418SOL    HW123153   1.473   3.616   0.504
 7418SOL    HW223154   1.443   3.738   0.400
 7419SOL     OW23155   6.222   1.326   4.753
 7419SOL    HW123156   6.293   1.380   4.708
 7419SOL    HW223157   6.147   1.386   4.782
 7420SOL     OW23158   6.937   5.022   2.290
 7420SOL    HW123159   7.019   5.007   2.346
 7420SOL    HW223160   6.920   4.941   2.234
 7421SOL     OW23161   3.982   2.930   1.217
 7421SOL    HW123162   3.934   2.872   1.282
 7421SOL    HW223163   4.029   2.873   1.150
 7422SOL     OW23164   0.910   2.999   1.165
 7422SOL    HW123165   0.952   3.073   1.218
 7422SOL    HW223166   0.898   2.919   1.224
 7423SOL     OW23167   2.114   6.103   6.940
 7423SOL    HW123168   2.033   6.161   6.929
 7423SOL    HW223169   2.153   6.117   0.004
 7424SOL     OW23170   6.223   1.459   4.213
 7424SOL    HW123171   6.244   1.363   4.195
 7424SOL    HW223172   6.237   1.512   4.130
 7425SOL     OW23173   3.999   6.162   5.916
 7425SOL    HW123174   3.992   6.070   5.878
 7425SOL    HW223175   3.944   6.225   5.862
 7426SOL     OW23176   0.935   0.937   6.780
 7426SOL    HW123177   0.962   0.962   6.873
 7426SOL    HW223178   0.835   0.935   6.774
 7427SOL     OW23179   4.502   5.758   4.008
 7427SOL    HW123180   4.458   5.682   4.056
 7427SOL    HW223181   4.502   5.839   4.067
 7428SOL     OW23182   3.109   2.084   6.255
 7428SOL    HW123183   3.134   2.053   6.163
 7428SOL    HW223184   3.097   2.183   6.254
 7429SOL     OW23185   6.296   6.887   3.416
 7429SOL    HW123186   6.354   6.806   3.426
 7429SOL    HW223187   6.214   6.863   3.365
 7430SOL     OW23188   0.027   4.212   4.933
 7430SOL    HW123189   0.024   4.286   4.999
 7430SOL    HW223190   6.964   4.199   4.891
 7431SOL     OW23191   0.956   4.285   2.212
 7431SOL    HW123192   0.901   4.234   2.278
 7431SOL    HW223193   0.913   4.281   2.122
 7432SOL     OW23194   0.860   6.406   4.905
 7432SOL    HW123195   0.891   6.350   4.981
 7432SOL    HW223196   0.937   6.426   4.844
 7433SOL     OW23197   6.263   5.751   0.966
 7433SOL    HW123198   6.276   5.676   0.902
 7433SOL    HW223199   6.351   5.778   1.005
 7434SOL     OW23200   4.767   0.977   6.344
 7434SOL    HW123201   4.828   1.054   6.323
 7434SOL    HW223202   4.817   0.891   6.334
 7435SOL     OW23203   1.730   6.173   0.349
 7435SOL    HW123204   1.749   6.254   0.295
 7435SOL    HW223205   1.736   6.092   0.291
 7436SOL     OW23206   5.162   2.652   0.039
 7436SOL    HW123207   5.210   2.569   0.010
 7436SOL    HW223208   5.140   2.646   0.136
 7437SOL     OW23209   0.232   5.828   5.813
 7437SOL    HW123210   0.263   5.737   5.784
 7437SOL    HW223211   0.222   5.887   5.733
 7438SOL     OW23212   6.478   4.165   2.285
 7438SOL    HW123213   6.491   4.249   2.338
 7438SOL    HW223214   6.532   4.091   2.325
 7439SOL     OW23215   1.419   6.662   3.849
 7439SOL    HW123216   1.443   6.729   3.779
 7439SOL    HW223217   1.367   6.587   3.808
 7440SOL     OW23218   0.892   2.032   4.398
 7440SOL    HW123219   0.904   2.115   4.342
 7440SOL    HW223220   0.827   1.971   4.353
 7441SOL     OW23221   5.376   6.967   4.071
 7441SOL    HW123222   5.403   7.013   4.155
 7441SOL    HW223223   5.438   6.993   3.997
 7442SOL     OW23224   1.711   1.308   6.848
 7442SOL    HW123225   1.690   1.224   6.897
 7442SOL    HW223226   1.807   1.331   6.861
 7443SOL     OW23227   6.821   0.699   1.027
 7443SOL    HW123228   6.879   0.705   0.945
 7443SOL    HW223229   6.846   0.618   1.080
 7444SOL     OW23230   0.073   2.304   6.220
 7444SOL    HW123231   0.153   2.348   6.260
 7444SOL    HW223232   0.027   2.250   6.291
 7445SOL     OW23233   5.214   2.614   2.125
 7445SOL    HW123234   5.249   2.588   2.035
 7445SOL    HW223235   5.250   2.705   2.149
 7446SOL     OW23236   0.180   3.124   1.324
 7446SOL    HW123237   0.174   3.131   1.225
 7446SOL    HW223238   0.272   3.092   1.349
 7447SOL     OW23239   0.874   4.278   5.796
 7447SOL    HW123240   0.780   4.314   5.797
 7447SOL    HW223241   0.936   4.344   5.837
 7448SOL     OW23242   6.953   6.620   6.009
 7448SOL    HW123243   6.935   6.522   6.018
 7448SOL    HW223244   6.896   6.658   5.936
 7449SOL     OW23245   4.585   2.143   2.633
 7449SOL    HW123246   4.579   2.200   2.552
 7449SOL    HW223247   4.681   2.130   2.658
 7450SOL     OW23248   3.063   0.744   2.796
 7450SOL    HW123249   3.139   0.791   2.751
 7450SOL    HW223250   2.977   0.766   2.749
 7451SOL     OW23251   1.540   0.889   3.639
 7451SOL    HW123252   1.562   0.799   3.675
 7451SOL    HW223253   1.550   0.957   3.711
 7452SOL     OW23254   1.710   6.937   5.057
 7452SOL    HW123255   1.734   0.007   5.063
 7452SOL    HW223256   1.721   6.894   5.147
 7453SOL     OW23257   6.140   5.938   5.052
 7453SOL    HW123258   6.133   5.896   5.143
 7453SOL    HW223259   6.154   6.036   5.063
 7454SOL     OW23260   0.312   3.320   0.590
 7454SOL    HW123261   0.412   3.330   0.587
 7454SOL    HW223262   0.288   3.249   0.656
 7455SOL     OW23263   4.817   1.784   0.222
 7455SOL    HW123264   4.841   1.840   0.142
 7455SOL    HW223265   4.727   1.742   0.208
 7456SOL     OW23266   2.119   3.332   4.933
 7456SOL    HW123267   2.147   3.288   5.018
 7456SOL    HW223268   2.132   3.431   4.941
 7457SOL     OW23269   5.802   0.908   5.829
 7457SOL    HW123270   5.729   0.902   5.896
 7457SOL    HW223271   5.852   0.994   5.842
 7458SOL     OW23272   2.730   1.144   0.328
 7458SOL    HW123273   2.632   1.136   0.345
 7458SOL    HW223274   2.764   1.228   0.371
 7459SOL     OW23275   4.700   0.810   4.427
 7459SOL    HW123276   4.691   0.740   4.357
 7459SOL    HW223277   4.792   0.807   4.466
 7460SOL     OW23278   0.449   4.422   6.845
 7460SOL    HW123279   0.382   4.470   6.900
 7460SOL    HW223280   0.509   4.488   6.800
 7461SOL     OW23281   4.978   0.896   3.982
 7461SOL    HW123282   4.999   0.804   3.949
 7461SOL    HW223283   4.911   0.938   3.921
 7462SOL     OW23284   2.356   1.381   2.251
 7462SOL    HW123285   2.387   1.363   2.157
 7462SOL    HW223286   2.283   1.317   2.275
 7463SOL     OW23287   3.760   3.502   2.856
 7463SOL    HW123288   3.705   3.534   2.934
 7463SOL    HW223289   3.831   3.569   2.836
 7464SOL     OW23290   5.506   5.978   0.605
 7464SOL    HW123291   5.537   5.902   0.549
 7464SOL    HW223292   5.582   6.013   0.660
 7465SOL     OW23293   3.041   0.558   1.684
 7465SOL    HW123294   3.079   0.478   1.639
 7465SOL    HW223295   3.115   0.614   1.722
 7466SOL     OW23296   0.991   0.268   6.851
 7466SOL    HW123297   1.056   0.295   6.780
 7466SOL    HW223298   0.906   0.238   6.808
 7467SOL     OW23299   6.732   1.374   1.248
 7467SOL    HW123300   6.693   1.352   1.337
 7467SOL    HW223301   6.730   1.473   1.234
 7468SOL     OW23302   6.488   3.393   3.124
 7468SOL    HW123303   6.467   3.323   3.055
 7468SOL    HW223304   6.416   3.394   3.193
 7469SOL     OW23305   0.404   1.059   2.035
 7469SOL    HW123306   0.489   1.079   1.986
 7469SOL    HW223307   0.424   1.021   2.125
 7470SOL     OW23308   6.940   2.537   2.224
 7470SOL    HW123309   6.883   2.601   2.173
 7470SOL    HW223310   6.978   2.582   2.304
 7471SOL     OW23311   6.435   6.047   5.798
 7471SOL    HW123312   6.482   6.050   5.710
 7471SOL    HW223313   6.342   6.012   5.785
 7472SOL     OW23314   3.186   6.295   2.726
 7472SOL    HW123315   3.226   6.362   2.788
 7472SOL    HW223316   3.258   6.237   2.688
 7473SOL     OW23317   6.729   3.582   4.804
 7473SOL    HW123318   6.747   3.659   4.866
 7473SOL    HW223319   6.785   3.504   4.830
 7474SOL     OW23320   3.761   0.763   2.977
 7474SOL    HW123321   3.675   0.794   2.935
 7474SOL    HW223322   3.832   0.831   2.961
 7475SOL     OW23323   4.315   1.540   0.228
 7475SOL    HW123324   4.233   1.521   0.174
 7475SOL    HW223325   4.390   1.565   0.167
 7476SOL     OW23326   3.502   6.720   5.008
 7476SOL    HW123327   3.553   6.634   5.015
 7476SOL    HW223328   3.413   6.703   4.965
 7477SOL     OW23329   4.765   2.061   3.715
 7477SOL    HW123330   4.769   1.962   3.725
 7477SOL    HW223331   4.850   2.095   3.676
 7478SOL     OW23332   1.502   5.632   1.163
 7478SOL    HW123333   1.417   5.637   1.110
 7478SOL    HW223334   1.558   5.558   1.128
 7479SOL     OW23335   4.752   0.249   6.631
 7479SOL    HW123336   4.759   0.320   6.560
 7479SOL    HW223337   4.658   0.241   6.662
 7480SOL     OW23338   0.117   5.048   0.834
 7480SOL    HW123339   0.019   5.030   0.828
 7480SOL    HW223340   0.163   5.010   0.754
 7481SOL     OW23341   6.061   5.275   0.813
 7481SOL    HW123342   6.112   5.194   0.784
 7481SOL    HW223343   5.992   5.248   0.880
 7482SOL     OW23344   5.045   0.711   4.215
 7482SOL    HW123345   5.061   0.613   4.213
 7482SOL    HW223346   5.121   0.758   4.168
 7483SOL     OW23347   3.190   0.881   6.278
 7483SOL    HW123348   3.125   0.862   6.352
 7483SOL    HW223349   3.257   0.948   6.308
 7484SOL     OW23350   2.050   0.031   1.995
 7484SOL    HW123351   2.107   0.021   2.077
 7484SOL    HW223352   2.045   0.128   1.970
 7485SOL     OW23353   1.813   6.504   6.775
 7485SOL    HW123354   1.818   6.603   6.783
 7485SOL    HW223355   1.731   6.478   6.724
 7486SOL     OW23356   2.335   6.962   5.418
 7486SOL    HW123357   2.398   0.013   5.420
 7486SOL    HW223358   2.388   6.878   5.408
 7487SOL     OW23359   4.130   5.540   3.452
 7487SOL    HW123360   4.170   5.581   3.370
 7487SOL    HW223361   4.138   5.605   3.528
 7488SOL     OW23362   3.543   1.092   6.054
 7488SOL    HW123363   3.485   1.129   5.982
 7488SOL    HW223364   3.571   1.165   6.116
 7489SOL     OW23365   5.499   3.401   3.009
 7489SOL    HW123366   5.592   3.381   3.040
 7489SOL    HW223367   5.472   3.492   3.040
 7490SOL     OW23368   5.901   1.654   1.757
 7490SOL    HW123369   5.826   1.635   1.820
 7490SOL    HW223370   5.877   1.731   1.698
 7491SOL     OW23371   6.614   5.611   6.567
 7491SOL    HW123372   6.615   5.520   6.608
 7491SOL    HW223373   6.520   5.639   6.547
 7492SOL     OW23374   1.994   2.731   4.547
 7492SOL    HW123375   1.931   2.659   4.579
 7492SOL    HW223376   2.087   2.694   4.542
 7493SOL     OW23377   5.143   3.551   0.054
 7493SOL    HW123378   5.205   3.563   7.004
 7493SOL    HW223379   5.189   3.500   0.126
 7494SOL     OW23380   5.717   1.445   1.448
 7494SOL    HW123381   5.651   1.376   1.480
 7494SOL    HW223382   5.795   1.399   1.405
 7495SOL     OW23383   0.707   1.969   2.127
 7495SOL    HW123384   0.693   2.067   2.134
 7495SOL    HW223385   0.622   1.921   2.146
 7496SOL     OW23386   1.045   4.811   5.726
 7496SOL    HW123387   0.995   4.750   5.665
 7496SOL    HW223388   1.143   4.794   5.717
 7497SOL     OW23389   2.321   4.601   1.681
 7497SOL    HW123390   2.237   4.554   1.654
 7497SOL    HW223391   2.334   4.591   1.780
 7498SOL     OW23392   4.171   1.725   4.326
 7498SOL    HW123393   4.258   1.771   4.307
 7498SOL    HW223394   4.172   1.634   4.284
 7499SOL     OW23395   5.245   5.666   4.276
 7499SOL    HW123396   5.192   5.609   4.213
 7499SOL    HW223397   5.329   5.618   4.302
 7500SOL     OW23398   4.954   4.368   1.275
 7500SOL    HW123399   4.918   4.346   1.366
 7500SOL    HW223400   4.883   4.412   1.220
 7501SOL     OW23401   0.376   4.264   4.034
 7501SOL    HW123402   0.430   4.245   4.117
 7501SOL    HW223403   0.353   4.178   3.989
 7502SOL     OW23404   1.883   1.581   4.830
 7502SOL    HW123405   1.800   1.526   4.820
 7502SOL    HW223406   1.861   1.668   4.873
 7503SOL     OW23407   2.629   2.215   6.065
 7503SOL    HW123408   2.636   2.117   6.082
 7503SOL    HW223409   2.712   2.247   6.018
 7504SOL     OW23410   4.011   6.377   3.640
 7504SOL    HW123411   4.036   6.346   3.548
 7504SOL    HW223412   3.927   6.431   3.636
 7505SOL     OW23413   1.746   1.965   4.549
 7505SOL    HW123414   1.655   1.946   4.586
 7505SOL    HW223415   1.811   1.896   4.582
 7506SOL     OW23416   3.491   1.750   2.956
 7506SOL    HW123417   3.435   1.745   2.874
 7506SOL    HW223418   3.445   1.805   3.026
 7507SOL     OW23419   1.349   6.139   6.102
 7507SOL    HW123420   1.310   6.197   6.030
 7507SOL    HW223421   1.310   6.047   6.096
 7508SOL     OW23422   5.354   0.234   3.563
 7508SOL    HW123423   5.367   0.137   3.583
 7508SOL    HW223424   5.397   0.289   3.635
 7509SOL     OW23425   4.637   3.963   5.867
 7509SOL    HW123426   4.712   3.900   5.887
 7509SOL    HW223427   4.649   4.002   5.776
 7510SOL     OW23428   3.485   4.116   5.017
 7510SOL    HW123429   3.552   4.064   5.069
 7510SOL    HW223430   3.426   4.166   5.080
 7511SOL     OW23431   1.305   0.609   2.179
 7511SOL    HW123432   1.361   0.679   2.136
 7511SOL    HW223433   1.340   0.589   2.270
 7512SOL     OW23434   1.978   2.632   1.748
 7512SOL    HW123435   1.886   2.605   1.775
 7512SOL    HW223436   2.036   2.636   1.829
 7513SOL     OW23437   1.038   2.842   6.622
 7513SOL    HW123438   0.969   2.772   6.641
 7513SOL    HW223439   0.992   2.929   6.605
 7514SOL     OW23440   2.719   5.871   2.994
 7514SOL    HW123441   2.699   5.773   3.004
 7514SOL    HW223442   2.741   5.910   3.083
 7515SOL     OW23443   6.148   5.843   2.738
 7515SOL    HW123444   6.229   5.804   2.781
 7515SOL    HW223445   6.166   5.857   2.641
 7516SOL     OW23446   0.197   1.066   2.777
 7516SOL    HW123447   0.247   1.138   2.825
 7516SOL    HW223448   0.207   0.980   2.826
 7517SOL     OW23449   0.391   4.250   1.425
 7517SOL    HW123450   0.354   4.296   1.506
 7517SOL    HW223451   0.480   4.290   1.403
 7518SOL     OW23452   5.055   5.347   3.385
 7518SOL    HW123453   5.025   5.264   3.431
 7518SOL    HW223454   5.096   5.409   3.452
 7519SOL     OW23455   2.526   6.018   3.939
 7519SOL    HW123456   2.445   6.015   3.880
 7519SOL    HW223457   2.593   5.952   3.907
 7520SOL     OW23458   1.684   6.565   4.223
 7520SOL    HW123459   1.740   6.521   4.153
 7520SOL    HW223460   1.743   6.614   4.288
 7521SOL     OW23461   4.836   4.364   5.834
 7521SOL    HW123462   4.867   4.438   5.775
 7521SOL    HW223463   4.770   4.308   5.785
 7522SOL     OW23464   1.828   0.846   1.323
 7522SOL    HW123465   1.734   0.821   1.300
 7522SOL    HW223466   1.830   0.942   1.352
 7523SOL     OW23467   5.981   6.786   6.707
 7523SOL    HW123468   5.936   6.753   6.624
 7523SOL    HW223469   5.950   6.732   6.786
 7524SOL     OW23470   0.100   1.570   4.975
 7524SOL    HW123471   0.073   1.476   4.956
 7524SOL    HW223472   0.018   1.625   4.993
 7525SOL     OW23473   1.580   0.283   0.804
 7525SOL    HW123474   1.499   0.241   0.763
 7525SOL    HW223475   1.578   0.270   0.903
 7526SOL     OW23476   3.624   2.917   4.796
 7526SOL    HW123477   3.623   2.880   4.889
 7526SOL    HW223478   3.719   2.929   4.767
 7527SOL     OW23479   5.070   5.230   3.137
 7527SOL    HW123480   4.989   5.252   3.084
 7527SOL    HW223481   5.069   5.284   3.222
 7528SOL     OW23482   6.620   3.459   6.627
 7528SOL    HW123483   6.708   3.447   6.673
 7528SOL    HW223484   6.552   3.489   6.693
 7529SOL     OW23485   3.324   1.216   5.772
 7529SOL    HW123486   3.411   1.210   5.722
 7529SOL    HW223487   3.248   1.204   5.707
 7530SOL     OW23488   0.632   3.745   2.658
 7530SOL    HW123489   0.631   3.672   2.589
 7530SOL    HW223490   0.622   3.705   2.749
 7531SOL     OW23491   3.906   2.185   3.749
 7531SOL    HW123492   3.834   2.171   3.681
 7531SOL    HW223493   3.867   2.178   3.841
 7532SOL     OW23494   5.486   5.129   2.577
 7532SOL    HW123495   5.388   5.111   2.578
 7532SOL    HW223496   5.536   5.044   2.595
 7533SOL     OW23497   3.792   0.610   4.346
 7533SOL    HW123498   3.789   0.510   4.340
 7533SOL    HW223499   3.803   0.637   4.442
 7534SOL     OW23500   5.059   6.746   5.093
 7534SOL    HW123501   5.127   6.749   5.020
 7534SOL    HW223502   4.985   6.683   5.068
 7535SOL     OW23503   3.336   3.345   6.190
 7535SOL    HW123504   3.279   3.426   6.177
 7535SOL    HW223505   3.432   3.370   6.179
 7536SOL     OW23506   3.785   6.388   4.198
 7536SOL    HW123507   3.763   6.401   4.101
 7536SOL    HW223508   3.714   6.332   4.241
 7537SOL     OW23509   2.210   5.015   5.812
 7537SOL    HW123510   2.233   4.976   5.723
 7537SOL    HW223511   2.291   5.016   5.871
 7538SOL     OW23512   2.882   3.534   2.367
 7538SOL    HW123513   2.805   3.536   2.303
 7538SOL    HW223514   2.885   3.444   2.412
 7539SOL     OW23515   2.013   2.884   4.798
 7539SOL    HW123516   2.048   2.831   4.722
 7539SOL    HW223517   2.069   2.966   4.811
 7540SOL     OW23518   2.175   1.532   6.921
 7540SOL    HW123519   2.243   1.469   6.884
 7540SOL    HW223520   2.194   1.550   7.017
 7541SOL     OW23521   6.411   2.323   5.873
 7541SOL    HW123522   6.470   2.319   5.792
 7541SOL    HW223523   6.439   2.253   5.938
 7542SOL     OW23524   1.444   6.682   6.621
 7542SOL    HW123525   1.360   6.645   6.583
 7542SOL    HW223526   1.460   6.774   6.584
 7543SOL     OW23527   3.767   3.160   0.133
 7543SOL    HW123528   3.771   3.194   0.227
 7543SOL    HW223529   3.788   3.235   0.070
 7544SOL     OW23530   2.188   1.974   2.426
 7544SOL    HW123531   2.256   1.905   2.449
 7544SOL    HW223532   2.099   1.930   2.415
 7545SOL     OW23533   5.430   6.231   4.440
 7545SOL    HW123534   5.402   6.161   4.505
 7545SOL    HW223535   5.355   6.296   4.426
 7546SOL     OW23536   5.042   0.661   6.597
 7546SOL    HW123537   5.127   0.715   6.594
 7546SOL    HW223538   5.045   0.599   6.675
 7547SOL     OW23539   3.131   0.346   0.109
 7547SOL    HW123540   3.143   0.255   0.069
 7547SOL    HW223541   3.173   0.347   0.200
 7548SOL     OW23542   1.806   2.449   1.500
 7548SOL    HW123543   1.848   2.540   1.500
 7548SOL    HW223544   1.785   2.422   1.594
 7549SOL     OW23545   5.853   2.255   2.376
 7549SOL    HW123546   5.824   2.293   2.289
 7549SOL    HW223547   5.776   2.253   2.440
 7550SOL     OW23548   2.111   5.727   1.262
 7550SOL    HW123549   2.034   5.675   1.299
 7550SOL    HW223550   2.088   5.758   1.169
 7551SOL     OW23551   4.863   3.526   6.489
 7551SOL    HW123552   4.904   3.616   6.477
 7551SOL    HW223553   4.790   3.531   6.556
 7552SOL     OW23554   3.661   5.216   3.501
 7552SOL    HW123555   3.573   5.245   3.465
 7552SOL    HW223556   3.730   5.286   3.482
 7553SOL     OW23557   4.245   5.092   5.769
 7553SOL    HW123558   4.302   5.091   5.687
 7553SOL    HW223559   4.202   5.182   5.778
 7554SOL     OW23560   6.391   0.779   1.160
 7554SOL    HW123561   6.434   0.869   1.167
 7554SOL    HW223562   6.385   0.738   1.250
 7555SOL     OW23563   1.438   5.897   5.355
 7555SOL    HW123564   1.486   5.980   5.385
 7555SOL    HW223565   1.406   5.847   5.435
 7556SOL     OW23566   0.528   2.754   5.315
 7556SOL    HW123567   0.574   2.831   5.358
 7556SOL    HW223568   0.596   2.695   5.271
 7557SOL     OW23569   4.708   3.790   7.012
 7557SOL    HW123570   4.661   3.864   6.964
 7557SOL    HW223571   4.807   3.807   7.010
 7558SOL     OW23572   1.576   3.342   3.334
 7558SOL    HW123573   1.627   3.375   3.413
 7558SOL    HW223574   1.562   3.243   3.342
 7559SOL     OW23575   0.683   4.284   1.364
 7559SOL    HW123576   0.763   4.285   1.424
 7559SOL    HW223577   0.706   4.241   1.277
 7560SOL     OW23578   4.270   6.792   0.144
 7560SOL    HW123579   4.289   6.783   0.046
 7560SOL    HW223580   4.337   6.738   0.196
 7561SOL     OW23581   0.245   2.662   0.909
 7561SOL    HW123582   0.299   2.579   0.922
 7561SOL    HW223583   0.183   2.650   0.832
 7562SOL     OW23584   5.831   5.572   5.146
 7562SOL    HW123585   5.808   5.484   5.104
 7562SOL    HW223586   5.839   5.561   5.245
 7563SOL     OW23587   2.128   0.584   1.987
 7563SOL    HW123588   2.213   0.567   1.938
 7563SOL    HW223589   2.093   0.499   2.024
 7564SOL     OW23590   4.995   5.970   4.154
 7564SOL    HW123591   5.091   5.992   4.140
 7564SOL    HW223592   4.967   5.898   4.091
 7565SOL     OW23593   4.760   4.560   0.852
 7565SOL    HW123594   4.804   4.472   0.833
 7565SOL    HW223595   4.771   4.620   0.774
 7566SOL     OW23596   1.362   6.062   4.239
 7566SOL    HW123597   1.340   6.140   4.181
 7566SOL    HW223598   1.418   6.092   4.317
 7567SOL     OW23599   2.902   4.119   0.157
 7567SOL    HW123600   2.977   4.148   0.098
 7567SOL    HW223601   2.912   4.023   0.179
 7568SOL     OW23602   4.701   4.756   2.748
 7568SOL    HW123603   4.700   4.795   2.656
 7568SOL    HW223604   4.761   4.676   2.750
 7569SOL     OW23605   4.508   0.218   0.773
 7569SOL    HW123606   4.437   0.160   0.812
 7569SOL    HW223607   4.588   0.217   0.833
 7570SOL     OW23608   6.520   4.918   4.147
 7570SOL    HW123609   6.556   4.945   4.236
 7570SOL    HW223610   6.500   4.820   4.148
 7571SOL     OW23611   4.989   4.629   2.196
 7571SOL    HW123612   5.009   4.594   2.105
 7571SOL    HW223613   5.062   4.603   2.259
 7572SOL     OW23614   2.505   1.616   4.886
 7572SOL    HW123615   2.525   1.519   4.893
 7572SOL    HW223616   2.591   1.667   4.873
 7573SOL     OW23617   2.494   5.652   4.365
 7573SOL    HW123618   2.527   5.690   4.278
 7573SOL    HW223619   2.415   5.705   4.397
 7574SOL     OW23620   5.117   6.472   2.783
 7574SOL    HW123621   5.039   6.534   2.795
 7574SOL    HW223622   5.085   6.387   2.740
 7575SOL     OW23623   3.601   2.106   4.884
 7575SOL    HW123624   3.682   2.164   4.895
 7575SOL    HW223625   3.627   2.020   4.839
 7576SOL     OW23626   6.034   2.863   0.743
 7576SOL    HW123627   5.938   2.874   0.766
 7576SOL    HW223628   6.073   2.788   0.796
 7577SOL     OW23629   5.110   0.515   5.033
 7577SOL    HW123630   5.037   0.562   5.082
 7577SOL    HW223631   5.076   0.484   4.944
 7578SOL     OW23632   2.563   4.760   4.517
 7578SOL    HW123633   2.467   4.787   4.508
 7578SOL    HW223634   2.570   4.686   4.585
 7579SOL     OW23635   4.039   1.516   3.259
 7579SOL    HW123636   3.963   1.570   3.222
 7579SOL    HW223637   4.120   1.529   3.201
 7580SOL     OW23638   1.873   3.761   2.837
 7580SOL    HW123639   1.971   3.762   2.854
 7580SOL    HW223640   1.843   3.667   2.816
 7581SOL     OW23641   6.061   0.515   1.301
 7581SOL    HW123642   6.079   0.609   1.329
 7581SOL    HW223643   6.126   0.453   1.345
 7582SOL     OW23644   3.132   0.832   1.103
 7582SOL    HW123645   3.119   0.871   1.011
 7582SOL    HW223646   3.132   0.905   1.171
 7583SOL     OW23647   6.674   3.183   2.312
 7583SOL    HW123648   6.709   3.224   2.228
 7583SOL    HW223649   6.751   3.160   2.373
 7584SOL     OW23650   2.620   0.415   1.066
 7584SOL    HW123651   2.607   0.356   0.986
 7584SOL    HW223652   2.569   0.499   1.055
 7585SOL     OW23653   1.814   5.009   6.103
 7585SOL    HW123654   1.845   4.939   6.038
 7585SOL    HW223655   1.777   4.964   6.184
 7586SOL     OW23656   2.487   1.029   2.152
 7586SOL    HW123657   2.487   1.069   2.244
 7586SOL    HW223658   2.553   0.954   2.149
 7587SOL     OW23659   1.547   1.018   5.725
 7587SOL    HW123660   1.578   1.033   5.631
 7587SOL    HW223661   1.627   1.013   5.786
 7588SOL     OW23662   0.305   4.376   1.677
 7588SOL    HW123663   0.378   4.440   1.702
 7588SOL    HW223664   0.218   4.410   1.713
 7589SOL     OW23665   5.594   5.653   0.749
 7589SOL    HW123666   5.564   5.558   0.761
 7589SOL    HW223667   5.561   5.709   0.825
 7590SOL     OW23668   1.740   0.781   5.756
 7590SOL    HW123669   1.791   0.858   5.795
 7590SOL    HW223670   1.684   0.739   5.828
 7591SOL     OW23671   6.926   5.045   0.633
 7591SOL    HW123672   6.958   5.037   0.539
 7591SOL    HW223673   6.892   4.956   0.665
 7592SOL     OW23674   5.350   5.631   0.440
 7592SOL    HW123675   5.292   5.699   0.396
 7592SOL    HW223676   5.398   5.673   0.517
 7593SOL     OW23677   6.216   2.164   6.657
 7593SOL    HW123678   6.278   2.241   6.642
 7593SOL    HW223679   6.234   2.124   6.747
 7594SOL     OW23680   1.303   5.997   3.927
 7594SOL    HW123681   1.390   6.029   3.964
 7594SOL    HW223682   1.274   5.915   3.977
 7595SOL     OW23683   6.262   2.735   0.080
 7595SOL    HW123684   6.300   2.748   0.171
 7595SOL    HW223685   6.270   2.820   0.028
 7596SOL     OW23686   5.466   4.443   1.943
 7596SOL    HW123687   5.500   4.371   1.882
 7596SOL    HW223688   5.542   4.502   1.970
 7597SOL     OW23689   3.319   5.228   1.531
 7597SOL    HW123690   3.239   5.276   1.496
 7597SOL    HW223691   3.358   5.280   1.607
 7598SOL     OW23692   6.874   1.301   3.652
 7598SOL    HW123693   6.923   1.217   3.627
 7598SOL    HW223694   6.937   1.364   3.697
 7599SOL     OW23695   6.276   2.542   2.530
 7599SOL    HW123696   6.190   2.493   2.516
 7599SOL    HW223697   6.262   2.640   2.513
 7600SOL     OW23698   2.242   1.651   1.376
 7600SOL    HW123699   2.198   1.639   1.287
 7600SOL    HW223700   2.270   1.746   1.388
 7601SOL     OW23701   2.016   6.624   4.597
 7601SOL    HW123702   2.079   6.694   4.630
 7601SOL    HW223703   1.961   6.661   4.522
 7602SOL     OW23704   0.445   3.678   4.659
 7602SOL    HW123705   0.531   3.714   4.623
 7602SOL    HW223706   0.428   3.716   4.750
 7603SOL     OW23707   0.951   6.753   1.343
 7603SOL    HW123708   0.894   6.685   1.297
 7603SOL    HW223709   0.905   6.842   1.342
 7604SOL     OW23710   5.211   6.160   5.598
 7604SOL    HW123711   5.152   6.110   5.661
 7604SOL    HW223712   5.157   6.190   5.519
 7605SOL     OW23713   6.050   4.691   6.901
 7605SOL    HW123714   6.149   4.684   6.893
 7605SOL    HW223715   6.008   4.603   6.880
 7606SOL     OW23716   6.063   1.842   2.582
 7606SOL    HW123717   6.022   1.914   2.524
 7606SOL    HW223718   6.046   1.863   2.678
 7607SOL     OW23719   4.736   7.004   6.580
 7607SOL    HW123720   4.743   0.072   6.549
 7607SOL    HW223721   4.671   6.955   6.522
 7608SOL     OW23722   3.341   3.271   3.479
 7608SOL    HW123723   3.308   3.351   3.428
 7608SOL    HW223724   3.438   3.283   3.501
 7609SOL     OW23725   1.260   3.271   4.460
 7609SOL    HW123726   1.293   3.262   4.366
 7609SOL    HW223727   1.218   3.362   4.472
 7610SOL     OW23728   5.192   0.072   1.248
 7610SOL    HW123729   5.224   0.035   1.335
 7610SOL    HW223730   5.121   0.140   1.264
 7611SOL     OW23731   1.824   1.843   0.392
 7611SOL    HW123732   1.810   1.789   0.309
 7611SOL    HW223733   1.852   1.936   0.366
 7612SOL     OW23734   4.124   1.858   3.079
 7612SOL    HW123735   4.094   1.922   3.009
 7612SOL    HW223736   4.205   1.895   3.125
 7613SOL     OW23737   4.824   1.008   2.176
 7613SOL    HW123738   4.773   1.008   2.262
 7613SOL    HW223739   4.802   1.092   2.125
 7614SOL     OW23740   4.228   2.329   0.464
 7614SOL    HW123741   4.210   2.418   0.505
 7614SOL    HW223742   4.290   2.277   0.522
 7615SOL     OW23743   3.687   5.094   5.796
 7615SOL    HW123744   3.742   5.016   5.826
 7615SOL    HW223745   3.681   5.095   5.697
 7616SOL     OW23746   6.154   4.010   3.702
 7616SOL    HW123747   6.157   3.923   3.751
 7616SOL    HW223748   6.124   4.083   3.764
 7617SOL     OW23749   2.881   5.594   2.663
 7617SOL    HW123750   2.879   5.625   2.568
 7617SOL    HW223751   2.958   5.639   2.711
 7618SOL     OW23752   1.991   2.651   0.298
 7618SOL    HW123753   1.991   2.597   0.381
 7618SOL    HW223754   1.988   2.591   0.218
 7619SOL     OW23755   5.116   3.525   6.206
 7619SOL    HW123756   5.165   3.440   6.190
 7619SOL    HW223757   5.018   3.511   6.192
 7620SOL     OW23758   3.354   6.907   1.659
 7620SOL    HW123759   3.349   6.888   1.757
 7620SOL    HW223760   3.427   6.852   1.619
 7621SOL     OW23761   2.618   0.800   1.737
 7621SOL    HW123762   2.531   0.801   1.687
 7621SOL    HW223763   2.676   0.875   1.706
 7622SOL     OW23764   4.324   2.534   0.208
 7622SOL    HW123765   4.292   2.443   0.235
 7622SOL    HW223766   4.294   2.601   0.275
 7623SOL     OW23767   4.703   0.614   5.779
 7623SOL    HW123768   4.640   0.537   5.788
 7623SOL    HW223769   4.667   0.679   5.713
 7624SOL     OW23770   0.715   0.839   3.486
 7624SOL    HW123771   0.647   0.912   3.481
 7624SOL    HW223772   0.790   0.867   3.544
 7625SOL     OW23773   4.564   0.214   1.413
 7625SOL    HW123774   4.590   0.206   1.317
 7625SOL    HW223775   4.631   0.272   1.460
 7626SOL     OW23776   1.840   5.607   4.829
 7626SOL    HW123777   1.940   5.609   4.829
 7626SOL    HW223778   1.806   5.664   4.904
 7627SOL     OW23779   7.026   2.394   0.738
 7627SOL    HW123780   6.966   2.447   0.678
 7627SOL    HW223781   0.027   2.310   0.691
 7628SOL     OW23782   3.061   1.920   1.006
 7628SOL    HW123783   2.975   1.886   1.043
 7628SOL    HW223784   3.088   1.866   0.926
 7629SOL     OW23785   0.095   6.025   3.301
 7629SOL    HW123786   0.017   6.036   3.239
 7629SOL    HW223787   0.121   6.114   3.338
 7630SOL     OW23788   6.123   0.845   2.659
 7630SOL    HW123789   6.222   0.839   2.650
 7630SOL    HW223790   6.096   0.939   2.680
 7631SOL     OW23791   0.614   2.631   3.554
 7631SOL    HW123792   0.539   2.658   3.493
 7631SOL    HW223793   0.640   2.537   3.535
 7632SOL     OW23794   4.719   1.365   0.185
 7632SOL    HW123795   4.688   1.290   0.243
 7632SOL    HW223796   4.761   1.436   0.242
 7633SOL     OW23797   5.621   3.867   6.952
 7633SOL    HW123798   5.586   3.883   0.017
 7633SOL    HW223799   5.552   3.821   6.897
 7634SOL     OW23800   1.153   1.417   1.728
 7634SOL    HW123801   1.157   1.317   1.729
 7634SOL    HW223802   1.231   1.453   1.780
 7635SOL     OW23803   3.041   4.541   5.536
 7635SOL    HW123804   3.094   4.491   5.468
 7635SOL    HW223805   2.943   4.527   5.519
 7636SOL     OW23806   0.767   0.588   4.112
 7636SOL    HW123807   0.820   0.589   4.028
 7636SOL    HW223808   0.674   0.622   4.094
 7637SOL     OW23809   2.219   6.121   4.424
 7637SOL    HW123810   2.246   6.125   4.328
 7637SOL    HW223811   2.298   6.139   4.482
 7638SOL     OW23812   5.350   5.151   2.308
 7638SOL    HW123813   5.263   5.174   2.264
 7638SOL    HW223814   5.338   5.071   2.366
 7639SOL     OW23815   0.901   1.916   5.257
 7639SOL    HW123816   0.857   1.994   5.302
 7639SOL    HW223817   0.996   1.939   5.236
 7640SOL     OW23818   2.479   1.838   6.606
 7640SOL    HW123819   2.556   1.784   6.640
 7640SOL    HW223820   2.441   1.893   6.681
 7641SOL     OW23821   5.652   3.723   2.299
 7641SOL    HW123822   5.599   3.806   2.279
 7641SOL    HW223823   5.747   3.737   2.270
 7642SOL     OW23824   2.699   2.074   2.579
 7642SOL    HW123825   2.652   2.098   2.664
 7642SOL    HW223826   2.749   1.988   2.593
 7643SOL     OW23827   4.964   3.185   3.429
 7643SOL    HW123828   4.966   3.284   3.413
 7643SOL    HW223829   4.950   3.168   3.527
 7644SOL     OW23830   6.946   3.234   2.758
 7644SOL    HW123831   6.901   3.179   2.687
 7644SOL    HW223832   6.997   3.309   2.714
 7645SOL     OW23833   4.468   3.593   6.532
 7645SOL    HW123834   4.379   3.638   6.536
 7645SOL    HW223835   4.538   3.660   6.507
 7646SOL     OW23836   2.109   1.667   1.776
 7646SOL    HW123837   2.201   1.679   1.739
 7646SOL    HW223838   2.115   1.651   1.875
 7647SOL     OW23839   2.520   3.989   1.416
 7647SOL    HW123840   2.503   4.020   1.510
 7647SOL    HW223841   2.539   3.891   1.416
 7648SOL     OW23842   4.200   0.861   3.903
 7648SOL    HW123843   4.249   0.776   3.921
 7648SOL    HW223844   4.248   0.914   3.833
 7649SOL     OW23845   3.209   0.970   1.942
 7649SOL    HW123846   3.183   1.062   1.970
 7649SOL    HW223847   3.247   0.972   1.849
 7650SOL     OW23848   6.411   4.381   2.479
 7650SOL    HW123849   6.330   4.429   2.515
 7650SOL    HW223850   6.442   4.313   2.545
 7651SOL     OW23851   3.816   1.490   6.609
 7651SOL    HW123852   3.752   1.414   6.611
 7651SOL    HW223853   3.824   1.525   6.516
 7652SOL     OW23854   0.914   3.536   2.122
 7652SOL    HW123855   0.923   3.492   2.211
 7652SOL    HW223856   0.996   3.590   2.103
 7653SOL     OW23857   2.694   2.097   1.434
 7653SOL    HW123858   2.669   2.039   1.357
 7653SOL    HW223859   2.768   2.159   1.407
 7654SOL     OW23860   4.832   3.972   3.698
 7654SOL    HW123861   4.841   3.961   3.599
 7654SOL    HW223862   4.888   3.904   3.745
 7655SOL     OW23863   4.057   6.419   5.323
 7655SOL    HW123864   4.036   6.337   5.270
 7655SOL    HW223865   4.142   6.405   5.374
 7656SOL     OW23866   0.846   6.635   5.181
 7656SOL    HW123867   0.894   6.608   5.098
 7656SOL    HW223868   0.840   6.735   5.185
 7657SOL     OW23869   3.783   1.137   3.536
 7657SOL    HW123870   3.725   1.155   3.456
 7657SOL    HW223871   3.727   1.141   3.619
 7658SOL     OW23872   4.029   0.993   6.145
 7658SOL    HW123873   4.042   0.942   6.060
 7658SOL    HW223874   4.119   1.019   6.182
 7659SOL     OW23875   5.698   0.343   0.746
 7659SOL    HW123876   5.644   0.419   0.782
 7659SOL    HW223877   5.762   0.311   0.816
 7660SOL     OW23878   6.197   5.027   3.982
 7660SOL    HW123879   6.193   5.062   4.075
 7660SOL    HW223880   6.105   5.025   3.942
 7661SOL     OW23881   6.477   2.464   3.834
 7661SOL    HW123882   6.439   2.539   3.780
 7661SOL    HW223883   6.574   2.481   3.851
 7662SOL     OW23884   6.676   4.951   1.954
 7662SOL    HW123885   6.601   5.017   1.948
 7662SOL    HW223886   6.645   4.870   2.005
 7663SOL     OW23887   0.135   5.495   6.962
 7663SOL    HW123888   0.102   5.590   6.964
 7663SOL    HW223889   0.188   5.476   0.018
 7664SOL     OW23890   2.621   5.068   3.911
 7664SOL    HW123891   2.544   5.052   3.850
 7664SOL    HW223892   2.589   5.062   4.006
 7665SOL     OW23893   3.131   6.739   5.058
 7665SOL    HW123894   3.132   6.719   5.156
 7665SOL    HW223895   3.136   6.838   5.044
 7666SOL     OW23896   1.200   0.930   1.233
 7666SOL    HW123897   1.259   0.918   1.153
 7666SOL    HW223898   1.226   1.014   1.282
 7667SOL     OW23899   4.056   6.110   6.479
 7667SOL    HW123900   4.142   6.137   6.523
 7667SOL    HW223901   4.071   6.029   6.423
 7668SOL     OW23902   3.275   3.914   1.303
 7668SOL    HW123903   3.312   3.998   1.341
 7668SOL    HW223904   3.188   3.934   1.257
 7669SOL     OW23905   4.469   6.426   4.396
 7669SOL    HW123906   4.477   6.524   4.378
 7669SOL    HW223907   4.528   6.376   4.334
 7670SOL     OW23908   1.495   4.986   0.558
 7670SOL    HW123909   1.490   4.906   0.619
 7670SOL    HW223910   1.573   5.042   0.583
 7671SOL     OW23911   5.584   2.878   4.625
 7671SOL    HW123912   5.518   2.928   4.569
 7671SOL    HW223913   5.541   2.849   4.710
 7672SOL     OW23914   5.580   0.839   2.629
 7672SOL    HW123915   5.507   0.882   2.683
 7672SOL    HW223916   5.659   0.900   2.627
 7673SOL     OW23917   1.099   4.408   0.834
 7673SOL    HW123918   1.129   4.313   0.843
 7673SOL    HW223919   1.059   4.439   0.920
 7674SOL     OW23920   5.864   1.670   4.909
 7674SOL    HW123921   5.919   1.751   4.929
 7674SOL    HW223922   5.839   1.670   4.812
 7675SOL     OW23923   4.264   6.587   3.306
 7675SOL    HW123924   4.360   6.617   3.310
 7675SOL    HW223925   4.209   6.646   3.366
 7676SOL     OW23926   1.906   0.534   0.741
 7676SOL    HW123927   1.888   0.458   0.803
 7676SOL    HW223928   1.842   0.609   0.760
 7677SOL     OW23929   1.893   2.670   2.642
 7677SOL    HW123930   1.807   2.716   2.618
 7677SOL    HW223931   1.947   2.657   2.559
 7678SOL     OW23932   6.387   6.588   0.754
 7678SOL    HW123933   6.351   6.494   0.746
 7678SOL    HW223934   6.336   6.637   0.825
 7679SOL     OW23935   0.886   5.186   5.427
 7679SOL    HW123936   0.865   5.114   5.493
 7679SOL    HW223937   0.846   5.272   5.459
 7680SOL     OW23938   3.985   2.812   0.436
 7680SOL    HW123939   3.957   2.903   0.465
 7680SOL    HW223940   3.928   2.782   0.359
 7681SOL     OW23941   2.999   1.597   0.090
 7681SOL    HW123942   3.085   1.647   0.076
 7681SOL    HW223943   2.998   1.558   0.182
 7682SOL     OW23944   2.917   0.184   1.478
 7682SOL    HW123945   2.891   0.087   1.482
 7682SOL    HW223946   2.891   0.229   1.564
 7683SOL     OW23947   5.571   1.898   3.456
 7683SOL    HW123948   5.472   1.910   3.463
 7683SOL    HW223949   5.591   1.808   3.417
 7684SOL     OW23950   4.401   1.847   5.877
 7684SOL    HW123951   4.401   1.903   5.794
 7684SOL    HW223952   4.332   1.883   5.940
 7685SOL     OW23953   3.322   2.917   0.947
 7685SOL    HW123954   3.229   2.886   0.926
 7685SOL    HW223955   3.377   2.917   0.863
 7686SOL     OW23956   3.797   0.157   3.955
 7686SOL    HW123957   3.738   0.116   4.025
 7686SOL    HW223958   3.742   0.217   3.896
 7687SOL     OW23959   5.015   5.050   5.609
 7687SOL    HW123960   5.042   5.019   5.518
 7687SOL    HW223961   5.090   5.102   5.650
 7688SOL     OW23962   0.159   6.626   4.534
 7688SOL    HW123963   0.192   6.579   4.616
 7688SOL    HW223964   0.206   6.714   4.526
 7689SOL     OW23965   4.071   6.332   4.853
 7689SOL    HW123966   4.164   6.309   4.825
 7689SOL    HW223967   4.045   6.420   4.813
 7690SOL     OW23968   0.310   5.195   3.438
 7690SOL    HW123969   0.370   5.249   3.379
 7690SOL    HW223970   0.216   5.204   3.405
 7691SOL     OW23971   4.884   3.418   4.650
 7691SOL    HW123972   4.978   3.389   4.666
 7691SOL    HW223973   4.822   3.362   4.705
 7692SOL     OW23974   1.812   6.408   2.032
 7692SOL    HW123975   1.827   6.486   2.093
 7692SOL    HW223976   1.832   6.323   2.080
 7693SOL     OW23977   5.008   1.576   6.487
 7693SOL    HW123978   5.084   1.600   6.426
 7693SOL    HW223979   5.019   1.622   6.575
 7694SOL     OW23980   0.369   5.404   4.320
 7694SOL    HW123981   0.326   5.487   4.354
 7694SOL    HW223982   0.348   5.328   4.382
 7695SOL     OW23983   3.723   0.017   0.839
 7695SOL    HW123984   3.792   0.070   0.790
 7695SOL    HW223985   3.678   0.075   0.907
 7696SOL     OW23986   0.215   3.005   5.829
 7696SOL    HW123987   0.243   2.932   5.891
 7696SOL    HW223988   0.116   3.006   5.821
 7697SOL     OW23989   3.875   1.792   2.379
 7697SOL    HW123990   3.793   1.794   2.323
 7697SOL    HW223991   3.932   1.715   2.351
 7698SOL     OW23992   6.720   3.290   5.961
 7698SOL    HW123993   6.773   3.304   5.877
 7698SOL    HW223994   6.727   3.195   5.990
 7699SOL     OW23995   2.636   5.107   6.532
 7699SOL    HW123996   2.556   5.078   6.585
 7699SOL    HW223997   2.719   5.087   6.584
 7700SOL     OW23998   4.835   6.461   4.410
 7700SOL    HW123999   4.745   6.460   4.367
 7700SOL    HW224000   4.847   6.377   4.464
 7701SOL     OW24001   6.417   2.185   4.745
 7701SOL    HW124002   6.343   2.250   4.731
 7701SOL    HW224003   6.395   2.098   4.702
 7702SOL     OW24004   2.838   6.728   5.763
 7702SOL    HW124005   2.806   6.688   5.677
 7702SOL    HW224006   2.886   6.659   5.817
 7703SOL     OW24007   0.387   1.149   5.991
 7703SOL    HW124008   0.468   1.140   6.048
 7703SOL    HW224009   0.364   1.246   5.981
 7704SOL     OW24010   4.363   4.261   0.042
 7704SOL    HW124011   4.274   4.286   0.080
 7704SOL    HW224012   4.435   4.311   0.091
 7705SOL     OW24013   3.655   5.143   4.808
 7705SOL    HW124014   3.714   5.074   4.766
 7705SOL    HW224015   3.673   5.145   4.906
 7706SOL     OW24016   0.134   0.873   4.919
 7706SOL    HW124017   0.188   0.917   4.990
 7706SOL    HW224018   0.061   0.819   4.961
 7707SOL     OW24019   0.103   5.163   6.312
 7707SOL    HW124020   0.099   5.152   6.411
 7707SOL    HW224021   0.145   5.081   6.271
 7708SOL     OW24022   4.281   6.577   4.663
 7708SOL    HW124023   4.182   6.569   4.665
 7708SOL    HW224024   4.320   6.494   4.621
 7709SOL     OW24025   4.239   2.123   2.346
 7709SOL    HW124026   4.320   2.065   2.342
 7709SOL    HW224027   4.185   2.100   2.427
 7710SOL     OW24028   1.927   0.991   0.042
 7710SOL    HW124029   1.984   0.909   0.036
 7710SOL    HW224030   1.975   1.062   0.094
 7711SOL     OW24031   5.512   6.582   5.485
 7711SOL    HW124032   5.535   6.487   5.462
 7711SOL    HW224033   5.504   6.635   5.401
 7712SOL     OW24034   5.413   5.245   1.155
 7712SOL    HW124035   5.487   5.193   1.199
 7712SOL    HW224036   5.389   5.201   1.068
 7713SOL     OW24037   1.154   4.191   6.279
 7713SOL    HW124038   1.167   4.194   6.378
 7713SOL    HW224039   1.111   4.276   6.248
 7714SOL     OW24040   5.532   4.166   4.224
 7714SOL    HW124041   5.631   4.154   4.229
 7714SOL    HW224042   5.488   4.106   4.291
 7715SOL     OW24043   4.854   0.956   1.412
 7715SOL    HW124044   4.863   0.873   1.358
 7715SOL    HW224045   4.816   1.029   1.354
 7716SOL     OW24046   4.514   2.190   3.170
 7716SOL    HW124047   4.488   2.283   3.195
 7716SOL    HW224048   4.559   2.146   3.248
 7717SOL     OW24049   3.219   1.633   5.580
 7717SOL    HW124050   3.304   1.685   5.580
 7717SOL    HW224051   3.141   1.695   5.569
 7718SOL     OW24052   3.157   6.254   3.888
 7718SOL    HW124053   3.137   6.308   3.806
 7718SOL    HW224054   3.078   6.256   3.950
 7719SOL     OW24055   6.826   2.119   4.699
 7719SOL    HW124056   6.906   2.142   4.754
 7719SOL    HW224057   6.772   2.202   4.683
 7720SOL     OW24058   6.001   5.655   1.933
 7720SOL    HW124059   5.966   5.655   2.027
 7720SOL    HW224060   5.994   5.564   1.894
 7721SOL     OW24061   2.037   4.450   2.209
 7721SOL    HW124062   2.114   4.388   2.193
 7721SOL    HW224063   2.047   4.494   2.298
 7722SOL     OW24064   6.986   5.439   3.720
 7722SOL    HW124065   0.028   5.485   3.776
 7722SOL    HW224066   6.943   5.366   3.772
 7723SOL     OW24067   6.635   3.095   0.442
 7723SOL    HW124068   6.582   3.073   0.523
 7723SOL    HW224069   6.662   3.010   0.396
 7724SOL     OW24070   1.499   4.607   1.033
 7724SOL    HW124071   1.579   4.590   1.091
 7724SOL    HW224072   1.474   4.704   1.039
 7725SOL     OW24073   5.422   3.060   4.512
 7725SOL    HW124074   5.456   3.137   4.457
 7725SOL    HW224075   5.329   3.038   4.484
 7726SOL     OW24076   0.432   4.715   3.222
 7726SOL    HW124077   0.451   4.760   3.135
 7726SOL    HW224078   0.496   4.639   3.234
 7727SOL     OW24079   6.373   2.379   2.091
 7727SOL    HW124080   6.404   2.451   2.028
 7727SOL    HW224081   6.417   2.392   2.180
 7728SOL     OW24082   2.238   2.367   3.095
 7728SOL    HW124083   2.274   2.460   3.087
 7728SOL    HW224084   2.142   2.366   3.068
 7729SOL     OW24085   4.776   2.285   0.424
 7729SOL    HW124086   4.768   2.349   0.348
 7729SOL    HW224087   4.744   2.195   0.394
 7730SOL     OW24088   6.018   0.535   2.236
 7730SOL    HW124089   6.073   0.493   2.307
 7730SOL    HW224090   6.036   0.491   2.148
 7731SOL     OW24091   5.729   0.950   6.672
 7731SOL    HW124092   5.792   0.876   6.650
 7731SOL    HW224093   5.656   0.914   6.730
 7732SOL     OW24094   4.344   5.623   0.515
 7732SOL    HW124095   4.348   5.669   0.604
 7732SOL    HW224096   4.416   5.554   0.511
 7733SOL     OW24097   3.464   0.332   2.290
 7733SOL    HW124098   3.555   0.374   2.288
 7733SOL    HW224099   3.434   0.312   2.197
 7734SOL     OW24100   2.007   2.203   3.078
 7734SOL    HW124101   2.048   2.164   2.996
 7734SOL    HW224102   2.043   2.156   3.159
 7735SOL     OW24103   4.577   4.455   0.034
 7735SOL    HW124104   4.596   4.553   0.030
 7735SOL    HW224105   4.592   4.422   0.127
 7736SOL     OW24106   6.312   4.932   6.897
 7736SOL    HW124107   6.221   4.951   6.934
 7736SOL    HW224108   6.304   4.902   6.802
 7737SOL     OW24109   5.021   1.253   0.688
 7737SOL    HW124110   5.066   1.314   0.753
 7737SOL    HW224111   5.015   1.161   0.726
 7738SOL     OW24112   3.060   5.464   6.813
 7738SOL    HW124113   2.963   5.438   6.817
 7738SOL    HW224114   3.106   5.437   6.897
 7739SOL     OW24115   5.853   2.753   1.035
 7739SOL    HW124116   5.826   2.802   0.952
 7739SOL    HW224117   5.789   2.678   1.051
 7740SOL     OW24118   0.708   6.950   3.246
 7740SOL    HW124119   0.613   6.949   3.278
 7740SOL    HW224120   0.768   6.981   3.319
 7741SOL     OW24121   2.413   5.323   4.674
 7741SOL    HW124122   2.351   5.249   4.648
 7741SOL    HW224123   2.487   5.286   4.730
 7742SOL     OW24124   6.566   1.589   3.864
 7742SOL    HW124125   6.594   1.645   3.786
 7742SOL    HW224126   6.616   1.502   3.861
 7743SOL     OW24127   4.284   2.395   3.855
 7743SOL    HW124128   4.317   2.308   3.892
 7743SOL    HW224129   4.236   2.379   3.769
 7744SOL     OW24130   6.557   0.531   4.259
 7744SOL    HW124131   6.541   0.464   4.187
 7744SOL    HW224132   6.481   0.528   4.325
 7745SOL     OW24133   4.289   3.440   6.215
 7745SOL    HW124134   4.216   3.379   6.246
 7745SOL    HW224135   4.373   3.387   6.200
 7746SOL     OW24136   1.466   0.795   0.572
 7746SOL    HW124137   1.403   0.723   0.601
 7746SOL    HW224138   1.415   0.879   0.556
 7747SOL     OW24139   5.094   6.111   1.026
 7747SOL    HW124140   5.132   6.112   1.118
 7747SOL    HW224141   5.112   6.198   0.981
 7748SOL     OW24142   3.054   4.261   6.745
 7748SOL    HW124143   3.013   4.292   6.660
 7748SOL    HW224144   3.006   4.301   6.823
 7749SOL     OW24145   5.581   3.084   5.823
 7749SOL    HW124146   5.675   3.114   5.836
 7749SOL    HW224147   5.521   3.132   5.886
 7750SOL     OW24148   6.345   4.937   2.619
 7750SOL    HW124149   6.343   5.028   2.577
 7750SOL    HW224150   6.285   4.936   2.698
 7751SOL     OW24151   1.117   2.684   2.390
 7751SOL    HW124152   1.057   2.648   2.319
 7751SOL    HW224153   1.208   2.701   2.351
 7752SOL     OW24154   4.483   2.117   3.705
 7752SOL    HW124155   4.575   2.080   3.717
 7752SOL    HW224156   4.421   2.075   3.772
 7753SOL     OW24157   3.094   1.653   4.484
 7753SOL    HW124158   3.071   1.745   4.450
 7753SOL    HW224159   3.081   1.650   4.583
 7754SOL     OW24160   5.036   6.582   2.121
 7754SOL    HW124161   5.025   6.669   2.168
 7754SOL    HW224162   5.123   6.581   2.072
 7755SOL     OW24163   0.205   4.342   5.366
 7755SOL    HW124164   0.262   4.386   5.436
 7755SOL    HW224165   0.265   4.298   5.298
 7756SOL     OW24166   2.618   4.939   2.195
 7756SOL    HW124167   2.595   4.918   2.290
 7756SOL    HW224168   2.717   4.952   2.187
 7757SOL     OW24169   7.015   4.078   2.114
 7757SOL    HW124170   0.070   4.102   2.061
 7757SOL    HW224171   6.964   4.008   2.065
 7758SOL     OW24172   1.423   1.741   4.740
 7758SOL    HW124173   1.333   1.711   4.770
 7758SOL    HW224174   1.458   1.678   4.671
 7759SOL     OW24175   2.290   2.270   0.558
 7759SOL    HW124176   2.246   2.339   0.615
 7759SOL    HW224177   2.238   2.259   0.473
 7760SOL     OW24178   4.326   2.749   0.032
 7760SOL    HW124179   4.323   2.652   0.058
 7760SOL    HW224180   4.411   2.790   0.063
 7761SOL     OW24181   5.069   5.498   4.093
 7761SOL    HW124182   4.975   5.524   4.072
 7761SOL    HW224183   5.102   5.433   4.025
 7762SOL     OW24184   6.333   1.723   2.561
 7762SOL    HW124185   6.251   1.754   2.609
 7762SOL    HW224186   6.360   1.790   2.493
 7763SOL     OW24187   2.410   6.922   4.229
 7763SOL    HW124188   2.486   6.934   4.165
 7763SOL    HW224189   2.332   6.976   4.200
 7764SOL     OW24190   2.553   4.159   5.455
 7764SOL    HW124191   2.601   4.084   5.501
 7764SOL    HW224192   2.514   4.125   5.369
 7765SOL     OW24193   6.079   2.884   5.599
 7765SOL    HW124194   5.980   2.889   5.614
 7765SOL    HW224195   6.119   2.975   5.610
 7766SOL     OW24196   5.651   3.868   6.628
 7766SOL    HW124197   5.731   3.864   6.568
 7766SOL    HW224198   5.673   3.823   6.715
 7767SOL     OW24199   3.653   0.038   4.167
 7767SOL    HW124200   3.720   0.023   4.239
 7767SOL    HW224201   3.588   0.108   4.197
 7768SOL     OW24202   4.658   5.032   3.602
 7768SOL    HW124203   4.687   4.937   3.588
 7768SOL    HW224204   4.559   5.038   3.587
 7769SOL     OW24205   3.714   3.119   5.397
 7769SOL    HW124206   3.635   3.064   5.421
 7769SOL    HW224207   3.684   3.212   5.373
 7770SOL     OW24208   1.940   3.233   4.543
 7770SOL    HW124209   1.963   3.314   4.597
 7770SOL    HW224210   1.867   3.183   4.588
 7771SOL     OW24211   2.368   3.008   6.041
 7771SOL    HW124212   2.378   2.978   6.136
 7771SOL    HW224213   2.448   2.979   5.988
 7772SOL     OW24214   5.221   0.064   1.769
 7772SOL    HW124215   5.309   0.060   1.722
 7772SOL    HW224216   5.234   0.096   1.862
 7773SOL     OW24217   3.090   6.100   6.883
 7773SOL    HW124218   3.177   6.137   6.853
 7773SOL    HW224219   3.100   6.002   6.902
 7774SOL     OW24220   5.230   1.427   2.503
 7774SOL    HW124221   5.266   1.460   2.590
 7774SOL    HW224222   5.151   1.483   2.476
 7775SOL     OW24223   2.381   2.026   0.643
 7775SOL    HW124224   2.473   1.989   0.653
 7775SOL    HW224225   2.387   2.125   0.628
 7776SOL     OW24226   1.257   1.410   4.657
 7776SOL    HW124227   1.350   1.436   4.631
 7776SOL    HW224228   1.251   1.311   4.664
 7777SOL     OW24229   6.011   5.390   4.224
 7777SOL    HW124230   6.096   5.367   4.178
 7777SOL    HW224231   6.024   5.384   4.323
 7778SOL     OW24232   6.964   4.715   2.786
 7778SOL    HW124233   7.025   4.687   2.860
 7778SOL    HW224234   6.926   4.634   2.742
 7779SOL     OW24235   4.817   6.197   1.858
 7779SOL    HW124236   4.869   6.243   1.786
 7779SOL    HW224237   4.844   6.234   1.947
 7780SOL     OW24238   6.380   6.540   5.044
 7780SOL    HW124239   6.369   6.542   5.143
 7780SOL    HW224240   6.317   6.473   5.005
 7781SOL     OW24241   1.664   2.806   0.859
 7781SOL    HW124242   1.623   2.887   0.817
 7781SOL    HW224243   1.632   2.724   0.811
 7782SOL     OW24244   5.863   2.680   4.238
 7782SOL    HW124245   5.875   2.757   4.175
 7782SOL    HW224246   5.787   2.700   4.299
 7783SOL     OW24247   1.611   6.615   4.966
 7783SOL    HW124248   1.704   6.652   4.971
 7783SOL    HW224249   1.588   6.596   4.871
 7784SOL     OW24250   1.719   2.016   1.479
 7784SOL    HW124251   1.750   1.945   1.415
 7784SOL    HW224252   1.720   1.980   1.572
 7785SOL     OW24253   0.457   0.212   3.301
 7785SOL    HW124254   0.504   0.297   3.274
 7785SOL    HW224255   0.408   0.228   3.387
 7786SOL     OW24256   4.032   1.064   5.307
 7786SOL    HW124257   3.962   1.016   5.253
 7786SOL    HW224258   4.123   1.038   5.275
 7787SOL     OW24259   2.440   2.614   1.785
 7787SOL    HW124260   2.451   2.586   1.881
 7787SOL    HW224261   2.531   2.624   1.743
 7788SOL     OW24262   7.006   4.914   1.528
 7788SOL    HW124263   6.909   4.910   1.505
 7788SOL    HW224264   7.018   4.936   1.624
 7789SOL     OW24265   3.164   2.005   5.984
 7789SOL    HW124266   3.103   1.927   5.993
 7789SOL    HW224267   3.254   1.973   5.953
 7790SOL     OW24268   4.239   4.361   1.715
 7790SOL    HW124269   4.248   4.361   1.616
 7790SOL    HW224270   4.304   4.295   1.754
 7791SOL     OW24271   2.602   5.210   2.707
 7791SOL    HW124272   2.642   5.178   2.622
 7791SOL    HW224273   2.629   5.149   2.782
 7792SOL     OW24274   0.729   1.796   2.554
 7792SOL    HW124275   0.779   1.882   2.544
 7792SOL    HW224276   0.784   1.721   2.518
 7793SOL     OW24277   5.041   0.499   6.818
 7793SOL    HW124278   5.053   0.399   6.815
 7793SOL    HW224279   5.057   0.532   6.910
 7794SOL     OW24280   1.047   6.818   3.289
 7794SOL    HW124281   1.147   6.809   3.292
 7794SOL    HW224282   1.005   6.727   3.283
 7795SOL     OW24283   2.842   5.275   0.401
 7795SOL    HW124284   2.761   5.248   0.454
 7795SOL    HW224285   2.878   5.195   0.353
 7796SOL     OW24286   3.379   3.759   0.245
 7796SOL    HW124287   3.463   3.772   0.193
 7796SOL    HW224288   3.333   3.847   0.256
 7797SOL     OW24289   0.809   6.209   3.096
 7797SOL    HW124290   0.761   6.168   3.018
 7797SOL    HW224291   0.744   6.231   3.168
 7798SOL     OW24292   1.027   3.247   0.804
 7798SOL    HW124293   0.934   3.230   0.770
 7798SOL    HW224294   1.038   3.344   0.822
 7799SOL     OW24295   2.732   6.344   3.310
 7799SOL    HW124296   2.731   6.300   3.399
 7799SOL    HW224297   2.785   6.290   3.245
 7800SOL     OW24298   0.114   6.620   2.171
 7800SOL    HW124299   0.078   6.626   2.264
 7800SOL    HW224300   0.164   6.704   2.150
 7801SOL     OW24301   1.618   1.520   1.670
 7801SOL    HW124302   1.679   1.443   1.656
 7801SOL    HW224303   1.671   1.600   1.697
 7802SOL     OW24304   6.814   3.689   4.483
 7802SOL    HW124305   6.730   3.669   4.532
 7802SOL    HW224306   6.809   3.779   4.441
 7803SOL     OW24307   3.325   2.769   5.420
 7803SOL    HW124308   3.269   2.772   5.502
 7803SOL    HW224309   3.345   2.674   5.397
 7804SOL     OW24310   3.525   1.858   5.106
 7804SOL    HW124311   3.498   1.948   5.073
 7804SOL    HW224312   3.612   1.831   5.064
 7805SOL     OW24313   4.763   3.507   0.666
 7805SOL    HW124314   4.839   3.565   0.638
 7805SOL    HW224315   4.746   3.439   0.595
 7806SOL     OW24316   6.502   1.372   5.714
 7806SOL    HW124317   6.599   1.352   5.701
 7806SOL    HW224318   6.485   1.469   5.699
 7807SOL     OW24319   1.647   4.777   5.811
 7807SOL    HW124320   1.733   4.818   5.843
 7807SOL    HW224321   1.574   4.798   5.876
 7808SOL     OW24322   5.991   3.799   2.655
 7808SOL    HW124323   6.003   3.739   2.575
 7808SOL    HW224324   6.045   3.764   2.731
 7809SOL     OW24325   5.145   5.200   2.566
 7809SOL    HW124326   5.108   5.207   2.659
 7809SOL    HW224327   5.077   5.232   2.500
 7810SOL     OW24328   3.256   6.752   6.139
 7810SOL    HW124329   3.240   6.779   6.234
 7810SOL    HW224330   3.328   6.683   6.136
 7811SOL     OW24331   1.753   6.053   3.101
 7811SOL    HW124332   1.728   6.048   3.004
 7811SOL    HW224333   1.745   5.962   3.142
 7812SOL     OW24334   3.211   1.666   6.200
 7812SOL    HW124335   3.184   1.639   6.292
 7812SOL    HW224336   3.130   1.692   6.147
 7813SOL     OW24337   5.426   0.141   0.540
 7813SOL    HW124338   5.365   0.211   0.504
 7813SOL    HW224339   5.436   0.153   0.639
 7814SOL     OW24340   6.771   3.093   1.909
 7814SOL    HW124341   6.728   3.018   1.959
 7814SOL    HW224342   6.784   3.066   1.814
 7815SOL     OW24343   5.611   4.104   5.520
 7815SOL    HW124344   5.662   4.112   5.434
 7815SOL    HW224345   5.655   4.161   5.590
 7816SOL     OW24346   0.638   1.271   5.765
 7816SOL    HW124347   0.621   1.173   5.777
 7816SOL    HW224348   0.621   1.319   5.851
 7817SOL     OW24349   3.334   2.670   6.857
 7817SOL    HW124350   3.286   2.758   6.860
 7817SOL    HW224351   3.421   2.681   6.809
 7818SOL     OW24352   5.772   0.039   4.005
 7818SOL    HW124353   5.805   0.131   4.027
 7818SOL    HW224354   5.790   7.005   4.082
 7819SOL     OW24355   1.076   3.067   4.505
 7819SOL    HW124356   1.034   3.100   4.421
 7819SOL    HW224357   1.157   3.123   4.525
 7820SOL     OW24358   1.017   6.696   5.424
 7820SOL    HW124359   1.008   6.607   5.379
 7820SOL    HW224360   0.948   6.759   5.386
 7821SOL     OW24361   4.517   6.685   0.260
 7821SOL    HW124362   4.558   6.719   0.344
 7821SOL    HW224363   4.571   6.607   0.226
 7822SOL     OW24364   0.363   1.428   5.053
 7822SOL    HW124365   0.294   1.497   5.073
 7822SOL    HW224366   0.325   1.360   4.990
 7823SOL     OW24367   2.485   3.523   5.364
 7823SOL    HW124368   2.395   3.481   5.377
 7823SOL    HW224369   2.550   3.453   5.333
 7824SOL     OW24370   5.251   3.040   2.998
 7824SOL    HW124371   5.258   3.135   3.030
 7824SOL    HW224372   5.155   3.012   2.994
 7825SOL     OW24373   3.642   3.795   2.419
 7825SOL    HW124374   3.738   3.806   2.446
 7825SOL    HW224375   3.583   3.813   2.497
 7826SOL     OW24376   6.223   6.991   1.642
 7826SOL    HW124377   6.222   6.953   1.550
 7826SOL    HW224378   6.186   6.924   1.706
 7827SOL     OW24379   4.568   3.837   0.498
 7827SOL    HW124380   4.483   3.861   0.545
 7827SOL    HW224381   4.645   3.846   0.561
 7828SOL     OW24382   0.762   5.708   0.633
 7828SOL    HW124383   0.735   5.616   0.663
 7828SOL    HW224384   0.685   5.753   0.590
 7829SOL     OW24385   4.046   3.293   2.488
 7829SOL    HW124386   4.119   3.360   2.502
 7829SOL    HW224387   3.957   3.339   2.497
 7830SOL     OW24388   5.946   2.879   0.076
 7830SOL    HW124389   5.896   2.795   0.057
 7830SOL    HW224390   6.014   2.894   0.005
 7831SOL     OW24391   1.753   2.671   0.073
 7831SOL    HW124392   1.747   2.677   7.000
 7831SOL    HW224393   1.826   2.608   0.099
 7832SOL     OW24394   2.738   2.766   5.522
 7832SOL    HW124395   2.694   2.732   5.439
 7832SOL    HW224396   2.783   2.691   5.569
 7833SOL     OW24397   1.688   0.254   0.567
 7833SOL    HW124398   1.654   0.270   0.659
 7833SOL    HW224399   1.721   0.340   0.528
 7834SOL     OW24400   0.359   0.220   1.829
 7834SOL    HW124401   0.277   0.276   1.818
 7834SOL    HW224402   0.333   0.124   1.837
 7835SOL     OW24403   2.227   2.301   4.748
 7835SOL    HW124404   2.289   2.317   4.671
 7835SOL    HW224405   2.258   2.353   4.828
 7836SOL     OW24406   2.274   0.527   6.713
 7836SOL    HW124407   2.242   0.437   6.742
 7836SOL    HW224408   2.296   0.583   6.793
 7837SOL     OW24409   5.724   6.828   3.346
 7837SOL    HW124410   5.812   6.842   3.391
 7837SOL    HW224411   5.654   6.882   3.392
 7838SOL     OW24412   3.691   6.782   3.901
 7838SOL    HW124413   3.701   6.683   3.903
 7838SOL    HW224414   3.636   6.812   3.979
 7839SOL     OW24415   0.034   4.779   4.563
 7839SOL    HW124416   0.044   4.775   4.463
 7839SOL    HW224417   0.109   4.832   4.602
 7840SOL     OW24418   5.284   3.293   6.184
 7840SOL    HW124419   5.311   3.252   6.097
 7840SOL    HW224420   5.285   3.224   6.256
 7841SOL     OW24421   1.219   1.905   6.301
 7841SOL    HW124422   1.317   1.921   6.311
 7841SOL    HW224423   1.203   1.829   6.237
 7842SOL     OW24424   2.883   1.420   2.543
 7842SOL    HW124425   2.951   1.431   2.470
 7842SOL    HW224426   2.874   1.323   2.565
 7843SOL     OW24427   6.191   4.038   1.154
 7843SOL    HW124428   6.266   4.088   1.198
 7843SOL    HW224429   6.116   4.027   1.220
 7844SOL     OW24430   3.991   1.231   4.514
 7844SOL    HW124431   4.041   1.291   4.577
 7844SOL    HW224432   3.912   1.192   4.561
 7845SOL     OW24433   0.644   1.165   4.081
 7845SOL    HW124434   0.571   1.226   4.048
 7845SOL    HW224435   0.652   1.087   4.019
 7846SOL     OW24436   3.997   0.315   1.955
 7846SOL    HW124437   3.988   0.292   2.052
 7846SOL    HW224438   4.026   0.410   1.946
 7847SOL     OW24439   6.954   0.515   0.229
 7847SOL    HW124440   0.007   0.563   0.194
 7847SOL    HW224441   6.965   0.497   0.327
 7848SOL     OW24442   4.600   4.173   0.653
 7848SOL    HW124443   4.564   4.170   0.746
 7848SOL    HW224444   4.524   4.165   0.588
 7849SOL     OW24445   5.721   4.194   5.267
 7849SOL    HW124446   5.806   4.154   5.232
 7849SOL    HW224447   5.726   4.293   5.262
 7850SOL     OW24448   0.811   0.980   4.226
 7850SOL    HW124449   0.744   1.016   4.161
 7850SOL    HW224450   0.771   0.980   4.318
 7851SOL     OW24451   4.915   6.636   0.104
 7851SOL    HW124452   4.846   6.675   0.165
 7851SOL    HW224453   4.919   6.537   0.116
 7852SOL     OW24454   2.461   6.363   6.599
 7852SOL    HW124455   2.454   6.294   6.528
 7852SOL    HW224456   2.557   6.382   6.619
 7853SOL     OW24457   2.685   2.691   0.511
 7853SOL    HW124458   2.699   2.657   0.604
 7853SOL    HW224459   2.650   2.785   0.515
 7854SOL     OW24460   3.533   4.117   2.733
 7854SOL    HW124461   3.579   4.168   2.805
 7854SOL    HW224462   3.444   4.085   2.766
 7855SOL     OW24463   3.522   0.231   5.820
 7855SOL    HW124464   3.428   0.247   5.789
 7855SOL    HW224465   3.520   0.194   5.913
 7856SOL     OW24466   4.642   3.291   6.038
 7856SOL    HW124467   4.636   3.252   5.946
 7856SOL    HW224468   4.575   3.246   6.098
 7857SOL     OW24469   0.633   1.897   5.044
 7857SOL    HW124470   0.703   1.856   4.987
 7857SOL    HW224471   0.667   1.983   5.082
 7858SOL     OW24472   6.121   4.547   3.657
 7858SOL    HW124473   6.137   4.639   3.622
 7858SOL    HW224474   6.175   4.533   3.740
 7859SOL     OW24475   0.966   5.806   6.635
 7859SOL    HW124476   0.894   5.736   6.644
 7859SOL    HW224477   1.016   5.790   6.549
 7860SOL     OW24478   3.526   0.281   1.844
 7860SOL    HW124479   3.451   0.288   1.910
 7860SOL    HW224480   3.497   0.222   1.768
 7861SOL     OW24481   5.529   4.096   0.581
 7861SOL    HW124482   5.601   4.033   0.553
 7861SOL    HW224483   5.443   4.070   0.537
 7862SOL     OW24484   3.313   4.353   1.646
 7862SOL    HW124485   3.311   4.451   1.630
 7862SOL    HW224486   3.221   4.320   1.668
 7863SOL     OW24487   6.765   6.012   2.306
 7863SOL    HW124488   6.841   6.073   2.327
 7863SOL    HW224489   6.686   6.038   2.362
 7864SOL     OW24490   1.140   5.029   4.109
 7864SOL    HW124491   1.233   5.012   4.143
 7864SOL    HW224492   1.091   4.941   4.103
 7865SOL     OW24493   2.927   0.685   2.202
 7865SOL    HW124494   3.021   0.720   2.202
 7865SOL    HW224495   2.913   0.627   2.282
 7866SOL     OW24496   2.493   2.505   4.273
 7866SOL    HW124497   2.564   2.491   4.203
 7866SOL    HW224498   2.528   2.476   4.362
 7867SOL     OW24499   5.483   4.750   2.739
 7867SOL    HW124500   5.529   4.832   2.704
 7867SOL    HW224501   5.547   4.698   2.796
 7868SOL     OW24502   5.216   0.015   0.716
 7868SOL    HW124503   5.296   0.038   0.772
 7868SOL    HW224504   5.173   6.960   0.754
 7869SOL     OW24505   0.319   2.862   2.956
 7869SOL    HW124506   0.247   2.925   2.929
 7869SOL    HW224507   0.408   2.904   2.939
 7870SOL     OW24508   0.079   6.580   3.266
 7870SOL    HW124509   0.157   6.550   3.210
 7870SOL    HW224510   0.008   6.509   3.264
 7871SOL     OW24511   5.264   3.427   3.828
 7871SOL    HW124512   5.277   3.483   3.746
 7871SOL    HW224513   5.305   3.337   3.813
 7872SOL     OW24514   6.522   3.160   3.679
 7872SOL    HW124515   6.613   3.201   3.670
 7872SOL    HW224516   6.529   3.061   3.668
 7873SOL     OW24517   6.852   5.018   5.172
 7873SOL    HW124518   6.923   4.995   5.240
 7873SOL    HW224519   6.771   5.053   5.219
 7874SOL     OW24520   6.053   0.584   0.558
 7874SOL    HW124521   6.090   0.676   0.549
 7874SOL    HW224522   5.970   0.576   0.502
 7875SOL     OW24523   4.486   3.537   6.819
 7875SOL    HW124524   4.399   3.526   6.867
 7875SOL    HW224525   4.469   3.548   6.721
 7876SOL     OW24526   6.789   0.216   4.112
 7876SOL    HW124527   6.805   0.117   4.107
 7876SOL    HW224528   6.787   0.244   4.207
 7877SOL     OW24529   6.659   2.177   1.973
 7877SOL    HW124530   6.600   2.110   2.019
 7877SOL    HW224531   6.748   2.180   2.018
 7878SOL     OW24532   4.635   4.101   1.681
 7878SOL    HW124533   4.551   4.123   1.732
 7878SOL    HW224534   4.704   4.171   1.700
 7879SOL     OW24535   5.211   0.808   4.889
 7879SOL    HW124536   5.218   0.715   4.927
 7879SOL    HW224537   5.134   0.855   4.931
 7880SOL     OW24538   1.234   6.522   6.026
 7880SOL    HW124539   1.150   6.576   6.030
 7880SOL    HW224540   1.304   6.574   5.976
 7881SOL     OW24541   0.670   5.290   3.933
 7881SOL    HW124542   0.637   5.327   3.846
 7881SOL    HW224543   0.751   5.235   3.917
 7882SOL     OW24544   0.151   3.829   2.087
 7882SOL    HW124545   0.245   3.863   2.089
 7882SOL    HW224546   0.092   3.890   2.140
 7883SOL     OW24547   3.376   1.367   4.183
 7883SOL    HW124548   3.383   1.449   4.240
 7883SOL    HW224549   3.304   1.379   4.115
 7884SOL     OW24550   0.641   3.477   4.518
 7884SOL    HW124551   0.606   3.386   4.499
 7884SOL    HW224552   0.718   3.471   4.582
 7885SOL     OW24553   6.045   5.388   3.820
 7885SOL    HW124554   6.039   5.309   3.759
 7885SOL    HW224555   6.074   5.469   3.767
 7886SOL     OW24556   4.931   3.690   3.691
 7886SOL    HW124557   4.889   3.745   3.619
 7886SOL    HW224558   5.007   3.637   3.654
 7887SOL     OW24559   2.371   2.689   0.659
 7887SOL    HW124560   2.344   2.726   0.570
 7887SOL    HW224561   2.311   2.726   0.730
 7888SOL     OW24562   6.066   2.231   4.716
 7888SOL    HW124563   6.087   2.138   4.687
 7888SOL    HW224564   6.026   2.229   4.808
 7889SOL     OW24565   5.579   4.821   0.303
 7889SOL    HW124566   5.479   4.811   0.301
 7889SOL    HW224567   5.620   4.757   0.238
 7890SOL     OW24568   1.713   3.458   4.324
 7890SOL    HW124569   1.743   3.553   4.329
 7890SOL    HW224570   1.711   3.419   4.416
 7891SOL     OW24571   6.996   1.825   4.012
 7891SOL    HW124572   6.979   1.731   4.042
 7891SOL    HW224573   0.022   1.874   4.081
 7892SOL     OW24574   0.061   1.806   5.665
 7892SOL    HW124575   0.031   1.826   5.758
 7892SOL    HW224576   0.153   1.842   5.651
 7893SOL     OW24577   5.964   6.987   0.648
 7893SOL    HW124578   5.883   7.011   0.700
 7893SOL    HW224579   6.043   0.009   0.683
 7894SOL     OW24580   3.693   1.622   6.341
 7894SOL    HW124581   3.654   1.706   6.378
 7894SOL    HW224582   3.620   1.564   6.305
 7895SOL     OW24583   5.198   6.450   3.060
 7895SOL    HW124584   5.124   6.466   3.126
 7895SOL    HW224585   5.162   6.457   2.967
 7896SOL     OW24586   2.584   3.059   1.303
 7896SOL    HW124587   2.546   3.075   1.212
 7896SOL    HW224588   2.553   2.971   1.338
 7897SOL     OW24589   3.403   3.366   0.448
 7897SOL    HW124590   3.347   3.306   0.391
 7897SOL    HW224591   3.411   3.326   0.540
 7898SOL     OW24592   5.938   6.541   3.517
 7898SOL    HW124593   5.917   6.491   3.433
 7898SOL    HW224594   5.925   6.639   3.501
 7899SOL     OW24595   6.253   4.998   3.391
 7899SOL    HW124596   6.170   5.024   3.341
 7899SOL    HW224597   6.332   5.044   3.350
 7900SOL     OW24598   0.911   4.332   1.520
 7900SOL    HW124599   0.978   4.305   1.451
 7900SOL    HW224600   0.945   4.409   1.573
 7901SOL     OW24601   6.905   0.931   6.788
 7901SOL    HW124602   6.931   0.835   6.798
 7901SOL    HW224603   6.856   0.961   6.869
 7902SOL     OW24604   0.922   6.614   2.243
 7902SOL    HW124605   0.993   6.582   2.305
 7902SOL    HW224606   0.947   6.591   2.149
 7903SOL     OW24607   2.995   2.105   4.922
 7903SOL    HW124608   3.042   2.176   4.975
 7903SOL    HW224609   2.900   2.100   4.950
 7904SOL     OW24610   5.075   0.958   2.152
 7904SOL    HW124611   4.977   0.964   2.172
 7904SOL    HW224612   5.106   1.046   2.116
 7905SOL     OW24613   5.708   1.147   1.536
 7905SOL    HW124614   5.707   1.063   1.591
 7905SOL    HW224615   5.701   1.124   1.439
 7906SOL     OW24616   1.457   5.365   0.718
 7906SOL    HW124617   1.405   5.287   0.753
 7906SOL    HW224618   1.550   5.337   0.697
 7907SOL     OW24619   6.461   0.110   3.004
 7907SOL    HW124620   6.408   0.180   2.956
 7907SOL    HW224621   6.437   0.111   3.101
 7908SOL     OW24622   0.672   0.559   6.452
 7908SOL    HW124623   0.686   0.484   6.388
 7908SOL    HW224624   0.690   0.528   6.545
 7909SOL     OW24625   6.118   4.358   2.066
 7909SOL    HW124626   6.059   4.293   2.018
 7909SOL    HW224627   6.201   4.311   2.096
 7910SOL     OW24628   1.038   3.606   0.114
 7910SOL    HW124629   1.128   3.642   0.138
 7910SOL    HW224630   1.029   3.602   0.014
 7911SOL     OW24631   0.595   4.099   0.070
 7911SOL    HW124632   0.544   4.027   0.118
 7911SOL    HW224633   0.595   4.080   6.999
 7912SOL     OW24634   5.774   5.251   0.476
 7912SOL    HW124635   5.713   5.308   0.421
 7912SOL    HW224636   5.719   5.193   0.536
 7913SOL     OW24637   1.067   4.659   1.281
 7913SOL    HW124638   1.109   4.745   1.312
 7913SOL    HW224639   1.001   4.677   1.209
 7914SOL     OW24640   6.513   6.169   5.005
 7914SOL    HW124641   6.479   6.205   4.918
 7914SOL    HW224642   6.573   6.091   4.987
 7915SOL     OW24643   3.932   6.311   2.405
 7915SOL    HW124644   3.880   6.226   2.400
 7915SOL    HW224645   4.028   6.293   2.382
 7916SOL     OW24646   1.571   0.160   4.534
 7916SOL    HW124647   1.573   0.148   4.633
 7916SOL    HW224648   1.476   0.159   4.502
 7917SOL     OW24649   4.032   3.398   0.824
 7917SOL    HW124650   4.048   3.382   0.921
 7917SOL    HW224651   4.111   3.365   0.771
 7918SOL     OW24652   2.179   1.852   4.132
 7918SOL    HW124653   2.086   1.881   4.157
 7918SOL    HW224654   2.179   1.813   4.041
 7919SOL     OW24655   2.187   6.396   4.100
 7919SOL    HW124656   2.105   6.398   4.157
 7919SOL    HW224657   2.221   6.302   4.094
 7920SOL     OW24658   4.949   0.117   0.956
 7920SOL    HW124659   4.995   0.145   0.871
 7920SOL    HW224660   4.996   0.159   1.034
 7921SOL     OW24661   5.426   2.067   1.006
 7921SOL    HW124662   5.501   2.065   0.941
 7921SOL    HW224663   5.361   2.138   0.979
 7922SOL     OW24664   1.393   5.821   0.870
 7922SOL    HW124665   1.449   5.757   0.817
 7922SOL    HW224666   1.357   5.774   0.950
 7923SOL     OW24667   5.097   1.135   0.223
 7923SOL    HW124668   5.057   1.192   0.295
 7923SOL    HW224669   5.029   1.119   0.151
 7924SOL     OW24670   6.273   6.328   0.743
 7924SOL    HW124671   6.314   6.278   0.666
 7924SOL    HW224672   6.213   6.267   0.794
 7925SOL     OW24673   1.569   6.161   6.636
 7925SOL    HW124674   1.583   6.259   6.651
 7925SOL    HW224675   1.507   6.147   6.559
 7926SOL     OW24676   4.684   5.347   0.236
 7926SOL    HW124677   4.735   5.387   0.160
 7926SOL    HW224678   4.733   5.266   0.269
 7927SOL     OW24679   4.163   6.868   3.006
 7927SOL    HW124680   4.228   6.931   3.048
 7927SOL    HW224681   4.071   6.886   3.041
 7928SOL     OW24682   6.744   1.967   3.367
 7928SOL    HW124683   6.713   2.017   3.287
 7928SOL    HW224684   6.670   1.963   3.435
 7929SOL     OW24685   3.969   4.517   6.258
 7929SOL    HW124686   4.062   4.500   6.226
 7929SOL    HW224687   3.968   4.595   6.320
 7930SOL     OW24688   4.478   6.230   5.853
 7930SOL    HW124689   4.388   6.268   5.831
 7930SOL    HW224690   4.493   6.146   5.801
 7931SOL     OW24691   3.651   2.200   0.851
 7931SOL    HW124692   3.689   2.125   0.797
 7931SOL    HW224693   3.710   2.217   0.929
 7932SOL     OW24694   1.625   4.319   2.565
 7932SOL    HW124695   1.671   4.327   2.476
 7932SOL    HW224696   1.608   4.223   2.585
 7933SOL     OW24697   0.719   1.197   6.922
 7933SOL    HW124698   0.804   1.219   6.970
 7933SOL    HW224699   0.696   1.101   6.937
 7934SOL     OW24700   1.178   4.898   1.381
 7934SOL    HW124701   1.210   4.899   1.476
 7934SOL    HW224702   1.235   4.959   1.326
 7935SOL     OW24703   4.897   3.166   3.702
 7935SOL    HW124704   4.844   3.112   3.767
 7935SOL    HW224705   4.898   3.262   3.730
 7936SOL     OW24706   3.581   5.931   3.770
 7936SOL    HW124707   3.667   5.978   3.751
 7936SOL    HW224708   3.525   5.987   3.831
 7937SOL     OW24709   3.712   0.953   6.973
 7937SOL    HW124710   3.692   1.006   6.891
 7937SOL    HW224711   3.650   0.876   6.979
 7938SOL     OW24712   3.501   6.617   4.225
 7938SOL    HW124713   3.515   6.707   4.183
 7938SOL    HW224714   3.488   6.628   4.323
 7939SOL     OW24715   0.527   1.634   4.125
 7939SOL    HW124716   0.562   1.584   4.204
 7939SOL    HW224717   0.571   1.601   4.042
 7940SOL     OW24718   5.651   1.138   3.267
 7940SOL    HW124719   5.602   1.222   3.293
 7940SOL    HW224720   5.713   1.158   3.191
 7941SOL     OW24721   3.499   6.993   1.196
 7941SOL    HW124722   3.517   6.991   1.294
 7941SOL    HW224723   3.549   0.042   1.154
 7942SOL     OW24724   1.513   4.806   0.763
 7942SOL    HW124725   1.499   4.836   0.857
 7942SOL    HW224726   1.489   4.709   0.755
 7943SOL     OW24727   1.629   6.145   6.082
 7943SOL    HW124728   1.643   6.057   6.127
 7943SOL    HW224729   1.533   6.155   6.056
 7944SOL     OW24730   1.429   2.445   1.259
 7944SOL    HW124731   1.493   2.518   1.236
 7944SOL    HW224732   1.394   2.404   1.176
 7945SOL     OW24733   6.149   4.352   3.052
 7945SOL    HW124734   6.226   4.409   3.080
 7945SOL    HW224735   6.069   4.374   3.108
 7946SOL     OW24736   3.470   1.499   6.263
 7946SOL    HW124737   3.396   1.510   6.330
 7946SOL    HW224738   3.466   1.574   6.197
 7947SOL     OW24739   0.554   3.649   5.968
 7947SOL    HW124740   0.512   3.658   6.058
 7947SOL    HW224741   0.652   3.633   5.978
 7948SOL     OW24742   1.467   4.662   2.590
 7948SOL    HW124743   1.440   4.682   2.495
 7948SOL    HW224744   1.439   4.569   2.614
 7949SOL     OW24745   3.846   6.578   6.120
 7949SOL    HW124746   3.783   6.610   6.191
 7949SOL    HW224747   3.861   6.480   6.131
 7950SOL     OW24748   5.750   4.453   5.283
 7950SOL    HW124749   5.793   4.540   5.306
 7950SOL    HW224750   5.653   4.457   5.305
 7951SOL     OW24751   3.527   6.251   2.373
 7951SOL    HW124752   3.456   6.183   2.353
 7951SOL    HW224753   3.535   6.314   2.296
 7952SOL     OW24754   5.998   3.847   6.734
 7952SOL    HW124755   5.939   3.923   6.709
 7952SOL    HW224756   6.094   3.874   6.724
 7953SOL     OW24757   3.067   0.905   0.845
 7953SOL    HW124758   2.970   0.908   0.822
 7953SOL    HW224759   3.109   0.827   0.799
 7954SOL     OW24760   3.973   3.820   6.665
 7954SOL    HW124761   4.015   3.903   6.629
 7954SOL    HW224762   3.961   3.754   6.591
 7955SOL     OW24763   1.336   1.926   6.961
 7955SOL    HW124764   1.311   1.831   6.979
 7955SOL    HW224765   1.361   1.936   6.865
 7956SOL     OW24766   6.556   6.162   0.219
 7956SOL    HW124767   6.638   6.201   0.262
 7956SOL    HW224768   6.477   6.220   0.240
 7957SOL     OW24769   4.542   0.994   5.871
 7957SOL    HW124770   4.443   1.009   5.866
 7957SOL    HW224771   4.571   0.942   5.791
 7958SOL     OW24772   5.875   2.396   0.145
 7958SOL    HW124773   5.852   2.482   0.099
 7958SOL    HW224774   5.974   2.382   0.145
 7959SOL     OW24775   5.782   1.395   6.079
 7959SOL    HW124776   5.747   1.348   6.160
 7959SOL    HW224777   5.877   1.366   6.062
 7960SOL     OW24778   0.056   0.965   5.824
 7960SOL    HW124779   7.013   1.015   5.773
 7960SOL    HW224780   0.147   0.994   5.793
 7961SOL     OW24781   6.405   6.399   0.250
 7961SOL    HW124782   6.338   6.402   0.324
 7961SOL    HW224783   6.438   6.491   0.231
 7962SOL     OW24784   5.408   6.889   5.808
 7962SOL    HW124785   5.411   6.969   5.749
 7962SOL    HW224786   5.403   6.806   5.752
 7963SOL     OW24787   6.927   6.187   4.320
 7963SOL    HW124788   6.948   6.282   4.298
 7963SOL    HW224789   6.839   6.183   4.369
 7964SOL     OW24790   6.860   4.286   1.831
 7964SOL    HW124791   6.834   4.376   1.794
 7964SOL    HW224792   6.954   4.265   1.803
 7965SOL     OW24793   3.356   3.086   6.517
 7965SOL    HW124794   3.441   3.117   6.473
 7965SOL    HW224795   3.278   3.111   6.459
 7966SOL     OW24796   4.969   3.530   4.893
 7966SOL    HW124797   4.931   3.524   4.800
 7966SOL    HW224798   4.903   3.575   4.953
 7967SOL     OW24799   1.626   4.763   1.725
 7967SOL    HW124800   1.703   4.810   1.682
 7967SOL    HW224801   1.658   4.716   1.807
 7968SOL     OW24802   0.266   3.039   5.090
 7968SOL    HW124803   0.276   2.969   5.161
 7968SOL    HW224804   0.356   3.069   5.059
 7969SOL     OW24805   4.631   4.974   0.093
 7969SOL    HW124806   4.556   5.036   0.070
 7969SOL    HW224807   4.637   4.965   0.193
 7970SOL     OW24808   5.663   2.794   2.471
 7970SOL    HW124809   5.606   2.875   2.490
 7970SOL    HW224810   5.707   2.806   2.382
 7971SOL     OW24811   3.211   1.113   0.366
 7971SOL    HW124812   3.129   1.127   0.311
 7971SOL    HW224813   3.265   1.038   0.327
 7972SOL     OW24814   3.860   3.836   3.565
 7972SOL    HW124815   3.790   3.790   3.620
 7972SOL    HW224816   3.921   3.767   3.525
 7973SOL     OW24817   6.616   3.924   2.370
 7973SOL    HW124818   6.609   3.887   2.463
 7973SOL    HW224819   6.691   3.879   2.322
 7974SOL     OW24820   6.648   2.498   6.334
 7974SOL    HW124821   6.655   2.592   6.300
 7974SOL    HW224822   6.731   2.475   6.385
 7975SOL     OW24823   5.551   0.539   1.267
 7975SOL    HW124824   5.468   0.512   1.315
 7975SOL    HW224825   5.541   0.521   1.169
 7976SOL     OW24826   1.029   0.039   0.918
 7976SOL    HW124827   0.950   0.048   0.978
 7976SOL    HW224828   1.113   0.040   0.973
 7977SOL     OW24829   5.603   5.512   3.384
 7977SOL    HW124830   5.504   5.507   3.372
 7977SOL    HW224831   5.623   5.540   3.478
 7978SOL     OW24832   0.196   4.768   1.777
 7978SOL    HW124833   0.240   4.734   1.693
 7978SOL    HW224834   0.264   4.813   1.834
 7979SOL     OW24835   1.577   2.272   4.205
 7979SOL    HW124836   1.575   2.173   4.193
 7979SOL    HW224837   1.626   2.294   4.289
 7980SOL     OW24838   4.248   5.462   0.320
 7980SOL    HW124839   4.302   5.515   0.386
 7980SOL    HW224840   4.246   5.510   0.232
 7981SOL     OW24841   1.890   4.651   3.211
 7981SOL    HW124842   1.880   4.751   3.215
 7981SOL    HW224843   1.809   4.608   3.250
 7982SOL     OW24844   6.408   1.958   5.796
 7982SOL    HW124845   6.427   1.947   5.699
 7982SOL    HW224846   6.312   1.985   5.809
 7983SOL     OW24847   5.209   1.124   1.704
 7983SOL    HW124848   5.125   1.120   1.758
 7983SOL    HW224849   5.263   1.203   1.732
 7984SOL     OW24850   0.979   2.113   3.097
 7984SOL    HW124851   0.885   2.111   3.062
 7984SOL    HW224852   1.005   2.207   3.117
 7985SOL     OW24853   2.587   3.013   5.542
 7985SOL    HW124854   2.631   2.924   5.539
 7985SOL    HW224855   2.504   3.011   5.487
 7986SOL     OW24856   3.168   1.200   3.810
 7986SOL    HW124857   3.154   1.235   3.902
 7986SOL    HW224858   3.160   1.275   3.744
 7987SOL     OW24859   1.270   3.744   6.934
 7987SOL    HW124860   1.193   3.681   6.924
 7987SOL    HW224861   1.355   3.691   6.942
 7988SOL     OW24862   6.594   1.704   1.517
 7988SOL    HW124863   6.559   1.738   1.604
 7988SOL    HW224864   6.641   1.617   1.533
 7989SOL     OW24865   0.041   4.486   0.549
 7989SOL    HW124866   0.106   4.561   0.565
 7989SOL    HW224867   7.027   4.497   0.459
 7990SOL     OW24868   3.764   5.537   5.347
 7990SOL    HW124869   3.750   5.453   5.400
 7990SOL    HW224870   3.754   5.518   5.250
 7991SOL     OW24871   6.012   1.466   5.015
 7991SOL    HW124872   5.955   1.535   4.970
 7991SOL    HW224873   5.954   1.400   5.062
 7992SOL     OW24874   2.775   6.747   7.012
 7992SOL    HW124875   2.712   6.776   0.056
 7992SOL    HW224876   2.724   6.714   6.932
 7993SOL     OW24877   6.594   5.959   1.520
 7993SOL    HW124878   6.535   5.883   1.547
 7993SOL    HW224879   6.643   5.994   1.600
 7994SOL     OW24880   5.514   0.322   3.753
 7994SOL    HW124881   5.585   0.256   3.779
 7994SOL    HW224882   5.517   0.400   3.816
 7995SOL     OW24883   0.646   4.713   1.309
 7995SOL    HW124884   0.703   4.682   1.233
 7995SOL    HW224885   0.705   4.735   1.387
 7996SOL     OW24886   3.119   0.983   2.965
 7996SOL    HW124887   3.076   1.050   2.905
 7996SOL    HW224888   3.081   0.892   2.947
 7997SOL     OW24889   1.521   1.625   6.586
 7997SOL    HW124890   1.461   1.615   6.665
 7997SOL    HW224891   1.540   1.721   6.570
 7998SOL     OW24892   2.462   0.821   0.544
 7998SOL    HW124893   2.480   0.738   0.597
 7998SOL    HW224894   2.543   0.844   0.489
 7999SOL     OW24895   0.617   0.578   4.496
 7999SOL    HW124896   0.711   0.569   4.465
 7999SOL    HW224897   0.613   0.646   4.570
 8000SOL     OW24898   4.499   5.222   6.784
 8000SOL    HW124899   4.492   5.228   6.883
 8000SOL    HW224900   4.505   5.126   6.757
 8001SOL     OW24901   4.616   6.270   1.498
 8001SOL    HW124902   4.590   6.224   1.583
 8001SOL    HW224903   4.638   6.366   1.517
 8002SOL     OW24904   0.743   0.502   5.065
 8002SOL    HW124905   0.657   0.510   5.016
 8002SOL    HW224906   0.801   0.433   5.021
 8003SOL     OW24907   2.140   5.525   2.786
 8003SOL    HW124908   2.204   5.554   2.858
 8003SOL    HW224909   2.166   5.434   2.754
 8004SOL     OW24910   1.480   3.127   3.862
 8004SOL    HW124911   1.547   3.073   3.914
 8004SOL    HW224912   1.524   3.165   3.781
 8005SOL     OW24913   2.167   0.110   3.315
 8005SOL    HW124914   2.191   0.158   3.230
 8005SOL    HW224915   2.192   0.167   3.393
 8006SOL     OW24916   3.820   4.947   5.130
 8006SOL    HW124917   3.880   4.941   5.211
 8006SOL    HW224918   3.873   4.925   5.048
 8007SOL     OW24919   6.153   0.353   6.462
 8007SOL    HW124920   6.224   0.282   6.459
 8007SOL    HW224921   6.082   0.326   6.526
 8008SOL     OW24922   5.541   6.524   6.968
 8008SOL    HW124923   5.623   6.522   7.025
 8008SOL    HW224924   5.543   6.605   6.910
 8009SOL     OW24925   4.994   1.937   6.413
 8009SOL    HW124926   4.901   1.901   6.416
 8009SOL    HW224927   5.018   1.972   6.504
 8010SOL     OW24928   3.044   1.853   5.603
 8010SOL    HW124929   3.103   1.934   5.599
 8010SOL    HW224930   2.956   1.874   5.559
 8011SOL     OW24931   4.295   1.621   2.453
 8011SOL    HW124932   4.369   1.554   2.447
 8011SOL    HW224933   4.250   1.613   2.542
 8012SOL     OW24934   0.072   1.153   5.246
 8012SOL    HW124935   0.044   1.225   5.310
 8012SOL    HW224936   0.027   1.067   5.271
 8013SOL     OW24937   3.583   1.962   2.556
 8013SOL    HW124938   3.652   2.014   2.505
 8013SOL    HW224939   3.506   1.940   2.495
 8014SOL     OW24940   2.015   1.715   2.436
 8014SOL    HW124941   2.098   1.669   2.405
 8014SOL    HW224942   1.987   1.782   2.367
 8015SOL     OW24943   3.288   0.270   5.643
 8015SOL    HW124944   3.204   0.244   5.691
 8015SOL    HW224945   3.302   0.210   5.564
 8016SOL     OW24946   3.714   1.841   4.826
 8016SOL    HW124947   3.661   1.757   4.836
 8016SOL    HW224948   3.812   1.819   4.824
 8017SOL     OW24949   6.336   6.168   1.148
 8017SOL    HW124950   6.328   6.098   1.220
 8017SOL    HW224951   6.432   6.178   1.121
 8018SOL     OW24952   4.285   1.861   6.710
 8018SOL    HW124953   4.191   1.826   6.715
 8018SOL    HW224954   4.314   1.861   6.614
 8019SOL     OW24955   2.475   3.678   0.876
 8019SOL    HW124956   2.526   3.688   0.790
 8019SOL    HW224957   2.506   3.596   0.923
 8020SOL     OW24958   6.966   0.923   5.335
 8020SOL    HW124959   6.956   0.831   5.373
 8020SOL    HW224960   6.881   0.950   5.290
 8021SOL     OW24961   1.743   2.260   1.331
 8021SOL    HW124962   1.760   2.338   1.392
 8021SOL    HW224963   1.731   2.177   1.385
 8022SOL     OW24964   5.004   1.574   2.473
 8022SOL    HW124965   4.975   1.665   2.443
 8022SOL    HW224966   4.926   1.511   2.466
 8023SOL     OW24967   5.340   5.885   2.170
 8023SOL    HW124968   5.330   5.948   2.247
 8023SOL    HW224969   5.388   5.930   2.095
 8024SOL     OW24970   2.204   0.842   6.521
 8024SOL    HW124971   2.189   0.871   6.616
 8024SOL    HW224972   2.301   0.855   6.498
 8025SOL     OW24973   1.529   5.897   1.876
 8025SOL    HW124974   1.506   5.832   1.949
 8025SOL    HW224975   1.447   5.919   1.823
 8026SOL     OW24976   0.692   5.378   6.566
 8026SOL    HW124977   0.736   5.291   6.586
 8026SOL    HW224978   0.718   5.446   6.635
 8027SOL     OW24979   3.176   0.616   6.820
 8027SOL    HW124980   3.258   0.590   6.769
 8027SOL    HW224981   3.097   0.567   6.782
 8028SOL     OW24982   3.036   5.562   5.107
 8028SOL    HW124983   3.120   5.616   5.118
 8028SOL    HW224984   3.008   5.526   5.196
 8029SOL     OW24985   0.077   6.837   0.306
 8029SOL    HW124986   0.033   6.927   0.303
 8029SOL    HW224987   0.126   6.826   0.392
 8030SOL     OW24988   0.579   3.875   0.902
 8030SOL    HW124989   0.589   3.948   0.834
 8030SOL    HW224990   0.588   3.786   0.857
 8031SOL     OW24991   0.282   0.803   3.120
 8031SOL    HW124992   0.341   0.752   3.183
 8031SOL    HW224993   0.336   0.876   3.077
 8032SOL     OW24994   6.007   2.922   1.207
 8032SOL    HW124995   5.951   2.872   1.141
 8032SOL    HW224996   6.059   2.993   1.160
 8033SOL     OW24997   5.162   3.799   1.068
 8033SOL    HW124998   5.121   3.889   1.054
 8033SOL    HW224999   5.102   3.742   1.124
 8034SOL     OW25000   6.095   0.447   5.725
 8034SOL    HW125001   6.102   0.458   5.626
 8034SOL    HW225002   6.065   0.533   5.767
 8035SOL     OW25003   5.970   1.879   2.831
 8035SOL    HW125004   5.951   1.977   2.839
 8035SOL    HW225005   5.908   1.828   2.890
 8036SOL     OW25006   5.929   2.482   3.275
 8036SOL    HW125007   6.000   2.423   3.236
 8036SOL    HW225008   5.888   2.436   3.354
 8037SOL     OW25009   1.540   2.037   5.783
 8037SOL    HW125010   1.537   2.044   5.683
 8037SOL    HW225011   1.456   1.996   5.817
 8038SOL     OW25012   0.024   4.722   2.320
 8038SOL    HW125013   6.991   4.772   2.382
 8038SOL    HW225014   0.012   4.623   2.334
 8039SOL     OW25015   1.360   2.360   5.620
 8039SOL    HW125016   1.299   2.377   5.542
 8039SOL    HW225017   1.453   2.351   5.587
 8040SOL     OW25018   2.120   5.531   6.297
 8040SOL    HW125019   2.161   5.463   6.358
 8040SOL    HW225020   2.065   5.484   6.227
 8041SOL     OW25021   3.608   1.503   3.373
 8041SOL    HW125022   3.654   1.422   3.335
 8041SOL    HW225023   3.510   1.486   3.377
 8042SOL     OW25024   4.363   4.148   5.603
 8042SOL    HW125025   4.319   4.200   5.676
 8042SOL    HW225026   4.336   4.186   5.514
 8043SOL     OW25027   4.992   5.864   6.782
 8043SOL    HW125028   4.919   5.852   6.714
 8043SOL    HW225029   5.070   5.910   6.740
 8044SOL     OW25030   2.653   3.751   1.536
 8044SOL    HW125031   2.577   3.704   1.581
 8044SOL    HW225032   2.720   3.779   1.605
 8045SOL     OW25033   0.122   2.309   3.150
 8045SOL    HW125034   0.189   2.314   3.076
 8045SOL    HW225035   0.082   2.217   3.153
 8046SOL     OW25036   6.918   4.545   2.058
 8046SOL    HW125037   6.922   4.468   2.122
 8046SOL    HW225038   6.969   4.522   1.975
 8047SOL     OW25039   3.455   6.551   6.697
 8047SOL    HW125040   3.521   6.492   6.743
 8047SOL    HW225041   3.382   6.495   6.657
 8048SOL     OW25042   3.665   2.591   5.951
 8048SOL    HW125043   3.721   2.508   5.951
 8048SOL    HW225044   3.587   2.579   5.890
 8049SOL     OW25045   1.246   1.586   0.112
 8049SOL    HW125046   1.191   1.670   0.109
 8049SOL    HW225047   1.342   1.610   0.128
 8050SOL     OW25048   0.570   4.768   5.318
 8050SOL    HW125049   0.559   4.804   5.410
 8050SOL    HW225050   0.667   4.772   5.292
 8051SOL     OW25051   4.264   6.050   3.360
 8051SOL    HW125052   4.183   6.105   3.339
 8051SOL    HW225053   4.324   6.101   3.422
 8052SOL     OW25054   2.617   2.433   2.335
 8052SOL    HW125055   2.694   2.477   2.288
 8052SOL    HW225056   2.620   2.456   2.433
 8053SOL     OW25057   1.875   2.920   0.059
 8053SOL    HW125058   1.966   2.956   0.041
 8053SOL    HW225059   1.877   2.820   0.055
 8054SOL     OW25060   4.838   3.408   5.366
 8054SOL    HW125061   4.769   3.439   5.301
 8054SOL    HW225062   4.795   3.390   5.455
 8055SOL     OW25063   5.995   0.235   6.643
 8055SOL    HW125064   6.014   0.156   6.701
 8055SOL    HW225065   5.954   0.308   6.698
 8056SOL     OW25066   2.309   1.444   5.132
 8056SOL    HW125067   2.284   1.468   5.038
 8056SOL    HW225068   2.289   1.520   5.193
 8057SOL     OW25069   3.069   2.130   2.120
 8057SOL    HW125070   3.086   2.085   2.032
 8057SOL    HW225071   2.993   2.194   2.110
 8058SOL     OW25072   3.683   6.797   2.551
 8058SOL    HW125073   3.710   6.870   2.613
 8058SOL    HW225074   3.590   6.812   2.519
 8059SOL     OW25075   2.764   2.856   6.266
 8059SOL    HW125076   2.772   2.782   6.332
 8059SOL    HW225077   2.750   2.818   6.174
 8060SOL     OW25078   6.044   0.708   5.839
 8060SOL    HW125079   6.050   0.724   5.937
 8060SOL    HW225080   6.020   0.792   5.792
 8061SOL     OW25081   0.367   0.577   2.744
 8061SOL    HW125082   0.379   0.479   2.725
 8061SOL    HW225083   0.451   0.614   2.783
 8062SOL     OW25084   3.987   5.478   5.631
 8062SOL    HW125085   3.895   5.440   5.639
 8062SOL    HW225086   4.013   5.482   5.535
 8063SOL     OW25087   3.564   5.340   3.236
 8063SOL    HW125088   3.521   5.252   3.216
 8063SOL    HW225089   3.496   5.414   3.226
 8064SOL     OW25090   6.131   1.765   0.955
 8064SOL    HW125091   6.158   1.753   1.051
 8064SOL    HW225092   6.032   1.754   0.947
 8065SOL     OW25093   3.986   5.593   6.584
 8065SOL    HW125094   3.924   5.542   6.643
 8065SOL    HW225095   3.997   5.687   6.618
 8066SOL     OW25096   0.132   6.950   5.624
 8066SOL    HW125097   0.141   6.913   5.716
 8066SOL    HW225098   0.035   6.960   5.602
 8067SOL     OW25099   5.223   2.611   3.906
 8067SOL    HW125100   5.319   2.635   3.915
 8067SOL    HW225101   5.204   2.527   3.957
 8068SOL     OW25102   5.930   4.324   1.301
 8068SOL    HW125103   5.927   4.287   1.208
 8068SOL    HW225104   6.024   4.326   1.334
 8069SOL     OW25105   2.853   5.165   3.022
 8069SOL    HW125106   2.896   5.121   2.943
 8069SOL    HW225107   2.898   5.135   3.106
 8070SOL     OW25108   4.133   4.619   0.518
 8070SOL    HW125109   4.047   4.655   0.555
 8070SOL    HW225110   4.149   4.527   0.554
 8071SOL     OW25111   2.559   6.900   6.007
 8071SOL    HW125112   2.508   6.872   6.088
 8071SOL    HW225113   2.496   6.937   5.938
 8072SOL     OW25114   1.166   2.133   5.639
 8072SOL    HW125115   1.189   2.051   5.691
 8072SOL    HW225116   1.249   2.181   5.613
 8073SOL     OW25117   3.749   0.627   6.795
 8073SOL    HW125118   3.814   0.615   6.870
 8073SOL    HW225119   3.754   0.548   6.734
 8074SOL     OW25120   1.238   0.778   6.294
 8074SOL    HW125121   1.302   0.826   6.354
 8074SOL    HW225122   1.256   0.804   6.199
 8075SOL     OW25123   0.074   0.034   0.929
 8075SOL    HW125124   7.016   0.067   0.971
 8075SOL    HW225125   0.146   0.029   0.999
 8076SOL     OW25126   6.663   5.959   0.560
 8076SOL    HW125127   6.729   5.983   0.489
 8076SOL    HW225128   6.711   5.937   0.645
 8077SOL     OW25129   4.836   4.782   0.680
 8077SOL    HW125130   4.738   4.779   0.697
 8077SOL    HW225131   4.876   4.861   0.725
 8078SOL     OW25132   0.757   0.379   2.392
 8078SOL    HW125133   0.840   0.403   2.341
 8078SOL    HW225134   0.760   0.282   2.415
 8079SOL     OW25135   1.296   1.915   5.844
 8079SOL    HW125136   1.321   1.888   5.936
 8079SOL    HW225137   1.239   1.844   5.802
 8080SOL     OW25138   1.482   2.890   3.122
 8080SOL    HW125139   1.466   2.792   3.106
 8080SOL    HW225140   1.450   2.914   3.214
 8081SOL     OW25141   6.379   6.118   4.755
 8081SOL    HW125142   6.419   6.185   4.693
 8081SOL    HW225143   6.306   6.069   4.708
 8082SOL     OW25144   4.074   1.608   2.284
 8082SOL    HW125145   4.156   1.599   2.340
 8082SOL    HW225146   4.002   1.549   2.320
 8083SOL     OW25147   5.800   2.476   5.043
 8083SOL    HW125148   5.899   2.487   5.043
 8083SOL    HW225149   5.776   2.387   5.003
 8084SOL     OW25150   3.887   1.860   5.686
 8084SOL    HW125151   3.788   1.848   5.679
 8084SOL    HW225152   3.922   1.803   5.761
 8085SOL     OW25153   1.673   6.313   4.344
 8085SOL    HW125154   1.671   6.398   4.291
 8085SOL    HW225155   1.696   6.237   4.284
 8086SOL     OW25156   6.858   0.847   2.428
 8086SOL    HW125157   6.931   0.788   2.461
 8086SOL    HW225158   6.808   0.886   2.505
 8087SOL     OW25159   1.221   0.936   0.596
 8087SOL    HW125160   1.146   0.870   0.592
 8087SOL    HW225161   1.201   1.005   0.665
 8088SOL     OW25162   6.201   0.161   4.439
 8088SOL    HW125163   6.203   0.232   4.509
 8088SOL    HW225164   6.124   0.099   4.457
 8089SOL     OW25165   5.954   2.446   6.195
 8089SOL    HW125166   5.924   2.397   6.114
 8089SOL    HW225167   5.929   2.543   6.187
 8090SOL     OW25168   4.349   2.055   5.324
 8090SOL    HW125169   4.361   1.959   5.351
 8090SOL    HW225170   4.253   2.080   5.330
 8091SOL     OW25171   1.986   4.939   4.364
 8091SOL    HW125172   1.949   4.914   4.453
 8091SOL    HW225173   1.956   5.032   4.341
 8092SOL     OW25174   4.950   1.944   5.850
 8092SOL    HW125175   4.934   1.856   5.896
 8092SOL    HW225176   4.990   2.008   5.916
 8093SOL     OW25177   3.856   6.516   2.221
 8093SOL    HW125178   3.924   6.501   2.149
 8093SOL    HW225179   3.866   6.445   2.291
 8094SOL     OW25180   1.714   4.614   3.717
 8094SOL    HW125181   1.656   4.649   3.790
 8094SOL    HW225182   1.671   4.633   3.628
 8095SOL     OW25183   1.168   4.684   5.445
 8095SOL    HW125184   1.176   4.771   5.397
 8095SOL    HW225185   1.075   4.675   5.481
 8096SOL     OW25186   0.831   5.797   1.750
 8096SOL    HW125187   0.854   5.847   1.666
 8096SOL    HW225188   0.746   5.835   1.788
 8097SOL     OW25189   3.761   5.965   5.292
 8097SOL    HW125190   3.792   5.913   5.371
 8097SOL    HW225191   3.688   5.914   5.245
 8098SOL     OW25192   1.505   5.697   5.155
 8098SOL    HW125193   1.459   5.785   5.166
 8098SOL    HW225194   1.553   5.673   5.239
 8099SOL     OW25195   2.442   5.569   3.456
 8099SOL    HW125196   2.358   5.540   3.410
 8099SOL    HW225197   2.451   5.520   3.542
 8100SOL     OW25198   0.094   0.250   0.127
 8100SOL    HW125199   0.024   0.319   0.109
 8100SOL    HW225200   0.175   0.268   0.070
 8101SOL     OW25201   2.008   6.568   1.450
 8101SOL    HW125202   2.079   6.563   1.521
 8101SOL    HW225203   1.921   6.537   1.489
 8102SOL     OW25204   1.906   3.425   5.199
 8102SOL    HW125205   1.980   3.358   5.202
 8102SOL    HW225206   1.944   3.516   5.184
 8103SOL     OW25207   3.447   1.560   1.938
 8103SOL    HW125208   3.433   1.464   1.916
 8103SOL    HW225209   3.545   1.579   1.942
 8104SOL     OW25210   1.783   6.426   0.206
 8104SOL    HW125211   1.795   6.494   0.134
 8104SOL    HW225212   1.767   6.473   0.293
 8105SOL     OW25213   7.011   0.470   3.246
 8105SOL    HW125214   7.015   0.457   3.345
 8105SOL    HW225215   0.060   0.421   3.203
 8106SOL     OW25216   2.239   6.406   5.681
 8106SOL    HW125217   2.260   6.364   5.593
 8106SOL    HW225218   2.155   6.460   5.673
 8107SOL     OW25219   2.109   6.358   6.095
 8107SOL    HW125220   2.022   6.371   6.142
 8107SOL    HW225221   2.155   6.447   6.085
 8108SOL     OW25222   0.895   1.606   6.571
 8108SOL    HW125223   0.869   1.512   6.590
 8108SOL    HW225224   0.822   1.668   6.599
 8109SOL     OW25225   6.446   2.685   0.634
 8109SOL    HW125226   6.444   2.778   0.672
 8109SOL    HW225227   6.380   2.679   0.559
 8110SOL     OW25228   4.106   5.251   1.234
 8110SOL    HW125229   4.046   5.201   1.297
 8110SOL    HW225230   4.189   5.278   1.283
 8111SOL     OW25231   6.437   1.486   2.508
 8111SOL    HW125232   6.507   1.511   2.441
 8111SOL    HW225233   6.392   1.568   2.542
 8112SOL     OW25234   1.117   3.261   5.464
 8112SOL    HW125235   1.210   3.258   5.426
 8112SOL    HW225236   1.096   3.355   5.493
 8113SOL     OW25237   5.718   3.088   6.997
 8113SOL    HW125238   5.775   3.034   0.033
 8113SOL    HW225239   5.625   3.051   6.997
 8114SOL     OW25240   1.971   4.136   1.097
 8114SOL    HW125241   2.000   4.181   1.013
 8114SOL    HW225242   1.887   4.179   1.131
 8115SOL     OW25243   2.030   1.505   6.136
 8115SOL    HW125244   1.936   1.501   6.103
 8115SOL    HW225245   2.036   1.459   6.225
 8116SOL     OW25246   3.480   3.861   1.159
 8116SOL    HW125247   3.442   3.886   1.070
 8116SOL    HW225248   3.407   3.861   1.227
 8117SOL     OW25249   3.039   7.004   2.927
 8117SOL    HW125250   2.962   6.942   2.909
 8117SOL    HW225251   3.016   0.069   2.894
 8118SOL     OW25252   6.713   2.433   0.523
 8118SOL    HW125253   6.756   2.472   0.604
 8118SOL    HW225254   6.614   2.425   0.539
 8119SOL     OW25255   6.140   5.992   6.446
 8119SOL    HW125256   6.077   6.059   6.486
 8119SOL    HW225257   6.175   6.028   6.359
 8120SOL     OW25258   2.379   6.285   1.263
 8120SOL    HW125259   2.353   6.202   1.214
 8120SOL    HW225260   2.320   6.360   1.234
 8121SOL     OW25261   1.459   3.148   3.035
 8121SOL    HW125262   1.459   3.066   3.092
 8121SOL    HW225263   1.406   3.220   3.080
 8122SOL     OW25264   0.772   4.632   2.157
 8122SOL    HW125265   0.748   4.560   2.223
 8122SOL    HW225266   0.762   4.721   2.202
 8123SOL     OW25267   0.270   1.863   6.009
 8123SOL    HW125268   0.218   1.927   5.952
 8123SOL    HW225269   0.231   1.861   6.101
 8124SOL     OW25270   5.255   4.914   4.718
 8124SOL    HW125271   5.233   4.821   4.747
 8124SOL    HW225272   5.206   4.936   4.634
 8125SOL     OW25273   1.342   6.245   2.959
 8125SOL    HW125274   1.255   6.196   2.954
 8125SOL    HW225275   1.389   6.221   3.043
 8126SOL     OW25276   3.867   4.816   3.867
 8126SOL    HW125277   3.950   4.767   3.840
 8126SOL    HW225278   3.861   4.819   3.967
 8127SOL     OW25279   3.629   2.969   7.015
 8127SOL    HW125280   3.588   3.002   6.929
 8127SOL    HW225281   3.683   3.043   0.029
 8128SOL     OW25282   3.643   2.978   1.717
 8128SOL    HW125283   3.733   2.935   1.713
 8128SOL    HW225284   3.608   2.974   1.810
 8129SOL     OW25285   1.238   3.039   1.500
 8129SOL    HW125286   1.242   3.020   1.598
 8129SOL    HW225287   1.319   3.000   1.456
 8130SOL     OW25288   1.370   5.374   6.926
 8130SOL    HW125289   1.287   5.380   6.981
 8130SOL    HW225290   1.445   5.421   6.974
 8131SOL     OW25291   1.858   3.329   7.003
 8131SOL    HW125292   1.810   3.409   0.012
 8131SOL    HW225293   1.840   3.250   0.035
 8132SOL     OW25294   6.968   6.927   4.843
 8132SOL    HW125295   0.018   6.929   4.906
 8132SOL    HW225296   6.910   7.007   4.858
 8133SOL     OW25297   3.288   4.949   0.607
 8133SOL    HW125298   3.254   4.855   0.609
 8133SOL    HW225299   3.214   5.012   0.632
 8134SOL     OW25300   5.560   0.993   5.252
 8134SOL    HW125301   5.653   0.958   5.250
 8134SOL    HW225302   5.526   1.006   5.159
 8135SOL     OW25303   2.389   0.064   1.471
 8135SOL    HW125304   2.427   0.067   1.378
 8135SOL    HW225305   2.291   0.083   1.467
 8136SOL     OW25306   4.504   4.792   2.153
 8136SOL    HW125307   4.406   4.785   2.173
 8136SOL    HW225308   4.545   4.702   2.156
 8137SOL     OW25309   4.347   1.749   4.659
 8137SOL    HW125310   4.269   1.807   4.639
 8137SOL    HW225311   4.321   1.680   4.727
 8138SOL     OW25312   4.744   1.167   1.217
 8138SOL    HW125313   4.654   1.148   1.178
 8138SOL    HW225314   4.736   1.241   1.283
 8139SOL     OW25315   1.126   2.284   3.586
 8139SOL    HW125316   1.216   2.242   3.598
 8139SOL    HW225317   1.100   2.333   3.669
 8140SOL     OW25318   3.842   0.847   3.642
 8140SOL    HW125319   3.887   0.775   3.695
 8140SOL    HW225320   3.892   0.933   3.652
 8141SOL     OW25321   4.305   4.700   4.543
 8141SOL    HW125322   4.332   4.610   4.512
 8141SOL    HW225323   4.272   4.694   4.638
 8142SOL     OW25324   6.088   5.614   0.335
 8142SOL    HW125325   6.022   5.680   0.370
 8142SOL    HW225326   6.048   5.523   0.335
 8143SOL     OW25327   6.045   4.151   4.888
 8143SOL    HW125328   5.956   4.148   4.842
 8143SOL    HW225329   6.098   4.071   4.863
 8144SOL     OW25330   5.987   6.154   6.601
 8144SOL    HW125331   5.925   6.216   6.553
 8144SOL    HW225332   5.936   6.102   6.670
 8145SOL     OW25333   6.166   5.927   2.485
 8145SOL    HW125334   6.076   5.953   2.451
 8145SOL    HW225335   6.232   6.000   2.466
 8146SOL     OW25336   2.885   1.334   4.566
 8146SOL    HW125337   2.885   1.402   4.493
 8146SOL    HW225338   2.933   1.252   4.535
 8147SOL     OW25339   4.624   1.457   3.783
 8147SOL    HW125340   4.540   1.411   3.813
 8147SOL    HW225341   4.676   1.487   3.863
 8148SOL     OW25342   5.555   3.800   3.440
 8148SOL    HW125343   5.631   3.862   3.461
 8148SOL    HW225344   5.560   3.720   3.500
 8149SOL     OW25345   4.405   4.576   3.400
 8149SOL    HW125346   4.459   4.635   3.341
 8149SOL    HW225347   4.463   4.537   3.471
 8150SOL     OW25348   0.603   5.356   6.887
 8150SOL    HW125349   0.652   5.385   6.805
 8150SOL    HW225350   0.510   5.328   6.862
 8151SOL     OW25351   1.108   1.643   5.347
 8151SOL    HW125352   1.129   1.588   5.428
 8151SOL    HW225353   1.010   1.643   5.331
 8152SOL     OW25354   1.572   0.981   2.999
 8152SOL    HW125355   1.525   1.062   2.964
 8152SOL    HW225356   1.649   0.958   2.938
 8153SOL     OW25357   1.986   6.486   0.584
 8153SOL    HW125358   2.017   6.419   0.517
 8153SOL    HW225359   2.063   6.541   0.615
 8154SOL     OW25360   2.296   6.481   3.615
 8154SOL    HW125361   2.335   6.413   3.553
 8154SOL    HW225362   2.350   6.485   3.698
 8155SOL     OW25363   2.925   3.565   3.359
 8155SOL    HW125364   2.901   3.548   3.263
 8155SOL    HW225365   2.941   3.663   3.372
 8156SOL     OW25366   6.234   0.332   5.940
 8156SOL    HW125367   6.185   0.376   5.864
 8156SOL    HW225368   6.194   0.360   6.027
 8157SOL     OW25369   6.292   3.559   6.577
 8157SOL    HW125370   6.212   3.619   6.575
 8157SOL    HW225371   6.348   3.582   6.657
 8158SOL     OW25372   1.728   5.100   2.467
 8158SOL    HW125373   1.766   5.011   2.441
 8158SOL    HW225374   1.727   5.109   2.566
 8159SOL     OW25375   1.813   6.121   2.182
 8159SOL    HW125376   1.819   6.165   2.272
 8159SOL    HW225377   1.890   6.059   2.170
 8160SOL     OW25378   4.514   2.334   1.750
 8160SOL    HW125379   4.597   2.363   1.797
 8160SOL    HW225380   4.462   2.272   1.808
 8161SOL     OW25381   5.186   1.365   0.878
 8161SOL    HW125382   5.271   1.324   0.846
 8161SOL    HW225383   5.174   1.347   0.976
 8162SOL     OW25384   6.136   0.260   1.962
 8162SOL    HW125385   6.042   0.271   1.996
 8162SOL    HW225386   6.132   0.231   1.866
 8163SOL     OW25387   2.072   3.994   5.158
 8163SOL    HW125388   2.138   4.006   5.083
 8163SOL    HW225389   2.094   3.911   5.209
 8164SOL     OW25390   4.096   2.253   2.160
 8164SOL    HW125391   4.129   2.199   2.237
 8164SOL    HW225392   4.092   2.350   2.187
 8165SOL     OW25393   2.264   5.319   1.656
 8165SOL    HW125394   2.243   5.228   1.691
 8165SOL    HW225395   2.270   5.384   1.732
 8166SOL     OW25396   3.002   6.943   1.959
 8166SOL    HW125397   2.944   7.018   1.930
 8166SOL    HW225398   3.052   6.969   2.041
 8167SOL     OW25399   5.973   2.773   3.478
 8167SOL    HW125400   5.875   2.791   3.472
 8167SOL    HW225401   5.996   2.694   3.421
 8168SOL     OW25402   3.428   1.354   2.946
 8168SOL    HW125403   3.356   1.423   2.943
 8168SOL    HW225404   3.513   1.396   2.980
 8169SOL     OW25405   4.744   3.764   6.140
 8169SOL    HW125406   4.749   3.665   6.158
 8169SOL    HW225407   4.673   3.805   6.197
 8170SOL     OW25408   0.924   5.730   3.946
 8170SOL    HW125409   0.979   5.775   4.016
 8170SOL    HW225410   0.919   5.632   3.964
 8171SOL     OW25411   0.867   1.843   5.746
 8171SOL    HW125412   0.811   1.763   5.770
 8171SOL    HW225413   0.937   1.816   5.681
 8172SOL     OW25414   6.940   6.499   0.933
 8172SOL    HW125415   6.981   6.572   0.879
 8172SOL    HW225416   6.954   6.517   1.030
 8173SOL     OW25417   4.209   2.924   6.840
 8173SOL    HW125418   4.238   2.868   6.918
 8173SOL    HW225419   4.128   2.882   6.798
 8174SOL     OW25420   6.129   0.411   2.489
 8174SOL    HW125421   6.138   0.314   2.464
 8174SOL    HW225422   6.048   0.423   2.546
 8175SOL     OW25423   1.032   3.335   6.264
 8175SOL    HW125424   1.067   3.303   6.352
 8175SOL    HW225425   1.065   3.428   6.247
 8176SOL     OW25426   2.554   5.652   2.317
 8176SOL    HW125427   2.568   5.557   2.290
 8176SOL    HW225428   2.593   5.713   2.249
 8177SOL     OW25429   0.413   6.927   5.807
 8177SOL    HW125430   0.323   6.888   5.828
 8177SOL    HW225431   0.474   6.856   5.774
 8178SOL     OW25432   2.068   6.594   6.636
 8178SOL    HW125433   2.151   6.568   6.685
 8178SOL    HW225434   2.031   6.678   6.675
 8179SOL     OW25435   3.254   1.385   0.344
 8179SOL    HW125436   3.347   1.414   0.366
 8179SOL    HW225437   3.249   1.285   0.346
 8180SOL     OW25438   5.920   5.735   5.495
 8180SOL    HW125439   5.964   5.649   5.522
 8180SOL    HW225440   5.838   5.749   5.551
 8181SOL     OW25441   2.643   2.463   2.605
 8181SOL    HW125442   2.574   2.391   2.594
 8181SOL    HW225443   2.613   2.528   2.674
 8182SOL     OW25444   3.843   2.928   5.220
 8182SOL    HW125445   3.794   2.842   5.229
 8182SOL    HW225446   3.802   2.996   5.282
 8183SOL     OW25447   1.007   3.679   5.028
 8183SOL    HW125448   0.978   3.598   5.079
 8183SOL    HW225449   1.099   3.706   5.058
 8184SOL     OW25450   5.590   6.042   5.483
 8184SOL    HW125451   5.586   5.952   5.439
 8184SOL    HW225452   5.682   6.056   5.521
 8185SOL     OW25453   2.105   1.369   2.922
 8185SOL    HW125454   2.005   1.369   2.913
 8185SOL    HW225455   2.130   1.403   3.013
 8186SOL     OW25456   3.996   5.324   6.037
 8186SOL    HW125457   3.923   5.257   6.055
 8186SOL    HW225458   4.036   5.354   6.123
 8187SOL     OW25459   0.950   2.366   5.409
 8187SOL    HW125460   0.901   2.386   5.324
 8187SOL    HW225461   0.937   2.270   5.433
 8188SOL     OW25462   5.685   3.868   2.583
 8188SOL    HW125463   5.632   3.952   2.589
 8188SOL    HW225464   5.780   3.887   2.608
 8189SOL     OW25465   5.874   4.272   2.405
 8189SOL    HW125466   5.786   4.317   2.418
 8189SOL    HW225467   5.939   4.338   2.367
 8190SOL     OW25468   5.072   3.685   3.103
 8190SOL    HW125469   5.147   3.685   3.037
 8190SOL    HW225470   4.987   3.713   3.058
 8191SOL     OW25471   0.679   5.186   3.030
 8191SOL    HW125472   0.610   5.182   2.958
 8191SOL    HW225473   0.769   5.194   2.989
 8192SOL     OW25474   1.466   4.139   1.483
 8192SOL    HW125475   1.536   4.122   1.414
 8192SOL    HW225476   1.500   4.107   1.572
 8193SOL     OW25477   3.647   0.856   5.976
 8193SOL    HW125478   3.603   0.941   6.002
 8193SOL    HW225479   3.578   0.789   5.947
 8194SOL     OW25480   1.311   0.247   0.742
 8194SOL    HW125481   1.230   0.190   0.735
 8194SOL    HW225482   1.318   0.306   0.662
 8195SOL     OW25483   6.196   0.089   0.688
 8195SOL    HW125484   6.255   0.086   0.607
 8195SOL    HW225485   6.210   0.175   0.736
 8196SOL     OW25486   2.589   0.505   5.989
 8196SOL    HW125487   2.590   0.535   6.084
 8196SOL    HW225488   2.595   0.585   5.929
 8197SOL     OW25489   0.693   6.601   6.816
 8197SOL    HW125490   0.689   6.545   6.733
 8197SOL    HW225491   0.780   6.651   6.818
 8198SOL     OW25492   3.643   6.564   2.692
 8198SOL    HW125493   3.637   6.649   2.641
 8198SOL    HW225494   3.720   6.510   2.657
 8199SOL     OW25495   5.998   3.657   0.417
 8199SOL    HW125496   5.954   3.649   0.507
 8199SOL    HW225497   5.936   3.621   0.347
 8200SOL     OW25498   5.093   3.732   1.441
 8200SOL    HW125499   5.141   3.805   1.393
 8200SOL    HW225500   5.030   3.687   1.377
 8201SOL     OW25501   6.143   0.917   4.276
 8201SOL    HW125502   6.139   0.869   4.188
 8201SOL    HW225503   6.174   1.011   4.261
 8202SOL     OW25504   1.399   4.270   3.601
 8202SOL    HW125505   1.372   4.244   3.508
 8202SOL    HW225506   1.339   4.343   3.634
 8203SOL     OW25507   5.911   3.480   1.016
 8203SOL    HW125508   5.886   3.575   1.037
 8203SOL    HW225509   5.893   3.423   1.097
 8204SOL     OW25510   3.500   6.928   0.766
 8204SOL    HW125511   3.588   6.973   0.782
 8204SOL    HW225512   3.484   6.860   0.837
 8205SOL     OW25513   5.942   5.291   3.046
 8205SOL    HW125514   5.916   5.201   3.011
 8205SOL    HW225515   5.862   5.350   3.051
 8206SOL     OW25516   4.614   1.902   4.086
 8206SOL    HW125517   4.707   1.888   4.053
 8206SOL    HW225518   4.592   2.000   4.085
 8207SOL     OW25519   2.624   6.323   7.020
 8207SOL    HW125520   2.717   6.290   7.004
 8207SOL    HW225521   2.562   6.283   6.952
 8208SOL     OW25522   1.430   4.860   5.980
 8208SOL    HW125523   1.344   4.810   5.976
 8208SOL    HW225524   1.414   4.953   6.016
 8209SOL     OW25525   0.467   6.501   5.269
 8209SOL    HW125526   0.556   6.486   5.313
 8209SOL    HW225527   0.465   6.456   5.180
 8210SOL     OW25528   2.757   2.079   6.914
 8210SOL    HW125529   2.837   2.027   6.884
 8210SOL    HW225530   2.753   2.081   7.013
 8211SOL     OW25531   2.991   3.270   4.703
 8211SOL    HW125532   3.089   3.286   4.710
 8211SOL    HW225533   2.952   3.265   4.795
 8212SOL     OW25534   3.674   6.646   0.784
 8212SOL    HW125535   3.639   6.558   0.754
 8212SOL    HW225536   3.602   6.714   0.780
 8213SOL     OW25537   4.263   4.024   1.710
 8213SOL    HW125538   4.179   4.014   1.763
 8213SOL    HW225539   4.322   4.093   1.753
 8214SOL     OW25540   3.872   5.239   4.252
 8214SOL    HW125541   3.823   5.293   4.320
 8214SOL    HW225542   3.929   5.300   4.196
 8215SOL     OW25543   3.344   5.923   6.556
 8215SOL    HW125544   3.350   6.001   6.494
 8215SOL    HW225545   3.251   5.885   6.553
 8216SOL     OW25546   5.954   4.811   2.098
 8216SOL    HW125547   5.987   4.899   2.064
 8216SOL    HW225548   5.858   4.820   2.124
 8217SOL     OW25549   2.527   6.237   4.098
 8217SOL    HW125550   2.585   6.316   4.076
 8217SOL    HW225551   2.558   6.158   4.044
 8218SOL     OW25552   2.906   6.970   4.993
 8218SOL    HW125553   2.907   6.871   5.006
 8218SOL    HW225554   2.996   7.008   5.016
 8219SOL     OW25555   3.944   2.968   1.729
 8219SOL    HW125556   3.985   3.034   1.665
 8219SOL    HW225557   3.992   2.881   1.722
 8220SOL     OW25558   3.587   4.209   4.314
 8220SOL    HW125559   3.499   4.257   4.325
 8220SOL    HW225560   3.621   4.182   4.404
 8221SOL     OW25561   5.434   3.906   3.208
 8221SOL    HW125562   5.504   3.896   3.137
 8221SOL    HW225563   5.475   3.888   3.297
 8222SOL     OW25564   6.709   2.860   0.338
 8222SOL    HW125565   6.768   2.844   0.259
 8222SOL    HW225566   6.669   2.774   0.368
 8223SOL     OW25567   1.972   6.313   5.840
 8223SOL    HW125568   1.955   6.399   5.792
 8223SOL    HW225569   2.030   6.329   5.919
 8224SOL     OW25570   5.174   1.593   0.468
 8224SOL    HW125571   5.170   1.574   0.566
 8224SOL    HW225572   5.118   1.527   0.418
 8225SOL     OW25573   5.384   1.925   0.178
 8225SOL    HW125574   5.312   1.867   0.215
 8225SOL    HW225575   5.460   1.928   0.243
 8226SOL     OW25576   4.350   0.895   0.814
 8226SOL    HW125577   4.375   0.828   0.884
 8226SOL    HW225578   4.431   0.916   0.758
 8227SOL     OW25579   4.404   2.325   2.842
 8227SOL    HW125580   4.417   2.239   2.891
 8227SOL    HW225581   4.371   2.306   2.750
 8228SOL     OW25582   2.295   0.010   4.494
 8228SOL    HW125583   2.236   0.089   4.475
 8228SOL    HW225584   2.365   0.004   4.423
 8229SOL     OW25585   4.545   4.326   0.308
 8229SOL    HW125586   4.545   4.379   0.393
 8229SOL    HW225587   4.546   4.228   0.329
 8230SOL     OW25588   5.514   0.374   6.033
 8230SOL    HW125589   5.560   0.303   5.979
 8230SOL    HW225590   5.564   0.460   6.024
 8231SOL     OW25591   2.614   1.879   2.798
 8231SOL    HW125592   2.696   1.924   2.833
 8231SOL    HW225593   2.536   1.902   2.854
 8232SOL     OW25594   3.702   5.758   3.098
 8232SOL    HW125595   3.761   5.688   3.139
 8232SOL    HW225596   3.612   5.720   3.078
 8233SOL     OW25597   0.846   1.195   5.956
 8233SOL    HW125598   0.779   1.150   6.014
 8233SOL    HW225599   0.910   1.247   6.013
 8234SOL     OW25600   0.517   2.027   0.733
 8234SOL    HW125601   0.447   1.988   0.793
 8234SOL    HW225602   0.538   2.120   0.762
 8235SOL     OW25603   0.835   7.027   1.381
 8235SOL    HW125604   0.836   6.995   1.476
 8235SOL    HW225605   0.825   0.099   1.380
 8236SOL     OW25606   0.968   6.493   1.557
 8236SOL    HW125607   0.963   6.578   1.609
 8236SOL    HW225608   0.894   6.489   1.490
 8237SOL     OW25609   4.150   4.943   5.992
 8237SOL    HW125610   4.173   4.998   5.912
 8237SOL    HW225611   4.139   5.003   6.071
 8238SOL     OW25612   0.491   4.595   0.600
 8238SOL    HW125613   0.461   4.505   0.568
 8238SOL    HW225614   0.591   4.595   0.609
 8239SOL     OW25615   1.763   1.631   5.219
 8239SOL    HW125616   1.717   1.695   5.281
 8239SOL    HW225617   1.843   1.593   5.264
 8240SOL     OW25618   3.828   3.557   4.708
 8240SOL    HW125619   3.832   3.578   4.806
 8240SOL    HW225620   3.868   3.467   4.691
 8241SOL     OW25621   1.958   4.233   5.098
 8241SOL    HW125622   1.883   4.218   5.034
 8241SOL    HW225623   1.966   4.154   5.159
 8242SOL     OW25624   0.683   3.463   2.754
 8242SOL    HW125625   0.626   3.444   2.834
 8242SOL    HW225626   0.664   3.396   2.682
 8243SOL     OW25627   2.011   5.555   4.405
 8243SOL    HW125628   2.082   5.500   4.448
 8243SOL    HW225629   2.024   5.556   4.306
 8244SOL     OW25630   6.609   1.242   4.028
 8244SOL    HW125631   6.704   1.220   4.048
 8244SOL    HW225632   6.566   1.164   3.983
 8245SOL     OW25633   5.579   1.919   2.978
 8245SOL    HW125634   5.589   1.894   2.882
 8245SOL    HW225635   5.485   1.902   3.008
 8246SOL     OW25636   1.507   5.003   6.533
 8246SOL    HW125637   1.481   4.908   6.548
 8246SOL    HW225638   1.425   5.058   6.519
 8247SOL     OW25639   3.017   5.879   2.682
 8247SOL    HW125640   3.013   5.907   2.778
 8247SOL    HW225641   2.931   5.903   2.637
 8248SOL     OW25642   6.713   5.398   3.437
 8248SOL    HW125643   6.758   5.331   3.495
 8248SOL    HW225644   6.742   5.385   3.342
 8249SOL     OW25645   3.369   1.550   6.827
 8249SOL    HW125646   3.331   1.598   6.905
 8249SOL    HW225647   3.420   1.614   6.769
 8250SOL     OW25648   0.888   1.988   6.970
 8250SOL    HW125649   0.886   1.905   7.026
 8250SOL    HW225650   0.978   2.030   6.975
 8251SOL     OW25651   1.019   2.763   5.439
 8251SOL    HW125652   1.075   2.700   5.384
 8251SOL    HW225653   1.078   2.808   5.507
 8252SOL     OW25654   0.878   2.235   6.522
 8252SOL    HW125655   0.820   2.154   6.533
 8252SOL    HW225656   0.855   2.281   6.437
 8253SOL     OW25657   3.983   6.037   0.507
 8253SOL    HW125658   4.026   5.959   0.462
 8253SOL    HW225659   4.045   6.074   0.576
 8254SOL     OW25660   5.515   5.334   6.969
 8254SOL    HW125661   5.422   5.305   6.945
 8254SOL    HW225662   5.536   5.305   0.036
 8255SOL     OW25663   2.523   0.836   5.572
 8255SOL    HW125664   2.455   0.894   5.616
 8255SOL    HW225665   2.490   0.809   5.481
 8256SOL     OW25666   1.386   4.900   5.103
 8256SOL    HW125667   1.484   4.915   5.114
 8256SOL    HW225668   1.349   4.968   5.040
 8257SOL     OW25669   5.424   3.963   2.800
 8257SOL    HW125670   5.372   3.885   2.834
 8257SOL    HW225671   5.482   3.998   2.874
 8258SOL     OW25672   0.669   2.972   2.392
 8258SOL    HW125673   0.708   3.063   2.405
 8258SOL    HW225674   0.583   2.980   2.341
 8259SOL     OW25675   5.153   1.911   3.880
 8259SOL    HW125676   5.122   1.821   3.849
 8259SOL    HW225677   5.133   1.980   3.810
 8260SOL     OW25678   4.252   2.337   1.349
 8260SOL    HW125679   4.338   2.345   1.399
 8260SOL    HW225680   4.221   2.243   1.351
 8261SOL     OW25681   5.552   1.144   2.351
 8261SOL    HW125682   5.508   1.137   2.441
 8261SOL    HW225683   5.559   1.053   2.311
 8262SOL     OW25684   5.460   3.772   1.657
 8262SOL    HW125685   5.447   3.824   1.573
 8262SOL    HW225686   5.515   3.825   1.722
 8263SOL     OW25687   6.114   1.976   5.757
 8263SOL    HW125688   6.073   1.900   5.706
 8263SOL    HW225689   6.119   1.952   5.854
 8264SOL     OW25690   3.408   0.296   2.703
 8264SOL    HW125691   3.478   0.336   2.763
 8264SOL    HW225692   3.319   0.334   2.726
 8265SOL     OW25693   4.494   6.208   0.800
 8265SOL    HW125694   4.571   6.246   0.850
 8265SOL    HW225695   4.442   6.282   0.756
 8266SOL     OW25696   3.051   0.948   3.833
 8266SOL    HW125697   3.100   1.036   3.832
 8266SOL    HW225698   3.101   0.882   3.778
 8267SOL     OW25699   2.133   3.327   2.560
 8267SOL    HW125700   2.155   3.236   2.526
 8267SOL    HW225701   2.119   3.389   2.482
 8268SOL     OW25702   3.176   4.484   6.295
 8268SOL    HW125703   3.178   4.519   6.201
 8268SOL    HW225704   3.162   4.385   6.293
 8269SOL     OW25705   6.109   3.031   4.553
 8269SOL    HW125706   6.012   3.010   4.556
 8269SOL    HW225707   6.150   3.011   4.642
 8270SOL     OW25708   3.894   6.314   6.458
 8270SOL    HW125709   3.965   6.246   6.474
 8270SOL    HW225710   3.925   6.403   6.495
 8271SOL     OW25711   3.448   6.558   6.146
 8271SOL    HW125712   3.413   6.469   6.173
 8271SOL    HW225713   3.521   6.587   6.208
 8272SOL     OW25714   1.136   0.500   1.758
 8272SOL    HW125715   1.064   0.559   1.794
 8272SOL    HW225716   1.182   0.453   1.834
 8273SOL     OW25717   4.175   0.620   0.385
 8273SOL    HW125718   4.185   0.643   0.288
 8273SOL    HW225719   4.079   0.632   0.412
 8274SOL     OW25720   4.998   6.413   5.361
 8274SOL    HW125721   5.095   6.422   5.381
 8274SOL    HW225722   4.957   6.505   5.355
 8275SOL     OW25723   5.505   0.495   3.970
 8275SOL    HW125724   5.502   0.431   4.047
 8275SOL    HW225725   5.435   0.565   3.982
 8276SOL     OW25726   6.680   2.048   6.630
 8276SOL    HW125727   6.671   2.053   6.531
 8276SOL    HW225728   6.704   2.139   6.666
 8277SOL     OW25729   1.193   0.213   0.075
 8277SOL    HW125730   1.159   0.267   7.025
 8277SOL    HW225731   1.177   0.116   0.057
 8278SOL     OW25732   2.794   1.550   0.832
 8278SOL    HW125733   2.791   1.503   0.920
 8278SOL    HW225734   2.889   1.556   0.801
 8279SOL     OW25735   3.574   6.099   5.495
 8279SOL    HW125736   3.594   6.012   5.450
 8279SOL    HW225737   3.619   6.100   5.585
 8280SOL     OW25738   5.290   4.449   0.153
 8280SOL    HW125739   5.363   4.410   0.096
 8280SOL    HW225740   5.202   4.409   0.127
 8281SOL     OW25741   2.811   5.451   0.182
 8281SOL    HW125742   2.811   5.550   0.195
 8281SOL    HW225743   2.866   5.408   0.254
 8282SOL     OW25744   2.698   2.947   1.729
 8282SOL    HW125745   2.686   2.857   1.688
 8282SOL    HW225746   2.794   2.975   1.720
 8283SOL     OW25747   0.476   6.610   4.074
 8283SOL    HW125748   0.570   6.591   4.044
 8283SOL    HW225749   0.412   6.552   4.024
 8284SOL     OW25750   3.649   1.560   2.379
 8284SOL    HW125751   3.558   1.519   2.380
 8284SOL    HW225752   3.649   1.642   2.321
 8285SOL     OW25753   2.207   4.510   6.692
 8285SOL    HW125754   2.217   4.555   6.604
 8285SOL    HW225755   2.201   4.411   6.678
 8286SOL     OW25756   5.571   2.643   5.424
 8286SOL    HW125757   5.571   2.735   5.385
 8286SOL    HW225758   5.480   2.603   5.416
 8287SOL     OW25759   1.716   0.350   3.877
 8287SOL    HW125760   1.691   0.280   3.944
 8287SOL    HW225761   1.725   0.307   3.787
 8288SOL     OW25762   2.315   0.427   2.677
 8288SOL    HW125763   2.239   0.487   2.702
 8288SOL    HW225764   2.393   0.483   2.649
 8289SOL     OW25765   6.264   1.000   6.184
 8289SOL    HW125766   6.264   1.100   6.188
 8289SOL    HW225767   6.327   0.970   6.113
 8290SOL     OW25768   4.651   2.856   1.692
 8290SOL    HW125769   4.746   2.886   1.682
 8290SOL    HW225770   4.607   2.907   1.766
 8291SOL     OW25771   4.454   5.936   6.773
 8291SOL    HW125772   4.400   5.911   6.693
 8291SOL    HW225773   4.491   5.853   6.815
 8292SOL     OW25774   0.554   3.196   4.749
 8292SOL    HW125775   0.652   3.214   4.756
 8292SOL    HW225776   0.538   3.098   4.760
 8293SOL     OW25777   2.974   5.569   3.639
 8293SOL    HW125778   2.901   5.501   3.645
 8293SOL    HW225779   3.041   5.553   3.711
 8294SOL     OW25780   5.164   3.835   5.595
 8294SOL    HW125781   5.180   3.808   5.689
 8294SOL    HW225782   5.113   3.922   5.593
 8295SOL     OW25783   5.179   4.957   2.482
 8295SOL    HW125784   5.172   5.050   2.519
 8295SOL    HW225785   5.115   4.947   2.406
 8296SOL     OW25786   4.135   6.945   1.912
 8296SOL    HW125787   4.180   0.003   1.940
 8296SOL    HW225788   4.202   6.885   1.868
 8297SOL     OW25789   5.372   4.444   3.454
 8297SOL    HW125790   5.358   4.346   3.438
 8297SOL    HW225791   5.283   4.488   3.472
 8298SOL     OW25792   0.350   6.735   0.083
 8298SOL    HW125793   0.334   6.832   0.063
 8298SOL    HW225794   0.388   6.726   0.175
 8299SOL     OW25795   1.069   3.505   0.860
 8299SOL    HW125796   1.082   3.469   0.952
 8299SOL    HW225797   0.991   3.569   0.860
 8300SOL     OW25798   6.098   5.130   3.698
 8300SOL    HW125799   6.059   5.149   3.608
 8300SOL    HW225800   6.196   5.109   3.689
 8301SOL     OW25801   5.656   6.670   0.502
 8301SOL    HW125802   5.623   6.622   0.420
 8301SOL    HW225803   5.750   6.643   0.521
 8302SOL     OW25804   3.724   0.250   5.507
 8302SOL    HW125805   3.815   0.277   5.476
 8302SOL    HW225806   3.658   0.267   5.434
 8303SOL     OW25807   0.197   5.243   2.673
 8303SOL    HW125808   0.156   5.175   2.734
 8303SOL    HW225809   0.133   5.320   2.661
 8304SOL     OW25810   5.939   4.612   3.295
 8304SOL    HW125811   5.942   4.514   3.314
 8304SOL    HW225812   6.032   4.646   3.282
 8305SOL     OW25813   5.306   6.786   4.974
 8305SOL    HW125814   5.328   6.840   5.056
 8305SOL    HW225815   5.373   6.806   4.902
 8306SOL     OW25816   6.938   1.691   2.975
 8306SOL    HW125817   6.873   1.739   2.916
 8306SOL    HW225818   6.954   1.600   2.939
 8307SOL     OW25819   1.623   2.872   2.861
 8307SOL    HW125820   1.701   2.891   2.801
 8307SOL    HW225821   1.593   2.958   2.903
 8308SOL     OW25822   0.771   5.235   0.938
 8308SOL    HW125823   0.826   5.273   0.864
 8308SOL    HW225824   0.675   5.237   0.913
 8309SOL     OW25825   6.633   4.643   4.524
 8309SOL    HW125826   6.612   4.702   4.603
 8309SOL    HW225827   6.700   4.575   4.551
 8310SOL     OW25828   1.907   0.359   0.984
 8310SOL    HW125829   1.939   0.265   0.968
 8310SOL    HW225830   1.818   0.357   1.030
 8311SOL     OW25831   5.250   5.686   3.371
 8311SOL    HW125832   5.212   5.660   3.282
 8311SOL    HW225833   5.283   5.604   3.418
 8312SOL     OW25834   5.742   1.370   0.300
 8312SOL    HW125835   5.682   1.309   0.249
 8312SOL    HW225836   5.811   1.408   0.239
 8313SOL     OW25837   5.706   2.517   6.034
 8313SOL    HW125838   5.613   2.534   6.065
 8313SOL    HW225839   5.764   2.594   6.059
 8314SOL     OW25840   4.497   5.973   4.176
 8314SOL    HW125841   4.428   6.046   4.175
 8314SOL    HW225842   4.514   5.945   4.270
 8315SOL     OW25843   3.421   3.232   4.600
 8315SOL    HW125844   3.516   3.207   4.617
 8315SOL    HW225845   3.374   3.154   4.557
 8316SOL     OW25846   2.512   2.224   5.649
 8316SOL    HW125847   2.476   2.276   5.572
 8316SOL    HW225848   2.604   2.255   5.671
 8317SOL     OW25849   1.420   2.488   4.323
 8317SOL    HW125850   1.495   2.442   4.276
 8317SOL    HW225851   1.349   2.421   4.348
 8318SOL     OW25852   4.327   6.913   5.965
 8318SOL    HW125853   4.377   6.999   5.964
 8318SOL    HW225854   4.294   6.895   6.058
 8319SOL     OW25855   2.338   5.558   5.997
 8319SOL    HW125856   2.302   5.618   5.926
 8319SOL    HW225857   2.299   5.584   6.086
 8320SOL     OW25858   3.524   3.177   4.926
 8320SOL    HW125859   3.531   3.096   4.866
 8320SOL    HW225860   3.444   3.230   4.900
 8321SOL     OW25861   6.992   6.941   0.690
 8321SOL    HW125862   6.983   7.006   0.614
 8321SOL    HW225863   0.008   6.987   0.768
 8322SOL     OW25864   0.466   6.407   0.335
 8322SOL    HW125865   0.495   6.406   0.240
 8322SOL    HW225866   0.370   6.380   0.341
 8323SOL     OW25867   5.589   4.444   0.363
 8323SOL    HW125868   5.662   4.382   0.389
 8323SOL    HW225869   5.608   4.535   0.398
 8324SOL     OW25870   5.241   6.037   0.240
 8324SOL    HW125871   5.169   6.102   0.265
 8324SOL    HW225872   5.242   6.026   0.141
 8325SOL     OW25873   1.398   6.693   5.866
 8325SOL    HW125874   1.416   6.626   5.793
 8325SOL    HW225875   1.467   6.765   5.862
 8326SOL     OW25876   1.673   3.138   6.646
 8326SOL    HW125877   1.681   3.072   6.721
 8326SOL    HW225878   1.593   3.196   6.661
 8327SOL     OW25879   1.220   5.827   4.915
 8327SOL    HW125880   1.300   5.852   4.968
 8327SOL    HW225881   1.245   5.816   4.819
 8328SOL     OW25882   0.537   6.364   0.071
 8328SOL    HW125883   0.528   6.327   7.006
 8328SOL    HW225884   0.631   6.391   0.087
 8329SOL     OW25885   1.449   3.112   4.630
 8329SOL    HW125886   1.546   3.115   4.656
 8329SOL    HW225887   1.433   3.172   4.552
 8330SOL     OW25888   2.979   1.187   6.971
 8330SOL    HW125889   3.002   1.173   0.040
 8330SOL    HW225890   3.036   1.128   6.914
 8331SOL     OW25891   1.421   2.475   6.430
 8331SOL    HW125892   1.329   2.465   6.393
 8331SOL    HW225893   1.481   2.515   6.361
 8332SOL     OW25894   6.342   4.238   2.070
 8332SOL    HW125895   6.403   4.225   2.148
 8332SOL    HW225896   6.362   4.169   2.001
 8333SOL     OW25897   1.611   3.895   0.125
 8333SOL    HW125898   1.602   3.942   0.037
 8333SOL    HW225899   1.677   3.944   0.182
 8334SOL     OW25900   2.762   2.305   5.709
 8334SOL    HW125901   2.834   2.287   5.642
 8334SOL    HW225902   2.803   2.314   5.800
 8335SOL     OW25903   5.330   4.691   6.473
 8335SOL    HW125904   5.297   4.773   6.521
 8335SOL    HW225905   5.430   4.692   6.470
 8336SOL     OW25906   0.604   4.094   3.649
 8336SOL    HW125907   0.654   4.168   3.694
 8336SOL    HW225908   0.593   4.018   3.713
 8337SOL     OW25909   0.235   1.644   4.249
 8337SOL    HW125910   0.162   1.628   4.183
 8337SOL    HW225911   0.310   1.694   4.205
 8338SOL     OW25912   3.390   5.385   1.221
 8338SOL    HW125913   3.488   5.380   1.241
 8338SOL    HW225914   3.345   5.303   1.257
 8339SOL     OW25915   6.266   0.398   1.427
 8339SOL    HW125916   6.244   0.374   1.521
 8339SOL    HW225917   6.319   0.325   1.385
 8340SOL     OW25918   5.965   2.001   6.985
 8340SOL    HW125919   6.028   1.929   7.015
 8340SOL    HW225920   6.017   2.083   6.962
 8341SOL     OW25921   4.006   1.527   0.996
 8341SOL    HW125922   4.007   1.461   1.072
 8341SOL    HW225923   3.974   1.481   0.913
 8342SOL     OW25924   4.535   0.453   0.236
 8342SOL    HW125925   4.477   0.401   0.299
 8342SOL    HW225926   4.622   0.473   0.279
 8343SOL     OW25927   5.644   4.374   3.410
 8343SOL    HW125928   5.553   4.333   3.398
 8343SOL    HW225929   5.654   4.405   3.505
 8344SOL     OW25930   1.154   4.791   6.109
 8344SOL    HW125931   1.179   4.841   6.192
 8344SOL    HW225932   1.058   4.808   6.087
 8345SOL     OW25933   4.973   6.959   3.926
 8345SOL    HW125934   5.003   6.977   4.020
 8345SOL    HW225935   5.044   6.908   3.878
 8346SOL     OW25936   5.751   3.294   4.542
 8346SOL    HW125937   5.806   3.321   4.463
 8346SOL    HW225938   5.692   3.371   4.569
 8347SOL     OW25939   2.129   1.508   6.566
 8347SOL    HW125940   2.156   1.596   6.526
 8347SOL    HW225941   2.087   1.524   6.656
 8348SOL     OW25942   3.087   6.094   2.178
 8348SOL    HW125943   3.085   6.072   2.081
 8348SOL    HW225944   3.096   6.193   2.190
 8349SOL     OW25945   6.167   6.191   2.249
 8349SOL    HW125946   6.218   6.191   2.335
 8349SOL    HW225947   6.229   6.207   2.173
 8350SOL     OW25948   1.957   1.067   6.665
 8350SOL    HW125949   1.858   1.060   6.678
 8350SOL    HW225950   1.976   1.102   6.573
 8351SOL     OW25951   0.254   3.631   2.950
 8351SOL    HW125952   0.186   3.695   2.986
 8351SOL    HW225953   0.346   3.668   2.967
 8352SOL     OW25954   2.800   5.455   1.097
 8352SOL    HW125955   2.760   5.539   1.135
 8352SOL    HW225956   2.761   5.438   1.006
 8353SOL     OW25957   1.319   5.104   1.638
 8353SOL    HW125958   1.244   5.088   1.703
 8353SOL    HW225959   1.288   5.167   1.567
 8354SOL     OW25960   3.150   0.163   3.115
 8354SOL    HW125961   3.109   0.125   3.033
 8354SOL    HW225962   3.248   0.146   3.115
 8355SOL     OW25963   3.122   6.423   6.728
 8355SOL    HW125964   3.082   6.472   6.805
 8355SOL    HW225965   3.056   6.359   6.690
 8356SOL     OW25966   1.788   5.023   0.268
 8356SOL    HW125967   1.853   4.947   0.279
 8356SOL    HW225968   1.824   5.089   0.203
 8357SOL     OW25969   4.638   6.753   5.764
 8357SOL    HW125970   4.584   6.703   5.832
 8357SOL    HW225971   4.677   6.834   5.807
 8358SOL     OW25972   1.044   1.102   4.953
 8358SOL    HW125973   1.123   1.164   4.960
 8358SOL    HW225974   1.020   1.070   5.045
 8359SOL     OW25975   3.722   1.968   6.028
 8359SOL    HW125976   3.793   2.000   6.092
 8359SOL    HW225977   3.749   1.989   5.935
 8360SOL     OW25978   4.731   0.295   0.898
 8360SOL    HW125979   4.721   0.358   0.976
 8360SOL    HW225980   4.786   0.217   0.926
 8361SOL     OW25981   4.169   1.195   6.682
 8361SOL    HW125982   4.210   1.154   6.600
 8361SOL    HW225983   4.070   1.183   6.680
 8362SOL     OW25984   0.491   4.409   1.186
 8362SOL    HW125985   0.563   4.384   1.251
 8362SOL    HW225986   0.439   4.487   1.221
 8363SOL     OW25987   1.505   3.028   0.833
 8363SOL    HW125988   1.501   3.108   0.893
 8363SOL    HW225989   1.438   3.039   0.759
 8364SOL     OW25990   6.929   3.279   4.495
 8364SOL    HW125991   7.002   3.284   4.563
 8364SOL    HW225992   6.932   3.360   4.437
 8365SOL     OW25993   1.437   2.170   2.038
 8365SOL    HW125994   1.401   2.253   2.081
 8365SOL    HW225995   1.366   2.128   1.982
 8366SOL     OW25996   5.659   4.926   2.616
 8366SOL    HW125997   5.665   4.874   2.531
 8366SOL    HW225998   5.750   4.962   2.639
 8367SOL     OW25999   2.410   5.269   4.063
 8367SOL    HW126000   2.409   5.249   3.965
 8367SOL    HW226001   2.316   5.272   4.098
 8368SOL     OW26002   5.853   6.303   6.394
 8368SOL    HW126003   5.917   6.367   6.352
 8368SOL    HW226004   5.767   6.303   6.342
 8369SOL     OW26005   2.109   6.366   1.035
 8369SOL    HW126006   2.197   6.364   0.987
 8369SOL    HW226007   2.046   6.424   0.984
 8370SOL     OW26008   2.893   4.382   6.928
 8370SOL    HW126009   2.807   4.397   6.879
 8370SOL    HW226010   2.872   4.355   7.022
 8371SOL     OW26011   2.038   4.558   4.933
 8371SOL    HW126012   2.074   4.511   5.014
 8371SOL    HW226013   1.963   4.619   4.960
 8372SOL     OW26014   2.109   6.369   1.292
 8372SOL    HW126015   2.091   6.463   1.322
 8372SOL    HW226016   2.113   6.365   1.192
 8373SOL     OW26017   6.768   1.976   4.067
 8373SOL    HW126018   6.746   1.924   4.150
 8373SOL    HW226019   6.851   1.939   4.025
 8374SOL     OW26020   6.820   1.488   4.314
 8374SOL    HW126021   6.853   1.397   4.340
 8374SOL    HW226022   6.742   1.478   4.253
 8375SOL     OW26023   3.089   1.076   4.813
 8375SOL    HW126024   3.185   1.071   4.788
 8375SOL    HW226025   3.044   0.988   4.792
 8376SOL     OW26026   1.571   1.510   3.487
 8376SOL    HW126027   1.474   1.528   3.502
 8376SOL    HW226028   1.594   1.531   3.392
 8377SOL     OW26029   4.956   5.189   0.268
 8377SOL    HW126030   4.949   5.288   0.284
 8377SOL    HW226031   5.024   5.172   0.197
 8378SOL     OW26032   5.177   5.892   4.437
 8378SOL    HW126033   5.219   5.824   4.377
 8378SOL    HW226034   5.077   5.881   4.433
 8379SOL     OW26035   5.566   1.665   1.298
 8379SOL    HW126036   5.627   1.636   1.372
 8379SOL    HW226037   5.484   1.706   1.338
 8380SOL     OW26038   6.790   5.805   0.831
 8380SOL    HW126039   6.788   5.724   0.890
 8380SOL    HW226040   6.876   5.806   0.779
 8381SOL     OW26041   0.404   1.695   2.863
 8381SOL    HW126042   0.460   1.658   2.788
 8381SOL    HW226043   0.433   1.654   2.949
 8382SOL     OW26044   1.886   0.920   0.739
 8382SOL    HW126045   1.983   0.900   0.730
 8382SOL    HW226046   1.838   0.839   0.772
 8383SOL     OW26047   2.860   7.010   6.928
 8383SOL    HW126048   2.905   6.969   6.850
 8383SOL    HW226049   2.817   6.938   6.984
 8384SOL     OW26050   0.797   3.145   2.801
 8384SOL    HW126051   0.835   3.186   2.884
 8384SOL    HW226052   0.866   3.087   2.757
 8385SOL     OW26053   4.330   2.958   1.300
 8385SOL    HW126054   4.371   2.938   1.389
 8385SOL    HW226055   4.237   2.992   1.313
 8386SOL     OW26056   2.219   5.836   1.887
 8386SOL    HW126057   2.223   5.824   1.986
 8386SOL    HW226058   2.258   5.926   1.863
 8387SOL     OW26059   1.454   1.200   2.871
 8387SOL    HW126060   1.423   1.265   2.942
 8387SOL    HW226061   1.489   1.251   2.793
 8388SOL     OW26062   4.750   6.076   1.087
 8388SOL    HW126063   4.747   5.979   1.111
 8388SOL    HW226064   4.665   6.120   1.115
 8389SOL     OW26065   0.419   2.863   3.890
 8389SOL    HW126066   0.421   2.764   3.874
 8389SOL    HW226067   0.491   2.887   3.956
 8390SOL     OW26068   2.833   6.991   5.386
 8390SOL    HW126069   2.774   6.988   5.467
 8390SOL    HW226070   2.923   7.027   5.413
 8391SOL     OW26071   5.314   5.886   1.156
 8391SOL    HW126072   5.292   5.858   1.250
 8391SOL    HW226073   5.381   5.960   1.158
 8392SOL     OW26074   6.288   6.492   5.601
 8392SOL    HW126075   6.204   6.499   5.655
 8392SOL    HW226076   6.356   6.438   5.652
 8393SOL     OW26077   0.100   5.679   3.086
 8393SOL    HW126078   0.163   5.630   3.025
 8393SOL    HW226079   0.015   5.628   3.093
 8394SOL     OW26080   1.101   2.038   2.808
 8394SOL    HW126081   1.185   2.027   2.755
 8394SOL    HW226082   1.120   2.017   2.904
 8395SOL     OW26083   0.753   6.204   5.651
 8395SOL    HW126084   0.821   6.273   5.679
 8395SOL    HW226085   0.708   6.234   5.566
 8396SOL     OW26086   5.022   3.547   1.172
 8396SOL    HW126087   4.964   3.469   1.198
 8396SOL    HW226088   4.984   3.591   1.091
 8397SOL     OW26089   1.834   5.555   3.635
 8397SOL    HW126090   1.903   5.499   3.589
 8397SOL    HW226091   1.844   5.650   3.606
 8398SOL     OW26092   5.049   2.049   0.800
 8398SOL    HW126093   4.979   2.015   0.738
 8398SOL    HW226094   5.066   1.982   0.872
 8399SOL     OW26095   5.908   5.808   0.410
 8399SOL    HW126096   5.868   5.820   0.500
 8399SOL    HW226097   5.900   5.894   0.358
 8400SOL     OW26098   6.098   0.384   3.930
 8400SOL    HW126099   6.078   0.467   3.878
 8400SOL    HW226100   6.047   0.386   4.016
 8401SOL     OW26101   3.234   4.997   6.071
 8401SOL    HW126102   3.315   5.034   6.027
 8401SOL    HW226103   3.232   5.025   6.167
 8402SOL     OW26104   4.256   1.990   0.572
 8402SOL    HW126105   4.345   1.948   0.558
 8402SOL    HW226106   4.214   2.009   0.484
 8403SOL     OW26107   1.300   2.142   4.534
 8403SOL    HW126108   1.363   2.213   4.566
 8403SOL    HW226109   1.343   2.091   4.459
 8404SOL     OW26110   4.384   4.797   5.422
 8404SOL    HW126111   4.315   4.787   5.493
 8404SOL    HW226112   4.475   4.800   5.463
 8405SOL     OW26113   0.820   2.666   5.232
 8405SOL    HW126114   0.828   2.726   5.152
 8405SOL    HW226115   0.870   2.706   5.309
 8406SOL     OW26116   5.176   3.341   1.615
 8406SOL    HW126117   5.259   3.287   1.600
 8406SOL    HW226118   5.096   3.281   1.607
 8407SOL     OW26119   5.012   3.821   2.439
 8407SOL    HW126120   4.971   3.889   2.378
 8407SOL    HW226121   5.084   3.865   2.494
 8408SOL     OW26122   4.545   2.642   3.908
 8408SOL    HW126123   4.500   2.713   3.855
 8408SOL    HW226124   4.523   2.552   3.869
 8409SOL     OW26125   0.865   2.465   4.051
 8409SOL    HW126126   0.798   2.513   3.994
 8409SOL    HW226127   0.946   2.524   4.064
 8410SOL     OW26128   3.729   0.008   2.293
 8410SOL    HW126129   3.674   0.019   2.210
 8410SOL    HW226130   3.754   6.938   2.303
 8411SOL     OW26131   1.994   2.863   3.829
 8411SOL    HW126132   2.001   2.768   3.799
 8411SOL    HW226133   2.073   2.915   3.794
 8412SOL     OW26134   6.247   2.856   2.917
 8412SOL    HW126135   6.249   2.761   2.947
 8412SOL    HW226136   6.164   2.900   2.952
 8413SOL     OW26137   2.504   4.232   0.838
 8413SOL    HW126138   2.602   4.215   0.838
 8413SOL    HW226139   2.486   4.329   0.850
 8414SOL     OW26140   5.073   6.515   2.440
 8414SOL    HW126141   4.995   6.454   2.433
 8414SOL    HW226142   5.049   6.604   2.401
 8415SOL     OW26143   6.337   3.327   2.432
 8415SOL    HW126144   6.406   3.361   2.497
 8415SOL    HW226145   6.364   3.236   2.400
 8416SOL     OW26146   5.046   3.624   2.276
 8416SOL    HW126147   5.015   3.642   2.183
 8416SOL    HW226148   5.030   3.705   2.332
 8417SOL     OW26149   2.553   5.732   5.893
 8417SOL    HW126150   2.531   5.798   5.822
 8417SOL    HW226151   2.470   5.683   5.920
 8418SOL     OW26152   5.912   5.441   2.575
 8418SOL    HW126153   5.914   5.538   2.601
 8418SOL    HW226154   5.857   5.431   2.492
 8419SOL     OW26155   4.150   6.956   3.749
 8419SOL    HW126156   4.051   6.972   3.756
 8419SOL    HW226157   4.196   0.014   3.723
 8420SOL     OW26158   3.865   2.029   6.259
 8420SOL    HW126159   3.793   2.069   6.317
 8420SOL    HW226160   3.858   1.930   6.261
 8421SOL     OW26161   2.182   6.861   1.855
 8421SOL    HW126162   2.130   6.936   1.896
 8421SOL    HW226163   2.276   6.891   1.837
 8422SOL     OW26164   3.964   0.103   1.550
 8422SOL    HW126165   3.906   0.116   1.631
 8422SOL    HW226166   4.059   0.122   1.574
 8423SOL     OW26167   2.789   3.979   1.223
 8423SOL    HW126168   2.757   3.896   1.176
 8423SOL    HW226169   2.730   4.056   1.200
 8424SOL     OW26170   3.116   2.152   2.799
 8424SOL    HW126171   3.215   2.160   2.787
 8424SOL    HW226172   3.094   2.155   2.897
 8425SOL     OW26173   5.612   5.175   0.192
 8425SOL    HW126174   5.637   5.271   0.206
 8425SOL    HW226175   5.682   5.131   0.136
 8426SOL     OW26176   3.841   3.467   2.533
 8426SOL    HW126177   3.834   3.517   2.447
 8426SOL    HW226178   3.896   3.519   2.598
 8427SOL     OW26179   2.253   3.647   6.205
 8427SOL    HW126180   2.350   3.666   6.221
 8427SOL    HW226181   2.231   3.555   6.237
 8428SOL     OW26182   6.050   4.468   2.352
 8428SOL    HW126183   6.098   4.554   2.371
 8428SOL    HW226184   6.076   4.434   2.261
 8429SOL     OW26185   1.787   6.430   2.590
 8429SOL    HW126186   1.831   6.422   2.679
 8429SOL    HW226187   1.788   6.341   2.544
 8430SOL     OW26188   4.565   4.367   2.954
 8430SOL    HW126189   4.559   4.405   2.862
 8430SOL    HW226190   4.485   4.394   3.007
 8431SOL     OW26191   3.117   3.832   0.944
 8431SOL    HW126192   3.072   3.786   0.868
 8431SOL    HW226193   3.211   3.855   0.919
 8432SOL     OW26194   4.346   6.203   6.503
 8432SOL    HW126195   4.325   6.153   6.587
 8432SOL    HW226196   4.413   6.152   6.450
 8433SOL     OW26197   0.835   1.377   5.156
 8433SOL    HW126198   0.818   1.345   5.063
 8433SOL    HW226199   0.797   1.469   5.167
 8434SOL     OW26200   5.756   6.457   5.718
 8434SOL    HW126201   5.740   6.555   5.708
 8434SOL    HW226202   5.706   6.407   5.647
 8435SOL     OW26203   4.509   2.044   1.311
 8435SOL    HW126204   4.444   2.044   1.387
 8435SOL    HW226205   4.578   2.114   1.327
 8436SOL     OW26206   3.735   4.683   1.208
 8436SOL    HW126207   3.778   4.618   1.145
 8436SOL    HW226208   3.639   4.695   1.183
 8437SOL     OW26209   0.086   1.208   1.095
 8437SOL    HW126210   0.019   1.282   1.091
 8437SOL    HW226211   0.089   1.160   1.008
 8438SOL     OW26212   1.943   6.676   1.872
 8438SOL    HW126213   1.929   6.614   1.949
 8438SOL    HW226214   2.006   6.749   1.898
 8439SOL     OW26215   6.757   6.235   2.113
 8439SOL    HW126216   6.679   6.255   2.171
 8439SOL    HW226217   6.801   6.151   2.143
 8440SOL     OW26218   0.365   1.857   3.744
 8440SOL    HW126219   0.378   1.768   3.701
 8440SOL    HW226220   0.267   1.871   3.761
 8441SOL     OW26221   4.261   5.201   0.731
 8441SOL    HW126222   4.161   5.194   0.736
 8441SOL    HW226223   4.302   5.130   0.788
 8442SOL     OW26224   1.994   3.837   0.040
 8442SOL    HW126225   2.083   3.797   0.064
 8442SOL    HW226226   1.962   3.894   0.116
 8443SOL     OW26227   2.005   1.118   2.099
 8443SOL    HW126228   1.957   1.140   2.185
 8443SOL    HW226229   2.070   1.044   2.116
 8444SOL     OW26230   4.037   0.136   3.381
 8444SOL    HW126231   4.131   0.105   3.396
 8444SOL    HW226232   3.973   0.062   3.404
 8445SOL     OW26233   3.774   5.016   2.008
 8445SOL    HW126234   3.730   4.926   2.003
 8445SOL    HW226235   3.708   5.084   2.040
 8446SOL     OW26236   6.641   4.471   3.231
 8446SOL    HW126237   6.673   4.475   3.325
 8446SOL    HW226238   6.704   4.415   3.177
 8447SOL     OW26239   4.916   3.036   1.061
 8447SOL    HW126240   4.895   3.080   1.148
 8447SOL    HW226241   5.001   2.984   1.070
 8448SOL     OW26242   0.861   3.040   6.502
 8448SOL    HW126243   0.797   3.098   6.552
 8448SOL    HW226244   0.842   3.046   6.404
 8449SOL     OW26245   1.718   2.230   5.266
 8449SOL    HW126246   1.748   2.275   5.182
 8449SOL    HW226247   1.633   2.181   5.249
 8450SOL     OW26248   2.164   5.266   2.680
 8450SOL    HW126249   2.217   5.248   2.597
 8450SOL    HW226250   2.090   5.199   2.688
 8451SOL     OW26251   3.628   2.890   0.803
 8451SOL    HW126252   3.671   2.801   0.794
 8451SOL    HW226253   3.690   2.961   0.772
 8452SOL     OW26254   6.689   5.878   1.244
 8452SOL    HW126255   6.657   5.890   1.337
 8452SOL    HW226256   6.710   5.781   1.228
 8453SOL     OW26257   0.364   4.481   5.528
 8453SOL    HW126258   0.459   4.511   5.519
 8453SOL    HW226259   0.333   4.498   5.622
 8454SOL     OW26260   1.850   6.920   4.753
 8454SOL    HW126261   1.857   6.949   4.658
 8454SOL    HW226262   1.762   6.947   4.790
 8455SOL     OW26263   5.977   1.986   1.369
 8455SOL    HW126264   6.062   1.965   1.321
 8455SOL    HW226265   5.966   2.085   1.376
 8456SOL     OW26266   5.198   5.657   3.063
 8456SOL    HW126267   5.132   5.593   3.023
 8456SOL    HW226268   5.150   5.739   3.094
 8457SOL     OW26269   6.985   6.272   6.718
 8457SOL    HW126270   7.016   6.358   6.758
 8457SOL    HW226271   6.887   6.277   6.700
 8458SOL     OW26272   1.129   1.351   1.260
 8458SOL    HW126273   1.219   1.313   1.243
 8458SOL    HW226274   1.131   1.404   1.345
 8459SOL     OW26275   2.784   4.973   2.805
 8459SOL    HW126276   2.835   4.937   2.883
 8459SOL    HW226277   2.705   4.914   2.787
 8460SOL     OW26278   4.476   0.970   0.577
 8460SOL    HW126279   4.394   0.987   0.523
 8460SOL    HW226280   4.542   0.919   0.522
 8461SOL     OW26281   5.268   4.194   2.413
 8461SOL    HW126282   5.328   4.251   2.356
 8461SOL    HW226283   5.174   4.227   2.406
 8462SOL     OW26284   2.752   4.878   0.151
 8462SOL    HW126285   2.774   4.788   0.114
 8462SOL    HW226286   2.658   4.880   0.183
 8463SOL     OW26287   6.129   1.133   0.137
 8463SOL    HW126288   6.034   1.133   0.107
 8463SOL    HW226289   6.133   1.130   0.237
 8464SOL     OW26290   0.331   3.595   6.200
 8464SOL    HW126291   0.256   3.653   6.230
 8464SOL    HW226292   0.297   3.504   6.177
 8465SOL     OW26293   4.513   3.033   1.118
 8465SOL    HW126294   4.446   3.001   1.185
 8465SOL    HW226295   4.481   3.118   1.076
 8466SOL     OW26296   6.052   1.432   5.674
 8466SOL    HW126297   6.135   1.376   5.674
 8466SOL    HW226298   6.026   1.453   5.580
 8467SOL     OW26299   3.708   0.979   0.966
 8467SOL    HW126300   3.623   0.957   0.919
 8467SOL    HW226301   3.734   1.074   0.946
 8468SOL     OW26302   6.190   2.917   0.528
 8468SOL    HW126303   6.134   2.932   0.609
 8468SOL    HW226304   6.143   2.957   0.448
 8469SOL     OW26305   4.373   3.050   5.906
 8469SOL    HW126306   4.305   3.082   5.972
 8469SOL    HW226307   4.386   2.952   5.917
 8470SOL     OW26308   1.761   4.863   1.330
 8470SOL    HW126309   1.767   4.889   1.234
 8470SOL    HW226310   1.801   4.935   1.387
 8471SOL     OW26311   3.639   1.998   4.565
 8471SOL    HW126312   3.701   1.978   4.488
 8471SOL    HW226313   3.692   2.000   4.650
 8472SOL     OW26314   5.780   1.340   5.619
 8472SOL    HW126315   5.879   1.341   5.608
 8472SOL    HW226316   5.738   1.299   5.538
 8473SOL     OW26317   4.701   4.394   6.797
 8473SOL    HW126318   4.644   4.419   6.876
 8473SOL    HW226319   4.751   4.310   6.818
 8474SOL     OW26320   3.589   4.133   3.037
 8474SOL    HW126321   3.685   4.124   3.012
 8474SOL    HW226322   3.582   4.163   3.132
 8475SOL     OW26323   0.305   2.661   2.221
 8475SOL    HW126324   0.263   2.746   2.189
 8475SOL    HW226325   0.397   2.680   2.255
 8476SOL     OW26326   6.021   0.052   2.202
 8476SOL    HW126327   6.098   0.100   2.244
 8476SOL    HW226328   5.970   0.115   2.144
 8477SOL     OW26329   5.572   0.085   1.881
 8477SOL    HW126330   5.578   0.078   1.980
 8477SOL    HW226331   5.654   0.131   1.845
 8478SOL     OW26332   6.290   0.806   5.738
 8478SOL    HW126333   6.211   0.836   5.790
 8478SOL    HW226334   6.366   0.869   5.752
 8479SOL     OW26335   0.795   2.392   0.840
 8479SOL    HW126336   0.696   2.391   0.854
 8479SOL    HW226337   0.834   2.475   0.881
 8480SOL     OW26338   4.153   3.941   6.865
 8480SOL    HW126339   4.096   3.876   6.814
 8480SOL    HW226340   4.236   3.895   6.896
 8481SOL     OW26341   4.250   1.722   3.722
 8481SOL    HW126342   4.186   1.656   3.682
 8481SOL    HW226343   4.259   1.801   3.661
 8482SOL     OW26344   4.689   0.729   0.948
 8482SOL    HW126345   4.673   0.827   0.957
 8482SOL    HW226346   4.684   0.703   0.852
 8483SOL     OW26347   3.502   5.635   2.969
 8483SOL    HW126348   3.425   5.581   3.004
 8483SOL    HW226349   3.548   5.583   2.897
 8484SOL     OW26350   5.618   5.591   4.842
 8484SOL    HW126351   5.586   5.568   4.935
 8484SOL    HW226352   5.706   5.638   4.848
 8485SOL     OW26353   3.288   2.477   0.343
 8485SOL    HW126354   3.313   2.526   0.426
 8485SOL    HW226355   3.336   2.389   0.340
 8486SOL     OW26356   0.716   2.102   2.990
 8486SOL    HW126357   0.695   2.031   3.058
 8486SOL    HW226358   0.686   2.071   2.900
 8487SOL     OW26359   6.210   1.583   5.897
 8487SOL    HW126360   6.121   1.580   5.853
 8487SOL    HW226361   6.200   1.611   5.992
 8488SOL     OW26362   4.405   4.933   1.569
 8488SOL    HW126363   4.380   4.939   1.666
 8488SOL    HW226364   4.481   4.869   1.558
 8489SOL     OW26365   5.248   2.006   1.899
 8489SOL    HW126366   5.232   1.922   1.848
 8489SOL    HW226367   5.315   2.063   1.852
 8490SOL     OW26368   2.774   0.139   6.530
 8490SOL    HW126369   2.719   0.169   6.608
 8490SOL    HW226370   2.799   0.043   6.541
 8491SOL     OW26371   2.896   5.809   1.831
 8491SOL    HW126372   2.972   5.800   1.767
 8491SOL    HW226373   2.824   5.743   1.808
 8492SOL     OW26374   6.689   6.315   3.937
 8492SOL    HW126375   6.593   6.288   3.934
 8492SOL    HW226376   6.697   6.413   3.917
 8493SOL     OW26377   4.760   0.965   6.930
 8493SOL    HW126378   4.701   0.902   6.980
 8493SOL    HW226379   4.762   0.939   6.833
 8494SOL     OW26380   6.594   4.547   2.365
 8494SOL    HW126381   6.536   4.477   2.406
 8494SOL    HW226382   6.690   4.524   2.380
 8495SOL     OW26383   6.516   5.507   6.942
 8495SOL    HW126384   6.519   5.592   6.889
 8495SOL    HW226385   6.520   5.429   6.880
 8496SOL     OW26386   5.436   2.989   1.866
 8496SOL    HW126387   5.338   3.006   1.852
 8496SOL    HW226388   5.478   2.965   1.779
 8497SOL     OW26389   6.849   0.887   4.002
 8497SOL    HW126390   6.909   0.834   3.942
 8497SOL    HW226391   6.800   0.825   4.063
 8498SOL     OW26392   4.736   0.050   3.972
 8498SOL    HW126393   4.818   7.023   3.951
 8498SOL    HW226394   4.755   0.146   3.953
 8499SOL     OW26395   6.271   6.562   6.179
 8499SOL    HW126396   6.245   6.583   6.085
 8499SOL    HW226397   6.273   6.646   6.233
 8500SOL     OW26398   0.924   0.869   4.754
 8500SOL    HW126399   0.922   0.967   4.771
 8500SOL    HW226400   0.892   0.820   4.835
 8501SOL     OW26401   0.782   2.362   6.267
 8501SOL    HW126402   0.878   2.352   6.244
 8501SOL    HW226403   0.733   2.279   6.241
 8502SOL     OW26404   0.883   3.828   0.229
 8502SOL    HW126405   0.786   3.847   0.210
 8502SOL    HW226406   0.900   3.730   0.221
 8503SOL     OW26407   5.797   1.138   4.730
 8503SOL    HW126408   5.882   1.155   4.680
 8503SOL    HW226409   5.784   1.209   4.799
 8504SOL     OW26410   1.238   6.382   1.776
 8504SOL    HW126411   1.170   6.312   1.757
 8504SOL    HW226412   1.305   6.346   1.841
 8505SOL     OW26413   4.871   3.432   2.926
 8505SOL    HW126414   4.917   3.446   2.838
 8505SOL    HW226415   4.780   3.395   2.911
 8506SOL     OW26416   1.610   0.342   6.414
 8506SOL    HW126417   1.575   0.360   6.323
 8506SOL    HW226418   1.594   0.421   6.473
 8507SOL     OW26419   3.424   6.300   5.382
 8507SOL    HW126420   3.483   6.224   5.406
 8507SOL    HW226421   3.338   6.293   5.432
 8508SOL     OW26422   3.359   2.009   6.396
 8508SOL    HW126423   3.369   2.106   6.421
 8508SOL    HW226424   3.266   1.992   6.365
 8509SOL     OW26425   5.795   1.766   3.028
 8509SOL    HW126426   5.854   1.800   3.101
 8509SOL    HW226427   5.707   1.814   3.032
 8510SOL     OW26428   6.638   2.315   4.652
 8510SOL    HW126429   6.587   2.356   4.577
 8510SOL    HW226430   6.586   2.239   4.691
 8511SOL     OW26431   5.518   2.547   2.394
 8511SOL    HW126432   5.560   2.549   2.304
 8511SOL    HW226433   5.552   2.624   2.448
 8512SOL     OW26434   2.157   6.922   5.870
 8512SOL    HW126435   2.073   6.897   5.822
 8512SOL    HW226436   2.150   7.015   5.906
 8513SOL     OW26437   5.004   6.627   6.252
 8513SOL    HW126438   4.946   6.660   6.177
 8513SOL    HW226439   4.950   6.622   6.336
 8514SOL     OW26440   3.122   5.942   3.767
 8514SOL    HW126441   3.213   5.953   3.728
 8514SOL    HW226442   3.078   6.032   3.776
 8515SOL     OW26443   5.869   1.516   0.754
 8515SOL    HW126444   5.809   1.445   0.718
 8515SOL    HW226445   5.964   1.495   0.731
 8516SOL     OW26446   0.073   2.167   2.611
 8516SOL    HW126447   0.078   2.069   2.630
 8516SOL    HW226448   0.066   2.181   2.512
 8517SOL     OW26449   0.982   3.984   0.616
 8517SOL    HW126450   0.981   4.039   0.700
 8517SOL    HW226451   1.076   3.957   0.596
 8518SOL     OW26452   3.336   5.372   0.776
 8518SOL    HW126453   3.350   5.438   0.702
 8518SOL    HW226454   3.417   5.314   0.784
 8519SOL     OW26455   1.510   4.767   2.983
 8519SOL    HW126456   1.598   4.803   2.954
 8519SOL    HW226457   1.436   4.826   2.950
 8520SOL     OW26458   2.692   0.373   0.134
 8520SOL    HW126459   2.624   0.442   0.107
 8520SOL    HW226460   2.784   0.411   0.125
 8521SOL     OW26461   1.156   6.940   6.719
 8521SOL    HW126462   1.223   6.977   6.783
 8521SOL    HW226463   1.123   7.014   6.659
 8522SOL     OW26464   2.013   6.180   4.826
 8522SOL    HW126465   1.977   6.270   4.801
 8522SOL    HW226466   1.938   6.121   4.854
 8523SOL     OW26467   1.453   0.055   6.822
 8523SOL    HW126468   1.515   0.106   6.883
 8523SOL    HW226469   1.471   0.083   6.728
 8524SOL     OW26470   1.366   2.322   6.120
 8524SOL    HW126471   1.409   2.387   6.182
 8524SOL    HW226472   1.287   2.280   6.165
 8525SOL     OW26473   5.006   2.766   3.216
 8525SOL    HW126474   4.959   2.854   3.225
 8525SOL    HW226475   5.044   2.758   3.124
 8526SOL     OW26476   2.220   2.909   2.014
 8526SOL    HW126477   2.212   2.927   1.916
 8526SOL    HW226478   2.294   2.966   2.052
 8527SOL     OW26479   4.289   0.038   4.482
 8527SOL    HW126480   4.319   6.970   4.494
 8527SOL    HW226481   4.238   0.046   4.396
 8528SOL     OW26482   4.991   2.618   6.835
 8528SOL    HW126483   5.058   2.602   6.762
 8528SOL    HW226484   5.039   2.646   6.918
 8529SOL     OW26485   0.129   4.385   0.190
 8529SOL    HW126486   0.203   4.446   0.217
 8529SOL    HW226487   0.050   4.400   0.250
 8530SOL     OW26488   1.657   3.334   5.827
 8530SOL    HW126489   1.669   3.266   5.900
 8530SOL    HW226490   1.628   3.287   5.744
 8531SOL     OW26491   4.246   4.745   2.679
 8531SOL    HW126492   4.284   4.833   2.708
 8531SOL    HW226493   4.151   4.737   2.711
 8532SOL     OW26494   1.431   4.411   6.145
 8532SOL    HW126495   1.338   4.396   6.179
 8532SOL    HW226496   1.433   4.397   6.046
 8533SOL     OW26497   3.595   0.461   5.916
 8533SOL    HW126498   3.533   0.393   5.877
 8533SOL    HW226499   3.689   0.435   5.896
 8534SOL     OW26500   1.982   2.866   2.878
 8534SOL    HW126501   2.079   2.891   2.870
 8534SOL    HW226502   1.962   2.788   2.819
 8535SOL     OW26503   6.581   2.953   4.083
 8535SOL    HW126504   6.605   3.041   4.123
 8535SOL    HW226505   6.531   2.967   3.998
 8536SOL     OW26506   0.201   1.112   4.268
 8536SOL    HW126507   0.105   1.126   4.293
 8536SOL    HW226508   0.239   1.199   4.236
 8537SOL     OW26509   6.496   0.057   2.318
 8537SOL    HW126510   6.552   0.049   2.235
 8537SOL    HW226511   6.527   7.016   2.385
 8538SOL     OW26512   5.543   1.216   4.638
 8538SOL    HW126513   5.490   1.136   4.667
 8538SOL    HW226514   5.641   1.197   4.647
 8539SOL     OW26515   6.895   3.042   2.457
 8539SOL    HW126516   6.861   2.961   2.504
 8539SOL    HW226517   6.991   3.057   2.482
 8540SOL     OW26518   3.782   0.390   0.161
 8540SOL    HW126519   3.838   0.386   0.244
 8540SOL    HW226520   3.691   0.423   0.183
 8541SOL     OW26521   3.520   6.965   5.210
 8541SOL    HW126522   3.592   6.943   5.276
 8541SOL    HW226523   3.514   6.893   5.141
 8542SOL     OW26524   1.375   5.020   6.225
 8542SOL    HW126525   1.287   5.061   6.251
 8542SOL    HW226526   1.410   4.966   6.302
 8543SOL     OW26527   2.147   2.601   6.022
 8543SOL    HW126528   2.197   2.677   5.979
 8543SOL    HW226529   2.065   2.581   5.970
 8544SOL     OW26530   5.645   4.609   5.926
 8544SOL    HW126531   5.729   4.646   5.965
 8544SOL    HW226532   5.596   4.681   5.878
 8545SOL     OW26533   2.539   0.254   6.423
 8545SOL    HW126534   2.545   0.283   6.327
 8545SOL    HW226535   2.628   0.221   6.454
 8546SOL     OW26536   5.098   0.824   2.398
 8546SOL    HW126537   5.102   0.884   2.317
 8546SOL    HW226538   5.077   0.879   2.479
 8547SOL     OW26539   5.572   6.036   6.093
 8547SOL    HW126540   5.597   6.052   5.997
 8547SOL    HW226541   5.641   6.075   6.153
 8548SOL     OW26542   0.416   3.491   5.790
 8548SOL    HW126543   0.445   3.531   5.702
 8548SOL    HW226544   0.463   3.539   5.864
 8549SOL     OW26545   2.184   0.067   4.167
 8549SOL    HW126546   2.205   0.158   4.133
 8549SOL    HW226547   2.163   0.006   4.090
 8550SOL     OW26548   6.703   4.528   6.159
 8550SOL    HW126549   6.794   4.513   6.197
 8550SOL    HW226550   6.683   4.626   6.156
 8551SOL     OW26551   2.080   0.732   5.796
 8551SOL    HW126552   2.097   0.725   5.698
 8551SOL    HW226553   2.007   0.798   5.813
 8552SOL     OW26554   2.997   1.924   2.633
 8552SOL    HW126555   3.024   2.018   2.653
 8552SOL    HW226556   3.048   1.891   2.554
 8553SOL     OW26557   5.150   4.022   6.833
 8553SOL    HW126558   5.181   4.051   6.923
 8553SOL    HW226559   5.207   4.065   6.763
 8554SOL     OW26560   2.192   1.018   0.459
 8554SOL    HW126561   2.230   1.102   0.498
 8554SOL    HW226562   2.267   0.957   0.431
 8555SOL     OW26563   3.811   1.238   4.061
 8555SOL    HW126564   3.754   1.250   4.142
 8555SOL    HW226565   3.904   1.211   4.089
 8556SOL     OW26566   1.561   5.801   0.466
 8556SOL    HW126567   1.591   5.723   0.412
 8556SOL    HW226568   1.510   5.768   0.546
 8557SOL     OW26569   6.745   0.752   6.365
 8557SOL    HW126570   6.651   0.783   6.347
 8557SOL    HW226571   6.779   0.796   6.448
 8558SOL     OW26572   3.142   6.364   4.240
 8558SOL    HW126573   3.094   6.281   4.212
 8558SOL    HW226574   3.117   6.386   4.334
 8559SOL     OW26575   2.145   4.525   2.981
 8559SOL    HW126576   2.076   4.512   2.910
 8559SOL    HW226577   2.223   4.465   2.963
 8560SOL     OW26578   2.071   4.517   0.280
 8560SOL    HW126579   2.070   4.465   0.195
 8560SOL    HW226580   1.998   4.484   0.340
 8561SOL     OW26581   4.491   0.837   2.838
 8561SOL    HW126582   4.418   0.892   2.798
 8561SOL    HW226583   4.575   0.891   2.842
 8562SOL     OW26584   5.192   1.754   6.965
 8562SOL    HW126585   5.104   1.708   6.972
 8562SOL    HW226586   5.177   1.853   6.964
 8563SOL     OW26587   2.677   5.143   2.436
 8563SOL    HW126588   2.772   5.115   2.421
 8563SOL    HW226589   2.617   5.063   2.429
 8564SOL     OW26590   3.728   0.105   0.319
 8564SOL    HW126591   3.822   0.072   0.311
 8564SOL    HW226592   3.728   0.195   0.363
 8565SOL     OW26593   1.674   5.155   0.913
 8565SOL    HW126594   1.748   5.118   0.969
 8565SOL    HW226595   1.677   5.113   0.822
 8566SOL     OW26596   3.392   1.437   2.357
 8566SOL    HW126597   3.359   1.450   2.451
 8566SOL    HW226598   3.350   1.354   2.319
 8567SOL     OW26599   1.617   3.126   2.282
 8567SOL    HW126600   1.700   3.167   2.245
 8567SOL    HW226601   1.635   3.031   2.307
 8568SOL     OW26602   5.924   0.455   6.794
 8568SOL    HW126603   5.838   0.430   6.839
 8568SOL    HW226604   5.923   0.552   6.772
 8569SOL     OW26605   4.318   2.141   0.083
 8569SOL    HW126606   4.220   2.129   0.066
 8569SOL    HW226607   4.358   2.196   0.010
 8570SOL     OW26608   2.143   2.608   1.983
 8570SOL    HW126609   2.148   2.549   2.064
 8570SOL    HW226610   2.231   2.656   1.971
 8571SOL     OW26611   1.698   0.932   2.763
 8571SOL    HW126612   1.784   0.982   2.751
 8571SOL    HW226613   1.674   0.886   2.677
 8572SOL     OW26614   2.096   4.090   5.531
 8572SOL    HW126615   2.074   3.993   5.529
 8572SOL    HW226616   2.158   4.112   5.456
 8573SOL     OW26617   3.340   6.284   0.413
 8573SOL    HW126618   3.359   6.227   0.332
 8573SOL    HW226619   3.400   6.364   0.412
 8574SOL     OW26620   4.777   0.776   4.983
 8574SOL    HW126621   4.852   0.840   4.967
 8574SOL    HW226622   4.805   0.710   5.053
 8575SOL     OW26623   3.179   6.052   3.314
 8575SOL    HW126624   3.137   6.094   3.394
 8575SOL    HW226625   3.278   6.066   3.316
 8576SOL     OW26626   1.394   4.704   3.697
 8576SOL    HW126627   1.362   4.619   3.654
 8576SOL    HW226628   1.338   4.780   3.665
 8577SOL     OW26629   1.764   1.400   0.452
 8577SOL    HW126630   1.686   1.463   0.451
 8577SOL    HW226631   1.810   1.403   0.363
 8578SOL     OW26632   0.241   6.785   6.392
 8578SOL    HW126633   0.155   6.765   6.345
 8578SOL    HW226634   0.303   6.707   6.381
 8579SOL     OW26635   2.654   6.604   2.075
 8579SOL    HW126636   2.622   6.516   2.109
 8579SOL    HW226637   2.740   6.591   2.026
 8580SOL     OW26638   1.989   0.789   1.034
 8580SOL    HW126639   1.909   0.742   1.071
 8580SOL    HW226640   1.979   0.888   1.047
 8581SOL     OW26641   3.461   4.690   1.460
 8581SOL    HW126642   3.464   4.610   1.400
 8581SOL    HW226643   3.440   4.662   1.553
 8582SOL     OW26644   3.431   5.342   5.694
 8582SOL    HW126645   3.393   5.352   5.602
 8582SOL    HW226646   3.360   5.364   5.761
 8583SOL     OW26647   4.036   0.299   2.923
 8583SOL    HW126648   3.983   0.383   2.929
 8583SOL    HW226649   3.981   0.228   2.879
 8584SOL     OW26650   6.787   1.594   5.068
 8584SOL    HW126651   6.689   1.584   5.053
 8584SOL    HW226652   6.834   1.510   5.042
 8585SOL     OW26653   5.699   2.510   2.695
 8585SOL    HW126654   5.741   2.508   2.785
 8585SOL    HW226655   5.611   2.559   2.700
 8586SOL     OW26656   6.795   6.286   0.266
 8586SOL    HW126657   6.830   6.352   0.332
 8586SOL    HW226658   6.830   6.307   0.175
 8587SOL     OW26659   0.562   1.772   6.601
 8587SOL    HW126660   0.530   1.812   6.515
 8587SOL    HW226661   0.489   1.777   6.669
 8588SOL     OW26662   2.798   1.829   6.245
 8588SOL    HW126663   2.802   1.919   6.290
 8588SOL    HW226664   2.810   1.757   6.313
 8589SOL     OW26665   6.703   3.190   6.783
 8589SOL    HW126666   6.630   3.153   6.726
 8589SOL    HW226667   6.668   3.265   6.839
 8590SOL     OW26668   0.828   0.110   4.340
 8590SOL    HW126669   0.787   0.185   4.393
 8590SOL    HW226670   0.817   0.024   4.390
 8591SOL     OW26671   6.718   4.749   6.669
 8591SOL    HW126672   6.702   4.790   6.759
 8591SOL    HW226673   6.792   4.797   6.622
 8592SOL     OW26674   0.295   1.419   4.672
 8592SOL    HW126675   0.374   1.480   4.680
 8592SOL    HW226676   0.244   1.441   4.589
 8593SOL     OW26677   4.576   1.353   6.976
 8593SOL    HW126678   4.481   1.383   6.983
 8593SOL    HW226679   4.621   1.362   0.038
 8594SOL     OW26680   6.657   2.810   6.299
 8594SOL    HW126681   6.618   2.878   6.361
 8594SOL    HW226682   6.606   2.809   6.213
 8595SOL     OW26683   5.884   6.489   3.172
 8595SOL    HW126684   5.842   6.398   3.174
 8595SOL    HW226685   5.815   6.557   3.146
 8596SOL     OW26686   0.913   1.524   4.215
 8596SOL    HW126687   0.928   1.450   4.149
 8596SOL    HW226688   1.000   1.550   4.257
 8597SOL     OW26689   5.721   3.539   6.793
 8597SOL    HW126690   5.808   3.574   6.759
 8597SOL    HW226691   5.659   3.523   6.717
 8598SOL     OW26692   5.882   6.669   4.875
 8598SOL    HW126693   5.893   6.625   4.786
 8598SOL    HW226694   5.957   6.733   4.891
 8599SOL     OW26695   6.917   3.486   4.324
 8599SOL    HW126696   6.978   3.541   4.268
 8599SOL    HW226697   6.836   3.540   4.348
 8600SOL     OW26698   4.768   1.865   1.112
 8600SOL    HW126699   4.766   1.849   1.013
 8600SOL    HW226700   4.678   1.842   1.151
 8601SOL     OW26701   0.364   6.349   3.764
 8601SOL    HW126702   0.336   6.255   3.742
 8601SOL    HW226703   0.463   6.354   3.774
 8602SOL     OW26704   2.220   6.291   4.946
 8602SOL    HW126705   2.137   6.252   4.907
 8602SOL    HW226706   2.260   6.358   4.883
 8603SOL     OW26707   0.315   0.175   0.519
 8603SOL    HW126708   0.253   0.111   0.473
 8603SOL    HW226709   0.265   0.257   0.546
 8604SOL     OW26710   0.032   4.567   6.633
 8604SOL    HW126711   0.116   4.517   6.649
 8604SOL    HW226712   6.986   4.504   6.609
 8605SOL     OW26713   6.839   4.676   5.001
 8605SOL    HW126714   6.843   4.750   4.933
 8605SOL    HW226715   6.859   4.589   4.956
 8606SOL     OW26716   1.592   1.995   0.492
 8606SOL    HW126717   1.606   2.094   0.486
 8606SOL    HW226718   1.671   1.947   0.455
 8607SOL     OW26719   2.504   4.089   1.138
 8607SOL    HW126720   2.476   4.052   1.227
 8607SOL    HW226721   2.523   4.014   1.076
 8608SOL     OW26722   1.789   4.847   2.892
 8608SOL    HW126723   1.825   4.762   2.853
 8608SOL    HW226724   1.821   4.856   2.987
 8609SOL     OW26725   4.040   1.230   4.234
 8609SOL    HW126726   4.029   1.210   4.332
 8609SOL    HW226727   4.066   1.325   4.222
 8610SOL     OW26728   6.923   6.373   3.196
 8610SOL    HW126729   6.888   6.344   3.285
 8610SOL    HW226730   6.916   6.298   3.131
 8611SOL     OW26731   2.998   1.454   4.955
 8611SOL    HW126732   3.056   1.468   5.036
 8611SOL    HW226733   3.017   1.526   4.888
 8612SOL     OW26734   3.028   3.665   4.160
 8612SOL    HW126735   3.120   3.681   4.122
 8612SOL    HW226736   3.019   3.569   4.184
 8613SOL     OW26737   3.843   2.993   2.230
 8613SOL    HW126738   3.840   3.012   2.132
 8613SOL    HW226739   3.797   2.906   2.249
 8614SOL     OW26740   1.634   1.816   3.106
 8614SOL    HW126741   1.652   1.726   3.145
 8614SOL    HW226742   1.690   1.885   3.152
 8615SOL     OW26743   3.803   1.435   4.401
 8615SOL    HW126744   3.854   1.354   4.370
 8615SOL    HW226745   3.782   1.426   4.498
 8616SOL     OW26746   5.692   4.418   3.702
 8616SOL    HW126747   5.768   4.379   3.754
 8616SOL    HW226748   5.606   4.393   3.746
 8617SOL     OW26749   2.773   0.550   3.664
 8617SOL    HW126750   2.755   0.575   3.759
 8617SOL    HW226751   2.757   0.452   3.652
 8618SOL     OW26752   5.204   4.379   1.131
 8618SOL    HW126753   5.266   4.449   1.166
 8618SOL    HW226754   5.114   4.390   1.172
 8619SOL     OW26755   4.975   4.985   0.778
 8619SOL    HW126756   5.072   4.986   0.754
 8619SOL    HW226757   4.957   5.055   0.847
 8620SOL     OW26758   2.556   0.558   4.191
 8620SOL    HW126759   2.475   0.564   4.249
 8620SOL    HW226760   2.614   0.638   4.207
 8621SOL     OW26761   5.624   3.036   1.610
 8621SOL    HW126762   5.639   3.086   1.525
 8621SOL    HW226763   5.712   3.018   1.654
 8622SOL     OW26764   0.003   5.005   2.936
 8622SOL    HW126765   0.066   5.022   3.011
 8622SOL    HW226766   0.002   4.908   2.914
 8623SOL     OW26767   1.160   3.519   4.476
 8623SOL    HW126768   1.126   3.596   4.531
 8623SOL    HW226769   1.114   3.519   4.387
 8624SOL     OW26770   3.158   3.834   4.821
 8624SOL    HW126771   3.146   3.886   4.737
 8624SOL    HW226772   3.089   3.863   4.888
 8625SOL     OW26773   4.110   2.601   5.600
 8625SOL    HW126774   4.205   2.574   5.584
 8625SOL    HW226775   4.107   2.688   5.650
 8626SOL     OW26776   3.697   3.681   0.512
 8626SOL    HW126777   3.602   3.657   0.493
 8626SOL    HW226778   3.741   3.608   0.565
 8627SOL     OW26779   2.036   1.047   1.767
 8627SOL    HW126780   2.013   0.995   1.684
 8627SOL    HW226781   2.111   1.001   1.815
 8628SOL     OW26782   0.165   6.837   1.096
 8628SOL    HW126783   0.119   6.890   1.167
 8628SOL    HW226784   0.251   6.801   1.131
 8629SOL     OW26785   0.129   6.182   5.794
 8629SOL    HW126786   0.141   6.168   5.892
 8629SOL    HW226787   0.129   6.280   5.774
 8630SOL     OW26788   4.829   2.948   2.280
 8630SOL    HW126789   4.781   2.931   2.194
 8630SOL    HW226790   4.804   2.877   2.346
 8631SOL     OW26791   2.743   6.612   6.438
 8631SOL    HW126792   2.680   6.567   6.374
 8631SOL    HW226793   2.726   6.578   6.530
 8632SOL     OW26794   5.412   5.093   5.258
 8632SOL    HW126795   5.338   5.069   5.196
 8632SOL    HW226796   5.385   5.074   5.352
 8633SOL     OW26797   5.485   4.281   6.078
 8633SOL    HW126798   5.427   4.271   5.997
 8633SOL    HW226799   5.451   4.223   6.151
 8634SOL     OW26800   4.393   2.913   0.485
 8634SOL    HW126801   4.445   2.850   0.543
 8634SOL    HW226802   4.392   3.004   0.525
 8635SOL     OW26803   5.141   2.502   6.014
 8635SOL    HW126804   5.164   2.584   5.962
 8635SOL    HW226805   5.168   2.421   5.962
 8636SOL     OW26806   4.577   0.002   1.883
 8636SOL    HW126807   4.572   6.989   1.791
 8636SOL    HW226808   4.489   0.042   1.907
 8637SOL     OW26809   1.543   2.186   6.713
 8637SOL    HW126810   1.492   2.118   6.765
 8637SOL    HW226811   1.566   2.263   6.772
 8638SOL     OW26812   4.684   2.483   3.706
 8638SOL    HW126813   4.676   2.406   3.642
 8638SOL    HW226814   4.768   2.534   3.686
 8639SOL     OW26815   3.605   3.896   0.151
 8639SOL    HW126816   3.677   3.849   0.202
 8639SOL    HW226817   3.609   3.869   0.055
 8640SOL     OW26818   2.953   3.101   0.518
 8640SOL    HW126819   2.909   3.186   0.543
 8640SOL    HW226820   3.041   3.094   0.565
 8641SOL     OW26821   4.868   5.564   1.975
 8641SOL    HW126822   4.781   5.556   1.928
 8641SOL    HW226823   4.938   5.596   1.912
 8642SOL     OW26824   1.097   5.766   3.565
 8642SOL    HW126825   1.111   5.709   3.645
 8642SOL    HW226826   0.999   5.788   3.556
 8643SOL     OW26827   4.008   6.129   0.956
 8643SOL    HW126828   3.990   6.040   0.915
 8643SOL    HW226829   3.935   6.151   1.021
 8644SOL     OW26830   6.055   2.121   6.238
 8644SOL    HW126831   5.983   2.066   6.282
 8644SOL    HW226832   6.050   2.215   6.272
 8645SOL     OW26833   5.682   4.587   2.870
 8645SOL    HW126834   5.646   4.494   2.876
 8645SOL    HW226835   5.717   4.615   2.959
 8646SOL     OW26836   6.450   2.461   5.071
 8646SOL    HW126837   6.459   2.498   4.978
 8646SOL    HW226838   6.374   2.506   5.117
 8647SOL     OW26839   2.260   5.570   1.777
 8647SOL    HW126840   2.236   5.654   1.824
 8647SOL    HW226841   2.194   5.552   1.705
 8648SOL     OW26842   5.238   4.936   0.713
 8648SOL    HW126843   5.286   4.852   0.737
 8648SOL    HW226844   5.248   4.954   0.615
 8649SOL     OW26845   5.146   0.275   0.768
 8649SOL    HW126846   5.135   0.335   0.689
 8649SOL    HW226847   5.192   0.190   0.739
 8650SOL     OW26848   2.505   6.428   4.931
 8650SOL    HW126849   2.552   6.375   5.001
 8650SOL    HW226850   2.469   6.512   4.972
 8651SOL     OW26851   3.430   2.063   1.424
 8651SOL    HW126852   3.401   2.110   1.508
 8651SOL    HW226853   3.395   2.113   1.345
 8652SOL     OW26854   1.215   3.055   3.491
 8652SOL    HW126855   1.180   3.059   3.397
 8652SOL    HW226856   1.153   3.001   3.548
 8653SOL     OW26857   6.516   1.177   6.621
 8653SOL    HW126858   6.539   1.266   6.659
 8653SOL    HW226859   6.573   1.159   6.540
 8654SOL     OW26860   0.248   4.427   2.025
 8654SOL    HW126861   0.165   4.466   1.985
 8654SOL    HW226862   0.320   4.496   2.027
 8655SOL     OW26863   0.103   0.782   4.555
 8655SOL    HW126864   0.111   0.806   4.652
 8655SOL    HW226865   0.172   0.831   4.502
 8656SOL     OW26866   4.765   6.934   0.978
 8656SOL    HW126867   4.759   6.892   0.887
 8656SOL    HW226868   4.844   6.996   0.980
 8657SOL     OW26869   4.442   1.093   3.510
 8657SOL    HW126870   4.462   1.185   3.542
 8657SOL    HW226871   4.508   1.067   3.439
 8658SOL     OW26872   6.215   4.288   0.703
 8658SOL    HW126873   6.303   4.291   0.751
 8658SOL    HW226874   6.141   4.285   0.769
 8659SOL     OW26875   3.337   1.142   2.809
 8659SOL    HW126876   3.403   1.112   2.741
 8659SOL    HW226877   3.372   1.222   2.857
 8660SOL     OW26878   0.098   3.849   1.715
 8660SOL    HW126879   0.108   3.809   1.806
 8660SOL    HW226880   0.187   3.850   1.669
 8661SOL     OW26881   6.831   3.774   2.268
 8661SOL    HW126882   6.897   3.813   2.332
 8661SOL    HW226883   6.833   3.674   2.275
 8662SOL     OW26884   1.898   4.041   3.256
 8662SOL    HW126885   1.902   4.128   3.207
 8662SOL    HW226886   1.853   4.054   3.344
 8663SOL     OW26887   4.605   5.601   2.441
 8663SOL    HW126888   4.703   5.616   2.454
 8663SOL    HW226889   4.586   5.594   2.343
 8664SOL     OW26890   3.698   5.993   3.244
 8664SOL    HW126891   3.695   6.078   3.190
 8664SOL    HW226892   3.712   5.915   3.182
 8665SOL     OW26893   5.613   3.501   0.045
 8665SOL    HW126894   5.647   3.546   6.990
 8665SOL    HW226895   5.550   3.428   0.020
 8666SOL     OW26896   4.675   6.965   2.444
 8666SOL    HW126897   4.625   7.021   2.379
 8666SOL    HW226898   4.765   7.005   2.461
 8667SOL     OW26899   5.043   2.017   3.371
 8667SOL    HW126900   5.014   2.032   3.466
 8667SOL    HW226901   4.964   2.024   3.310
 8668SOL     OW26902   5.301   2.377   5.020
 8668SOL    HW126903   5.386   2.382   4.968
 8668SOL    HW226904   5.225   2.405   4.961
 8669SOL     OW26905   6.439   6.079   6.319
 8669SOL    HW126906   6.471   6.171   6.341
 8669SOL    HW226907   6.350   6.084   6.274
 8670SOL     OW26908   6.532   4.449   6.455
 8670SOL    HW126909   6.523   4.400   6.542
 8670SOL    HW226910   6.620   4.496   6.453
 8671SOL     OW26911   0.608   2.836   3.166
 8671SOL    HW126912   0.600   2.899   3.089
 8671SOL    HW226913   0.703   2.834   3.198
 8672SOL     OW26914   0.529   0.857   2.716
 8672SOL    HW126915   0.537   0.845   2.815
 8672SOL    HW226916   0.433   0.854   2.690
 8673SOL     OW26917   0.098   1.685   1.606
 8673SOL    HW126918   0.094   1.599   1.556
 8673SOL    HW226919   0.012   1.698   1.656
 8674SOL     OW26920   6.847   3.748   3.715
 8674SOL    HW126921   6.865   3.753   3.617
 8674SOL    HW226922   6.812   3.836   3.748
 8675SOL     OW26923   3.382   2.195   5.304
 8675SOL    HW126924   3.376   2.117   5.242
 8675SOL    HW226925   3.330   2.271   5.267
 8676SOL     OW26926   5.419   1.145   1.048
 8676SOL    HW126927   5.476   1.167   1.128
 8676SOL    HW226928   5.443   1.055   1.013
 8677SOL     OW26929   2.369   6.850   6.218
 8677SOL    HW126930   2.273   6.827   6.202
 8677SOL    HW226931   2.375   6.922   6.287
 8678SOL     OW26932   1.471   1.769   0.203
 8678SOL    HW126933   1.526   1.835   0.254
 8678SOL    HW226934   1.512   1.755   0.113
 8679SOL     OW26935   1.561   2.165   6.015
 8679SOL    HW126936   1.479   2.208   6.054
 8679SOL    HW226937   1.544   2.144   5.918
 8680SOL     OW26938   6.980   0.891   0.332
 8680SOL    HW126939   6.916   0.888   0.410
 8680SOL    HW226940   0.047   0.885   0.366
 8681SOL     OW26941   5.496   6.669   1.610
 8681SOL    HW126942   5.503   6.757   1.564
 8681SOL    HW226943   5.536   6.598   1.552
 8682SOL     OW26944   2.036   0.658   1.366
 8682SOL    HW126945   1.974   0.735   1.349
 8682SOL    HW226946   2.002   0.577   1.319
 8683SOL     OW26947   1.824   4.435   4.118
 8683SOL    HW126948   1.843   4.353   4.063
 8683SOL    HW226949   1.860   4.515   4.071
 8684SOL     OW26950   1.923   3.906   4.223
 8684SOL    HW126951   1.978   3.988   4.210
 8684SOL    HW226952   1.827   3.928   4.208
 8685SOL     OW26953   4.923   2.315   4.673
 8685SOL    HW126954   4.885   2.360   4.592
 8685SOL    HW226955   4.854   2.255   4.713
 8686SOL     OW26956   1.147   5.266   3.194
 8686SOL    HW126957   1.199   5.201   3.248
 8686SOL    HW226958   1.209   5.320   3.136
 8687SOL     OW26959   4.704   4.470   6.033
 8687SOL    HW126960   4.751   4.419   5.961
 8687SOL    HW226961   4.759   4.468   6.117
 8688SOL     OW26962   0.233   3.795   5.358
 8688SOL    HW126963   0.269   3.847   5.281
 8688SOL    HW226964   0.194   3.857   5.426
 8689SOL     OW26965   3.825   3.638   0.018
 8689SOL    HW126966   3.855   3.719   0.069
 8689SOL    HW226967   3.831   3.655   6.947
 8690SOL     OW26968   1.936   2.149   2.579
 8690SOL    HW126969   1.849   2.107   2.606
 8690SOL    HW226970   1.919   2.241   2.543
 8691SOL     OW26971   3.450   2.525   5.341
 8691SOL    HW126972   3.382   2.481   5.282
 8691SOL    HW226973   3.485   2.459   5.407
 8692SOL     OW26974   4.383   1.806   5.377
 8692SOL    HW126975   4.441   1.746   5.432
 8692SOL    HW226976   4.380   1.772   5.283
 8693SOL     OW26977   6.510   6.945   5.850
 8693SOL    HW126978   6.521   6.915   5.945
 8693SOL    HW226979   6.487   0.015   5.848
 8694SOL     OW26980   5.696   3.325   5.362
 8694SOL    HW126981   5.702   3.403   5.300
 8694SOL    HW226982   5.618   3.338   5.424
 8695SOL     OW26983   3.503   4.309   6.498
 8695SOL    HW126984   3.503   4.385   6.433
 8695SOL    HW226985   3.438   4.329   6.572
 8696SOL     OW26986   3.120   5.228   5.745
 8696SOL    HW126987   3.077   5.296   5.687
 8696SOL    HW226988   3.104   5.250   5.841
 8697SOL     OW26989   2.188   3.438   5.433
 8697SOL    HW126990   2.139   3.511   5.482
 8697SOL    HW226991   2.200   3.360   5.494
 8698SOL     OW26992   5.521   5.795   5.925
 8698SOL    HW126993   5.522   5.859   5.849
 8698SOL    HW226994   5.462   5.829   5.998
 8699SOL     OW26995   1.545   2.528   6.689
 8699SOL    HW126996   1.482   2.493   6.758
 8699SOL    HW226997   1.501   2.525   6.599
 8700SOL     OW26998   1.375   0.266   3.689
 8700SOL    HW126999   1.388   0.365   3.688
 8700SOL    HW227000   1.284   0.245   3.724
 8701SOL     OW27001   0.698   2.316   0.203
 8701SOL    HW127002   0.755   2.399   0.198
 8701SOL    HW227003   0.714   2.270   0.290
 8702SOL     OW27004   5.257   4.877   1.518
 8702SOL    HW127005   5.194   4.818   1.570
 8702SOL    HW227006   5.241   4.864   1.420
 8703SOL     OW27007   2.239   6.112   0.752
 8703SOL    HW127008   2.339   6.112   0.754
 8703SOL    HW227009   2.208   6.094   0.659
 8704SOL     OW27010   0.846   0.534   4.759
 8704SOL    HW127011   0.837   0.633   4.746
 8704SOL    HW227012   0.756   0.493   4.771
 8705SOL     OW27013   4.023   2.539   6.846
 8705SOL    HW127014   4.061   2.495   6.928
 8705SOL    HW227015   3.941   2.490   6.817
 8706SOL     OW27016   4.806   3.492   6.214
 8706SOL    HW127017   4.835   3.477   6.308
 8706SOL    HW227018   4.753   3.413   6.182
 8707SOL     OW27019   1.821   1.786   4.993
 8707SOL    HW127020   1.722   1.796   4.985
 8707SOL    HW227021   1.842   1.737   5.078
 8708SOL     OW27022   6.125   2.644   0.359
 8708SOL    HW127023   6.128   2.581   0.281
 8708SOL    HW227024   6.199   2.711   0.351
 8709SOL     OW27025   6.009   6.749   5.538
 8709SOL    HW127026   6.085   6.814   5.534
 8709SOL    HW227027   5.986   6.718   5.446
 8710SOL     OW27028   2.391   1.095   3.497
 8710SOL    HW127029   2.351   1.017   3.546
 8710SOL    HW227030   2.320   1.140   3.444
 8711SOL     OW27031   1.490   1.596   1.147
 8711SOL    HW127032   1.479   1.570   1.243
 8711SOL    HW227033   1.402   1.588   1.100
 8712SOL     OW27034   1.657   4.054   5.341
 8712SOL    HW127035   1.726   4.093   5.401
 8712SOL    HW227036   1.590   4.124   5.318
 8713SOL     OW27037   0.329   3.808   1.588
 8713SOL    HW127038   0.355   3.719   1.625
 8713SOL    HW227039   0.410   3.856   1.555
 8714SOL     OW27040   0.019   5.579   6.526
 8714SOL    HW127041   6.957   5.572   6.572
 8714SOL    HW227042   0.088   5.609   6.593
 8715SOL     OW27043   2.105   3.540   1.561
 8715SOL    HW127044   2.177   3.472   1.544
 8715SOL    HW227045   2.016   3.499   1.541
 8716SOL     OW27046   6.616   0.039   2.059
 8716SOL    HW127047   6.613   6.966   2.058
 8716SOL    HW227048   6.701   0.071   2.017
 8717SOL     OW27049   2.555   3.693   0.562
 8717SOL    HW127050   2.508   3.771   0.522
 8717SOL    HW227051   2.651   3.695   0.534
 8718SOL     OW27052   2.463   4.952   5.951
 8718SOL    HW127053   2.558   4.974   5.975
 8718SOL    HW227054   2.455   4.854   5.933
 8719SOL     OW27055   3.479   0.602   5.200
 8719SOL    HW127056   3.412   0.630   5.131
 8719SOL    HW227057   3.571   0.624   5.169
 8720SOL     OW27058   6.982   5.079   4.931
 8720SOL    HW127059   6.944   5.058   5.021
 8720SOL    HW227060   6.929   5.032   4.861
 8721SOL     OW27061   0.310   0.133   6.999
 8721SOL    HW127062   0.323   0.227   6.968
 8721SOL    HW227063   0.231   0.093   6.952
 8722SOL     OW27064   3.784   0.845   1.193
 8722SOL    HW127065   3.748   0.890   1.111
 8722SOL    HW227066   3.730   0.763   1.212
 8723SOL     OW27067   4.086   6.976   2.650
 8723SOL    HW127068   4.003   7.022   2.683
 8723SOL    HW227069   4.077   6.877   2.665
 8724SOL     OW27070   3.872   0.832   4.151
 8724SOL    HW127071   3.835   0.763   4.214
 8724SOL    HW227072   3.842   0.811   4.058
 8725SOL     OW27073   6.921   6.885   3.683
 8725SOL    HW127074   6.824   6.862   3.671
 8725SOL    HW227075   6.970   6.805   3.719
 8726SOL     OW27076   0.211   0.854   1.152
 8726SOL    HW127077   0.197   0.758   1.172
 8726SOL    HW227078   0.132   0.907   1.183
 8727SOL     OW27079   4.635   6.603   6.301
 8727SOL    HW127080   4.551   6.549   6.290
 8727SOL    HW227081   4.617   6.697   6.272
 8728SOL     OW27082   6.339   6.987   4.245
 8728SOL    HW127083   6.377   0.052   4.261
 8728SOL    HW227084   6.412   6.919   4.254
 8729SOL     OW27085   4.833   6.237   6.061
 8729SOL    HW127086   4.749   6.291   6.062
 8729SOL    HW227087   4.815   6.148   6.018
 8730SOL     OW27088   4.523   5.411   1.434
 8730SOL    HW127089   4.537   5.508   1.415
 8730SOL    HW227090   4.425   5.391   1.432
 8731SOL     OW27091   0.086   1.656   3.606
 8731SOL    HW127092   0.086   1.738   3.663
 8731SOL    HW227093   0.061   1.681   3.512
 8732SOL     OW27094   6.108   6.787   0.546
 8732SOL    HW127095   6.050   6.868   0.555
 8732SOL    HW227096   6.079   6.718   0.613
 8733SOL     OW27097   6.196   5.111   2.778
 8733SOL    HW127098   6.253   5.110   2.860
 8733SOL    HW227099   6.146   5.197   2.773
 8734SOL     OW27100   0.033   3.318   2.315
 8734SOL    HW127101   0.131   3.300   2.310
 8734SOL    HW227102   7.015   3.245   2.367
 8735SOL     OW27103   6.817   3.279   5.334
 8735SOL    HW127104   6.779   3.245   5.247
 8735SOL    HW227105   6.910   3.313   5.318
 8736SOL     OW27106   1.089   6.118   3.961
 8736SOL    HW127107   1.175   6.083   3.924
 8736SOL    HW227108   1.105   6.208   4.003
 8737SOL     OW27109   1.565   5.978   6.834
 8737SOL    HW127110   1.518   6.024   6.909
 8737SOL    HW227111   1.572   6.041   6.756
 8738SOL     OW27112   1.455   2.976   3.358
 8738SOL    HW127113   1.367   2.982   3.406
 8738SOL    HW227114   1.530   2.989   3.423
 8739SOL     OW27115   5.060   4.059   5.913
 8739SOL    HW127116   5.064   4.113   5.997
 8739SOL    HW227117   5.128   3.986   5.917
 8740SOL     OW27118   2.870   0.288   4.904
 8740SOL    HW127119   2.881   0.387   4.912
 8740SOL    HW227120   2.860   0.248   4.995
 8741SOL     OW27121   1.310   0.626   2.595
 8741SOL    HW127122   1.366   0.564   2.540
 8741SOL    HW227123   1.217   0.590   2.602
 8742SOL     OW27124   2.854   1.783   2.285
 8742SOL    HW127125   2.920   1.805   2.357
 8742SOL    HW227126   2.895   1.718   2.221
 8743SOL     OW27127   0.555   2.182   1.585
 8743SOL    HW127128   0.511   2.241   1.518
 8743SOL    HW227129   0.613   2.237   1.644
 8744SOL     OW27130   3.408   4.513   5.678
 8744SOL    HW127131   3.333   4.456   5.647
 8744SOL    HW227132   3.495   4.467   5.662
 8745SOL     OW27133   5.978   0.759   6.097
 8745SOL    HW127134   5.953   0.847   6.137
 8745SOL    HW227135   5.921   0.686   6.136
 8746SOL     OW27136   4.780   5.384   5.285
 8746SOL    HW127137   4.876   5.357   5.290
 8746SOL    HW227138   4.740   5.384   5.377
 8747SOL     OW27139   0.535   0.443   2.514
 8747SOL    HW127140   0.555   0.502   2.593
 8747SOL    HW227141   0.611   0.448   2.449
 8748SOL     OW27142   6.249   1.859   3.561
 8748SOL    HW127143   6.323   1.793   3.547
 8748SOL    HW227144   6.265   1.910   3.645
 8749SOL     OW27145   2.417   1.217   3.926
 8749SOL    HW127146   2.453   1.142   3.872
 8749SOL    HW227147   2.409   1.189   4.022
 8750SOL     OW27148   3.827   3.783   0.273
 8750SOL    HW127149   3.912   3.834   0.266
 8750SOL    HW227150   3.794   3.786   0.367
 8751SOL     OW27151   1.734   6.243   0.666
 8751SOL    HW127152   1.807   6.256   0.599
 8751SOL    HW227153   1.740   6.151   0.705
 8752SOL     OW27154   6.180   3.015   5.933
 8752SOL    HW127155   6.083   3.011   5.912
 8752SOL    HW227156   6.203   2.942   5.998
 8753SOL     OW27157   2.528   2.445   0.954
 8753SOL    HW127158   2.521   2.373   0.885
 8753SOL    HW227159   2.484   2.415   1.038
 8754SOL     OW27160   1.807   5.254   6.915
 8754SOL    HW127161   1.802   5.354   6.920
 8754SOL    HW227162   1.785   5.224   6.822
 8755SOL     OW27163   0.345   3.223   1.623
 8755SOL    HW127164   0.257   3.184   1.651
 8755SOL    HW227165   0.340   3.251   1.527
 8756SOL     OW27166   1.840   1.679   1.832
 8756SOL    HW127167   1.935   1.689   1.803
 8756SOL    HW227168   1.838   1.659   1.930
 8757SOL     OW27169   5.060   5.899   5.206
 8757SOL    HW127170   5.132   5.935   5.265
 8757SOL    HW227171   4.987   5.967   5.198
 8758SOL     OW27172   3.508   5.888   5.217
 8758SOL    HW127173   3.428   5.934   5.257
 8758SOL    HW227174   3.479   5.837   5.136
 8759SOL     OW27175   5.801   0.538   1.052
 8759SOL    HW127176   5.816   0.451   1.005
 8759SOL    HW227177   5.853   0.539   1.138
 8760SOL     OW27178   2.646   2.464   4.508
 8760SOL    HW127179   2.628   2.443   4.604
 8760SOL    HW227180   2.729   2.520   4.502
 8761SOL     OW27181   5.478   1.512   2.628
 8761SOL    HW127182   5.462   1.515   2.529
 8761SOL    HW227183   5.557   1.453   2.647
 8762SOL     OW27184   3.000   5.452   3.333
 8762SOL    HW127185   2.953   5.461   3.245
 8762SOL    HW227186   2.998   5.540   3.381
 8763SOL     OW27187   0.530   0.495   6.973
 8763SOL    HW127188   0.543   0.589   6.941
 8763SOL    HW227189   0.618   0.458   7.002
 8764SOL     OW27190   2.870   5.161   5.162
 8764SOL    HW127191   2.853   5.203   5.251
 8764SOL    HW227192   2.819   5.075   5.156
 8765SOL     OW27193   4.483   6.640   4.851
 8765SOL    HW127194   4.428   6.621   4.770
 8765SOL    HW227195   4.477   6.562   4.914
 8766SOL     OW27196   4.587   6.436   6.007
 8766SOL    HW127197   4.516   6.486   6.055
 8766SOL    HW227198   4.552   6.346   5.980
 8767SOL     OW27199   1.883   1.186   3.993
 8767SOL    HW127200   1.806   1.137   3.951
 8767SOL    HW227201   1.847   1.264   4.045
 8768SOL     OW27202   6.298   1.394   6.999
 8768SOL    HW127203   6.322   1.424   6.907
 8768SOL    HW227204   6.309   1.294   7.005
 8769SOL     OW27205   6.338   6.994   0.153
 8769SOL    HW127206   6.292   6.924   0.207
 8769SOL    HW227207   6.372   6.954   0.068
 8770SOL     OW27208   5.348   2.867   0.200
 8770SOL    HW127209   5.326   2.810   0.280
 8770SOL    HW227210   5.268   2.922   0.176
 8771SOL     OW27211   0.330   3.095   0.372
 8771SOL    HW127212   0.331   3.153   0.291
 8771SOL    HW227213   0.243   3.107   0.420
 8772SOL     OW27214   6.924   0.032   4.357
 8772SOL    HW127215   6.941   6.999   4.278
 8772SOL    HW227216   6.988   0.009   4.430
 8773SOL     OW27217   0.287   0.975   4.481
 8773SOL    HW127218   0.240   1.011   4.401
 8773SOL    HW227219   0.385   0.970   4.463
 8774SOL     OW27220   1.081   1.393   0.262
 8774SOL    HW127221   0.986   1.423   0.255
 8774SOL    HW227222   1.139   1.456   0.211
 8775SOL     OW27223   5.565   3.002   3.688
 8775SOL    HW127224   5.642   2.979   3.747
 8775SOL    HW227225   5.493   3.045   3.743
 8776SOL     OW27226   4.491   3.139   0.625
 8776SOL    HW127227   4.407   3.178   0.661
 8776SOL    HW227228   4.556   3.124   0.700
 8777SOL     OW27229   6.797   2.156   2.779
 8777SOL    HW127230   6.875   2.191   2.727
 8777SOL    HW227231   6.774   2.222   2.851
 8778SOL     OW27232   3.472   4.880   6.941
 8778SOL    HW127233   3.506   4.801   6.890
 8778SOL    HW227234   3.538   4.906   7.012
 8779SOL     OW27235   4.166   4.686   3.315
 8779SOL    HW127236   4.117   4.692   3.401
 8779SOL    HW227237   4.255   4.643   3.330
 8780SOL     OW27238   6.830   4.451   3.865
 8780SOL    HW127239   6.884   4.373   3.895
 8780SOL    HW227240   6.813   4.512   3.943
 8781SOL     OW27241   3.168   0.780   2.149
 8781SOL    HW127242   3.216   0.694   2.134
 8781SOL    HW227243   3.186   0.842   2.072
 8782SOL     OW27244   5.363   2.459   1.014
 8782SOL    HW127245   5.381   2.556   1.001
 8782SOL    HW227246   5.361   2.413   0.926
 8783SOL     OW27247   5.312   3.177   4.846
 8783SOL    HW127248   5.238   3.188   4.912
 8783SOL    HW227249   5.392   3.230   4.876
 8784SOL     OW27250   5.435   0.873   1.178
 8784SOL    HW127251   5.391   0.811   1.243
 8784SOL    HW227252   5.474   0.820   1.103
 8785SOL     OW27253   0.255   5.903   5.257
 8785SOL    HW127254   0.217   5.996   5.255
 8785SOL    HW227255   0.298   5.883   5.169
 8786SOL     OW27256   4.967   1.535   2.807
 8786SOL    HW127257   5.004   1.608   2.749
 8786SOL    HW227258   4.870   1.521   2.785
 8787SOL     OW27259   3.521   6.102   0.790
 8787SOL    HW127260   3.464   6.182   0.774
 8787SOL    HW227261   3.605   6.109   0.736
 8788SOL     OW27262   1.157   6.798   3.869
 8788SOL    HW127263   1.236   6.739   3.852
 8788SOL    HW227264   1.119   6.829   3.781
 8789SOL     OW27265   0.136   2.507   6.480
 8789SOL    HW127266   0.185   2.482   6.396
 8789SOL    HW227267   0.144   2.605   6.495
 8790SOL     OW27268   5.001   3.244   5.592
 8790SOL    HW127269   5.019   3.186   5.671
 8790SOL    HW227270   4.902   3.260   5.585
 8791SOL     OW27271   3.460   6.208   4.761
 8791SOL    HW127272   3.442   6.306   4.772
 8791SOL    HW227273   3.526   6.179   4.831
 8792SOL     OW27274   5.256   5.160   1.585
 8792SOL    HW127275   5.265   5.062   1.571
 8792SOL    HW227276   5.194   5.199   1.517
 8793SOL     OW27277   0.252   5.962   4.607
 8793SOL    HW127278   0.306   5.985   4.687
 8793SOL    HW227279   0.291   5.881   4.562
 8794SOL     OW27280   6.963   1.438   2.579
 8794SOL    HW127281   0.022   1.394   2.556
 8794SOL    HW227282   6.893   1.369   2.594
 8795SOL     OW27283   1.117   5.957   0.087
 8795SOL    HW127284   1.090   5.921   7.025
 8795SOL    HW227285   1.051   5.929   0.157
 8796SOL     OW27286   6.275   3.289   3.692
 8796SOL    HW127287   6.194   3.241   3.656
 8796SOL    HW227288   6.355   3.230   3.685
 8797SOL     OW27289   4.658   6.702   3.749
 8797SOL    HW127290   4.657   6.794   3.711
 8797SOL    HW227291   4.740   6.653   3.719
 8798SOL     OW27292   3.042   0.220   5.749
 8798SOL    HW127293   2.955   0.270   5.749
 8798SOL    HW227294   3.041   0.152   5.822
 8799SOL     OW27295   0.813   5.140   1.772
 8799SOL    HW127296   0.845   5.126   1.678
 8799SOL    HW227297   0.770   5.229   1.780
 8800SOL     OW27298   0.192   5.542   5.058
 8800SOL    HW127299   0.201   5.557   5.156
 8800SOL    HW227300   0.192   5.444   5.039
 8801SOL     OW27301   5.912   3.006   5.897
 8801SOL    HW127302   5.873   2.922   5.859
 8801SOL    HW227303   5.886   3.083   5.839
 8802SOL     OW27304   1.225   6.444   6.605
 8802SOL    HW127305   1.230   6.395   6.518
 8802SOL    HW227306   1.215   6.542   6.588
 8803SOL     OW27307   6.625   6.789   6.370
 8803SOL    HW127308   6.620   6.689   6.367
 8803SOL    HW227309   6.718   6.817   6.394
 8804SOL     OW27310   1.687   5.982   2.855
 8804SOL    HW127311   1.602   5.934   2.832
 8804SOL    HW227312   1.765   5.927   2.825
 8805SOL     OW27313   5.587   4.818   3.529
 8805SOL    HW127314   5.610   4.879   3.453
 8805SOL    HW227315   5.645   4.737   3.525
 8806SOL     OW27316   2.245   0.600   1.194
 8806SOL    HW127317   2.199   0.652   1.266
 8806SOL    HW227318   2.178   0.569   1.127
 8807SOL     OW27319   4.990   2.725   1.290
 8807SOL    HW127320   4.928   2.762   1.221
 8807SOL    HW227321   5.085   2.740   1.261
 8808SOL     OW27322   1.463   2.326   0.070
 8808SOL    HW127323   1.443   2.236   0.109
 8808SOL    HW227324   1.455   2.396   0.141
 8809SOL     OW27325   0.483   3.851   3.315
 8809SOL    HW127326   0.520   3.759   3.308
 8809SOL    HW227327   0.553   3.913   3.349
 8810SOL     OW27328   0.675   1.088   5.300
 8810SOL    HW127329   0.760   1.128   5.335
 8810SOL    HW227330   0.650   1.008   5.355
 8811SOL     OW27331   4.155   5.478   2.178
 8811SOL    HW127332   4.207   5.407   2.227
 8811SOL    HW227333   4.061   5.447   2.166
 8812SOL     OW27334   4.857   1.183   6.646
 8812SOL    HW127335   4.852   1.261   6.584
 8812SOL    HW227336   4.934   1.194   6.708
 8813SOL     OW27337   2.220   3.958   3.543
 8813SOL    HW127338   2.229   4.039   3.600
 8813SOL    HW227339   2.284   3.965   3.466
 8814SOL     OW27340   5.367   0.396   5.759
 8814SOL    HW127341   5.463   0.387   5.733
 8814SOL    HW227342   5.348   0.492   5.778
 8815SOL     OW27343   5.472   1.028   0.474
 8815SOL    HW127344   5.439   1.018   0.568
 8815SOL    HW227345   5.398   1.005   0.411
 8816SOL     OW27346   0.924   6.053   4.423
 8816SOL    HW127347   0.870   6.137   4.423
 8816SOL    HW227348   0.961   6.037   4.514
 8817SOL     OW27349   1.510   2.668   3.474
 8817SOL    HW127350   1.462   2.724   3.542
 8817SOL    HW227351   1.581   2.722   3.429
 8818SOL     OW27352   0.827   0.383   5.443
 8818SOL    HW127353   0.901   0.357   5.505
 8818SOL    HW227354   0.751   0.319   5.454
 8819SOL     OW27355   5.258   4.930   6.557
 8819SOL    HW127356   5.350   4.970   6.558
 8819SOL    HW227357   5.190   5.003   6.565
 8820SOL     OW27358   3.279   0.646   5.381
 8820SOL    HW127359   3.294   0.606   5.471
 8820SOL    HW227360   3.363   0.636   5.326
 8821SOL     OW27361   6.883   4.370   6.489
 8821SOL    HW127362   6.913   4.286   6.533
 8821SOL    HW227363   6.957   4.408   6.434
 8822SOL     OW27364   6.736   0.442   4.460
 8822SOL    HW127365   6.830   0.437   4.426
 8822SOL    HW227366   6.675   0.468   4.385
 8823SOL     OW27367   4.050   1.119   3.016
 8823SOL    HW127368   4.090   1.173   3.090
 8823SOL    HW227369   4.053   1.022   3.040
 8824SOL     OW27370   1.460   0.808   2.082
 8824SOL    HW127371   1.554   0.829   2.109
 8824SOL    HW227372   1.419   0.888   2.039
 8825SOL     OW27373   0.017   6.193   0.447
 8825SOL    HW127374   0.011   6.246   0.532
 8825SOL    HW227375   6.957   6.146   0.430
 8826SOL     OW27376   1.138   3.826   0.929
 8826SOL    HW127377   1.047   3.804   0.894
 8826SOL    HW227378   1.207   3.783   0.870
 8827SOL     OW27379   4.718   0.054   2.826
 8827SOL    HW127380   4.638   0.051   2.886
 8827SOL    HW227381   4.800   0.068   2.881
 8828SOL     OW27382   4.326   2.445   6.195
 8828SOL    HW127383   4.308   2.347   6.205
 8828SOL    HW227384   4.376   2.461   6.109
 8829SOL     OW27385   6.889   1.173   1.605
 8829SOL    HW127386   6.865   1.238   1.678
 8829SOL    HW227387   6.956   1.107   1.640
 8830SOL     OW27388   2.697   0.744   3.080
 8830SOL    HW127389   2.674   0.840   3.064
 8830SOL    HW227390   2.674   0.719   3.174
 8831SOL     OW27391   0.728   2.552   1.975
 8831SOL    HW127392   0.635   2.581   1.999
 8831SOL    HW227393   0.752   2.587   1.884
 8832SOL     OW27394   5.718   0.890   4.784
 8832SOL    HW127395   5.776   0.824   4.832
 8832SOL    HW227396   5.770   0.972   4.763
 8833SOL     OW27397   4.948   2.474   1.170
 8833SOL    HW127398   5.023   2.413   1.197
 8833SOL    HW227399   4.947   2.555   1.228
 8834SOL     OW27400   5.483   3.980   5.757
 8834SOL    HW127401   5.577   3.993   5.790
 8834SOL    HW227402   5.482   3.988   5.657
 8835SOL     OW27403   0.091   0.439   5.852
 8835SOL    HW127404   0.087   0.344   5.821
 8835SOL    HW227405   0.154   0.447   5.929
 8836SOL     OW27406   5.038   1.809   1.786
 8836SOL    HW127407   4.946   1.829   1.820
 8836SOL    HW227408   5.082   1.742   1.845
 8837SOL     OW27409   3.672   6.675   0.354
 8837SOL    HW127410   3.703   6.688   0.448
 8837SOL    HW227411   3.739   6.714   0.291
 8838SOL     OW27412   1.752   4.002   3.886
 8838SOL    HW127413   1.819   3.967   3.821
 8838SOL    HW227414   1.692   4.068   3.841
 8839SOL     OW27415   5.387   5.628   2.567
 8839SOL    HW127416   5.461   5.563   2.549
 8839SOL    HW227417   5.356   5.667   2.480
 8840SOL     OW27418   0.096   0.328   1.814
 8840SOL    HW127419   0.094   0.415   1.763
 8840SOL    HW227420   0.064   0.343   1.907
 8841SOL     OW27421   3.714   0.554   0.985
 8841SOL    HW127422   3.656   0.589   1.059
 8841SOL    HW227423   3.661   0.491   0.928
 8842SOL     OW27424   4.160   3.594   4.694
 8842SOL    HW127425   4.125   3.614   4.786
 8842SOL    HW227426   4.260   3.604   4.694
 8843SOL     OW27427   2.739   6.261   6.724
 8843SOL    HW127428   2.709   6.194   6.793
 8843SOL    HW227429   2.812   6.221   6.668
 8844SOL     OW27430   3.649   2.597   6.455
 8844SOL    HW127431   3.748   2.596   6.439
 8844SOL    HW227432   3.631   2.601   6.553
 8845SOL     OW27433   6.653   4.317   2.131
 8845SOL    HW127434   6.615   4.231   2.165
 8845SOL    HW227435   6.585   4.365   2.076
 8846SOL     OW27436   5.419   4.565   5.044
 8846SOL    HW127437   5.497   4.532   4.991
 8846SOL    HW227438   5.351   4.604   4.983
 8847SOL     OW27439   1.885   1.723   3.849
 8847SOL    HW127440   1.961   1.786   3.830
 8847SOL    HW227441   1.810   1.742   3.786
 8848SOL     OW27442   4.986   1.271   0.415
 8848SOL    HW127443   4.908   1.325   0.382
 8848SOL    HW227444   4.981   1.265   0.515
 8849SOL     OW27445   2.982   4.876   4.401
 8849SOL    HW127446   2.943   4.968   4.410
 8849SOL    HW227447   3.052   4.876   4.330
 8850SOL     OW27448   3.310   0.842   1.514
 8850SOL    HW127449   3.378   0.771   1.503
 8850SOL    HW227450   3.257   0.852   1.430
 8851SOL     OW27451   6.663   4.655   2.063
 8851SOL    HW127452   6.607   4.588   2.014
 8851SOL    HW227453   6.747   4.611   2.096
 8852SOL     OW27454   4.672   2.761   4.567
 8852SOL    HW127455   4.634   2.671   4.588
 8852SOL    HW227456   4.686   2.812   4.652
 8853SOL     OW27457   4.299   1.504   5.733
 8853SOL    HW127458   4.268   1.574   5.797
 8853SOL    HW227459   4.235   1.427   5.734
 8854SOL     OW27460   1.304   2.029   6.708
 8854SOL    HW127461   1.272   1.960   6.642
 8854SOL    HW227462   1.273   2.119   6.679
 8855SOL     OW27463   6.066   5.346   0.066
 8855SOL    HW127464   6.156   5.301   0.067
 8855SOL    HW227465   6.044   5.378   0.158
 8856SOL     OW27466   5.733   1.212   4.370
 8856SOL    HW127467   5.657   1.154   4.340
 8856SOL    HW227468   5.817   1.157   4.376
 8857SOL     OW27469   0.234   2.858   4.896
 8857SOL    HW127470   0.299   2.888   4.826
 8857SOL    HW227471   0.231   2.926   4.969
 8858SOL     OW27472   0.084   4.261   6.964
 8858SOL    HW127473   0.080   4.286   0.034
 8858SOL    HW227474   0.138   4.178   6.954
 8859SOL     OW27475   3.357   5.321   5.097
 8859SOL    HW127476   3.325   5.398   5.152
 8859SOL    HW227477   3.293   5.245   5.103
 8860SOL     OW27478   1.257   2.454   1.484
 8860SOL    HW127479   1.331   2.419   1.427
 8860SOL    HW227480   1.191   2.503   1.427
 8861SOL     OW27481   2.850   3.119   0.274
 8861SOL    HW127482   2.894   3.197   0.229
 8861SOL    HW227483   2.900   3.095   0.357
 8862SOL     OW27484   6.858   2.523   4.615
 8862SOL    HW127485   6.810   2.446   4.657
 8862SOL    HW227486   6.940   2.544   4.668
 8863SOL     OW27487   1.832   5.138   4.955
 8863SOL    HW127488   1.784   5.226   4.947
 8863SOL    HW227489   1.899   5.143   5.028
 8864SOL     OW27490   0.905   2.865   6.093
 8864SOL    HW127491   0.857   2.777   6.090
 8864SOL    HW227492   0.937   2.889   6.001
 8865SOL     OW27493   2.339   2.285   6.554
 8865SOL    HW127494   2.320   2.187   6.549
 8865SOL    HW227495   2.376   2.316   6.467
 8866SOL     OW27496   3.996   0.044   4.949
 8866SOL    HW127497   4.063   0.020   4.880
 8866SOL    HW227498   3.936   6.992   4.967
 8867SOL     OW27499   0.077   2.852   3.840
 8867SOL    HW127500   0.155   2.913   3.822
 8867SOL    HW227501   0.110   2.768   3.884
 8868SOL     OW27502   4.158   3.573   1.073
 8868SOL    HW127503   4.080   3.515   1.098
 8868SOL    HW227504   4.134   3.669   1.087
 8869SOL     OW27505   5.392   2.508   4.167
 8869SOL    HW127506   5.327   2.552   4.230
 8869SOL    HW227507   5.447   2.577   4.122
 8870SOL     OW27508   4.290   1.660   0.876
 8870SOL    HW127509   4.304   1.568   0.839
 8870SOL    HW227510   4.214   1.659   0.941
 8871SOL     OW27511   2.087   2.065   4.663
 8871SOL    HW127512   2.085   2.051   4.564
 8871SOL    HW227513   2.119   2.157   4.683
 8872SOL     OW27514   1.614   3.464   3.838
 8872SOL    HW127515   1.624   3.454   3.739
 8872SOL    HW227516   1.655   3.385   3.883
 8873SOL     OW27517   0.065   6.188   4.685
 8873SOL    HW127518   0.071   6.101   4.735
 8873SOL    HW227519   7.022   6.181   4.614
 8874SOL     OW27520   2.087   1.145   0.210
 8874SOL    HW127521   2.111   1.087   0.287
 8874SOL    HW227522   2.168   1.198   0.182
 8875SOL     OW27523   1.670   1.994   4.296
 8875SOL    HW127524   1.570   1.997   4.304
 8875SOL    HW227525   1.710   1.988   4.388
 8876SOL     OW27526   1.624   6.932   4.072
 8876SOL    HW127527   1.714   6.894   4.049
 8876SOL    HW227528   1.577   6.870   4.135
 8877SOL     OW27529   2.796   6.695   5.039
 8877SOL    HW127530   2.869   6.626   5.038
 8877SOL    HW227531   2.745   6.690   4.953
 8878SOL     OW27532   5.692   4.583   6.765
 8878SOL    HW127533   5.714   4.680   6.766
 8878SOL    HW227534   5.601   4.569   6.725
 8879SOL     OW27535   4.793   5.700   4.515
 8879SOL    HW127536   4.840   5.778   4.473
 8879SOL    HW227537   4.836   5.679   4.603
 8880SOL     OW27538   0.189   5.644   5.324
 8880SOL    HW127539   0.187   5.641   5.424
 8880SOL    HW227540   0.202   5.738   5.293
 8881SOL     OW27541   6.982   0.673   1.932
 8881SOL    HW127542   7.004   0.752   1.989
 8881SOL    HW227543   6.956   0.704   1.840
 8882SOL     OW27544   5.783   1.877   6.586
 8882SOL    HW127545   5.795   1.951   6.653
 8882SOL    HW227546   5.733   1.802   6.629
 8883SOL     OW27547   6.953   1.330   5.408
 8883SOL    HW127548   7.017   1.398   5.443
 8883SOL    HW227549   6.868   1.376   5.382
 8884SOL     OW27550   6.415   0.558   5.585
 8884SOL    HW127551   6.496   0.602   5.545
 8884SOL    HW227552   6.377   0.618   5.656
 8885SOL     OW27553   4.743   3.725   1.402
 8885SOL    HW127554   4.792   3.746   1.487
 8885SOL    HW227555   4.726   3.627   1.397
 8886SOL     OW27556   3.128   0.098   6.995
 8886SOL    HW127557   3.050   0.036   7.004
 8886SOL    HW227558   3.209   0.056   0.009
 8887SOL     OW27559   2.467   0.632   0.999
 8887SOL    HW127560   2.513   0.720   1.008
 8887SOL    HW227561   2.397   0.623   1.071
 8888SOL     OW27562   3.014   1.607   2.759
 8888SOL    HW127563   2.939   1.629   2.821
 8888SOL    HW227564   2.978   1.563   2.677
 8889SOL     OW27565   3.999   0.329   5.546
 8889SOL    HW127566   3.992   0.300   5.641
 8889SOL    HW227567   4.065   0.271   5.498
 8890SOL     OW27568   0.806   4.899   4.455
 8890SOL    HW127569   0.787   4.833   4.382
 8890SOL    HW227570   0.767   4.988   4.430
 8891SOL     OW27571   3.602   2.052   6.781
 8891SOL    HW127572   3.634   2.034   6.874
 8891SOL    HW227573   3.573   2.148   6.774
 8892SOL     OW27574   0.623   6.112   2.899
 8892SOL    HW127575   0.594   6.031   2.849
 8892SOL    HW227576   0.612   6.193   2.842
 8893SOL     OW27577   0.717   1.360   1.265
 8893SOL    HW127578   0.646   1.306   1.310
 8893SOL    HW227579   0.788   1.299   1.229
 8894SOL     OW27580   3.951   3.535   6.539
 8894SOL    HW127581   3.992   3.459   6.489
 8894SOL    HW227582   3.859   3.553   6.503
 8895SOL     OW27583   0.472   6.490   2.410
 8895SOL    HW127584   0.552   6.547   2.393
 8895SOL    HW227585   0.475   6.410   2.351
 8896SOL     OW27586   1.924   3.891   4.881
 8896SOL    HW127587   2.021   3.902   4.857
 8896SOL    HW227588   1.871   3.870   4.798
 8897SOL     OW27589   1.473   2.106   1.424
 8897SOL    HW127590   1.549   2.059   1.469
 8897SOL    HW227591   1.502   2.138   1.334
 8898SOL     OW27592   6.039   3.737   5.017
 8898SOL    HW127593   5.942   3.758   5.028
 8898SOL    HW227594   6.083   3.735   5.107
 8899SOL     OW27595   2.066   4.098   6.937
 8899SOL    HW127596   2.046   4.027   7.005
 8899SOL    HW227597   2.154   4.078   6.894
 8900SOL     OW27598   5.440   2.378   3.256
 8900SOL    HW127599   5.352   2.424   3.243
 8900SOL    HW227600   5.488   2.374   3.168
 8901SOL     OW27601   2.141   0.041   2.804
 8901SOL    HW127602   2.169   6.974   2.818
 8901SOL    HW227603   2.219   0.095   2.771
 8902SOL     OW27604   1.777   5.332   5.770
 8902SOL    HW127605   1.783   5.416   5.715
 8902SOL    HW227606   1.863   5.282   5.764
 8903SOL     OW27607   1.672   1.541   3.201
 8903SOL    HW127608   1.595   1.534   3.137
 8903SOL    HW227609   1.755   1.566   3.150
 8904SOL     OW27610   1.475   5.784   3.200
 8904SOL    HW127611   1.471   5.702   3.143
 8904SOL    HW227612   1.428   5.859   3.153
 8905SOL     OW27613   2.254   4.165   5.308
 8905SOL    HW127614   2.327   4.106   5.273
 8905SOL    HW227615   2.170   4.146   5.257
 8906SOL     OW27616   0.886   5.534   5.767
 8906SOL    HW127617   0.905   5.570   5.675
 8906SOL    HW227618   0.959   5.562   5.829
 8907SOL     OW27619   3.499   2.836   5.080
 8907SOL    HW127620   3.441   2.756   5.063
 8907SOL    HW227621   3.449   2.919   5.055
 8908SOL     OW27622   0.466   2.568   1.118
 8908SOL    HW127623   0.524   2.491   1.091
 8908SOL    HW227624   0.506   2.653   1.082
 8909SOL     OW27625   2.677   0.267   5.879
 8909SOL    HW127626   2.664   0.353   5.928
 8909SOL    HW227627   2.759   0.221   5.913
 8910SOL     OW27628   3.486   4.082   6.851
 8910SOL    HW127629   3.530   4.139   6.920
 8910SOL    HW227630   3.545   4.075   6.770
 8911SOL     OW27631   3.187   2.062   4.007
 8911SOL    HW127632   3.263   2.036   4.066
 8911SOL    HW227633   3.135   1.981   3.981
 8912SOL     OW27634   5.028   2.785   5.935
 8912SOL    HW127635   4.966   2.796   5.858
 8912SOL    HW227636   4.995   2.840   6.013
 8913SOL     OW27637   5.013   3.923   0.688
 8913SOL    HW127638   5.090   3.971   0.730
 8913SOL    HW227639   4.963   3.987   0.629
 8914SOL     OW27640   4.211   2.240   4.663
 8914SOL    HW127641   4.296   2.194   4.638
 8914SOL    HW227642   4.145   2.231   4.589
 8915SOL     OW27643   1.139   5.048   1.840
 8915SOL    HW127644   1.051   5.086   1.867
 8915SOL    HW227645   1.205   5.060   1.915
 8916SOL     OW27646   6.471   3.631   1.842
 8916SOL    HW127647   6.454   3.695   1.917
 8916SOL    HW227648   6.401   3.643   1.772
 8917SOL     OW27649   6.130   5.566   6.022
 8917SOL    HW127650   6.102   5.528   6.110
 8917SOL    HW227651   6.226   5.544   6.006
 8918SOL     OW27652   4.536   4.711   6.564
 8918SOL    HW127653   4.627   4.672   6.577
 8918SOL    HW227654   4.518   4.723   6.466
 8919SOL     OW27655   2.041   4.734   0.801
 8919SOL    HW127656   2.114   4.678   0.762
 8919SOL    HW227657   2.079   4.790   0.875
 8920SOL     OW27658   6.535   5.784   5.934
 8920SOL    HW127659   6.459   5.849   5.943
 8920SOL    HW227660   6.587   5.806   5.851
 8921SOL     OW27661   1.798   6.696   3.428
 8921SOL    HW127662   1.752   6.735   3.348
 8921SOL    HW227663   1.850   6.616   3.400
 8922SOL     OW27664   6.267   4.037   7.011
 8922SOL    HW127665   6.230   4.043   0.076
 8922SOL    HW227666   6.219   4.100   6.950
 8923SOL     OW27667   1.825   4.170   5.519
 8923SOL    HW127668   1.918   4.133   5.516
 8923SOL    HW227669   1.815   4.228   5.601
 8924SOL     OW27670   2.901   5.722   5.425
 8924SOL    HW127671   2.840   5.645   5.442
 8924SOL    HW227672   2.870   5.772   5.344
 8925SOL     OW27673   6.346   6.460   2.206
 8925SOL    HW127674   6.381   6.546   2.242
 8925SOL    HW227675   6.262   6.476   2.155
 8926SOL     OW27676   5.727   1.589   0.462
 8926SOL    HW127677   5.633   1.622   0.460
 8926SOL    HW227678   5.733   1.501   0.416
 8927SOL     OW27679   2.594   1.931   5.611
 8927SOL    HW127680   2.681   1.955   5.568
 8927SOL    HW227681   2.542   2.014   5.631
 8928SOL     OW27682   0.069   0.100   5.025
 8928SOL    HW127683   0.081   0.199   5.024
 8928SOL    HW227684   7.000   0.078   5.041
 8929SOL     OW27685   6.112   3.585   4.192
 8929SOL    HW127686   6.062   3.593   4.106
 8929SOL    HW227687   6.094   3.666   4.248
 8930SOL     OW27688   0.699   4.980   4.979
 8930SOL    HW127689   0.773   5.022   4.927
 8930SOL    HW227690   0.632   4.941   4.916
 8931SOL     OW27691   5.574   1.266   1.241
 8931SOL    HW127692   5.646   1.197   1.250
 8931SOL    HW227693   5.610   1.344   1.189
 8932SOL     OW27694   6.669   0.492   6.888
 8932SOL    HW127695   6.593   0.427   6.883
 8932SOL    HW227696   6.635   0.581   6.919
 8933SOL     OW27697   1.629   6.386   5.569
 8933SOL    HW127698   1.646   6.377   5.667
 8933SOL    HW227699   1.687   6.323   5.519
 8934SOL     OW27700   4.412   6.789   2.881
 8934SOL    HW127701   4.324   6.837   2.891
 8934SOL    HW227702   4.425   6.763   2.785
 8935SOL     OW27703   5.620   2.827   3.276
 8935SOL    HW127704   5.638   2.736   3.238
 8935SOL    HW227705   5.540   2.866   3.231
 8936SOL     OW27706   1.705   4.820   2.436
 8936SOL    HW127707   1.643   4.851   2.509
 8936SOL    HW227708   1.653   4.766   2.370
 8937SOL     OW27709   4.891   6.957   5.090
 8937SOL    HW127710   4.909   7.016   5.169
 8937SOL    HW227711   4.965   6.890   5.081
 8938SOL     OW27712   5.944   0.177   1.538
 8938SOL    HW127713   5.949   0.144   1.633
 8938SOL    HW227714   5.870   0.243   1.530
 8939SOL     OW27715   6.792   3.228   3.742
 8939SOL    HW127716   6.803   3.173   3.659
 8939SOL    HW227717   6.882   3.256   3.775
 8940SOL     OW27718   6.190   2.617   0.809
 8940SOL    HW127719   6.212   2.609   0.711
 8940SOL    HW227720   6.264   2.575   0.862
 8941SOL     OW27721   4.284   2.583   1.753
 8941SOL    HW127722   4.335   2.653   1.704
 8941SOL    HW227723   4.326   2.494   1.738
 8942SOL     OW27724   5.779   4.102   4.806
 8942SOL    HW127725   5.790   4.063   4.715
 8942SOL    HW227726   5.687   4.081   4.840
 8943SOL     OW27727   4.356   4.181   0.563
 8943SOL    HW127728   4.295   4.145   0.634
 8943SOL    HW227729   4.302   4.203   0.481
 8944SOL     OW27730   5.567   5.423   5.067
 8944SOL    HW127731   5.654   5.374   5.076
 8944SOL    HW227732   5.507   5.372   5.004
 8945SOL     OW27733   5.157   4.017   3.497
 8945SOL    HW127734   5.143   3.948   3.426
 8945SOL    HW227735   5.077   4.078   3.500
 8946SOL     OW27736   4.669   0.774   5.460
 8946SOL    HW127737   4.746   0.710   5.461
 8946SOL    HW227738   4.701   0.865   5.484
 8947SOL     OW27739   2.487   5.109   6.259
 8947SOL    HW127740   2.526   5.105   6.352
 8947SOL    HW227741   2.526   5.187   6.210
 8948SOL     OW27742   5.626   1.277   2.646
 8948SOL    HW127743   5.531   1.246   2.640
 8948SOL    HW227744   5.687   1.205   2.613
 8949SOL     OW27745   4.071   6.349   0.818
 8949SOL    HW127746   4.034   6.266   0.860
 8949SOL    HW227747   4.118   6.404   0.887
 8950SOL     OW27748   3.577   3.536   0.818
 8950SOL    HW127749   3.565   3.525   0.916
 8950SOL    HW227750   3.567   3.446   0.773
 8951SOL     OW27751   1.840   0.796   4.469
 8951SOL    HW127752   1.752   0.839   4.488
 8951SOL    HW227753   1.895   0.794   4.553
 8952SOL     OW27754   2.118   4.116   4.158
 8952SOL    HW127755   2.184   4.126   4.084
 8952SOL    HW227756   2.151   4.166   4.239
 8953SOL     OW27757   1.335   4.560   0.704
 8953SOL    HW127758   1.274   4.531   0.779
 8953SOL    HW227759   1.315   4.506   0.623
 8954SOL     OW27760   2.481   4.312   5.760
 8954SOL    HW127761   2.515   4.270   5.844
 8954SOL    HW227762   2.558   4.335   5.701
 8955SOL     OW27763   5.310   2.546   4.520
 8955SOL    HW127764   5.228   2.589   4.558
 8955SOL    HW227765   5.337   2.594   4.436
 8956SOL     OW27766   0.663   5.763   6.970
 8956SOL    HW127767   0.566   5.763   6.946
 8956SOL    HW227768   0.678   5.822   0.022
 8957SOL     OW27769   6.969   6.192   2.996
 8957SOL    HW127770   6.942   6.146   2.912
 8957SOL    HW227771   0.042   6.197   3.001
 8958SOL     OW27772   1.962   2.760   5.044
 8958SOL    HW127773   1.972   2.823   4.967
 8958SOL    HW227774   1.865   2.745   5.062
 8959SOL     OW27775   6.885   2.640   2.817
 8959SOL    HW127776   6.818   2.585   2.866
 8959SOL    HW227777   6.975   2.630   2.860
 8960SOL     OW27778   5.489   4.553   3.217
 8960SOL    HW127779   5.474   4.532   3.313
 8960SOL    HW227780   5.413   4.607   3.182
 8961SOL     OW27781   2.084   1.445   4.946
 8961SOL    HW127782   2.005   1.497   4.914
 8961SOL    HW227783   2.058   1.349   4.958
 8962SOL     OW27784   6.766   5.566   2.210
 8962SOL    HW127785   6.669   5.542   2.205
 8962SOL    HW227786   6.821   5.491   2.174
 8963SOL     OW27787   4.932   6.702   5.364
 8963SOL    HW127788   4.970   6.718   5.273
 8963SOL    HW227789   5.000   6.728   5.433
 8964SOL     OW27790   1.568   2.802   4.649
 8964SOL    HW127791   1.496   2.735   4.629
 8964SOL    HW227792   1.559   2.835   4.742
 8965SOL     OW27793   4.097   5.673   6.084
 8965SOL    HW127794   4.175   5.701   6.029
 8965SOL    HW227795   4.015   5.668   6.027
 8966SOL     OW27796   4.243   5.972   5.197
 8966SOL    HW127797   4.219   5.879   5.223
 8966SOL    HW227798   4.248   5.978   5.097
 8967SOL     OW27799   2.870   6.917   3.761
 8967SOL    HW127800   2.920   6.907   3.847
 8967SOL    HW227801   2.873   6.831   3.711
 8968SOL     OW27802   3.647   5.094   2.455
 8968SOL    HW127803   3.582   5.145   2.511
 8968SOL    HW227804   3.739   5.131   2.468
 8969SOL     OW27805   1.007   1.005   2.826
 8969SOL    HW127806   0.969   0.936   2.764
 8969SOL    HW227807   1.097   1.031   2.794
 8970SOL     OW27808   1.663   0.122   3.718
 8970SOL    HW127809   1.706   0.120   3.628
 8970SOL    HW227810   1.573   0.165   3.711
 8971SOL     OW27811   3.565   5.179   0.160
 8971SOL    HW127812   3.578   5.239   0.081
 8971SOL    HW227813   3.587   5.085   0.134
 8972SOL     OW27814   6.168   3.525   0.050
 8972SOL    HW127815   6.216   3.506   0.136
 8972SOL    HW227816   6.194   3.616   0.017
 8973SOL     OW27817   1.562   2.402   3.456
 8973SOL    HW127818   1.652   2.406   3.411
 8973SOL    HW227819   1.526   2.495   3.464
 8974SOL     OW27820   2.361   4.466   4.835
 8974SOL    HW127821   2.292   4.533   4.809
 8974SOL    HW227822   2.316   4.379   4.857
 8975SOL     OW27823   0.455   5.522   6.115
 8975SOL    HW127824   0.540   5.531   6.063
 8975SOL    HW227825   0.471   5.550   6.209
 8976SOL     OW27826   6.215   0.145   2.366
 8976SOL    HW127827   6.229   0.109   2.459
 8976SOL    HW227828   6.301   0.143   2.316
 8977SOL     OW27829   6.535   4.985   5.841
 8977SOL    HW127830   6.465   5.025   5.782
 8977SOL    HW227831   6.491   4.935   5.916
 8978SOL     OW27832   5.989   5.735   6.389
 8978SOL    HW127833   5.914   5.702   6.446
 8978SOL    HW227834   5.991   5.835   6.391
 8979SOL     OW27835   1.374   4.832   4.727
 8979SOL    HW127836   1.278   4.829   4.701
 8979SOL    HW227837   1.400   4.746   4.771
 8980SOL     OW27838   3.463   0.286   6.909
 8980SOL    HW127839   3.558   0.254   6.917
 8980SOL    HW227840   3.413   0.261   6.991
 8981SOL     OW27841   4.642   3.809   6.497
 8981SOL    HW127842   4.612   3.903   6.485
 8981SOL    HW227843   4.734   3.799   6.459
 8982SOL     OW27844   0.416   1.628   2.153
 8982SOL    HW127845   0.495   1.653   2.097
 8982SOL    HW227846   0.343   1.595   2.093
 8983SOL     OW27847   1.761   6.546   2.304
 8983SOL    HW127848   1.744   6.494   2.388
 8983SOL    HW227849   1.673   6.574   2.265
 8984SOL     OW27850   0.090   0.678   4.061
 8984SOL    HW127851   0.167   0.614   4.071
 8984SOL    HW227852   0.048   0.694   4.151
 8985SOL     OW27853   5.141   1.894   1.531
 8985SOL    HW127854   5.082   1.860   1.604
 8985SOL    HW227855   5.134   1.994   1.526
 8986SOL     OW27856   6.809   4.641   0.452
 8986SOL    HW127857   6.733   4.695   0.417
 8986SOL    HW227858   6.882   4.702   0.484
 8987SOL     OW27859   2.275   6.601   1.888
 8987SOL    HW127860   2.325   6.585   1.974
 8987SOL    HW227861   2.216   6.680   1.898
 8988SOL     OW27862   2.225   6.281   1.575
 8988SOL    HW127863   2.174   6.354   1.620
 8988SOL    HW227864   2.231   6.300   1.477
 8989SOL     OW27865   5.335   2.128   3.172
 8989SOL    HW127866   5.373   2.211   3.213
 8989SOL    HW227867   5.298   2.069   3.244
 8990SOL     OW27868   3.443   1.086   2.345
 8990SOL    HW127869   3.364   1.043   2.301
 8990SOL    HW227870   3.464   1.172   2.298
 8991SOL     OW27871   1.115   1.445   0.861
 8991SOL    HW127872   1.043   1.498   0.816
 8991SOL    HW227873   1.079   1.356   0.887
 8992SOL     OW27874   0.746   3.904   6.248
 8992SOL    HW127875   0.675   3.936   6.311
 8992SOL    HW227876   0.796   3.982   6.211
 8993SOL     OW27877   5.799   3.750   4.799
 8993SOL    HW127878   5.867   3.760   4.727
 8993SOL    HW227879   5.783   3.838   4.843
 8994SOL     OW27880   0.818   5.538   2.731
 8994SOL    HW127881   0.882   5.545   2.808
 8994SOL    HW227882   0.833   5.616   2.669
 8995SOL     OW27883   2.163   3.820   4.727
 8995SOL    HW127884   2.261   3.833   4.746
 8995SOL    HW227885   2.146   3.827   4.629
 8996SOL     OW27886   0.966   3.818   1.890
 8996SOL    HW127887   0.872   3.853   1.889
 8996SOL    HW227888   1.029   3.895   1.902
 8997SOL     OW27889   4.626   2.005   5.481
 8997SOL    HW127890   4.669   1.926   5.523
 8997SOL    HW227891   4.615   1.989   5.383
 8998SOL     OW27892   0.714   1.496   6.077
 8998SOL    HW127893   0.690   1.590   6.056
 8998SOL    HW227894   0.796   1.495   6.136
 8999SOL     OW27895   5.302   1.046   4.814
 8999SOL    HW127896   5.211   1.081   4.837
 8999SOL    HW227897   5.302   0.946   4.821
 9000SOL     OW27898   2.156   4.397   0.582
 9000SOL    HW127899   2.075   4.435   0.538
 9000SOL    HW227900   2.225   4.468   0.594
 9001SOL     OW27901   1.592   4.657   3.441
 9001SOL    HW127902   1.551   4.717   3.373
 9001SOL    HW227903   1.634   4.578   3.395
 9002SOL     OW27904   5.035   4.573   6.272
 9002SOL    HW127905   4.966   4.509   6.304
 9002SOL    HW227906   5.048   4.562   6.174
 9003SOL     OW27907   5.512   3.497   6.173
 9003SOL    HW127908   5.553   3.442   6.100
 9003SOL    HW227909   5.436   3.447   6.214
 9004SOL     OW27910   4.580   5.471   0.474
 9004SOL    HW127911   4.628   5.473   0.387
 9004SOL    HW227912   4.631   5.417   0.540
 9005SOL     OW27913   4.741   2.216   2.989
 9005SOL    HW127914   4.657   2.267   3.004
 9005SOL    HW227915   4.761   2.213   2.891
 9006SOL     OW27916   1.630   6.972   0.794
 9006SOL    HW127917   1.697   7.026   0.743
 9006SOL    HW227918   1.589   6.903   0.734
 9007SOL     OW27919   2.804   6.501   4.229
 9007SOL    HW127920   2.852   6.582   4.262
 9007SOL    HW227921   2.747   6.463   4.302
 9008SOL     OW27922   6.461   4.348   2.877
 9008SOL    HW127923   6.431   4.440   2.905
 9008SOL    HW227924   6.393   4.281   2.906
 9009SOL     OW27925   3.872   6.525   1.440
 9009SOL    HW127926   3.959   6.561   1.406
 9009SOL    HW227927   3.822   6.480   1.366
 9010SOL     OW27928   1.063   5.938   5.384
 9010SOL    HW127929   1.066   5.848   5.340
 9010SOL    HW227930   1.155   5.965   5.412
 9011SOL     OW27931   4.151   1.841   1.752
 9011SOL    HW127932   4.213   1.778   1.707
 9011SOL    HW227933   4.148   1.822   1.850
 9012SOL     OW27934   6.446   5.770   1.687
 9012SOL    HW127935   6.354   5.799   1.712
 9012SOL    HW227936   6.490   5.728   1.767
 9013SOL     OW27937   4.976   6.175   3.120
 9013SOL    HW127938   4.936   6.203   3.033
 9013SOL    HW227939   5.001   6.079   3.116
 9014SOL     OW27940   3.390   1.273   0.742
 9014SOL    HW127941   3.353   1.202   0.682
 9014SOL    HW227942   3.471   1.238   0.789
 9015SOL     OW27943   6.682   1.426   5.401
 9015SOL    HW127944   6.718   1.512   5.438
 9015SOL    HW227945   6.591   1.441   5.363
 9016SOL     OW27946   6.867   6.161   5.799
 9016SOL    HW127947   6.887   6.064   5.785
 9016SOL    HW227948   6.778   6.170   5.843
 9017SOL     OW27949   0.280   3.993   3.991
 9017SOL    HW127950   0.298   3.927   4.063
 9017SOL    HW227951   0.210   3.957   3.929
 9018SOL     OW27952   3.704   2.462   5.709
 9018SOL    HW127953   3.773   2.440   5.640
 9018SOL    HW227954   3.646   2.537   5.676
 9019SOL     OW27955   1.884   6.655   0.047
 9019SOL    HW127956   1.924   6.716   0.116
 9019SOL    HW227957   1.811   6.702   7.026
 9020SOL     OW27958   0.383   4.856   2.993
 9020SOL    HW127959   0.440   4.901   2.925
 9020SOL    HW227960   0.342   4.774   2.953
 9021SOL     OW27961   6.817   5.879   5.210
 9021SOL    HW127962   6.841   5.953   5.273
 9021SOL    HW227963   6.895   5.857   5.152
 9022SOL     OW27964   2.985   0.824   6.436
 9022SOL    HW127965   2.943   0.735   6.455
 9022SOL    HW227966   2.962   0.888   6.510
 9023SOL     OW27967   3.453   2.904   2.655
 9023SOL    HW127968   3.552   2.891   2.658
 9023SOL    HW227969   3.428   2.946   2.568
 9024SOL     OW27970   2.205   0.229   6.702
 9024SOL    HW127971   2.123   0.229   6.760
 9024SOL    HW227972   2.279   0.181   6.751
 9025SOL     OW27973   6.927   4.669   1.091
 9025SOL    HW127974   7.011   4.714   1.062
 9025SOL    HW227975   6.934   4.571   1.072
 9026SOL     OW27976   3.308   3.370   5.227
 9026SOL    HW127977   3.279   3.300   5.292
 9026SOL    HW227978   3.236   3.439   5.219
 9027SOL     OW27979   2.489   2.612   2.770
 9027SOL    HW127980   2.459   2.658   2.853
 9027SOL    HW227981   2.418   2.549   2.739
 9028SOL     OW27982   2.455   4.630   5.058
 9028SOL    HW127983   2.482   4.551   5.003
 9028SOL    HW227984   2.383   4.681   5.009
 9029SOL     OW27985   4.928   4.954   3.297
 9029SOL    HW127986   4.931   5.030   3.361
 9029SOL    HW227987   5.020   4.935   3.263
 9030SOL     OW27988   3.144   1.801   1.683
 9030SOL    HW127989   3.242   1.788   1.701
 9030SOL    HW227990   3.131   1.820   1.586
 9031SOL     OW27991   2.158   0.829   0.036
 9031SOL    HW127992   2.179   0.826   0.134
 9031SOL    HW227993   2.139   0.736   0.004
 9032SOL     OW27994   1.565   1.683   2.297
 9032SOL    HW127995   1.558   1.588   2.267
 9032SOL    HW227996   1.507   1.740   2.240
 9033SOL     OW27997   1.462   3.398   2.644
 9033SOL    HW127998   1.399   3.467   2.679
 9033SOL    HW227999   1.451   3.314   2.698
 9034SOL     OW28000   2.172   0.543   6.005
 9034SOL    HW128001   2.147   0.581   5.915
 9034SOL    HW228002   2.091   0.537   6.062
 9035SOL     OW28003   6.944   1.243   4.372
 9035SOL    HW128004   6.915   1.185   4.296
 9035SOL    HW228005   6.928   1.196   4.459
 9036SOL     OW28006   1.236   2.192   5.142
 9036SOL    HW128007   1.152   2.188   5.196
 9036SOL    HW228008   1.222   2.249   5.062
 9037SOL     OW28009   2.320   3.894   5.888
 9037SOL    HW128010   2.383   3.851   5.824
 9037SOL    HW228011   2.304   3.989   5.862
 9038SOL     OW28012   5.727   6.737   5.661
 9038SOL    HW128013   5.655   6.740   5.591
 9038SOL    HW228014   5.816   6.742   5.617
 9039SOL     OW28015   2.335   5.319   5.799
 9039SOL    HW128016   2.318   5.370   5.714
 9039SOL    HW228017   2.302   5.372   5.877
 9040SOL     OW28018   2.604   1.350   1.744
 9040SOL    HW128019   2.690   1.377   1.700
 9040SOL    HW228020   2.527   1.387   1.692
 9041SOL     OW28021   1.427   3.232   0.026
 9041SOL    HW128022   1.350   3.203   0.082
 9041SOL    HW228023   1.513   3.207   0.071
 9042SOL     OW28024   2.798   5.119   3.704
 9042SOL    HW128025   2.738   5.118   3.784
 9042SOL    HW228026   2.883   5.072   3.726
 9043SOL     OW28027   6.712   2.409   0.068
 9043SOL    HW128028   6.677   2.410   7.001
 9043SOL    HW228029   6.812   2.407   0.066
 9044SOL     OW28030   6.271   4.934   0.183
 9044SOL    HW128031   6.324   4.861   0.140
 9044SOL    HW228032   6.289   5.020   0.136
 9045SOL     OW28033   3.712   6.036   4.148
 9045SOL    HW128034   3.745   6.054   4.241
 9045SOL    HW228035   3.788   6.003   4.092
 9046SOL     OW28036   3.475   4.221   5.900
 9046SOL    HW128037   3.497   4.264   5.813
 9046SOL    HW228038   3.376   4.226   5.916
 9047SOL     OW28039   1.386   4.556   4.852
 9047SOL    HW128040   1.288   4.568   4.837
 9047SOL    HW228041   1.407   4.560   4.949
 9048SOL     OW28042   1.692   2.775   5.096
 9048SOL    HW128043   1.675   2.858   5.042
 9048SOL    HW228044   1.665   2.791   5.191
 9049SOL     OW28045   4.816   5.842   6.591
 9049SOL    HW128046   4.792   5.938   6.577
 9049SOL    HW228047   4.733   5.786   6.593
 9050SOL     OW28048   0.696   6.205   5.377
 9050SOL    HW128049   0.613   6.170   5.334
 9050SOL    HW228050   0.700   6.304   5.364
 9051SOL     OW28051   5.085   6.387   6.111
 9051SOL    HW128052   4.998   6.345   6.084
 9051SOL    HW228053   5.067   6.462   6.175
 9052SOL     OW28054   2.246   5.551   4.678
 9052SOL    HW128055   2.292   5.463   4.671
 9052SOL    HW228056   2.287   5.615   4.613
 9053SOL     OW28057   2.778   1.661   3.405
 9053SOL    HW128058   2.787   1.563   3.421
 9053SOL    HW228059   2.699   1.680   3.348
 9054SOL     OW28060   3.598   0.318   1.458
 9054SOL    HW128061   3.621   0.221   1.469
 9054SOL    HW228062   3.680   0.369   1.431
 9055SOL     OW28063   1.265   1.323   4.223
 9055SOL    HW128064   1.223   1.395   4.278
 9055SOL    HW228065   1.326   1.268   4.281
 9056SOL     OW28066   5.903   1.325   2.726
 9056SOL    HW128067   5.816   1.373   2.718
 9056SOL    HW228068   5.978   1.391   2.729
 9057SOL     OW28069   4.296   6.794   6.900
 9057SOL    HW128070   4.202   6.820   6.878
 9057SOL    HW228071   4.359   6.847   6.844
 9058SOL     OW28072   1.643   2.529   4.973
 9058SOL    HW128073   1.732   2.485   4.980
 9058SOL    HW228074   1.645   2.617   5.019
 9059SOL     OW28075   6.755   0.732   3.185
 9059SOL    HW128076   6.854   0.736   3.175
 9059SOL    HW228077   6.717   0.668   3.118
 9060SOL     OW28078   0.683   5.381   1.835
 9060SOL    HW128079   0.657   5.459   1.778
 9060SOL    HW228080   0.740   5.412   1.911
 9061SOL     OW28081   5.572   4.176   2.949
 9061SOL    HW128082   5.513   4.254   2.969
 9061SOL    HW228083   5.613   4.187   2.859
 9062SOL     OW28084   0.622   5.613   2.932
 9062SOL    HW128085   0.691   5.560   2.981
 9062SOL    HW228086   0.660   5.648   2.846
 9063SOL     OW28087   4.642   1.684   1.964
 9063SOL    HW128088   4.576   1.616   1.994
 9063SOL    HW228089   4.601   1.776   1.969
 9064SOL     OW28090   0.981   5.502   3.303
 9064SOL    HW128091   1.004   5.509   3.400
 9064SOL    HW228092   1.012   5.414   3.268
 9065SOL     OW28093   2.692   4.351   5.590
 9065SOL    HW128094   2.634   4.287   5.539
 9065SOL    HW228095   2.726   4.421   5.528
 9066SOL     OW28096   4.868   4.919   4.670
 9066SOL    HW128097   4.809   4.995   4.642
 9066SOL    HW228098   4.907   4.939   4.760
 9067SOL     OW28099   1.322   6.284   4.086
 9067SOL    HW128100   1.239   6.323   4.125
 9067SOL    HW228101   1.381   6.358   4.053
 9068SOL     OW28102   4.655   0.087   5.655
 9068SOL    HW128103   4.748   0.119   5.669
 9068SOL    HW228104   4.656   0.001   5.604
 9069SOL     OW28105   5.419   2.090   1.480
 9069SOL    HW128106   5.466   2.005   1.459
 9069SOL    HW228107   5.366   2.120   1.400
 9070SOL     OW28108   1.546   1.592   5.819
 9070SOL    HW128109   1.604   1.671   5.840
 9070SOL    HW228110   1.512   1.599   5.725
 9071SOL     OW28111   4.636   2.265   6.228
 9071SOL    HW128112   4.619   2.354   6.270
 9071SOL    HW228113   4.734   2.247   6.227
 9072SOL     OW28114   4.731   0.990   2.804
 9072SOL    HW128115   4.760   0.972   2.710
 9072SOL    HW228116   4.809   0.979   2.865
 9073SOL     OW28117   4.766   1.732   5.190
 9073SOL    HW128118   4.701   1.808   5.185
 9073SOL    HW228119   4.841   1.757   5.252
 9074SOL     OW28120   1.653   0.989   1.731
 9074SOL    HW128121   1.592   0.911   1.719
 9074SOL    HW228122   1.723   0.967   1.798
 9075SOL     OW28123   6.168   6.167   0.917
 9075SOL    HW128124   6.120   6.079   0.914
 9075SOL    HW228125   6.232   6.167   0.993
 9076SOL     OW28126   6.482   0.474   2.727
 9076SOL    HW128127   6.469   0.491   2.629
 9076SOL    HW228128   6.563   0.418   2.740
 9077SOL     OW28129   6.323   1.449   6.370
 9077SOL    HW128130   6.271   1.516   6.423
 9077SOL    HW228131   6.419   1.476   6.368
 9078SOL     OW28132   5.034   6.300   6.885
 9078SOL    HW128133   5.093   6.361   6.937
 9078SOL    HW228134   5.076   6.281   6.796
 9079SOL     OW28135   1.469   1.260   6.737
 9079SOL    HW128136   1.433   1.243   6.829
 9079SOL    HW228137   1.568   1.249   6.738
 9080SOL     OW28138   5.967   3.391   1.538
 9080SOL    HW128139   6.034   3.351   1.474
 9080SOL    HW228140   5.969   3.338   1.624
 9081SOL     OW28141   4.794   1.953   0.022
 9081SOL    HW128142   4.788   2.052   0.012
 9081SOL    HW228143   4.787   1.910   6.959
 9082SOL     OW28144   3.693   5.787   6.034
 9082SOL    HW128145   3.597   5.764   6.048
 9082SOL    HW228146   3.745   5.703   6.016
 9083SOL     OW28147   4.432   5.400   6.458
 9083SOL    HW128148   4.400   5.489   6.426
 9083SOL    HW228149   4.377   5.371   6.536
 9084SOL     OW28150   6.741   2.442   5.994
 9084SOL    HW128151   6.796   2.474   6.071
 9084SOL    HW228152   6.644   2.446   6.017
 9085SOL     OW28153   2.243   5.008   6.671
 9085SOL    HW128154   2.160   4.953   6.669
 9085SOL    HW228155   2.220   5.104   6.655
 9086SOL     OW28156   0.084   4.367   0.955
 9086SOL    HW128157   7.011   4.377   0.961
 9086SOL    HW228158   0.127   4.454   0.978
 9087SOL     OW28159   6.017   0.710   1.593
 9087SOL    HW128160   6.098   0.655   1.613
 9087SOL    HW228161   6.043   0.789   1.538
 9088SOL     OW28162   6.620   6.565   0.579
 9088SOL    HW128163   6.653   6.659   0.573
 9088SOL    HW228164   6.528   6.565   0.619
 9089SOL     OW28165   5.165   5.376   3.845
 9089SOL    HW128166   5.265   5.386   3.842
 9089SOL    HW228167   5.141   5.279   3.843
 9090SOL     OW28168   5.425   6.286   5.205
 9090SOL    HW128169   5.524   6.283   5.220
 9090SOL    HW228170   5.407   6.306   5.109
 9091SOL     OW28171   2.514   1.662   1.165
 9091SOL    HW128172   2.422   1.628   1.142
 9091SOL    HW228173   2.558   1.695   1.082
 9092SOL     OW28174   1.277   1.097   5.778
 9092SOL    HW128175   1.248   1.151   5.700
 9092SOL    HW228176   1.374   1.072   5.768
 9093SOL     OW28177   1.873   3.922   0.477
 9093SOL    HW128178   1.862   3.828   0.444
 9093SOL    HW228179   1.802   3.941   0.545
 9094SOL     OW28180   6.806   4.541   1.745
 9094SOL    HW128181   6.788   4.590   1.831
 9094SOL    HW228182   6.765   4.591   1.669
 9095SOL     OW28183   3.080   2.760   7.011
 9095SOL    HW128184   3.036   2.723   6.929
 9095SOL    HW228185   3.117   2.685   0.039
 9096SOL     OW28186   5.171   2.452   3.127
 9096SOL    HW128187   5.210   2.448   3.035
 9096SOL    HW228188   5.211   2.529   3.177
 9097SOL     OW28189   1.000   5.179   6.445
 9097SOL    HW128190   0.934   5.166   6.519
 9097SOL    HW228191   0.966   5.249   6.383
 9098SOL     OW28192   4.083   3.586   2.692
 9098SOL    HW128193   4.066   3.494   2.726
 9098SOL    HW228194   4.112   3.582   2.596
 9099SOL     OW28195   2.232   3.284   0.744
 9099SOL    HW128196   2.287   3.214   0.700
 9099SOL    HW228197   2.254   3.373   0.706
 9100SOL     OW28198   0.203   2.810   1.175
 9100SOL    HW128199   0.252   2.802   1.262
 9100SOL    HW228200   0.254   2.762   1.104
 9101SOL     OW28201   1.827   2.872   1.342
 9101SOL    HW128202   1.864   2.805   1.406
 9101SOL    HW228203   1.811   2.959   1.390
 9102SOL     OW28204   3.707   5.569   2.529
 9102SOL    HW128205   3.696   5.615   2.441
 9102SOL    HW228206   3.797   5.590   2.567
 9103SOL     OW28207   0.390   3.856   0.650
 9103SOL    HW128208   0.473   3.858   0.594
 9103SOL    HW228209   0.370   3.761   0.676
 9104SOL     OW28210   4.523   6.656   1.256
 9104SOL    HW128211   4.481   6.679   1.168
 9104SOL    HW228212   4.618   6.689   1.257
 9105SOL     OW28213   1.683   1.822   5.394
 9105SOL    HW128214   1.724   1.815   5.484
 9105SOL    HW228215   1.682   1.918   5.365
 9106SOL     OW28216   6.210   5.035   0.775
 9106SOL    HW128217   6.292   4.988   0.809
 9106SOL    HW228218   6.145   4.967   0.739
 9107SOL     OW28219   4.306   0.195   1.509
 9107SOL    HW128220   4.270   0.257   1.578
 9107SOL    HW228221   4.404   0.210   1.499
 9108SOL     OW28222   4.691   5.432   5.537
 9108SOL    HW128223   4.602   5.411   5.579
 9108SOL    HW228224   4.735   5.506   5.588
 9109SOL     OW28225   3.027   1.831   3.956
 9109SOL    HW128226   3.072   1.758   3.904
 9109SOL    HW228227   2.946   1.862   3.907
 9110SOL     OW28228   1.652   4.176   3.706
 9110SOL    HW128229   1.727   4.242   3.713
 9110SOL    HW228230   1.566   4.224   3.688
 9111SOL     OW28231   3.837   4.167   1.622
 9111SOL    HW128232   3.792   4.245   1.579
 9111SOL    HW228233   3.769   4.096   1.642
 9112SOL     OW28234   0.390   4.346   2.286
 9112SOL    HW128235   0.341   4.367   2.201
 9112SOL    HW228236   0.361   4.410   2.357
 9113SOL     OW28237   4.267   6.813   0.799
 9113SOL    HW128238   4.304   6.755   0.726
 9113SOL    HW228239   4.174   6.841   0.776
 9114SOL     OW28240   3.054   4.810   1.617
 9114SOL    HW128241   3.016   4.798   1.709
 9114SOL    HW228242   3.030   4.731   1.561
 9115SOL     OW28243   1.299   4.630   5.145
 9115SOL    HW128244   1.314   4.727   5.128
 9115SOL    HW228245   1.202   4.608   5.135
 9116SOL     OW28246   0.073   1.192   6.053
 9116SOL    HW128247   0.148   1.171   5.990
 9116SOL    HW228248   0.058   1.113   6.113
 9117SOL     OW28249   6.851   2.554   6.836
 9117SOL    HW128250   6.924   2.574   6.900
 9117SOL    HW228251   6.854   2.618   6.760
 9118SOL     OW28252   6.598   6.592   1.884
 9118SOL    HW128253   6.686   6.638   1.884
 9118SOL    HW228254   6.536   6.640   1.947
 9119SOL     OW28255   6.425   0.280   1.813
 9119SOL    HW128256   6.434   0.270   1.912
 9119SOL    HW228257   6.467   0.201   1.768
 9120SOL     OW28258   5.453   1.209   6.251
 9120SOL    HW128259   5.442   1.287   6.189
 9120SOL    HW228260   5.373   1.203   6.311
 9121SOL     OW28261   0.633   1.770   6.028
 9121SOL    HW128262   0.727   1.800   6.043
 9121SOL    HW228263   0.571   1.830   6.079
 9122SOL     OW28264   1.904   3.080   3.018
 9122SOL    HW128265   1.916   2.991   2.974
 9122SOL    HW228266   1.820   3.122   2.985
 9123SOL     OW28267   2.524   5.865   6.591
 9123SOL    HW128268   2.608   5.903   6.630
 9123SOL    HW228269   2.456   5.852   6.664
 9124SOL     OW28270   6.629   5.773   5.387
 9124SOL    HW128271   6.683   5.809   5.311
 9124SOL    HW228272   6.564   5.842   5.417
 9125SOL     OW28273   4.707   4.258   3.760
 9125SOL    HW128274   4.793   4.290   3.798
 9125SOL    HW228275   4.721   4.170   3.715
 9126SOL     OW28276   6.202   0.501   2.010
 9126SOL    HW128277   6.287   0.521   2.059
 9126SOL    HW228278   6.191   0.402   2.001
 9127SOL     OW28279   5.168   0.329   7.011
 9127SOL    HW128280   5.221   0.260   6.962
 9127SOL    HW228281   5.229   0.388   0.036
 9128SOL     OW28282   3.809   2.105   5.227
 9128SOL    HW128283   3.879   2.163   5.269
 9128SOL    HW228284   3.839   2.076   5.136
 9129SOL     OW28285   1.821   1.610   6.376
 9129SOL    HW128286   1.769   1.562   6.306
 9129SOL    HW228287   1.856   1.544   6.443
 9130SOL     OW28288   5.854   4.707   0.817
 9130SOL    HW128289   5.912   4.706   0.898
 9130SOL    HW228290   5.906   4.744   0.740
 9131SOL     OW28291   0.827   3.933   4.387
 9131SOL    HW128292   0.790   3.984   4.309
 9131SOL    HW228293   0.878   3.853   4.355
 9132SOL     OW28294   6.631   3.487   4.343
 9132SOL    HW128295   6.559   3.443   4.290
 9132SOL    HW228296   6.647   3.434   4.427
 9133SOL     OW28297   2.283   4.558   0.888
 9133SOL    HW128298   2.316   4.565   0.793
 9133SOL    HW228299   2.315   4.637   0.939
 9134SOL     OW28300   2.955   6.118   6.631
 9134SOL    HW128301   2.992   6.044   6.575
 9134SOL    HW228302   2.991   6.111   6.724
 9135SOL     OW28303   6.420   5.858   3.813
 9135SOL    HW128304   6.465   5.867   3.724
 9135SOL    HW228305   6.355   5.782   3.809
 9136SOL     OW28306   4.946   5.569   5.622
 9136SOL    HW128307   5.036   5.527   5.634
 9136SOL    HW228308   4.953   5.641   5.553
 9137SOL     OW28309   4.222   1.016   1.865
 9137SOL    HW128310   4.233   1.112   1.838
 9137SOL    HW228311   4.305   0.985   1.912
 9138SOL     OW28312   5.313   5.158   6.236
 9138SOL    HW128313   5.346   5.093   6.168
 9138SOL    HW228314   5.226   5.126   6.273
 9139SOL     OW28315   3.574   1.199   5.000
 9139SOL    HW128316   3.581   1.146   5.085
 9139SOL    HW228317   3.532   1.143   4.929
 9140SOL     OW28318   6.476   2.470   2.351
 9140SOL    HW128319   6.404   2.489   2.418
 9140SOL    HW228320   6.548   2.538   2.359
 9141SOL     OW28321   5.387   0.105   5.610
 9141SOL    HW128322   5.382   0.191   5.661
 9141SOL    HW228323   5.482   0.088   5.584
 9142SOL     OW28324   0.571   3.148   6.058
 9142SOL    HW128325   0.489   3.202   6.038
 9142SOL    HW228326   0.587   3.083   5.985
 9143SOL     OW28327   4.345   3.462   0.527
 9143SOL    HW128328   4.356   3.541   0.468
 9143SOL    HW228329   4.387   3.480   0.616
 9144SOL     OW28330   2.465   5.673   5.353
 9144SOL    HW128331   2.420   5.628   5.276
 9144SOL    HW228332   2.462   5.772   5.341
 9145SOL     OW28333   0.193   4.558   6.933
 9145SOL    HW128334   0.149   4.495   6.869
 9145SOL    HW228335   0.141   4.561   7.019
 9146SOL     OW28336   6.199   2.600   1.475
 9146SOL    HW128337   6.108   2.582   1.440
 9146SOL    HW228338   6.257   2.634   1.401
 9147SOL     OW28339   4.445   5.492   4.039
 9147SOL    HW128340   4.465   5.460   3.947
 9147SOL    HW228341   4.386   5.427   4.086
 9148SOL     OW28342   4.970   5.752   3.328
 9148SOL    HW128343   4.961   5.844   3.290
 9148SOL    HW228344   5.057   5.743   3.375
 9149SOL     OW28345   4.944   2.835   4.721
 9149SOL    HW128346   4.896   2.900   4.663
 9149SOL    HW228347   5.031   2.874   4.750
 9150SOL     OW28348   5.034   6.821   3.415
 9150SOL    HW128349   5.016   6.725   3.439
 9150SOL    HW228350   5.127   6.844   3.441
 9151SOL     OW28351   1.326   4.185   2.309
 9151SOL    HW128352   1.404   4.238   2.277
 9151SOL    HW228353   1.264   4.166   2.233
 9152SOL     OW28354   2.415   6.370   3.387
 9152SOL    HW128355   2.499   6.326   3.356
 9152SOL    HW228356   2.407   6.461   3.346
 9153SOL     OW28357   1.729   2.654   6.824
 9153SOL    HW128358   1.778   2.705   6.754
 9153SOL    HW228359   1.657   2.599   6.781
 9154SOL     OW28360   2.510   5.609   6.771
 9154SOL    HW128361   2.451   5.585   6.694
 9154SOL    HW228362   2.491   5.702   6.801
 9155SOL     OW28363   2.023   3.964   6.050
 9155SOL    HW128364   2.073   3.880   6.030
 9155SOL    HW228365   2.078   4.043   6.021
 9156SOL     OW28366   3.831   2.167   1.063
 9156SOL    HW128367   3.817   2.206   1.154
 9156SOL    HW228368   3.924   2.189   1.032
 9157SOL     OW28369   5.357   4.209   5.472
 9157SOL    HW128370   5.450   4.177   5.489
 9157SOL    HW228371   5.338   4.203   5.374
 9158SOL     OW28372   7.001   3.572   4.686
 9158SOL    HW128373   7.016   3.474   4.700
 9158SOL    HW228374   6.958   3.587   4.597
 9159SOL     OW28375   0.157   5.057   2.402
 9159SOL    HW128376   0.157   5.125   2.475
 9159SOL    HW228377   0.200   4.973   2.434
 9160SOL     OW28378   0.988   6.656   6.067
 9160SOL    HW128379   0.904   6.706   6.048
 9160SOL    HW228380   0.966   6.561   6.089
 9161SOL     OW28381   5.101   3.768   4.943
 9161SOL    HW128382   5.056   3.678   4.939
 9161SOL    HW228383   5.178   3.763   5.007
 9162SOL     OW28384   4.830   3.121   2.746
 9162SOL    HW128385   4.837   3.095   2.649
 9162SOL    HW228386   4.869   3.048   2.803
 9163SOL     OW28387   2.809   2.166   3.875
 9163SOL    HW128388   2.868   2.204   3.945
 9163SOL    HW228389   2.812   2.224   3.793
 9164SOL     OW28390   2.653   0.730   6.741
 9164SOL    HW128391   2.717   0.677   6.797
 9164SOL    HW228392   2.560   0.704   6.765
 9165SOL     OW28393   5.611   0.759   6.300
 9165SOL    HW128394   5.580   0.840   6.349
 9165SOL    HW228395   5.571   0.678   6.341
 9166SOL     OW28396   4.118   5.545   0.995
 9166SOL    HW128397   4.022   5.522   1.011
 9166SOL    HW228398   4.135   5.548   0.896
 9167SOL     OW28399   1.519   3.546   5.907
 9167SOL    HW128400   1.566   3.469   5.863
 9167SOL    HW228401   1.547   3.552   6.003
 9168SOL     OW28402   2.138   0.087   5.607
 9168SOL    HW128403   2.203   0.029   5.559
 9168SOL    HW228404   2.187   0.153   5.664
 9169SOL     OW28405   0.182   1.144   4.675
 9169SOL    HW128406   0.214   1.238   4.660
 9169SOL    HW228407   0.204   1.088   4.596
 9170SOL     OW28408   6.950   5.148   0.331
 9170SOL    HW128409   6.984   5.176   0.241
 9170SOL    HW228410   6.855   5.119   0.323
 9171SOL     OW28411   2.865   6.214   7.017
 9171SOL    HW128412   2.917   6.135   6.985
 9171SOL    HW228413   2.921   6.269   0.051
 9172SOL     OW28414   3.656   0.945   4.336
 9172SOL    HW128415   3.745   0.909   4.307
 9172SOL    HW228416   3.650   1.042   4.310
 9173SOL     OW28417   6.310   4.963   5.028
 9173SOL    HW128418   6.303   4.868   4.998
 9173SOL    HW228419   6.407   4.987   5.038
 9174SOL     OW28420   6.523   4.493   0.318
 9174SOL    HW128421   6.594   4.563   0.310
 9174SOL    HW228422   6.442   4.521   0.267
 9175SOL     OW28423   2.360   6.114   5.756
 9175SOL    HW128424   2.273   6.119   5.707
 9175SOL    HW228425   2.341   6.102   5.854
 9176SOL     OW28426   2.093   1.113   5.332
 9176SOL    HW128427   2.168   1.162   5.375
 9176SOL    HW228428   2.034   1.178   5.284
 9177SOL     OW28429   1.365   3.899   4.211
 9177SOL    HW128430   1.294   3.968   4.228
 9177SOL    HW228431   1.367   3.878   4.113
 9178SOL     OW28432   2.192   5.629   0.828
 9178SOL    HW128433   2.186   5.538   0.868
 9178SOL    HW228434   2.145   5.630   0.740
 9179SOL     OW28435   3.053   5.280   3.974
 9179SOL    HW128436   2.973   5.324   4.013
 9179SOL    HW228437   3.031   5.185   3.951
 9180SOL     OW28438   6.088   2.376   3.534
 9180SOL    HW128439   6.147   2.373   3.615
 9180SOL    HW228440   5.995   2.400   3.561
 9181SOL     OW28441   4.462   1.902   2.632
 9181SOL    HW128442   4.512   1.988   2.640
 9181SOL    HW228443   4.433   1.889   2.537
 9182SOL     OW28444   1.462   5.782   2.341
 9182SOL    HW128445   1.489   5.878   2.348
 9182SOL    HW228446   1.389   5.763   2.407
 9183SOL     OW28447   5.187   6.277   0.752
 9183SOL    HW128448   5.119   6.223   0.703
 9183SOL    HW228449   5.211   6.358   0.698
 9184SOL     OW28450   5.453   6.712   0.693
 9184SOL    HW128451   5.475   6.768   0.773
 9184SOL    HW228452   5.531   6.710   0.631
 9185SOL     OW28453   4.087   0.761   5.386
 9185SOL    HW128454   4.006   0.746   5.443
 9185SOL    HW228455   4.069   0.835   5.321
 9186SOL     OW28456   6.507   0.837   4.822
 9186SOL    HW128457   6.551   0.922   4.792
 9186SOL    HW228458   6.469   0.789   4.743
 9187SOL     OW28459   2.223   6.643   2.207
 9187SOL    HW128460   2.128   6.659   2.180
 9187SOL    HW228461   2.268   6.730   2.224
 9188SOL     OW28462   2.719   6.734   1.182
 9188SOL    HW128463   2.695   6.702   1.091
 9188SOL    HW228464   2.811   6.774   1.181
 9189SOL     OW28465   5.499   5.454   2.756
 9189SOL    HW128466   5.480   5.540   2.803
 9189SOL    HW228467   5.422   5.391   2.770
 9190SOL     OW28468   1.915   5.525   0.172
 9190SOL    HW128469   1.988   5.458   0.161
 9190SOL    HW228470   1.936   5.584   0.250
 9191SOL     OW28471   6.649   0.362   5.326
 9191SOL    HW128472   6.619   0.331   5.416
 9191SOL    HW228473   6.633   0.461   5.317
 9192SOL     OW28474   0.237   4.123   4.777
 9192SOL    HW128475   0.215   4.027   4.757
 9192SOL    HW228476   0.163   4.163   4.831
 9193SOL     OW28477   3.469   3.409   0.141
 9193SOL    HW128478   3.542   3.473   0.166
 9193SOL    HW228479   3.455   3.344   0.216
 9194SOL     OW28480   3.220   0.515   4.214
 9194SOL    HW128481   3.153   0.448   4.245
 9194SOL    HW228482   3.176   0.582   4.154
 9195SOL     OW28483   1.977   2.375   4.729
 9195SOL    HW128484   1.977   2.460   4.676
 9195SOL    HW228485   2.070   2.349   4.752
 9196SOL     OW28486   4.661   1.332   5.020
 9196SOL    HW128487   4.611   1.299   4.941
 9196SOL    HW228488   4.601   1.334   5.100
 9197SOL     OW28489   2.571   3.718   1.184
 9197SOL    HW128490   2.549   3.760   1.096
 9197SOL    HW228491   2.644   3.650   1.172
 9198SOL     OW28492   6.682   5.391   5.489
 9198SOL    HW128493   6.749   5.351   5.551
 9198SOL    HW228494   6.598   5.337   5.491
 9199SOL     OW28495   0.225   4.143   6.180
 9199SOL    HW128496   0.190   4.126   6.272
 9199SOL    HW228497   0.197   4.067   6.120
 9200SOL     OW28498   2.890   0.475   0.931
 9200SOL    HW128499   2.952   0.546   0.965
 9200SOL    HW228500   2.857   0.421   1.009
 9201SOL     OW28501   1.438   3.251   6.723
 9201SOL    HW128502   1.413   3.257   6.820
 9201SOL    HW228503   1.378   3.186   6.677
 9202SOL     OW28504   1.953   6.692   3.113
 9202SOL    HW128505   1.993   6.779   3.143
 9202SOL    HW228506   1.968   6.681   3.015
 9203SOL     OW28507   6.897   5.339   0.605
 9203SOL    HW128508   6.960   5.417   0.601
 9203SOL    HW228509   6.948   5.254   0.596
 9204SOL     OW28510   5.238   1.180   6.527
 9204SOL    HW128511   5.184   1.200   6.445
 9204SOL    HW228512   5.196   1.224   6.606
 9205SOL     OW28513   6.799   3.714   2.746
 9205SOL    HW128514   6.894   3.713   2.715
 9205SOL    HW228515   6.780   3.630   2.797
 9206SOL     OW28516   3.726   5.770   0.560
 9206SOL    HW128517   3.721   5.764   0.461
 9206SOL    HW228518   3.820   5.752   0.591
 9207SOL     OW28519   4.719   5.753   0.362
 9207SOL    HW128520   4.774   5.687   0.413
 9207SOL    HW228521   4.658   5.801   0.424
 9208SOL     OW28522   6.628   3.958   4.475
 9208SOL    HW128523   6.537   3.998   4.461
 9208SOL    HW228524   6.620   3.878   4.534
 9209SOL     OW28525   3.132   1.541   6.694
 9209SOL    HW128526   3.081   1.471   6.745
 9209SOL    HW228527   3.228   1.541   6.724
 9210SOL     OW28528   6.567   1.448   2.791
 9210SOL    HW128529   6.557   1.488   2.700
 9210SOL    HW228530   6.650   1.393   2.795
 9211SOL     OW28531   0.207   2.611   3.890
 9211SOL    HW128532   0.199   2.528   3.835
 9211SOL    HW228533   0.234   2.587   3.983
 9212SOL     OW28534   3.354   5.491   4.373
 9212SOL    HW128535   3.301   5.565   4.414
 9212SOL    HW228536   3.437   5.530   4.331
 9213SOL     OW28537   5.715   3.449   6.002
 9213SOL    HW128538   5.776   3.526   5.982
 9213SOL    HW228539   5.770   3.367   6.020
 9214SOL     OW28540   0.185   5.787   0.140
 9214SOL    HW128541   0.208   5.853   0.212
 9214SOL    HW228542   0.199   5.694   0.174
 9215SOL     OW28543   1.311   1.064   0.384
 9215SOL    HW128544   1.256   1.147   0.395
 9215SOL    HW228545   1.284   0.997   0.453
 9216SOL     OW28546   2.610   0.348   2.966
 9216SOL    HW128547   2.696   0.348   3.017
 9216SOL    HW228548   2.610   0.271   2.902
 9217SOL     OW28549   0.003   1.689   6.524
 9217SOL    HW128550   0.046   1.767   6.570
 9217SOL    HW228551   0.042   1.604   6.560
 9218SOL     OW28552   3.454   6.545   0.451
 9218SOL    HW128553   3.382   6.594   0.500
 9218SOL    HW228554   3.494   6.604   0.382
 9219SOL     OW28555   1.359   2.559   0.955
 9219SOL    HW128556   1.313   2.630   1.008
 9219SOL    HW228557   1.328   2.469   0.985
 9220SOL     OW28558   3.580   6.781   1.553
 9220SOL    HW128559   3.537   6.692   1.567
 9220SOL    HW228560   3.679   6.768   1.540
 9221SOL     OW28561   3.255   6.776   3.544
 9221SOL    HW128562   3.272   6.867   3.507
 9221SOL    HW228563   3.242   6.711   3.469
 9222SOL     OW28564   2.326   1.274   6.612
 9222SOL    HW128565   2.353   1.317   6.698
 9222SOL    HW228566   2.258   1.331   6.566
 9223SOL     OW28567   1.761   3.151   5.293
 9223SOL    HW128568   1.811   3.235   5.271
 9223SOL    HW228569   1.693   3.133   5.221
 9224SOL     OW28570   2.200   5.363   4.455
 9224SOL    HW128571   2.287   5.379   4.408
 9224SOL    HW228572   2.217   5.318   4.542
 9225SOL     OW28573   3.311   6.256   6.822
 9225SOL    HW128574   3.361   6.327   6.872
 9225SOL    HW228575   3.232   6.297   6.776
 9226SOL     OW28576   4.996   6.289   1.696
 9226SOL    HW128577   4.967   6.377   1.733
 9226SOL    HW228578   5.026   6.301   1.602
 9227SOL     OW28579   0.896   5.175   2.838
 9227SOL    HW128580   0.978   5.232   2.836
 9227SOL    HW228581   0.866   5.157   2.744
 9228SOL     OW28582   1.308   0.839   5.933
 9228SOL    HW128583   1.408   0.846   5.936
 9228SOL    HW228584   1.271   0.922   5.890
 9229SOL     OW28585   1.133   5.584   3.773
 9229SOL    HW128586   1.141   5.630   3.862
 9229SOL    HW228587   1.223   5.574   3.733
 9230SOL     OW28588   5.720   0.341   3.510
 9230SOL    HW128589   5.654   0.340   3.585
 9230SOL    HW228590   5.710   0.425   3.457
 9231SOL     OW28591   1.338   2.973   4.269
 9231SOL    HW128592   1.366   2.953   4.363
 9231SOL    HW228593   1.412   3.022   4.222
 9232SOL     OW28594   3.558   5.418   0.431
 9232SOL    HW128595   3.526   5.380   0.344
 9232SOL    HW228596   3.480   5.441   0.488
 9233SOL     OW28597   5.637   5.109   1.283
 9233SOL    HW128598   5.580   5.034   1.316
 9233SOL    HW228599   5.732   5.078   1.276
 9234SOL     OW28600   2.937   5.736   3.331
 9234SOL    HW128601   2.854   5.768   3.286
 9234SOL    HW228602   2.942   5.774   3.423
 9235SOL     OW28603   1.494   1.981   3.380
 9235SOL    HW128604   1.482   1.892   3.336
 9235SOL    HW228605   1.500   2.052   3.310
 9236SOL     OW28606   3.330   3.894   5.401
 9236SOL    HW128607   3.349   3.989   5.424
 9236SOL    HW228608   3.232   3.883   5.381
 9237SOL     OW28609   1.370   3.817   3.959
 9237SOL    HW128610   1.463   3.784   3.975
 9237SOL    HW228611   1.365   3.861   3.869
 9238SOL     OW28612   4.916   3.012   6.686
 9238SOL    HW128613   4.893   2.986   6.780
 9238SOL    HW228614   4.858   2.961   6.623
 9239SOL     OW28615   0.622   3.620   1.316
 9239SOL    HW128616   0.658   3.713   1.313
 9239SOL    HW228617   0.668   3.568   1.388
 9240SOL     OW28618   5.409   1.601   1.604
 9240SOL    HW128619   5.451   1.519   1.641
 9240SOL    HW228620   5.320   1.578   1.564
 9241SOL     OW28621   6.894   5.469   6.893
 9241SOL    HW128622   6.868   5.533   6.820
 9241SOL    HW228623   6.993   5.470   6.905
 9242SOL     OW28624   6.951   6.075   1.408
 9242SOL    HW128625   6.857   6.108   1.412
 9242SOL    HW228626   6.954   5.990   1.356
 9243SOL     OW28627   6.687   5.981   4.361
 9243SOL    HW128628   6.774   5.983   4.409
 9243SOL    HW228629   6.631   5.906   4.397
 9244SOL     OW28630   4.576   5.664   6.594
 9244SOL    HW128631   4.499   5.718   6.560
 9244SOL    HW228632   4.601   5.596   6.526
 9245SOL     OW28633   0.627   5.620   2.426
 9245SOL    HW128634   0.643   5.697   2.488
 9245SOL    HW228635   0.657   5.645   2.334
 9246SOL     OW28636   6.539   5.192   3.758
 9246SOL    HW128637   6.617   5.186   3.695
 9246SOL    HW228638   6.472   5.257   3.722
 9247SOL     OW28639   1.081   6.837   2.832
 9247SOL    HW128640   1.015   6.778   2.785
 9247SOL    HW228641   1.172   6.822   2.795
 9248SOL     OW28642   2.789   2.697   6.046
 9248SOL    HW128643   2.748   2.610   6.074
 9248SOL    HW228644   2.887   2.684   6.032
 9249SOL     OW28645   5.490   1.571   4.439
 9249SOL    HW128646   5.582   1.574   4.399
 9249SOL    HW228647   5.452   1.664   4.439
 9250SOL     OW28648   4.901   3.954   4.152
 9250SOL    HW128649   4.876   3.910   4.238
 9250SOL    HW228650   4.834   4.024   4.130
 9251SOL     OW28651   3.699   1.573   2.998
 9251SOL    HW128652   3.775   1.622   3.040
 9251SOL    HW228653   3.619   1.634   2.992
 9252SOL     OW28654   0.173   6.799   4.951
 9252SOL    HW128655   0.179   6.762   5.044
 9252SOL    HW228656   0.230   6.880   4.944
 9253SOL     OW28657   2.426   6.498   5.942
 9253SOL    HW128658   2.332   6.504   5.908
 9253SOL    HW228659   2.488   6.538   5.875
 9254SOL     OW28660   5.800   3.942   1.496
 9254SOL    HW128661   5.811   3.854   1.542
 9254SOL    HW228662   5.728   3.935   1.427
 9255SOL     OW28663   5.109   3.552   0.368
 9255SOL    HW128664   5.016   3.538   0.332
 9255SOL    HW228665   5.154   3.464   0.377
 9256SOL     OW28666   4.234   4.737   2.182
 9256SOL    HW128667   4.224   4.696   2.091
 9256SOL    HW228668   4.189   4.827   2.183
 9257SOL     OW28669   0.765   4.092   2.387
 9257SOL    HW128670   0.772   4.057   2.294
 9257SOL    HW228671   0.813   4.030   2.450
 9258SOL     OW28672   3.519   2.926   3.559
 9258SOL    HW128673   3.505   2.978   3.475
 9258SOL    HW228674   3.499   2.830   3.542
 9259SOL     OW28675   0.796   2.277   1.252
 9259SOL    HW128676   0.791   2.239   1.160
 9259SOL    HW228677   0.795   2.204   1.320
 9260SOL     OW28678   4.745   2.794   6.035
 9260SOL    HW128679   4.654   2.793   6.076
 9260SOL    HW228680   4.793   2.877   6.063
 9261SOL     OW28681   3.700   0.077   6.490
 9261SOL    HW128682   3.661   0.068   6.582
 9261SOL    HW228683   3.678   0.168   6.454
 9262SOL     OW28684   5.627   1.655   5.113
 9262SOL    HW128685   5.580   1.727   5.062
 9262SOL    HW228686   5.710   1.628   5.064
 9263SOL     OW28687   5.246   3.920   1.308
 9263SOL    HW128688   5.229   4.006   1.259
 9263SOL    HW228689   5.305   3.862   1.253
 9264SOL     OW28690   6.431   3.590   6.825
 9264SOL    HW128691   6.492   3.578   6.903
 9264SOL    HW228692   6.362   3.658   6.846
 9265SOL     OW28693   2.389   1.964   0.062
 9265SOL    HW128694   2.482   1.930   0.079
 9265SOL    HW228695   2.392   2.063   0.051
 9266SOL     OW28696   2.234   5.989   2.461
 9266SOL    HW128697   2.306   6.044   2.419
 9266SOL    HW228698   2.262   5.894   2.463
 9267SOL     OW28699   0.258   3.631   4.434
 9267SOL    HW128700   0.309   3.659   4.516
 9267SOL    HW228701   0.197   3.704   4.406
 9268SOL     OW28702   0.143   6.747   2.658
 9268SOL    HW128703   0.096   6.761   2.745
 9268SOL    HW228704   0.203   6.668   2.665
 9269SOL     OW28705   3.090   1.780   6.858
 9269SOL    HW128706   3.072   1.857   6.795
 9269SOL    HW228707   3.094   1.695   6.805
 9270SOL     OW28708   6.961   6.571   5.619
 9270SOL    HW128709   6.930   6.637   5.551
 9270SOL    HW228710   6.928   6.597   5.709
 9271SOL     OW28711   1.453   6.727   1.095
 9271SOL    HW128712   1.418   6.711   1.187
 9271SOL    HW228713   1.417   6.814   1.061
 9272SOL     OW28714   2.565   4.345   6.660
 9272SOL    HW128715   2.592   4.311   6.569
 9272SOL    HW228716   2.540   4.267   6.718
 9273SOL     OW28717   4.432   5.439   3.770
 9273SOL    HW128718   4.342   5.424   3.728
 9273SOL    HW228719   4.472   5.522   3.733
 9274SOL     OW28720   5.177   2.375   6.715
 9274SOL    HW128721   5.228   2.299   6.676
 9274SOL    HW228722   5.200   2.384   6.812
 9275SOL     OW28723   0.895   1.250   6.338
 9275SOL    HW128724   0.801   1.223   6.314
 9275SOL    HW228725   0.922   1.203   6.422
 9276SOL     OW28726   3.587   5.797   4.584
 9276SOL    HW128727   3.561   5.891   4.562
 9276SOL    HW228728   3.665   5.769   4.529
 9277SOL     OW28729   3.604   3.497   6.921
 9277SOL    HW128730   3.562   3.478   7.010
 9277SOL    HW228731   3.690   3.547   6.934
 9278SOL     OW28732   1.171   1.793   4.052
 9278SOL    HW128733   1.089   1.746   4.016
 9278SOL    HW228734   1.252   1.757   4.006
 9279SOL     OW28735   3.767   0.573   2.050
 9279SOL    HW128736   3.866   0.579   2.037
 9279SOL    HW228737   3.747   0.528   2.137
 9280SOL     OW28738   1.445   6.786   3.562
 9280SOL    HW128739   1.502   6.832   3.494
 9280SOL    HW228740   1.354   6.768   3.524
 9281SOL     OW28741   2.617   2.653   0.779
 9281SOL    HW128742   2.527   2.665   0.738
 9281SOL    HW228743   2.611   2.588   0.854
 9282SOL     OW28744   4.636   1.633   4.355
 9282SOL    HW128745   4.649   1.615   4.257
 9282SOL    HW228746   4.664   1.553   4.408
 9283SOL     OW28747   6.498   2.358   2.727
 9283SOL    HW128748   6.443   2.427   2.682
 9283SOL    HW228749   6.591   2.359   2.688
 9284SOL     OW28750   3.753   3.768   0.958
 9284SOL    HW128751   3.706   3.690   0.917
 9284SOL    HW228752   3.764   3.753   1.056
 9285SOL     OW28753   6.559   2.817   6.751
 9285SOL    HW128754   6.609   2.815   6.837
 9285SOL    HW228755   6.524   2.909   6.734
 9286SOL     OW28756   5.604   6.958   5.459
 9286SOL    HW128757   5.690   7.009   5.468
 9286SOL    HW228758   5.611   6.896   5.380
 9287SOL     OW28759   2.966   5.874   1.451
 9287SOL    HW128760   2.892   5.936   1.476
 9287SOL    HW228761   2.932   5.780   1.450
 9288SOL     OW28762   4.067   1.936   5.492
 9288SOL    HW128763   4.091   1.860   5.431
 9288SOL    HW228764   4.010   1.902   5.567
 9289SOL     OW28765   4.938   2.202   2.352
 9289SOL    HW128766   5.026   2.196   2.306
 9289SOL    HW228767   4.872   2.248   2.293
 9290SOL     OW28768   4.202   2.158   4.952
 9290SOL    HW128769   4.219   2.219   5.029
 9290SOL    HW228770   4.199   2.212   4.867
 9291SOL     OW28771   1.688   0.587   5.040
 9291SOL    HW128772   1.615   0.624   5.098
 9291SOL    HW228773   1.650   0.516   4.980
 9292SOL     OW28774   0.103   3.395   5.878
 9292SOL    HW128775   0.147   3.424   5.793
 9292SOL    HW228776   0.150   3.313   5.913
 9293SOL     OW28777   5.208   4.515   0.582
 9293SOL    HW128778   5.246   4.606   0.568
 9293SOL    HW228779   5.273   4.446   0.552
 9294SOL     OW28780   4.142   5.862   6.927
 9294SOL    HW128781   4.216   5.929   6.933
 9294SOL    HW228782   4.077   5.878   7.001
 9295SOL     OW28783   4.322   1.835   2.861
 9295SOL    HW128784   4.285   1.742   2.859
 9295SOL    HW228785   4.370   1.853   2.775
 9296SOL     OW28786   6.627   6.425   6.013
 9296SOL    HW128787   6.552   6.479   5.975
 9296SOL    HW228788   6.599   6.330   6.020
 9297SOL     OW28789   0.545   0.759   1.594
 9297SOL    HW128790   0.595   0.709   1.666
 9297SOL    HW228791   0.483   0.825   1.637
 9298SOL     OW28792   2.087   6.154   5.358
 9298SOL    HW128793   2.096   6.058   5.332
 9298SOL    HW228794   2.088   6.162   5.457
 9299SOL     OW28795   1.308   3.458   3.811
 9299SOL    HW128796   1.401   3.467   3.845
 9299SOL    HW228797   1.269   3.372   3.841
 9300SOL     OW28798   5.792   4.730   5.319
 9300SOL    HW128799   5.705   4.726   5.270
 9300SOL    HW228800   5.845   4.809   5.287
 9301SOL     OW28801   4.867   4.544   2.766
 9301SOL    HW128802   4.906   4.524   2.856
 9301SOL    HW228803   4.804   4.470   2.741
 9302SOL     OW28804   2.486   2.584   3.402
 9302SOL    HW128805   2.471   2.611   3.497
 9302SOL    HW228806   2.402   2.599   3.349
 9303SOL     OW28807   3.935   6.332   0.089
 9303SOL    HW128808   3.946   6.343   0.188
 9303SOL    HW228809   3.890   6.245   0.070
 9304SOL     OW28810   3.464   4.219   0.802
 9304SOL    HW128811   3.518   4.273   0.737
 9304SOL    HW228812   3.485   4.249   0.895
 9305SOL     OW28813   5.653   2.374   1.770
 9305SOL    HW128814   5.679   2.327   1.685
 9305SOL    HW228815   5.717   2.349   1.842
 9306SOL     OW28816   0.259   4.586   4.109
 9306SOL    HW128817   0.335   4.642   4.075
 9306SOL    HW228818   0.228   4.525   4.036
 9307SOL     OW28819   1.124   1.919   0.793
 9307SOL    HW128820   1.060   1.847   0.763
 9307SOL    HW228821   1.192   1.879   0.854
 9308SOL     OW28822   0.481   3.078   1.031
 9308SOL    HW128823   0.501   3.000   0.973
 9308SOL    HW228824   0.519   3.063   1.122
 9309SOL     OW28825   4.344   3.971   5.844
 9309SOL    HW128826   4.306   4.028   5.770
 9309SOL    HW228827   4.443   3.987   5.849
 9310SOL     OW28828   4.034   6.747   6.038
 9310SOL    HW128829   3.959   6.699   6.085
 9310SOL    HW228830   4.014   6.750   5.940
 9311SOL     OW28831   5.304   3.990   0.476
 9311SOL    HW128832   5.262   3.916   0.424
 9311SOL    HW228833   5.254   4.004   0.562
 9312SOL     OW28834   1.158   4.284   6.652
 9312SOL    HW128835   1.250   4.249   6.669
 9312SOL    HW228836   1.109   4.222   6.591
 9313SOL     OW28837   0.119   0.608   2.579
 9313SOL    HW128838   0.216   0.621   2.597
 9313SOL    HW228839   0.065   0.664   2.642
 9314SOL     OW28840   4.216   5.534   0.062
 9314SOL    HW128841   4.182   5.487   7.007
 9314SOL    HW228842   4.312   5.558   0.049
 9315SOL     OW28843   0.188   0.650   5.661
 9315SOL    HW128844   0.136   0.732   5.639
 9315SOL    HW228845   0.135   0.592   5.723
 9316SOL     OW28846   3.869   5.568   3.784
 9316SOL    HW128847   3.966   5.591   3.782
 9316SOL    HW228848   3.827   5.607   3.866
 9317SOL     OW28849   6.106   5.084   3.090
 9317SOL    HW128850   6.198   5.099   3.053
 9317SOL    HW228851   6.060   5.172   3.102
 9318SOL     OW28852   0.233   0.675   6.744
 9318SOL    HW128853   0.135   0.664   6.760
 9318SOL    HW228854   0.250   0.688   6.647
 9319SOL     OW28855   0.711   3.269   6.563
 9319SOL    HW128856   0.697   3.310   6.473
 9319SOL    HW228857   0.732   3.341   6.629
 9320SOL     OW28858   4.055   2.387   5.979
 9320SOL    HW128859   4.078   2.375   6.076
 9320SOL    HW228860   4.037   2.483   5.961
 9321SOL     OW28861   6.303   6.454   2.819
 9321SOL    HW128862   6.241   6.459   2.897
 9321SOL    HW228863   6.397   6.468   2.850
 9322SOL     OW28864   0.397   6.351   5.941
 9322SOL    HW128865   0.374   6.336   5.845
 9322SOL    HW228866   0.424   6.265   5.983
 9323SOL     OW28867   0.512   1.444   6.251
 9323SOL    HW128868   0.530   1.401   6.339
 9323SOL    HW228869   0.597   1.453   6.199
 9324SOL     OW28870   0.980   5.143   0.640
 9324SOL    HW128871   0.941   5.227   0.600
 9324SOL    HW228872   1.077   5.138   0.617
 9325SOL     OW28873   5.546   1.798   1.006
 9325SOL    HW128874   5.539   1.748   1.092
 9325SOL    HW228875   5.499   1.886   1.014
 9326SOL     OW28876   2.504   6.906   0.633
 9326SOL    HW128877   2.594   6.899   0.590
 9326SOL    HW228878   2.514   6.936   0.728
 9327SOL     OW28879   4.480   0.138   2.940
 9327SOL    HW128880   4.487   0.236   2.960
 9327SOL    HW228881   4.429   0.093   3.013
 9328SOL     OW28882   3.901   1.176   6.943
 9328SOL    HW128883   3.990   1.215   6.921
 9328SOL    HW228884   3.913   1.083   6.978
 9329SOL     OW28885   6.877   3.691   3.115
 9329SOL    HW128886   6.935   3.765   3.148
 9329SOL    HW228887   6.788   3.696   3.160
 9330SOL     OW28888   6.616   0.063   0.640
 9330SOL    HW128889   6.546   0.128   0.612
 9330SOL    HW228890   6.609   0.047   0.739
 9331SOL     OW28891   0.425   0.745   0.095
 9331SOL    HW128892   0.522   0.749   0.119
 9331SOL    HW228893   0.416   0.710   0.002
 9332SOL     OW28894   3.210   4.054   4.335
 9332SOL    HW128895   3.302   4.019   4.353
 9332SOL    HW228896   3.145   3.978   4.333
 9333SOL     OW28897   6.171   4.010   0.880
 9333SOL    HW128898   6.255   4.011   0.825
 9333SOL    HW228899   6.195   4.004   0.977
 9334SOL     OW28900   3.250   0.260   3.505
 9334SOL    HW128901   3.160   0.250   3.547
 9334SOL    HW228902   3.242   0.317   3.423
 9335SOL     OW28903   1.588   1.227   6.282
 9335SOL    HW128904   1.630   1.207   6.193
 9335SOL    HW228905   1.525   1.304   6.273
 9336SOL     OW28906   2.888   6.456   6.098
 9336SOL    HW128907   2.803   6.406   6.080
 9336SOL    HW228908   2.931   6.421   6.181
 9337SOL     OW28909   5.245   0.494   2.237
 9337SOL    HW128910   5.330   0.455   2.271
 9337SOL    HW228911   5.264   0.580   2.191
 9338SOL     OW28912   3.656   0.452   2.559
 9338SOL    HW128913   3.642   0.357   2.532
 9338SOL    HW228914   3.678   0.456   2.657
 9339SOL     OW28915   4.958   6.672   1.315
 9339SOL    HW128916   4.918   6.589   1.277
 9339SOL    HW228917   4.912   6.752   1.275
 9340SOL     OW28918   5.690   3.670   6.228
 9340SOL    HW128919   5.622   3.597   6.223
 9340SOL    HW228920   5.771   3.637   6.276
 9341SOL     OW28921   0.943   5.394   6.734
 9341SOL    HW128922   1.003   5.351   6.802
 9341SOL    HW228923   0.991   5.399   6.647
 9342SOL     OW28924   1.494   0.112   5.420
 9342SOL    HW128925   1.479   0.186   5.353
 9342SOL    HW228926   1.435   0.035   5.397
 9343SOL     OW28927   6.353   5.387   5.091
 9343SOL    HW128928   6.356   5.449   5.170
 9343SOL    HW228929   6.443   5.384   5.048
 9344SOL     OW28930   5.081   6.391   1.446
 9344SOL    HW128931   5.109   6.480   1.409
 9344SOL    HW228932   5.141   6.320   1.409
 9345SOL     OW28933   6.718   2.388   1.211
 9345SOL    HW128934   6.725   2.317   1.140
 9345SOL    HW228935   6.766   2.358   1.293
 9346SOL     OW28936   6.399   0.637   1.397
 9346SOL    HW128937   6.496   0.616   1.399
 9346SOL    HW228938   6.346   0.556   1.422
 9347SOL     OW28939   1.445   6.074   1.448
 9347SOL    HW128940   1.504   6.045   1.524
 9347SOL    HW228941   1.487   6.153   1.402
 9348SOL     OW28942   2.983   5.808   0.493
 9348SOL    HW128943   2.979   5.862   0.577
 9348SOL    HW228944   2.966   5.867   0.414
 9349SOL     OW28945   1.130   6.519   2.384
 9349SOL    HW128946   1.101   6.487   2.474
 9349SOL    HW228947   1.227   6.540   2.385
 9350SOL     OW28948   0.621   2.381   5.822
 9350SOL    HW128949   0.684   2.390   5.745
 9350SOL    HW228950   0.579   2.290   5.820
 9351SOL     OW28951   3.515   2.388   0.086
 9351SOL    HW128952   3.498   2.368   0.183
 9351SOL    HW228953   3.463   2.324   0.029
 9352SOL     OW28954   3.028   4.762   6.948
 9352SOL    HW128955   2.992   4.690   7.006
 9352SOL    HW228956   3.097   4.814   6.998
 9353SOL     OW28957   0.521   5.891   1.762
 9353SOL    HW128958   0.481   5.939   1.684
 9353SOL    HW228959   0.550   5.958   1.831
 9354SOL     OW28960   6.303   2.289   0.022
 9354SOL    HW128961   6.230   2.344   7.009
 9354SOL    HW228962   6.335   2.222   6.982
 9355SOL     OW28963   0.542   1.717   5.202
 9355SOL    HW128964   0.443   1.710   5.215
 9355SOL    HW228965   0.562   1.777   5.124
 9356SOL     OW28966   4.695   6.677   2.123
 9356SOL    HW128967   4.631   6.747   2.153
 9356SOL    HW228968   4.749   6.713   2.046
 9357SOL     OW28969   0.690   2.154   6.921
 9357SOL    HW128970   0.766   2.091   6.938
 9357SOL    HW228971   0.603   2.103   6.922
 9358SOL     OW28972   1.610   3.485   2.434
 9358SOL    HW128973   1.566   3.444   2.514
 9358SOL    HW228974   1.709   3.489   2.448
 9359SOL     OW28975   2.076   6.790   6.230
 9359SOL    HW128976   2.027   6.764   6.147
 9359SOL    HW228977   2.026   6.863   6.277
 9360SOL     OW28978   0.969   0.404   6.193
 9360SOL    HW128979   0.907   0.326   6.189
 9360SOL    HW228980   0.950   0.467   6.118
 9361SOL     OW28981   2.286   5.874   4.087
 9361SOL    HW128982   2.381   5.867   4.116
 9361SOL    HW228983   2.276   5.840   3.994
 9362SOL     OW28984   1.999   0.308   1.958
 9362SOL    HW128985   1.997   0.325   1.859
 9362SOL    HW228986   1.906   0.294   1.992
 9363SOL     OW28987   2.967   5.109   2.438
 9363SOL    HW128988   2.984   5.016   2.405
 9363SOL    HW228989   3.017   5.174   2.381
 9364SOL     OW28990   1.392   2.052   1.063
 9364SOL    HW128991   1.344   2.133   1.096
 9364SOL    HW228992   1.396   2.053   0.963
 9365SOL     OW28993   3.372   2.057   4.664
 9365SOL    HW128994   3.464   2.052   4.623
 9365SOL    HW228995   3.380   2.077   4.761
 9366SOL     OW28996   3.705   5.619   0.299
 9366SOL    HW128997   3.653   5.547   0.345
 9366SOL    HW228998   3.643   5.688   0.262
 9367SOL     OW28999   6.620   0.593   1.604
 9367SOL    HW129000   6.591   0.581   1.699
 9367SOL    HW229001   6.656   0.685   1.592
 9368SOL     OW29002   3.439   0.653   2.741
 9368SOL    HW129003   3.507   0.580   2.736
 9368SOL    HW229004   3.384   0.654   2.657
 9369SOL     OW29005   2.280   5.347   6.390
 9369SOL    HW129006   2.375   5.362   6.419
 9369SOL    HW229007   2.272   5.259   6.345
 9370SOL     OW29008   4.880   1.858   4.004
 9370SOL    HW129009   4.876   1.821   3.911
 9370SOL    HW229010   4.976   1.875   4.029
 9371SOL     OW29011   4.342   5.974   1.617
 9371SOL    HW129012   4.333   5.975   1.517
 9371SOL    HW229013   4.404   5.901   1.644
 9372SOL     OW29014   5.159   6.641   1.666
 9372SOL    HW129015   5.067   6.671   1.641
 9372SOL    HW229016   5.221   6.653   1.588
 9373SOL     OW29017   6.716   0.906   0.547
 9373SOL    HW129018   6.656   0.921   0.468
 9373SOL    HW229019   6.746   0.994   0.584
 9374SOL     OW29020   0.487   5.301   5.520
 9374SOL    HW129021   0.507   5.203   5.516
 9374SOL    HW229022   0.450   5.330   5.431
 9375SOL     OW29023   0.413   1.186   6.971
 9375SOL    HW129024   0.508   1.215   6.955
 9375SOL    HW229025   0.382   1.220   0.032
 9376SOL     OW29026   2.097   3.993   2.073
 9376SOL    HW129027   2.018   3.954   2.026
 9376SOL    HW229028   2.152   4.045   2.008
 9377SOL     OW29029   2.319   6.451   3.000
 9377SOL    HW129030   2.369   6.510   2.936
 9377SOL    HW229031   2.376   6.372   3.024
 9378SOL     OW29032   2.845   0.675   3.439
 9378SOL    HW129033   2.877   0.620   3.363
 9378SOL    HW229034   2.823   0.616   3.517
 9379SOL     OW29035   4.011   6.537   4.649
 9379SOL    HW129036   3.935   6.578   4.701
 9379SOL    HW229037   3.984   6.530   4.553
 9380SOL     OW29038   5.056   5.619   0.130
 9380SOL    HW129039   5.089   5.667   0.211
 9380SOL    HW229040   5.031   5.686   0.060
 9381SOL     OW29041   5.399   1.978   4.285
 9381SOL    HW129042   5.366   1.915   4.355
 9381SOL    HW229043   5.433   1.925   4.206
 9382SOL     OW29044   3.064   0.203   4.709
 9382SOL    HW129045   3.019   0.127   4.662
 9382SOL    HW229046   3.004   0.238   4.781
 9383SOL     OW29047   4.932   4.140   3.134
 9383SOL    HW129048   4.885   4.103   3.054
 9383SOL    HW229049   5.029   4.113   3.131
 9384SOL     OW29050   1.940   0.702   1.812
 9384SOL    HW129051   2.006   0.659   1.872
 9384SOL    HW229052   1.867   0.637   1.791
 9385SOL     OW29053   3.663   1.771   3.341
 9385SOL    HW129054   3.644   1.672   3.337
 9385SOL    HW229055   3.728   1.789   3.415
 9386SOL     OW29056   4.161   6.343   6.206
 9386SOL    HW129057   4.064   6.320   6.209
 9386SOL    HW229058   4.208   6.301   6.283
 9387SOL     OW29059   2.751   2.154   0.197
 9387SOL    HW129060   2.762   2.244   0.154
 9387SOL    HW229061   2.689   2.161   0.275
 9388SOL     OW29062   2.420   6.250   4.656
 9388SOL    HW129063   2.376   6.326   4.704
 9388SOL    HW229064   2.454   6.281   4.567
 9389SOL     OW29065   2.676   4.326   1.695
 9389SOL    HW129066   2.601   4.334   1.760
 9389SOL    HW229067   2.761   4.356   1.739
 9390SOL     OW29068   5.118   5.128   5.121
 9390SOL    HW129069   5.097   5.172   5.033
 9390SOL    HW229070   5.113   5.029   5.111
 9391SOL     OW29071   1.570   5.912   4.550
 9391SOL    HW129072   1.662   5.900   4.588
 9391SOL    HW229073   1.569   5.880   4.455
 9392SOL     OW29074   5.827   4.223   2.782
 9392SOL    HW129075   5.773   4.172   2.716
 9392SOL    HW229076   5.884   4.290   2.734
 9393SOL     OW29077   2.782   6.801   6.165
 9393SOL    HW129078   2.766   6.786   6.262
 9393SOL    HW229079   2.695   6.821   6.120
 9394SOL     OW29080   4.153   0.472   0.758
 9394SOL    HW129081   4.118   0.564   0.777
 9394SOL    HW229082   4.199   0.437   0.840
 9395SOL     OW29083   2.067   1.837   0.521
 9395SOL    HW129084   1.970   1.837   0.497
 9395SOL    HW229085   2.121   1.823   0.438
 9396SOL     OW29086   0.662   6.495   6.549
 9396SOL    HW129087   0.569   6.461   6.535
 9396SOL    HW229088   0.725   6.418   6.553
 9397SOL     OW29089   3.713   1.284   5.849
 9397SOL    HW129090   3.790   1.279   5.913
 9397SOL    HW229091   3.632   1.316   5.897
 9398SOL     OW29092   0.243   1.541   6.644
 9398SOL    HW129093   0.245   1.451   6.687
 9398SOL    HW229094   0.266   1.611   6.711
 9399SOL     OW29095   1.704   2.969   3.901
 9399SOL    HW129096   1.693   2.898   3.831
 9399SOL    HW229097   1.784   2.948   3.958
 9400SOL     OW29098   5.731   1.271   0.737
 9400SOL    HW129099   5.661   1.256   0.667
 9400SOL    HW229100   5.691   1.319   0.815
 9401SOL     OW29101   0.308   1.952   3.152
 9401SOL    HW129102   0.234   1.886   3.167
 9401SOL    HW229103   0.320   2.006   3.235
 9402SOL     OW29104   1.579   6.084   3.855
 9402SOL    HW129105   1.542   6.150   3.790
 9402SOL    HW229106   1.557   5.991   3.824
 9403SOL     OW29107   6.265   2.175   1.959
 9403SOL    HW129108   6.171   2.203   1.941
 9403SOL    HW229109   6.317   2.253   1.994
 9404SOL     OW29110   1.915   3.071   0.559
 9404SOL    HW129111   1.910   3.151   0.619
 9404SOL    HW229112   1.825   3.028   0.553
 9405SOL     OW29113   0.603   5.954   5.048
 9405SOL    HW129114   0.592   6.024   5.119
 9405SOL    HW229115   0.518   5.903   5.037
 9406SOL     OW29116   0.009   2.993   0.213
 9406SOL    HW129117   7.014   3.076   0.264
 9406SOL    HW229118   0.082   3.013   0.147
 9407SOL     OW29119   0.961   5.481   5.179
 9407SOL    HW129120   0.904   5.400   5.174
 9407SOL    HW229121   1.048   5.459   5.224
 9408SOL     OW29122   0.127   3.851   4.713
 9408SOL    HW129123   0.062   3.780   4.686
 9408SOL    HW229124   0.148   3.842   4.810
 9409SOL     OW29125   6.734   5.345   2.722
 9409SOL    HW129126   6.713   5.401   2.802
 9409SOL    HW229127   6.704   5.392   2.639
 9410SOL     OW29128   3.798   0.934   0.675
 9410SOL    HW129129   3.746   0.962   0.595
 9410SOL    HW229130   3.744   0.952   0.758
 9411SOL     OW29131   2.993   3.369   3.025
 9411SOL    HW129132   2.916   3.428   3.047
 9411SOL    HW229133   3.077   3.424   3.016
 9412SOL     OW29134   5.979   6.272   1.105
 9412SOL    HW129135   6.060   6.275   1.047
 9412SOL    HW229136   5.968   6.360   1.152
 9413SOL     OW29137   4.660   4.333   2.684
 9413SOL    HW129138   4.688   4.248   2.640
 9413SOL    HW229139   4.627   4.397   2.615
 9414SOL     OW29140   1.833   2.115   3.634
 9414SOL    HW129141   1.873   2.148   3.549
 9414SOL    HW229142   1.901   2.065   3.687
 9415SOL     OW29143   4.130   1.054   2.519
 9415SOL    HW129144   4.072   1.106   2.457
 9415SOL    HW229145   4.109   1.079   2.613
 9416SOL     OW29146   5.920   4.690   5.977
 9416SOL    HW129147   5.945   4.657   5.886
 9416SOL    HW229148   5.964   4.632   6.046
 9417SOL     OW29149   3.682   5.895   2.012
 9417SOL    HW129150   3.777   5.883   2.040
 9417SOL    HW229151   3.666   5.991   1.990
 9418SOL     OW29152   3.320   1.873   4.858
 9418SOL    HW129153   3.305   1.937   4.783
 9418SOL    HW229154   3.308   1.920   4.945
 9419SOL     OW29155   1.894   3.270   6.280
 9419SOL    HW129156   1.836   3.346   6.312
 9419SOL    HW229157   1.984   3.276   6.324
 9420SOL     OW29158   6.470   4.066   6.565
 9420SOL    HW129159   6.475   4.039   6.468
 9420SOL    HW229160   6.556   4.110   6.591
 9421SOL     OW29161   3.404   6.261   5.797
 9421SOL    HW129162   3.495   6.221   5.810
 9421SOL    HW229163   3.352   6.203   5.734
 9422SOL     OW29164   2.398   5.978   4.685
 9422SOL    HW129165   2.409   6.077   4.691
 9422SOL    HW229166   2.408   5.949   4.590
 9423SOL     OW29167   4.729   4.713   3.008
 9423SOL    HW129168   4.714   4.688   2.912
 9423SOL    HW229169   4.778   4.800   3.012
 9424SOL     OW29170   6.033   6.984   4.492
 9424SOL    HW129171   5.965   6.964   4.562
 9424SOL    HW229172   6.070   6.898   4.456
 9425SOL     OW29173   6.804   4.906   0.943
 9425SOL    HW129174   6.839   4.998   0.960
 9425SOL    HW229175   6.767   4.869   1.029
 9426SOL     OW29176   0.154   1.922   6.612
 9426SOL    HW129177   0.090   1.999   6.620
 9426SOL    HW229178   0.203   1.911   6.698
 9427SOL     OW29179   4.846   5.035   2.605
 9427SOL    HW129180   4.788   4.964   2.565
 9427SOL    HW229181   4.830   5.121   2.557
 9428SOL     OW29182   0.147   6.142   5.302
 9428SOL    HW129183   0.063   6.162   5.253
 9428SOL    HW229184   0.193   6.227   5.326
 9429SOL     OW29185   2.699   2.265   4.320
 9429SOL    HW129186   2.708   2.335   4.392
 9429SOL    HW229187   2.707   2.309   4.230
 9430SOL     OW29188   1.067   2.297   4.621
 9430SOL    HW129189   1.097   2.305   4.716
 9430SOL    HW229190   1.127   2.232   4.573
 9431SOL     OW29191   0.644   4.684   5.641
 9431SOL    HW129192   0.567   4.680   5.705
 9431SOL    HW229193   0.627   4.620   5.565
 9432SOL     OW29194   6.641   1.478   3.592
 9432SOL    HW129195   6.736   1.446   3.594
 9432SOL    HW229196   6.581   1.404   3.562
 9433SOL     OW29197   4.906   5.529   2.261
 9433SOL    HW129198   4.851   5.553   2.181
 9433SOL    HW229199   4.895   5.599   2.331
 9434SOL     OW29200   4.969   5.087   4.236
 9434SOL    HW129201   4.934   5.148   4.307
 9434SOL    HW229202   4.893   5.057   4.177
 9435SOL     OW29203   0.419   2.729   1.850
 9435SOL    HW129204   0.351   2.772   1.790
 9435SOL    HW229205   0.423   2.631   1.831
 9436SOL     OW29206   1.917   0.556   2.863
 9436SOL    HW129207   1.921   0.595   2.955
 9436SOL    HW229208   1.822   0.548   2.834
 9437SOL     OW29209   5.668   6.493   4.873
 9437SOL    HW129210   5.590   6.505   4.934
 9437SOL    HW229211   5.730   6.570   4.882
 9438SOL     OW29212   4.787   6.506   2.330
 9438SOL    HW129213   4.793   6.604   2.312
 9438SOL    HW229214   4.784   6.456   2.244
 9439SOL     OW29215   1.354   3.012   0.579
 9439SOL    HW129216   1.306   3.094   0.608
 9439SOL    HW229217   1.375   3.019   0.481
 9440SOL     OW29218   2.393   5.229   3.506
 9440SOL    HW129219   2.338   5.219   3.424
 9440SOL    HW229220   2.477   5.175   3.497
 9441SOL     OW29221   0.696   5.967   4.274
 9441SOL    HW129222   0.777   5.966   4.333
 9441SOL    HW229223   0.697   5.886   4.216
 9442SOL     OW29224   4.914   3.148   0.707
 9442SOL    HW129225   4.976   3.088   0.758
 9442SOL    HW229226   4.912   3.121   0.611
 9443SOL     OW29227   2.230   4.779   3.039
 9443SOL    HW129228   2.197   4.686   3.024
 9443SOL    HW229229   2.297   4.802   2.968
 9444SOL     OW29230   0.903   4.555   5.927
 9444SOL    HW129231   0.990   4.508   5.940
 9444SOL    HW229232   0.909   4.648   5.962
 9445SOL     OW29233   0.647   1.256   3.657
 9445SOL    HW129234   0.557   1.298   3.646
 9445SOL    HW229235   0.707   1.318   3.707
 9446SOL     OW29236   6.564   4.961   3.540
 9446SOL    HW129237   6.526   4.881   3.494
 9446SOL    HW229238   6.489   5.018   3.574
 9447SOL     OW29239   4.977   4.629   1.456
 9447SOL    HW129240   4.928   4.542   1.457
 9447SOL    HW229241   5.075   4.611   1.442
 9448SOL     OW29242   6.161   0.760   5.187
 9448SOL    HW129243   6.229   0.779   5.116
 9448SOL    HW229244   6.166   0.830   5.258
 9449SOL     OW29245   5.516   0.263   1.477
 9449SOL    HW129246   5.520   0.168   1.507
 9449SOL    HW229247   5.554   0.270   1.385
 9450SOL     OW29248   0.983   5.578   2.979
 9450SOL    HW129249   1.065   5.633   2.963
 9450SOL    HW229250   0.952   5.591   3.073
 9451SOL     OW29251   3.434   5.654   6.481
 9451SOL    HW129252   3.348   5.689   6.518
 9451SOL    HW229253   3.479   5.726   6.428
 9452SOL     OW29254   6.106   4.034   0.228
 9452SOL    HW129255   6.053   3.977   0.166
 9452SOL    HW229256   6.172   3.977   0.278
 9453SOL     OW29257   4.741   5.058   1.674
 9453SOL    HW129258   4.803   4.982   1.654
 9453SOL    HW229259   4.691   5.040   1.759
 9454SOL     OW29260   5.797   4.275   0.468
 9454SOL    HW129261   5.873   4.258   0.531
 9454SOL    HW229262   5.775   4.191   0.418
 9455SOL     OW29263   3.726   1.515   1.883
 9455SOL    HW129264   3.808   1.458   1.878
 9455SOL    HW229265   3.752   1.607   1.911
 9456SOL     OW29266   0.469   3.026   2.230
 9456SOL    HW129267   0.512   2.991   2.147
 9456SOL    HW229268   0.370   3.010   2.225
 9457SOL     OW29269   6.665   6.248   4.417
 9457SOL    HW129270   6.635   6.164   4.372
 9457SOL    HW229271   6.590   6.284   4.473
 9458SOL     OW29272   6.592   3.571   0.122
 9458SOL    HW129273   6.634   3.619   0.199
 9458SOL    HW229274   6.635   3.599   0.037
 9459SOL     OW29275   4.556   5.065   5.295
 9459SOL    HW129276   4.584   4.974   5.326
 9459SOL    HW229277   4.585   5.078   5.201
 9460SOL     OW29278   1.764   2.259   2.793
 9460SOL    HW129279   1.761   2.182   2.857
 9460SOL    HW229280   1.705   2.240   2.715
 9461SOL     OW29281   1.676   2.075   2.194
 9461SOL    HW129282   1.683   2.070   2.094
 9461SOL    HW229283   1.601   2.137   2.219
 9462SOL     OW29284   0.659   1.412   4.238
 9462SOL    HW129285   0.669   1.324   4.193
 9462SOL    HW229286   0.749   1.448   4.263
 9463SOL     OW29287   5.593   5.308   1.497
 9463SOL    HW129288   5.651   5.389   1.483
 9463SOL    HW229289   5.617   5.238   1.429
 9464SOL     OW29290   0.978   1.162   2.086
 9464SOL    HW129291   0.955   1.233   2.019
 9464SOL    HW229292   1.058   1.191   2.139
 9465SOL     OW29293   6.706   4.180   1.300
 9465SOL    HW129294   6.779   4.215   1.241
 9465SOL    HW229295   6.688   4.245   1.373
 9466SOL     OW29296   4.054   4.672   5.963
 9466SOL    HW129297   4.091   4.763   5.984
 9466SOL    HW229298   4.087   4.607   6.032
 9467SOL     OW29299   1.812   3.652   0.428
 9467SOL    HW129300   1.857   3.563   0.423
 9467SOL    HW229301   1.755   3.656   0.510
 9468SOL     OW29302   6.129   1.572   0.593
 9468SOL    HW129303   6.140   1.551   0.496
 9468SOL    HW229304   6.123   1.671   0.605
 9469SOL     OW29305   0.784   6.481   1.340
 9469SOL    HW129306   0.753   6.538   1.264
 9469SOL    HW229307   0.814   6.393   1.305
 9470SOL     OW29308   3.536   3.577   1.117
 9470SOL    HW129309   3.528   3.676   1.121
 9470SOL    HW229310   3.517   3.538   1.207
 9471SOL     OW29311   6.297   3.428   4.999
 9471SOL    HW129312   6.290   3.334   4.965
 9471SOL    HW229313   6.218   3.447   5.058
 9472SOL     OW29314   1.642   2.992   6.399
 9472SOL    HW129315   1.558   2.938   6.389
 9472SOL    HW229316   1.636   3.048   6.482
 9473SOL     OW29317   2.768   4.495   1.029
 9473SOL    HW129318   2.722   4.419   1.074
 9473SOL    HW229319   2.717   4.522   0.948
 9474SOL     OW29320   5.683   3.065   0.608
 9474SOL    HW129321   5.591   3.086   0.576
 9474SOL    HW229322   5.732   3.013   0.539
 9475SOL     OW29323   4.941   3.780   6.472
 9475SOL    HW129324   4.947   3.826   6.383
 9475SOL    HW229325   4.949   3.848   6.545
 9476SOL     OW29326   4.091   4.329   6.628
 9476SOL    HW129327   4.007   4.369   6.590
 9476SOL    HW229328   4.099   4.355   6.724
 9477SOL     OW29329   1.847   4.408   0.435
 9477SOL    HW129330   1.774   4.405   0.367
 9477SOL    HW229331   1.847   4.323   0.488
 9478SOL     OW29332   5.661   3.365   0.546
 9478SOL    HW129333   5.572   3.321   0.538
 9478SOL    HW229334   5.731   3.297   0.567
 9479SOL     OW29335   4.468   0.953   2.458
 9479SOL    HW129336   4.483   0.870   2.406
 9479SOL    HW229337   4.373   0.956   2.489
 9480SOL     OW29338   6.592   0.827   0.789
 9480SOL    HW129339   6.674   0.827   0.846
 9480SOL    HW229340   6.619   0.817   0.693
 9481SOL     OW29341   4.108   0.241   3.814
 9481SOL    HW129342   4.206   0.219   3.808
 9481SOL    HW229343   4.076   0.228   3.908
 9482SOL     OW29344   6.606   6.348   6.947
 9482SOL    HW129345   6.657   6.370   0.003
 9482SOL    HW229346   6.508   6.361   6.963
 9483SOL     OW29347   6.553   6.872   0.380
 9483SOL    HW129348   6.502   6.959   0.378
 9483SOL    HW229349   6.599   6.862   0.468
 9484SOL     OW29350   4.263   5.714   4.646
 9484SOL    HW129351   4.215   5.728   4.559
 9484SOL    HW229352   4.196   5.714   4.720
 9485SOL     OW29353   0.384   1.045   0.443
 9485SOL    HW129354   0.397   1.120   0.507
 9485SOL    HW229355   0.471   1.021   0.400
 9486SOL     OW29356   5.150   5.799   0.330
 9486SOL    HW129357   5.184   5.891   0.312
 9486SOL    HW229358   5.113   5.795   0.423
 9487SOL     OW29359   3.268   2.928   2.857
 9487SOL    HW129360   3.195   2.965   2.798
 9487SOL    HW229361   3.342   2.892   2.800
 9488SOL     OW29362   1.742   0.897   0.483
 9488SOL    HW129363   1.678   0.821   0.490
 9488SOL    HW229364   1.773   0.923   0.575
 9489SOL     OW29365   5.578   3.069   0.343
 9489SOL    HW129366   5.628   3.115   0.270
 9489SOL    HW229367   5.636   3.000   0.385
 9490SOL     OW29368   5.637   3.652   4.417
 9490SOL    HW129369   5.733   3.678   4.403
 9490SOL    HW229370   5.612   3.581   4.351
 9491SOL     OW29371   5.464   6.211   2.757
 9491SOL    HW129372   5.454   6.257   2.845
 9491SOL    HW229373   5.499   6.275   2.689
 9492SOL     OW29374   4.970   3.013   4.324
 9492SOL    HW129375   4.912   2.933   4.317
 9492SOL    HW229376   4.928   3.089   4.273
 9493SOL     OW29377   4.312   6.306   1.681
 9493SOL    HW129378   4.402   6.265   1.692
 9493SOL    HW229379   4.295   6.322   1.583
 9494SOL     OW29380   5.223   2.192   2.298
 9494SOL    HW129381   5.265   2.280   2.275
 9494SOL    HW229382   5.292   2.120   2.294
 9495SOL     OW29383   0.063   1.917   2.194
 9495SOL    HW129384   0.148   1.957   2.158
 9495SOL    HW229385   0.086   1.840   2.254
 9496SOL     OW29386   5.271   2.221   2.617
 9496SOL    HW129387   5.339   2.258   2.554
 9496SOL    HW229388   5.216   2.153   2.569
 9497SOL     OW29389   4.925   4.517   4.916
 9497SOL    HW129390   4.888   4.604   4.883
 9497SOL    HW229391   4.872   4.441   4.877
 9498SOL     OW29392   1.020   5.437   3.577
 9498SOL    HW129393   0.946   5.386   3.620
 9498SOL    HW229394   1.055   5.505   3.641
 9499SOL     OW29395   6.398   5.780   5.109
 9499SOL    HW129396   6.321   5.755   5.050
 9499SOL    HW229397   6.425   5.701   5.165
 9500SOL     OW29398   3.825   2.083   0.649
 9500SOL    HW129399   3.901   2.135   0.689
 9500SOL    HW229400   3.857   1.992   0.624
 9501SOL     OW29401   2.102   3.230   5.199
 9501SOL    HW129402   2.164   3.309   5.207
 9501SOL    HW229403   2.139   3.153   5.251
 9502SOL     OW29404   5.187   4.628   4.885
 9502SOL    HW129405   5.199   4.620   4.786
 9502SOL    HW229406   5.095   4.598   4.910
 9503SOL     OW29407   6.926   2.171   6.939
 9503SOL    HW129408   6.963   2.088   6.980
 9503SOL    HW229409   6.939   2.248   7.002
 9504SOL     OW29410   6.001   5.158   2.315
 9504SOL    HW129411   5.943   5.133   2.238
 9504SOL    HW229412   5.965   5.118   2.399
 9505SOL     OW29413   3.800   5.775   5.490
 9505SOL    HW129414   3.794   5.698   5.427
 9505SOL    HW229415   3.750   5.754   5.574
 9506SOL     OW29416   3.141   1.012   1.332
 9506SOL    HW129417   3.189   1.093   1.365
 9506SOL    HW229418   3.046   1.014   1.364
 9507SOL     OW29419   5.180   0.130   2.461
 9507SOL    HW129420   5.246   0.173   2.522
 9507SOL    HW229421   5.140   0.199   2.401
 9508SOL     OW29422   5.131   1.866   3.145
 9508SOL    HW129423   5.097   1.910   3.229
 9508SOL    HW229424   5.231   1.864   3.148
 9509SOL     OW29425   5.538   0.434   3.252
 9509SOL    HW129426   5.474   0.363   3.281
 9509SOL    HW229427   5.520   0.458   3.157
 9510SOL     OW29428   1.028   2.971   3.678
 9510SOL    HW129429   0.993   2.885   3.642
 9510SOL    HW229430   1.068   2.955   3.769
 9511SOL     OW29431   1.222   1.678   0.621
 9511SOL    HW129432   1.135   1.658   0.666
 9511SOL    HW229433   1.234   1.618   0.542
 9512SOL     OW29434   6.200   1.745   1.235
 9512SOL    HW129435   6.108   1.715   1.261
 9512SOL    HW229436   6.253   1.765   1.318
 9513SOL     OW29437   4.228   4.812   5.688
 9513SOL    HW129438   4.136   4.832   5.655
 9513SOL    HW229439   4.259   4.886   5.747
 9514SOL     OW29440   3.543   3.161   6.836
 9514SOL    HW129441   3.530   3.250   6.880
 9514SOL    HW229442   3.588   3.174   6.748
 9515SOL     OW29443   0.751   5.477   3.145
 9515SOL    HW129444   0.831   5.474   3.205
 9515SOL    HW229445   0.705   5.388   3.145
 9516SOL     OW29446   6.751   4.035   0.458
 9516SOL    HW129447   6.712   3.944   0.449
 9516SOL    HW229448   6.679   4.101   0.477
 9517SOL     OW29449   0.815   4.964   0.467
 9517SOL    HW129450   0.901   5.000   0.505
 9517SOL    HW229451   0.835   4.896   0.397
 9518SOL     OW29452   0.967   1.257   0.028
 9518SOL    HW129453   1.028   1.310   6.995
 9518SOL    HW229454   1.003   1.259   0.121
 9519SOL     OW29455   1.231   3.125   5.165
 9519SOL    HW129456   1.201   3.217   5.191
 9519SOL    HW229457   1.150   3.069   5.145
 9520SOL     OW29458   3.547   0.011   1.468
 9520SOL    HW129459   3.478   0.062   1.520
 9520SOL    HW229460   3.548   6.943   1.498
 9521SOL     OW29461   5.634   5.283   3.935
 9521SOL    HW129462   5.645   5.205   3.873
 9521SOL    HW229463   5.724   5.314   3.965
 9522SOL     OW29464   3.276   5.663   1.020
 9522SOL    HW129465   3.373   5.650   0.998
 9522SOL    HW229466   3.222   5.592   0.975
 9523SOL     OW29467   3.570   6.197   5.048
 9523SOL    HW129468   3.637   6.211   5.121
 9523SOL    HW229469   3.478   6.216   5.083
 9524SOL     OW29470   4.786   2.839   0.873
 9524SOL    HW129471   4.754   2.858   0.966
 9524SOL    HW229472   4.879   2.875   0.862
 9525SOL     OW29473   3.482   0.529   6.216
 9525SOL    HW129474   3.542   0.469   6.268
 9525SOL    HW229475   3.511   0.530   6.120
 9526SOL     OW29476   5.603   5.551   1.894
 9526SOL    HW129477   5.601   5.456   1.925
 9526SOL    HW229478   5.617   5.611   1.972
 9527SOL     OW29479   5.959   1.976   1.871
 9527SOL    HW129480   5.929   1.943   1.782
 9527SOL    HW229481   6.003   2.066   1.861
 9528SOL     OW29482   6.460   0.939   2.416
 9528SOL    HW129483   6.481   1.035   2.397
 9528SOL    HW229484   6.363   0.922   2.400
 9529SOL     OW29485   0.727   3.426   4.955
 9529SOL    HW129486   0.733   3.382   4.866
 9529SOL    HW229487   0.632   3.449   4.975
 9530SOL     OW29488   1.708   2.404   4.412
 9530SOL    HW129489   1.718   2.397   4.511
 9530SOL    HW229490   1.703   2.501   4.386
 9531SOL     OW29491   2.969   6.181   3.197
 9531SOL    HW129492   3.053   6.152   3.242
 9531SOL    HW229493   2.989   6.214   3.105
 9532SOL     OW29494   2.601   1.118   1.535
 9532SOL    HW129495   2.645   1.204   1.508
 9532SOL    HW229496   2.564   1.127   1.627
 9533SOL     OW29497   2.064   0.222   5.194
 9533SOL    HW129498   2.011   0.175   5.264
 9533SOL    HW229499   2.034   0.317   5.188
 9534SOL     OW29500   4.831   1.902   4.869
 9534SOL    HW129501   4.744   1.854   4.874
 9534SOL    HW229502   4.861   1.927   4.962
 9535SOL     OW29503   2.143   2.198   5.586
 9535SOL    HW129504   2.176   2.292   5.572
 9535SOL    HW229505   2.116   2.187   5.682
 9536SOL     OW29506   2.806   6.900   6.547
 9536SOL    HW129507   2.906   6.899   6.560
 9536SOL    HW229508   2.776   6.812   6.509
 9537SOL     OW29509   2.973   6.847   1.179
 9537SOL    HW129510   2.968   6.946   1.186
 9537SOL    HW229511   3.068   6.818   1.171
 9538SOL     OW29512   5.853   3.240   3.769
 9538SOL    HW129513   5.849   3.268   3.865
 9538SOL    HW229514   5.760   3.224   3.735
 9539SOL     OW29515   0.288   5.155   1.245
 9539SOL    HW129516   0.311   5.072   1.296
 9539SOL    HW229517   0.370   5.191   1.200
 9540SOL     OW29518   5.424   3.691   4.880
 9540SOL    HW129519   5.378   3.619   4.827
 9540SOL    HW229520   5.377   3.703   4.967
 9541SOL     OW29521   1.390   1.788   3.671
 9541SOL    HW129522   1.467   1.851   3.668
 9541SOL    HW229523   1.386   1.745   3.762
 9542SOL     OW29524   5.029   3.829   4.656
 9542SOL    HW129525   5.063   3.790   4.742
 9542SOL    HW229526   5.000   3.755   4.595
 9543SOL     OW29527   4.924   2.279   1.985
 9543SOL    HW129528   5.018   2.309   1.997
 9543SOL    HW229529   4.866   2.320   2.055
 9544SOL     OW29530   3.321   1.708   2.264
 9544SOL    HW129531   3.338   1.613   2.291
 9544SOL    HW229532   3.286   1.709   2.170
 9545SOL     OW29533   0.210   6.916   4.269
 9545SOL    HW129534   0.184   6.861   4.190
 9545SOL    HW229535   0.223   7.011   4.240
 9546SOL     OW29536   2.496   4.542   1.253
 9546SOL    HW129537   2.507   4.518   1.349
 9546SOL    HW229538   2.554   4.484   1.196
 9547SOL     OW29539   6.310   5.884   3.003
 9547SOL    HW129540   6.366   5.945   3.059
 9547SOL    HW229541   6.368   5.839   2.935
 9548SOL     OW29542   4.662   6.286   2.670
 9548SOL    HW129543   4.684   6.372   2.624
 9548SOL    HW229544   4.632   6.304   2.763
 9549SOL     OW29545   2.733   5.742   0.702
 9549SOL    HW129546   2.720   5.813   0.633
 9549SOL    HW229547   2.696   5.655   0.668
 9550SOL     OW29548   1.003   1.715   0.403
 9550SOL    HW129549   1.054   1.692   0.320
 9550SOL    HW229550   0.909   1.739   0.378
 9551SOL     OW29551   2.340   6.031   5.051
 9551SOL    HW129552   2.347   6.090   4.970
 9551SOL    HW229553   2.268   6.065   5.111
 9552SOL     OW29554   1.263   5.298   3.544
 9552SOL    HW129555   1.170   5.322   3.571
 9552SOL    HW229556   1.311   5.381   3.516
 9553SOL     OW29557   5.160   4.799   5.476
 9553SOL    HW129558   5.202   4.757   5.395
 9553SOL    HW229559   5.076   4.847   5.449
 9554SOL     OW29560   2.422   1.313   1.996
 9554SOL    HW129561   2.381   1.222   1.998
 9554SOL    HW229562   2.461   1.330   1.906
 9555SOL     OW29563   6.448   2.328   6.601
 9555SOL    HW129564   6.498   2.294   6.680
 9555SOL    HW229565   6.428   2.425   6.613
 9556SOL     OW29566   0.055   1.653   1.180
 9556SOL    HW129567   0.081   1.641   1.276
 9556SOL    HW229568   7.020   1.580   1.152
 9557SOL     OW29569   5.422   2.141   1.748
 9557SOL    HW129570   5.395   2.237   1.759
 9557SOL    HW229571   5.413   2.115   1.652
 9558SOL     OW29572   6.301   4.756   1.774
 9558SOL    HW129573   6.317   4.747   1.676
 9558SOL    HW229574   6.205   4.734   1.794
 9559SOL     OW29575   6.799   2.752   2.111
 9559SOL    HW129576   6.748   2.753   2.197
 9559SOL    HW229577   6.736   2.774   2.036
 9560SOL     OW29578   3.084   1.917   4.389
 9560SOL    HW129579   3.009   1.938   4.325
 9560SOL    HW229580   3.152   1.990   4.385
 9561SOL     OW29581   4.280   0.037   0.930
 9561SOL    HW129582   4.274   6.968   0.901
 9561SOL    HW229583   4.192   0.082   0.915
 9562SOL     OW29584   5.851   5.570   3.252
 9562SOL    HW129585   5.764   5.546   3.294
 9562SOL    HW229586   5.838   5.586   3.155
 9563SOL     OW29587   0.181   5.731   6.703
 9563SOL    HW129588   0.215   5.825   6.705
 9563SOL    HW229589   0.112   5.719   6.775
 9564SOL     OW29590   2.297   0.148   0.006
 9564SOL    HW129591   2.358   0.117   6.960
 9564SOL    HW229592   2.307   0.246   0.019
 9565SOL     OW29593   4.097   6.046   4.478
 9565SOL    HW129594   4.005   6.073   4.508
 9565SOL    HW229595   4.134   6.117   4.419
 9566SOL     OW29596   3.376   4.777   5.157
 9566SOL    HW129597   3.401   4.687   5.191
 9566SOL    HW229598   3.276   4.786   5.157
 9567SOL     OW29599   6.121   6.030   5.741
 9567SOL    HW129600   6.058   6.100   5.707
 9567SOL    HW229601   6.073   5.969   5.804
 9568SOL     OW29602   5.243   3.547   6.519
 9568SOL    HW129603   5.194   3.463   6.496
 9568SOL    HW229604   5.181   3.625   6.512
 9569SOL     OW29605   6.166   0.141   1.375
 9569SOL    HW129606   6.237   0.087   1.420
 9569SOL    HW229607   6.090   0.155   1.439
 9570SOL     OW29608   0.719   0.136   6.780
 9570SOL    HW129609   0.683   0.098   6.865
 9570SOL    HW229610   0.731   0.063   6.713
 9571SOL     OW29611   2.278   3.274   0.013
 9571SOL    HW129612   2.254   3.191   0.064
 9571SOL    HW229613   2.342   3.251   6.966
 9572SOL     OW29614   0.596   4.110   0.772
 9572SOL    HW129615   0.599   4.129   0.673
 9572SOL    HW229616   0.514   4.153   0.811
 9573SOL     OW29617   6.531   1.884   1.741
 9573SOL    HW129618   6.474   1.967   1.742
 9573SOL    HW229619   6.488   1.813   1.796
 9574SOL     OW29620   2.346   2.026   4.785
 9574SOL    HW129621   2.303   1.960   4.847
 9574SOL    HW229622   2.276   2.088   4.749
 9575SOL     OW29623   4.865   0.851   1.884
 9575SOL    HW129624   4.802   0.884   1.813
 9575SOL    HW229625   4.831   0.879   1.973
 9576SOL     OW29626   3.857   1.401   4.921
 9576SOL    HW129627   3.936   1.460   4.907
 9576SOL    HW229628   3.808   1.431   5.003
 9577SOL     OW29629   0.225   6.197   3.032
 9577SOL    HW129630   0.212   6.268   3.101
 9577SOL    HW229631   0.282   6.124   3.071
 9578SOL     OW29632   5.851   3.691   1.584
 9578SOL    HW129633   5.908   3.608   1.580
 9578SOL    HW229634   5.764   3.670   1.628
 9579SOL     OW29635   1.068   6.446   2.638
 9579SOL    HW129636   1.097   6.400   2.722
 9579SOL    HW229637   0.969   6.442   2.630
 9580SOL     OW29638   4.232   3.913   6.402
 9580SOL    HW129639   4.233   3.817   6.430
 9580SOL    HW229640   4.215   3.919   6.304
 9581SOL     OW29641   1.603   5.186   6.142
 9581SOL    HW129642   1.661   5.115   6.103
 9581SOL    HW229643   1.549   5.148   6.217
 9582SOL     OW29644   4.493   4.949   4.828
 9582SOL    HW129645   4.516   4.934   4.732
 9582SOL    HW229646   4.483   5.048   4.845
 9583SOL     OW29647   2.438   4.307   1.839
 9583SOL    HW129648   2.361   4.243   1.839
 9583SOL    HW229649   2.408   4.396   1.872
 9584SOL     OW29650   5.499   5.737   6.719
 9584SOL    HW129651   5.579   5.702   6.671
 9584SOL    HW229652   5.451   5.661   6.764
 9585SOL     OW29653   0.272   6.799   3.962
 9585SOL    HW129654   0.309   6.708   3.983
 9585SOL    HW229655   0.348   6.863   3.951
 9586SOL     OW29656   5.248   3.457   2.324
 9586SOL    HW129657   5.217   3.376   2.373
 9586SOL    HW229658   5.173   3.523   2.315
 9587SOL     OW29659   4.703   6.585   2.599
 9587SOL    HW129660   4.690   6.684   2.610
 9587SOL    HW229661   4.703   6.563   2.502
 9588SOL     OW29662   7.024   0.744   3.210
 9588SOL    HW129663   0.075   0.769   3.152
 9588SOL    HW229664   0.001   0.646   3.229
 9589SOL     OW29665   2.343   2.077   5.835
 9589SOL    HW129666   2.347   2.101   5.932
 9589SOL    HW229667   2.396   2.143   5.782
 9590SOL     OW29668   0.034   4.500   4.592
 9590SOL    HW129669   0.004   4.469   4.502
 9590SOL    HW229670   0.021   4.599   4.600
 9591SOL     OW29671   1.549   4.645   2.316
 9591SOL    HW129672   1.592   4.555   2.306
 9591SOL    HW229673   1.453   4.640   2.286
 9592SOL     OW29674   5.205   5.478   2.217
 9592SOL    HW129675   5.109   5.503   2.206
 9592SOL    HW229676   5.213   5.379   2.227
 9593SOL     OW29677   1.802   3.151   4.329
 9593SOL    HW129678   1.851   3.210   4.393
 9593SOL    HW229679   1.835   3.057   4.339
 9594SOL     OW29680   6.120   6.529   2.088
 9594SOL    HW129681   6.054   6.578   2.146
 9594SOL    HW229682   6.160   6.594   2.023
 9595SOL     OW29683   1.034   4.055   4.540
 9595SOL    HW129684   1.095   4.123   4.581
 9595SOL    HW229685   0.939   4.087   4.546
 9596SOL     OW29686   4.845   5.430   2.706
 9596SOL    HW129687   4.888   5.344   2.732
 9596SOL    HW229688   4.764   5.412   2.651
 9597SOL     OW29689   1.717   3.943   1.120
 9597SOL    HW129690   1.711   4.034   1.162
 9597SOL    HW229691   1.802   3.899   1.149
 9598SOL     OW29692   1.067   5.970   5.750
 9598SOL    HW129693   1.138   5.901   5.767
 9598SOL    HW229694   0.981   5.924   5.727
 9599SOL     OW29695   4.791   1.563   4.027
 9599SOL    HW129696   4.823   1.655   4.049
 9599SOL    HW229697   4.869   1.500   4.025
 9600SOL     OW29698   1.417   6.296   0.110
 9600SOL    HW129699   1.501   6.246   0.091
 9600SOL    HW229700   1.387   6.343   0.027
 9601SOL     OW29701   0.712   5.942   6.085
 9601SOL    HW129702   0.707   6.011   6.013
 9601SOL    HW229703   0.785   5.965   6.149
 9602SOL     OW29704   0.985   5.845   0.481
 9602SOL    HW129705   1.050   5.777   0.445
 9602SOL    HW229706   0.916   5.799   0.537
 9603SOL     OW29707   1.087   4.579   3.886
 9603SOL    HW129708   1.175   4.532   3.900
 9603SOL    HW229709   1.035   4.578   3.971
 9604SOL     OW29710   6.896   0.140   0.537
 9604SOL    HW129711   6.805   0.131   0.576
 9604SOL    HW229712   6.927   0.235   0.544
 9605SOL     OW29713   2.524   5.616   0.103
 9605SOL    HW129714   2.585   5.687   0.137
 9605SOL    HW229715   2.490   5.642   0.012
 9606SOL     OW29716   6.207   0.077   4.880
 9606SOL    HW129717   6.281   0.065   4.813
 9606SOL    HW229718   6.240   0.131   4.957
 9607SOL     OW29719   0.531   2.741   2.390
 9607SOL    HW129720   0.588   2.822   2.405
 9607SOL    HW229721   0.487   2.715   2.476
 9608SOL     OW29722   6.740   0.311   2.836
 9608SOL    HW129723   6.808   0.266   2.777
 9608SOL    HW229724   6.776   0.318   2.929
 9609SOL     OW29725   1.766   2.048   3.256
 9609SOL    HW129726   1.839   2.077   3.318
 9609SOL    HW229727   1.747   2.122   3.191
 9610SOL     OW29728   3.334   2.429   6.111
 9610SOL    HW129729   3.372   2.515   6.146
 9610SOL    HW229730   3.407   2.362   6.102
 9611SOL     OW29731   6.051   5.923   0.964
 9611SOL    HW129732   6.020   5.960   1.052
 9611SOL    HW229733   6.133   5.867   0.979
 9612SOL     OW29734   4.866   3.822   2.982
 9612SOL    HW129735   4.916   3.855   2.902
 9612SOL    HW229736   4.770   3.848   2.974
 9613SOL     OW29737   6.039   6.538   5.711
 9613SOL    HW129738   5.950   6.492   5.706
 9613SOL    HW229739   6.037   6.621   5.655
 9614SOL     OW29740   3.572   3.024   2.003
 9614SOL    HW129741   3.480   3.060   1.986
 9614SOL    HW229742   3.567   2.951   2.072
 9615SOL     OW29743   0.573   6.557   3.516
 9615SOL    HW129744   0.539   6.527   3.427
 9615SOL    HW229745   0.499   6.554   3.583
 9616SOL     OW29746   2.123   3.298   1.233
 9616SOL    HW129747   2.113   3.198   1.230
 9616SOL    HW229748   2.157   3.325   1.324
 9617SOL     OW29749   0.960   3.505   2.386
 9617SOL    HW129750   1.041   3.481   2.440
 9617SOL    HW229751   0.959   3.604   2.369
 9618SOL     OW29752   3.924   4.789   0.676
 9618SOL    HW129753   3.974   4.823   0.756
 9618SOL    HW229754   3.920   4.861   0.607
 9619SOL     OW29755   1.938   0.030   1.007
 9619SOL    HW129756   1.931   6.963   0.973
 9619SOL    HW229757   1.866   0.046   1.074
 9620SOL     OW29758   3.763   1.737   0.047
 9620SOL    HW129759   3.714   1.812   0.003
 9620SOL    HW229760   3.802   1.676   7.005
 9621SOL     OW29761   0.927   2.257   2.060
 9621SOL    HW129762   0.934   2.189   2.133
 9621SOL    HW229763   0.845   2.313   2.075
 9622SOL     OW29764   0.241   6.015   5.602
 9622SOL    HW129765   0.198   6.094   5.645
 9622SOL    HW229766   0.331   6.042   5.567
 9623SOL     OW29767   4.837   6.952   5.981
 9623SOL    HW129768   4.773   6.972   6.055
 9623SOL    HW229769   4.821   6.858   5.948
 9624SOL     OW29770   4.792   5.405   4.958
 9624SOL    HW129771   4.765   5.483   5.015
 9624SOL    HW229772   4.819   5.437   4.868
 9625SOL     OW29773   4.842   3.669   5.573
 9625SOL    HW129774   4.913   3.615   5.529
 9625SOL    HW229775   4.835   3.643   5.669
 9626SOL     OW29776   1.942   2.352   6.532
 9626SOL    HW129777   1.894   2.433   6.498
 9626SOL    HW229778   1.969   2.366   6.627
 9627SOL     OW29779   0.547   5.269   0.396
 9627SOL    HW129780   0.455   5.259   0.432
 9627SOL    HW229781   0.564   5.365   0.372
 9628SOL     OW29782   6.044   1.303   6.018
 9628SOL    HW129783   6.126   1.315   5.962
 9628SOL    HW229784   6.067   1.320   6.114
 9629SOL     OW29785   0.325   5.390   4.047
 9629SOL    HW129786   0.346   5.296   4.019
 9629SOL    HW229787   0.302   5.390   4.145
 9630SOL     OW29788   5.852   0.322   5.274
 9630SOL    HW129789   5.873   0.415   5.246
 9630SOL    HW229790   5.772   0.323   5.334
 9631SOL     OW29791   3.304   6.994   0.364
 9631SOL    HW129792   3.362   0.047   0.380
 9631SOL    HW229793   3.344   6.938   0.292
 9632SOL     OW29794   3.372   5.460   2.294
 9632SOL    HW129795   3.454   5.420   2.336
 9632SOL    HW229796   3.372   5.440   2.196
 9633SOL     OW29797   3.752   3.275   3.006
 9633SOL    HW129798   3.670   3.218   3.004
 9633SOL    HW229799   3.748   3.343   2.933
 9634SOL     OW29800   5.661   4.997   3.336
 9634SOL    HW129801   5.756   4.993   3.303
 9634SOL    HW229802   5.599   5.006   3.258
 9635SOL     OW29803   1.108   5.274   3.993
 9635SOL    HW129804   1.150   5.226   4.071
 9635SOL    HW229805   1.180   5.316   3.938
 9636SOL     OW29806   5.276   3.686   4.180
 9636SOL    HW129807   5.333   3.769   4.182
 9636SOL    HW229808   5.212   3.692   4.103
 9637SOL     OW29809   1.594   3.228   0.287
 9637SOL    HW129810   1.692   3.240   0.268
 9637SOL    HW229811   1.560   3.309   0.335
 9638SOL     OW29812   5.532   5.680   5.561
 9638SOL    HW129813   5.579   5.740   5.625
 9638SOL    HW229814   5.435   5.704   5.557
 9639SOL     OW29815   4.247   1.799   2.018
 9639SOL    HW129816   4.182   1.861   2.062
 9639SOL    HW229817   4.329   1.850   1.991
 9640SOL     OW29818   4.538   0.356   3.175
 9640SOL    HW129819   4.555   0.391   3.267
 9640SOL    HW229820   4.625   0.340   3.129
 9641SOL     OW29821   6.287   3.437   3.305
 9641SOL    HW129822   6.278   3.521   3.359
 9641SOL    HW229823   6.321   3.363   3.363
 9642SOL     OW29824   1.288   0.168   4.442
 9642SOL    HW129825   1.260   0.212   4.528
 9642SOL    HW229826   1.207   0.146   4.388
 9643SOL     OW29827   4.769   5.186   4.605
 9643SOL    HW129828   4.698   5.179   4.535
 9643SOL    HW229829   4.846   5.239   4.569
 9644SOL     OW29830   1.668   5.469   4.149
 9644SOL    HW129831   1.755   5.419   4.148
 9644SOL    HW229832   1.643   5.489   4.244
 9645SOL     OW29833   0.667   4.719   6.243
 9645SOL    HW129834   0.609   4.790   6.202
 9645SOL    HW229835   0.675   4.642   6.179
 9646SOL     OW29836   4.694   5.370   6.510
 9646SOL    HW129837   4.702   5.310   6.589
 9646SOL    HW229838   4.597   5.385   6.489
 9647SOL     OW29839   6.483   6.647   3.350
 9647SOL    HW129840   6.576   6.614   3.332
 9647SOL    HW229841   6.443   6.594   3.425
 9648SOL     OW29842   4.241   1.974   1.025
 9648SOL    HW129843   4.266   2.021   0.940
 9648SOL    HW229844   4.311   1.907   1.049
 9649SOL     OW29845   1.022   5.632   0.094
 9649SOL    HW129846   0.948   5.691   0.130
 9649SOL    HW229847   1.030   5.646   7.022
 9650SOL     OW29848   0.076   4.761   4.260
 9650SOL    HW129849   0.136   4.830   4.219
 9650SOL    HW229850   0.112   4.670   4.241
 9651SOL     OW29851   4.100   1.691   0.348
 9651SOL    HW129852   4.184   1.638   0.358
 9651SOL    HW229853   4.122   1.789   0.352
 9652SOL     OW29854   0.493   4.131   0.491
 9652SOL    HW129855   0.573   4.095   0.444
 9652SOL    HW229856   0.410   4.106   0.442
 9653SOL     OW29857   4.590   4.172   6.050
 9653SOL    HW129858   4.607   4.089   5.996
 9653SOL    HW229859   4.630   4.251   6.003
 9654SOL     OW29860   3.578   3.611   3.034
 9654SOL    HW129861   3.589   3.696   3.084
 9654SOL    HW229862   3.556   3.537   3.097
 9655SOL     OW29863   4.285   1.292   1.140
 9655SOL    HW129864   4.197   1.323   1.176
 9655SOL    HW229865   4.287   1.304   1.041
 9656SOL     OW29866   5.990   3.849   0.042
 9656SOL    HW129867   5.943   3.903   6.999
 9656SOL    HW229868   5.924   3.814   0.108
 9657SOL     OW29869   5.623   3.921   4.039
 9657SOL    HW129870   5.640   4.011   3.999
 9657SOL    HW229871   5.525   3.910   4.057
 9658SOL     OW29872   4.721   1.921   2.329
 9658SOL    HW129873   4.794   1.926   2.262
 9658SOL    HW229874   4.754   1.875   2.411
 9659SOL     OW29875   2.610   3.006   6.427
 9659SOL    HW129876   2.648   2.948   6.355
 9659SOL    HW229877   2.681   3.026   6.495
 9660SOL     OW29878   1.449   6.298   1.919
 9660SOL    HW129879   1.488   6.362   1.853
 9660SOL    HW229880   1.511   6.222   1.933
 9661SOL     OW29881   4.521   3.753   0.895
 9661SOL    HW129882   4.607   3.793   0.865
 9661SOL    HW229883   4.524   3.738   0.994
 9662SOL     OW29884   5.470   5.384   6.008
 9662SOL    HW129885   5.373   5.373   6.030
 9662SOL    HW229886   5.514   5.442   6.077
 9663SOL     OW29887   0.978   5.236   2.356
 9663SOL    HW129888   1.024   5.295   2.423
 9663SOL    HW229889   0.899   5.192   2.399
 9664SOL     OW29890   4.738   4.653   2.319
 9664SOL    HW129891   4.837   4.651   2.303
 9664SOL    HW229892   4.692   4.592   2.254
 9665SOL     OW29893   6.813   5.934   6.466
 9665SOL    HW129894   6.716   5.912   6.471
 9665SOL    HW229895   6.859   5.871   6.404
 9666SOL     OW29896   5.825   4.063   6.957
 9666SOL    HW129897   5.755   3.993   6.949
 9666SOL    HW229898   5.861   4.085   6.866
 9667SOL     OW29899   5.894   6.061   6.234
 9667SOL    HW129900   5.913   6.129   6.305
 9667SOL    HW229901   5.829   5.993   6.269
 9668SOL     OW29902   0.782   0.801   6.412
 9668SOL    HW129903   0.881   0.801   6.427
 9668SOL    HW229904   0.745   0.711   6.435
 9669SOL     OW29905   3.513   0.511   0.198
 9669SOL    HW129906   3.428   0.542   0.154
 9669SOL    HW229907   3.559   0.589   0.240
 9670SOL     OW29908   0.076   0.091   0.367
 9670SOL    HW129909   0.084   0.140   0.281
 9670SOL    HW229910   7.024   0.125   0.418
 9671SOL     OW29911   1.285   5.177   6.545
 9671SOL    HW129912   1.293   5.273   6.574
 9671SOL    HW229913   1.189   5.155   6.530
 9672SOL     OW29914   0.894   3.336   3.998
 9672SOL    HW129915   0.817   3.400   4.000
 9672SOL    HW229916   0.894   3.288   3.910
 9673SOL     OW29917   2.062   3.426   0.152
 9673SOL    HW129918   1.987   3.427   0.086
 9673SOL    HW229919   2.147   3.400   0.105
 9674SOL     OW29920   2.529   6.352   4.433
 9674SOL    HW129921   2.506   6.410   4.355
 9674SOL    HW229922   2.594   6.399   4.492
 9675SOL     OW29923   5.879   3.339   6.587
 9675SOL    HW129924   5.946   3.397   6.632
 9675SOL    HW229925   5.821   3.295   6.656
 9676SOL     OW29926   0.783   2.562   0.146
 9676SOL    HW129927   0.790   2.639   0.209
 9676SOL    HW229928   0.855   2.567   0.077
 9677SOL     OW29929   0.009   5.285   1.463
 9677SOL    HW129930   0.082   5.236   1.416
 9677SOL    HW229931   0.010   5.261   1.560
 9678SOL     OW29932   3.576   3.310   5.164
 9678SOL    HW129933   3.482   3.306   5.197
 9678SOL    HW229934   3.590   3.241   5.093
 9679SOL     OW29935   1.751   1.454   4.527
 9679SOL    HW129936   1.771   1.452   4.429
 9679SOL    HW229937   1.794   1.375   4.571
 9680SOL     OW29938   4.895   6.340   2.106
 9680SOL    HW129939   4.957   6.418   2.095
 9680SOL    HW229940   4.926   6.284   2.183
 9681SOL     OW29941   1.152   1.737   1.725
 9681SOL    HW129942   1.117   1.646   1.747
 9681SOL    HW229943   1.152   1.749   1.626
 9682SOL     OW29944   4.777   6.086   5.766
 9682SOL    HW129945   4.803   6.040   5.682
 9682SOL    HW229946   4.759   6.182   5.748
 9683SOL     OW29947   3.119   6.249   2.419
 9683SOL    HW129948   3.132   6.305   2.501
 9683SOL    HW229949   3.154   6.157   2.437
 9684SOL     OW29950   0.131   3.413   5.586
 9684SOL    HW129951   0.055   3.469   5.619
 9684SOL    HW229952   0.097   3.324   5.557
 9685SOL     OW29953   3.916   4.141   1.336
 9685SOL    HW129954   3.921   4.152   1.436
 9685SOL    HW229955   3.853   4.067   1.313
 9686SOL     OW29956   6.666   1.708   5.435
 9686SOL    HW129957   6.590   1.763   5.469
 9686SOL    HW229958   6.734   1.767   5.393
 9687SOL     OW29959   5.917   1.288   3.136
 9687SOL    HW129960   5.984   1.241   3.195
 9687SOL    HW229961   5.957   1.373   3.102
 9688SOL     OW29962   1.006   4.381   1.099
 9688SOL    HW129963   0.932   4.322   1.131
 9688SOL    HW229964   1.078   4.385   1.168
 9689SOL     OW29965   2.396   6.029   1.108
 9689SOL    HW129966   2.313   5.976   1.089
 9689SOL    HW229967   2.439   6.056   1.022
 9690SOL     OW29968   6.591   5.075   5.040
 9690SOL    HW129969   6.681   5.113   5.061
 9690SOL    HW229970   6.560   5.110   4.952
 9691SOL     OW29971   2.851   3.798   1.750
 9691SOL    HW129972   2.946   3.820   1.727
 9691SOL    HW229973   2.848   3.751   1.838
 9692SOL     OW29974   4.883   4.160   0.806
 9692SOL    HW129975   4.971   4.200   0.831
 9692SOL    HW229976   4.859   4.186   0.712
 9693SOL     OW29977   5.085   3.153   5.376
 9693SOL    HW129978   5.158   3.210   5.338
 9693SOL    HW229979   5.060   3.188   5.467
 9694SOL     OW29980   2.656   0.273   2.084
 9694SOL    HW129981   2.738   0.323   2.056
 9694SOL    HW229982   2.624   0.307   2.172
 9695SOL     OW29983   0.900   2.568   3.127
 9695SOL    HW129984   0.926   2.656   3.164
 9695SOL    HW229985   0.802   2.569   3.104
 9696SOL     OW29986   4.874   2.575   3.439
 9696SOL    HW129987   4.879   2.477   3.420
 9696SOL    HW229988   4.897   2.626   3.357
 9697SOL     OW29989   0.572   6.864   1.104
 9697SOL    HW129990   0.574   6.884   1.006
 9697SOL    HW229991   0.495   6.804   1.124
 9698SOL     OW29992   6.201   3.674   1.622
 9698SOL    HW129993   6.178   3.772   1.622
 9698SOL    HW229994   6.135   3.625   1.679
 9699SOL     OW29995   1.309   6.313   0.738
 9699SOL    HW129996   1.350   6.223   0.727
 9699SOL    HW229997   1.211   6.302   0.755
 9700SOL     OW29998   5.526   0.327   5.236
 9700SOL    HW129999   5.557   0.414   5.197
 9700SOL    HW230000   5.552   0.322   5.332
 9701SOL     OW30001   4.068   4.049   6.561
 9701SOL    HW130002   4.139   4.011   6.502
 9701SOL    HW230003   4.078   4.148   6.567
 9702SOL     OW30004   3.596   3.616   1.911
 9702SOL    HW130005   3.646   3.531   1.927
 9702SOL    HW230006   3.499   3.596   1.902
 9703SOL     OW30007   6.702   4.401   4.619
 9703SOL    HW130008   6.606   4.374   4.612
 9703SOL    HW230009   6.758   4.336   4.569
 9704SOL     OW30010   1.588   3.869   2.950
 9704SOL    HW130011   1.639   3.805   2.892
 9704SOL    HW230012   1.570   3.827   3.039
 9705SOL     OW30013   6.269   3.668   5.345
 9705SOL    HW130014   6.172   3.650   5.330
 9705SOL    HW230015   6.278   3.749   5.403
 9706SOL     OW30016   0.653   1.594   2.763
 9706SOL    HW130017   0.714   1.533   2.712
 9706SOL    HW230018   0.668   1.688   2.735
 9707SOL     OW30019   1.258   5.067   2.268
 9707SOL    HW130020   1.178   5.008   2.275
 9707SOL    HW230021   1.312   5.060   2.352
 9708SOL     OW30022   2.510   0.769   1.401
 9708SOL    HW130023   2.586   0.804   1.346
 9708SOL    HW230024   2.515   0.669   1.406
 9709SOL     OW30025   5.570   1.883   1.587
 9709SOL    HW130026   5.567   1.791   1.548
 9709SOL    HW230027   5.509   1.887   1.666
 9710SOL     OW30028   6.758   5.612   3.814
 9710SOL    HW130029   6.758   5.675   3.892
 9710SOL    HW230030   6.849   5.611   3.772
 9711SOL     OW30031   3.497   0.957   0.745
 9711SOL    HW130032   3.520   0.975   0.650
 9711SOL    HW230033   3.400   0.977   0.761
 9712SOL     OW30034   5.447   1.783   6.280
 9712SOL    HW130035   5.529   1.726   6.279
 9712SOL    HW230036   5.473   1.879   6.281
 9713SOL     OW30037   1.038   6.489   2.908
 9713SOL    HW130038   1.008   6.571   2.860
 9713SOL    HW230039   1.122   6.509   2.960
 9714SOL     OW30040   2.401   4.471   4.195
 9714SOL    HW130041   2.415   4.417   4.278
 9714SOL    HW230042   2.423   4.416   4.115
 9715SOL     OW30043   6.857   3.442   6.934
 9715SOL    HW130044   6.897   3.396   6.854
 9715SOL    HW230045   6.851   3.378   7.010
 9716SOL     OW30046   2.093   5.318   0.166
 9716SOL    HW130047   2.017   5.253   0.168
 9716SOL    HW230048   2.179   5.269   0.151
 9717SOL     OW30049   4.161   2.208   5.539
 9717SOL    HW130050   4.164   2.243   5.633
 9717SOL    HW230051   4.116   2.119   5.538
 9718SOL     OW30052   3.930   2.656   6.290
 9718SOL    HW130053   4.016   2.696   6.259
 9718SOL    HW230054   3.946   2.599   6.371
 9719SOL     OW30055   5.011   0.070   5.829
 9719SOL    HW130056   4.930   0.033   5.875
 9719SOL    HW230057   5.088   0.073   5.894
 9720SOL     OW30058   2.210   3.070   3.288
 9720SOL    HW130059   2.186   3.158   3.328
 9720SOL    HW230060   2.197   3.074   3.189
 9721SOL     OW30061   0.782   1.250   0.308
 9721SOL    HW130062   0.770   1.344   0.342
 9721SOL    HW230063   0.869   1.214   0.342
 9722SOL     OW30064   4.276   2.672   5.359
 9722SOL    HW130065   4.210   2.618   5.308
 9722SOL    HW230066   4.234   2.758   5.387
 9723SOL     OW30067   6.430   0.044   4.705
 9723SOL    HW130068   6.488   6.999   4.743
 9723SOL    HW230069   6.486   0.112   4.657
 9724SOL     OW30070   1.595   5.479   0.089
 9724SOL    HW130071   1.680   5.506   0.042
 9724SOL    HW230072   1.615   5.406   0.154
 9725SOL     OW30073   4.296   5.301   4.841
 9725SOL    HW130074   4.230   5.283   4.769
 9725SOL    HW230075   4.389   5.295   4.804
 9726SOL     OW30076   0.066   1.267   3.955
 9726SOL    HW130077   0.066   1.332   3.880
 9726SOL    HW230078   0.150   1.212   3.952
 9727SOL     OW30079   0.338   1.365   0.996
 9727SOL    HW130080   0.265   1.304   1.024
 9727SOL    HW230081   0.413   1.312   0.956
 9728SOL     OW30082   4.809   1.662   4.698
 9728SOL    HW130083   4.904   1.665   4.668
 9728SOL    HW230084   4.793   1.737   4.763
 9729SOL     OW30085   0.495   5.000   2.801
 9729SOL    HW130086   0.435   5.079   2.786
 9729SOL    HW230087   0.536   4.972   2.714
 9730SOL     OW30088   0.584   3.975   3.030
 9730SOL    HW130089   0.647   4.038   3.075
 9730SOL    HW230090   0.492   4.015   3.029
 9731SOL     OW30091   5.163   3.606   1.667
 9731SOL    HW130092   5.144   3.643   1.577
 9731SOL    HW230093   5.180   3.507   1.660
 9732SOL     OW30094   1.856   3.217   3.281
 9732SOL    HW130095   1.882   3.161   3.202
 9732SOL    HW230096   1.828   3.308   3.250
 9733SOL     OW30097   5.934   4.893   2.422
 9733SOL    HW130098   6.009   4.829   2.407
 9733SOL    HW230099   5.959   4.957   2.495
 9734SOL     OW30100   5.056   5.739   6.470
 9734SOL    HW130101   4.976   5.788   6.506
 9734SOL    HW230102   5.115   5.803   6.422
 9735SOL     OW30103   0.656   2.769   1.031
 9735SOL    HW130104   0.749   2.748   1.000
 9735SOL    HW230105   0.661   2.834   1.107
 9736SOL     OW30106   5.103   1.394   4.542
 9736SOL    HW130107   5.039   1.411   4.616
 9736SOL    HW230108   5.196   1.389   4.578
 9737SOL     OW30109   5.696   3.080   2.505
 9737SOL    HW130110   5.624   3.147   2.488
 9737SOL    HW230111   5.777   3.105   2.453
 9738SOL     OW30112   2.504   6.468   1.592
 9738SOL    HW130113   2.552   6.554   1.610
 9738SOL    HW230114   2.408   6.476   1.621
 9739SOL     OW30115   5.973   6.664   6.964
 9739SOL    HW130116   6.066   6.671   7.000
 9739SOL    HW230117   5.936   6.573   6.982
 9740SOL     OW30118   6.053   0.452   3.044
 9740SOL    HW130119   6.051   0.479   3.140
 9740SOL    HW230120   6.096   0.525   2.990
 9741SOL     OW30121   2.416   1.796   4.649
 9741SOL    HW130122   2.433   1.733   4.726
 9741SOL    HW230123   2.399   1.888   4.684
 9742SOL     OW30124   4.050   2.214   6.221
 9742SOL    HW130125   4.133   2.166   6.249
 9742SOL    HW230126   3.970   2.159   6.246
 9743SOL     OW30127   5.338   3.483   4.731
 9743SOL    HW130128   5.293   3.396   4.711
 9743SOL    HW230129   5.434   3.478   4.703
 9744SOL     OW30130   1.384   1.248   3.138
 9744SOL    HW130131   1.411   1.340   3.166
 9744SOL    HW230132   1.285   1.245   3.125
 9745SOL     OW30133   6.972   0.564   6.050
 9745SOL    HW130134   6.886   0.614   6.058
 9745SOL    HW230135   6.982   0.532   5.955
 9746SOL     OW30136   4.394   5.185   6.230
 9746SOL    HW130137   4.371   5.250   6.303
 9746SOL    HW230138   4.364   5.222   6.142
 9747SOL     OW30139   2.211   1.547   3.111
 9747SOL    HW130140   2.209   1.513   3.205
 9747SOL    HW230141   2.217   1.647   3.112
 9748SOL     OW30142   1.256   0.729   3.565
 9748SOL    HW130143   1.309   0.655   3.606
 9748SOL    HW230144   1.225   0.792   3.637
 9749SOL     OW30145   6.671   0.875   2.192
 9749SOL    HW130146   6.626   0.880   2.281
 9749SOL    HW230147   6.765   0.908   2.200
 9750SOL     OW30148   6.263   3.008   3.953
 9750SOL    HW130149   6.241   3.000   3.856
 9750SOL    HW230150   6.276   2.916   3.992
 9751SOL     OW30151   3.385   0.161   1.646
 9751SOL    HW130152   3.333   0.231   1.596
 9751SOL    HW230153   3.321   0.097   1.689
 9752SOL     OW30154   3.424   3.614   6.762
 9752SOL    HW130155   3.329   3.584   6.764
 9752SOL    HW230156   3.479   3.556   6.822
 9753SOL     OW30157   6.963   6.466   4.999
 9753SOL    HW130158   0.028   6.457   4.960
 9753SOL    HW230159   6.902   6.507   4.932
 9754SOL     OW30160   3.305   1.074   1.615
 9754SOL    HW130161   3.287   0.983   1.576
 9754SOL    HW230162   3.402   1.097   1.602
 9755SOL     OW30163   2.815   4.374   0.544
 9755SOL    HW130164   2.812   4.430   0.461
 9755SOL    HW230165   2.744   4.304   0.539
 9756SOL     OW30166   5.653   0.199   5.855
 9756SOL    HW130167   5.746   0.233   5.840
 9756SOL    HW230168   5.656   0.099   5.866
 9757SOL     OW30169   5.348   4.461   4.153
 9757SOL    HW130170   5.382   4.504   4.070
 9757SOL    HW230171   5.275   4.396   4.130
 9758SOL     OW30172   2.270   0.159   1.799
 9758SOL    HW130173   2.175   0.142   1.775
 9758SOL    HW230174   2.317   0.203   1.723
 9759SOL     OW30175   6.704   0.858   1.499
 9759SOL    HW130176   6.747   0.859   1.409
 9759SOL    HW230177   6.628   0.924   1.501
 9760SOL     OW30178   4.881   1.212   0.029
 9760SOL    HW130179   4.807   1.258   0.078
 9760SOL    HW230180   4.844   1.135   7.005
 9761SOL     OW30181   1.096   2.175   0.884
 9761SOL    HW130182   1.107   2.090   0.833
 9761SOL    HW230183   1.120   2.253   0.826
 9762SOL     OW30184   2.848   2.009   5.833
 9762SOL    HW130185   2.860   1.910   5.829
 9762SOL    HW230186   2.889   2.051   5.752
 9763SOL     OW30187   6.239   0.906   0.925
 9763SOL    HW130188   6.283   0.881   1.011
 9763SOL    HW230189   6.140   0.898   0.934
 9764SOL     OW30190   6.945   2.727   2.508
 9764SOL    HW130191   6.863   2.719   2.565
 9764SOL    HW230192   7.026   2.720   2.566
 9765SOL     OW30193   0.035   0.452   2.082
 9765SOL    HW130194   7.016   0.527   2.034
 9765SOL    HW230195   0.069   0.484   2.170
 9766SOL     OW30196   2.125   2.035   4.400
 9766SOL    HW130197   2.182   1.954   4.407
 9766SOL    HW230198   2.051   2.019   4.335
 9767SOL     OW30199   2.353   2.616   5.525
 9767SOL    HW130200   2.283   2.682   5.495
 9767SOL    HW230201   2.389   2.644   5.614
 9768SOL     OW30202   5.831   3.065   0.881
 9768SOL    HW130203   5.789   3.114   0.804
 9768SOL    HW230204   5.919   3.107   0.902
 9769SOL     OW30205   3.333   1.793   5.314
 9769SOL    HW130206   3.387   1.808   5.398
 9769SOL    HW230207   3.394   1.797   5.235
 9770SOL     OW30208   2.612   2.596   6.458
 9770SOL    HW130209   2.552   2.567   6.533
 9770SOL    HW230210   2.691   2.644   6.495
 9771SOL     OW30211   2.870   7.019   2.336
 9771SOL    HW130212   2.866   6.926   2.301
 9771SOL    HW230213   2.954   0.036   2.304
 9772SOL     OW30214   1.654   0.324   1.108
 9772SOL    HW130215   1.555   0.325   1.094
 9772SOL    HW230216   1.679   0.247   1.167
 9773SOL     OW30217   5.143   4.819   1.885
 9773SOL    HW130218   5.216   4.870   1.932
 9773SOL    HW230219   5.170   4.723   1.876
 9774SOL     OW30220   1.034   4.974   5.133
 9774SOL    HW130221   1.046   5.059   5.083
 9774SOL    HW230222   1.105   4.966   5.203
 9775SOL     OW30223   2.645   1.130   3.420
 9775SOL    HW130224   2.666   1.130   3.323
 9775SOL    HW230225   2.552   1.097   3.434
 9776SOL     OW30226   2.372   5.180   0.161
 9776SOL    HW130227   2.435   5.119   0.114
 9776SOL    HW230228   2.421   5.232   0.230
 9777SOL     OW30229   4.490   0.765   5.683
 9777SOL    HW130230   4.424   0.704   5.639
 9777SOL    HW230231   4.535   0.821   5.614
 9778SOL     OW30232   0.033   3.611   4.144
 9778SOL    HW130233   0.121   3.603   4.096
 9778SOL    HW230234   6.987   3.627   4.077
 9779SOL     OW30235   2.091   1.082   4.162
 9779SOL    HW130236   2.188   1.101   4.150
 9779SOL    HW230237   2.037   1.141   4.102
 9780SOL     OW30238   0.971   2.273   1.803
 9780SOL    HW130239   0.974   2.262   1.903
 9780SOL    HW230240   1.029   2.349   1.776
 9781SOL     OW30241   2.257   2.300   3.424
 9781SOL    HW130242   2.264   2.240   3.344
 9781SOL    HW230243   2.284   2.392   3.399
 9782SOL     OW30244   6.688   2.410   0.885
 9782SOL    HW130245   6.726   2.478   0.947
 9782SOL    HW230246   6.720   2.319   0.912
 9783SOL     OW30247   3.616   0.759   3.226
 9783SOL    HW130248   3.692   0.770   3.162
 9783SOL    HW230249   3.530   0.774   3.178
 9784SOL     OW30250   1.170   1.155   6.182
 9784SOL    HW130251   1.091   1.177   6.239
 9784SOL    HW230252   1.142   1.094   6.108
 9785SOL     OW30253   6.879   3.349   4.842
 9785SOL    HW130254   6.880   3.309   4.934
 9785SOL    HW230255   6.892   3.277   4.774
 9786SOL     OW30256   1.930   4.049   0.224
 9786SOL    HW130257   1.911   4.013   0.315
 9786SOL    HW230258   1.877   4.132   0.209
 9787SOL     OW30259   3.019   3.822   3.270
 9787SOL    HW130260   2.986   3.858   3.183
 9787SOL    HW230261   3.119   3.810   3.266
 9788SOL     OW30262   4.740   0.637   2.197
 9788SOL    HW130263   4.794   0.694   2.259
 9788SOL    HW230264   4.733   0.544   2.234
 9789SOL     OW30265   3.879   1.557   6.882
 9789SOL    HW130266   3.858   1.488   6.813
 9789SOL    HW230267   3.900   1.511   6.969
 9790SOL     OW30268   0.167   4.495   3.886
 9790SOL    HW130269   0.118   4.414   3.852
 9790SOL    HW230270   0.160   4.568   3.818
 9791SOL     OW30271   1.089   6.494   1.106
 9791SOL    HW130272   1.080   6.562   1.033
 9791SOL    HW230273   1.040   6.526   1.187
 9792SOL     OW30274   4.011   6.443   0.571
 9792SOL    HW130275   4.026   6.404   0.661
 9792SOL    HW230276   3.941   6.389   0.522
 9793SOL     OW30277   5.715   0.592   3.391
 9793SOL    HW130278   5.655   0.544   3.327
 9793SOL    HW230279   5.742   0.680   3.353
 9794SOL     OW30280   4.960   4.647   4.536
 9794SOL    HW130281   4.904   4.729   4.545
 9794SOL    HW230282   4.902   4.566   4.544
 9795SOL     OW30283   2.164   3.455   3.449
 9795SOL    HW130284   2.172   3.537   3.506
 9795SOL    HW230285   2.161   3.481   3.353
 9796SOL     OW30286   3.906   3.467   3.665
 9796SOL    HW130287   3.944   3.379   3.694
 9796SOL    HW230288   3.971   3.512   3.602
 9797SOL     OW30289   2.773   5.473   6.855
 9797SOL    HW130290   2.746   5.418   6.934
 9797SOL    HW230291   2.692   5.515   6.814
 9798SOL     OW30292   0.596   3.832   0.481
 9798SOL    HW130293   0.607   3.923   0.441
 9798SOL    HW230294   0.684   3.800   0.516
 9799SOL     OW30295   2.725   0.185   6.799
 9799SOL    HW130296   2.756   0.105   6.851
 9799SOL    HW230297   2.679   0.249   6.860
 9800SOL     OW30298   6.772   4.016   5.154
 9800SOL    HW130299   6.733   3.970   5.234
 9800SOL    HW230300   6.715   3.996   5.074
 9801SOL     OW30301   6.194   6.284   6.716
 9801SOL    HW130302   6.246   6.217   6.664
 9801SOL    HW230303   6.098   6.256   6.718
 9802SOL     OW30304   4.030   4.777   0.013
 9802SOL    HW130305   3.985   4.731   6.964
 9802SOL    HW230306   3.990   4.746   0.099
 9803SOL     OW30307   0.867   3.662   6.310
 9803SOL    HW130308   0.826   3.748   6.280
 9803SOL    HW230309   0.948   3.642   6.254
 9804SOL     OW30310   0.149   5.925   2.619
 9804SOL    HW130311   0.140   6.015   2.660
 9804SOL    HW230312   0.158   5.933   2.520
 9805SOL     OW30313   0.704   6.369   3.801
 9805SOL    HW130314   0.759   6.295   3.838
 9805SOL    HW230315   0.746   6.404   3.718
 9806SOL     OW30316   3.617   1.758   6.628
 9806SOL    HW130317   3.675   1.836   6.651
 9806SOL    HW230318   3.668   1.673   6.645
 9807SOL     OW30319   3.348   3.426   2.131
 9807SOL    HW130320   3.421   3.482   2.172
 9807SOL    HW230321   3.303   3.478   2.058
 9808SOL     OW30322   4.460   6.348   2.468
 9808SOL    HW130323   4.506   6.423   2.420
 9808SOL    HW230324   4.428   6.380   2.558
 9809SOL     OW30325   0.208   3.076   1.051
 9809SOL    HW130326   0.301   3.089   1.015
 9809SOL    HW230327   0.200   2.984   1.090
 9810SOL     OW30328   2.332   1.961   6.821
 9810SOL    HW130329   2.339   1.921   6.912
 9810SOL    HW230330   2.253   2.023   6.818
 9811SOL     OW30331   6.440   3.319   4.044
 9811SOL    HW130332   6.398   3.376   4.114
 9811SOL    HW230333   6.378   3.244   4.020
 9812SOL     OW30334   3.177   6.343   5.528
 9812SOL    HW130335   3.168   6.297   5.616
 9812SOL    HW230336   3.146   6.438   5.536
 9813SOL     OW30337   5.015   1.415   1.758
 9813SOL    HW130338   5.002   1.322   1.724
 9813SOL    HW230339   5.077   1.464   1.696
 9814SOL     OW30340   5.328   1.205   0.686
 9814SOL    HW130341   5.247   1.211   0.629
 9814SOL    HW230342   5.390   1.281   0.665
 9815SOL     OW30343   4.408   2.417   4.801
 9815SOL    HW130344   4.345   2.438   4.726
 9815SOL    HW230345   4.360   2.430   4.888
 9816SOL     OW30346   1.911   7.007   0.044
 9816SOL    HW130347   1.895   0.077   0.025
 9816SOL    HW230348   1.825   6.957   0.032
 9817SOL     OW30349   6.777   6.865   3.181
 9817SOL    HW130350   6.804   6.868   3.278
 9817SOL    HW230351   6.727   6.781   3.163
 9818SOL     OW30352   6.621   2.689   4.145
 9818SOL    HW130353   6.657   2.673   4.237
 9818SOL    HW230354   6.629   2.786   4.123
 9819SOL     OW30355   4.054   0.845   3.108
 9819SOL    HW130356   3.998   0.766   3.131
 9819SOL    HW230357   4.119   0.863   3.183
 9820SOL     OW30358   4.231   3.742   5.883
 9820SOL    HW130359   4.251   3.839   5.865
 9820SOL    HW230360   4.195   3.700   5.799
 9821SOL     OW30361   6.208   5.669   0.074
 9821SOL    HW130362   6.167   5.663   0.165
 9821SOL    HW230363   6.142   5.707   0.009
 9822SOL     OW30364   0.425   6.929   2.777
 9822SOL    HW130365   0.354   6.938   2.846
 9822SOL    HW230366   0.510   6.971   2.810
 9823SOL     OW30367   3.287   1.240   2.180
 9823SOL    HW130368   3.357   1.216   2.112
 9823SOL    HW230369   3.196   1.224   2.141
 9824SOL     OW30370   1.389   4.160   5.750
 9824SOL    HW130371   1.402   4.115   5.662
 9824SOL    HW230372   1.313   4.117   5.799
 9825SOL     OW30373   4.101   5.425   5.370
 9825SOL    HW130374   4.191   5.397   5.337
 9825SOL    HW230375   4.062   5.493   5.308
 9826SOL     OW30376   4.227   0.478   5.888
 9826SOL    HW130377   4.295   0.547   5.912
 9826SOL    HW230378   4.171   0.511   5.812
 9827SOL     OW30379   0.678   3.826   4.612
 9827SOL    HW130380   0.738   3.770   4.671
 9827SOL    HW230381   0.732   3.865   4.538
 9828SOL     OW30382   3.818   2.879   6.403
 9828SOL    HW130383   3.837   2.791   6.358
 9828SOL    HW230384   3.807   2.864   6.501
 9829SOL     OW30385   2.333   5.595   0.447
 9829SOL    HW130386   2.318   5.578   0.350
 9829SOL    HW230387   2.364   5.690   0.460
 9830SOL     OW30388   6.071   1.451   1.728
 9830SOL    HW130389   5.999   1.520   1.739
 9830SOL    HW230390   6.033   1.369   1.686
 9831SOL     OW30391   6.462   6.747   1.662
 9831SOL    HW130392   6.532   6.679   1.684
 9831SOL    HW230393   6.411   6.717   1.581
 9832SOL     OW30394   4.534   5.178   1.911
 9832SOL    HW130395   4.547   5.223   1.823
 9832SOL    HW230396   4.503   5.245   1.978
 9833SOL     OW30397   3.460   3.694   5.201
 9833SOL    HW130398   3.487   3.772   5.257
 9833SOL    HW230399   3.361   3.698   5.185
 9834SOL     OW30400   0.860   3.710   4.801
 9834SOL    HW130401   0.912   3.706   4.886
 9834SOL    HW230402   0.788   3.640   4.803
 9835SOL     OW30403   5.131   1.747   4.175
 9835SOL    HW130404   5.096   1.668   4.125
 9835SOL    HW230405   5.230   1.754   4.161
 9836SOL     OW30406   5.073   4.845   3.591
 9836SOL    HW130407   5.093   4.802   3.503
 9836SOL    HW230408   5.156   4.886   3.629
 9837SOL     OW30409   2.752   6.460   4.598
 9837SOL    HW130410   2.771   6.553   4.628
 9837SOL    HW230411   2.739   6.402   4.678
 9838SOL     OW30412   1.007   6.148   6.083
 9838SOL    HW130413   1.063   6.203   6.023
 9838SOL    HW230414   0.911   6.157   6.057
 9839SOL     OW30415   0.043   1.438   1.435
 9839SOL    HW130416   0.138   1.460   1.412
 9839SOL    HW230417   0.040   1.351   1.483
 9840SOL     OW30418   6.568   0.457   1.156
 9840SOL    HW130419   6.519   0.522   1.098
 9840SOL    HW230420   6.509   0.430   1.232
 9841SOL     OW30421   1.791   3.741   4.393
 9841SOL    HW130422   1.782   3.768   4.489
 9841SOL    HW230423   1.854   3.802   4.347
 9842SOL     OW30424   2.933   3.215   2.514
 9842SOL    HW130425   2.959   3.252   2.603
 9842SOL    HW230426   2.889   3.126   2.526
 9843SOL     OW30427   6.619   2.192   1.714
 9843SOL    HW130428   6.631   2.193   1.813
 9843SOL    HW230429   6.708   2.202   1.669
 9844SOL     OW30430   5.718   0.446   2.225
 9844SOL    HW130431   5.764   0.483   2.305
 9844SOL    HW230432   5.653   0.376   2.253
 9845SOL     OW30433   1.575   2.021   3.620
 9845SOL    HW130434   1.541   2.008   3.527
 9845SOL    HW230435   1.664   2.066   3.618
 9846SOL     OW30436   3.189   3.671   3.067
 9846SOL    HW130437   3.241   3.659   3.151
 9846SOL    HW230438   3.199   3.765   3.034
 9847SOL     OW30439   1.478   3.983   6.711
 9847SOL    HW130440   1.547   3.963   6.642
 9847SOL    HW230441   1.393   4.010   6.667
 9848SOL     OW30442   4.569   2.879   0.072
 9848SOL    HW130443   4.545   2.966   0.115
 9848SOL    HW230444   4.589   2.894   7.002
 9849SOL     OW30445   6.808   6.977   6.208
 9849SOL    HW130446   6.810   0.032   6.265
 9849SOL    HW230447   6.713   6.954   6.187
 9850SOL     OW30448   4.059   6.823   2.170
 9850SOL    HW130449   4.066   6.866   2.080
 9850SOL    HW230450   3.966   6.836   2.206
 9851SOL     OW30451   5.345   1.902   5.302
 9851SOL    HW130452   5.259   1.952   5.312
 9851SOL    HW230453   5.371   1.862   5.390
 9852SOL     OW30454   4.557   1.691   3.682
 9852SOL    HW130455   4.458   1.700   3.696
 9852SOL    HW230456   4.589   1.606   3.724
 9853SOL     OW30457   5.700   3.769   2.854
 9853SOL    HW130458   5.659   3.820   2.778
 9853SOL    HW230459   5.767   3.704   2.817
 9854SOL     OW30460   5.849   5.167   4.504
 9854SOL    HW130461   5.770   5.143   4.560
 9854SOL    HW230462   5.860   5.099   4.431
 9855SOL     OW30463   1.374   4.017   1.963
 9855SOL    HW130464   1.409   3.950   2.028
 9855SOL    HW230465   1.377   4.108   2.004
 9856SOL     OW30466   3.442   3.620   0.472
 9856SOL    HW130467   3.420   3.670   0.389
 9856SOL    HW230468   3.402   3.528   0.467
 9857SOL     OW30469   5.260   3.274   3.115
 9857SOL    HW130470   5.248   3.252   3.212
 9857SOL    HW230471   5.349   3.319   3.101
 9858SOL     OW30472   5.460   0.715   2.119
 9858SOL    HW130473   5.503   0.709   2.209
 9858SOL    HW230474   5.513   0.662   2.053
 9859SOL     OW30475   6.182   0.855   2.333
 9859SOL    HW130476   6.181   0.856   2.233
 9859SOL    HW230477   6.105   0.800   2.367
 9860SOL     OW30478   0.858   0.724   2.320
 9860SOL    HW130479   0.894   0.632   2.337
 9860SOL    HW230480   0.772   0.735   2.369
 9861SOL     OW30481   4.160   5.790   4.408
 9861SOL    HW130482   4.104   5.750   4.336
 9861SOL    HW230483   4.120   5.876   4.438
 9862SOL     OW30484   1.999   2.468   0.486
 9862SOL    HW130485   2.036   2.390   0.435
 9862SOL    HW230486   2.042   2.473   0.575
 9863SOL     OW30487   2.873   0.389   3.059
 9863SOL    HW130488   2.909   0.482   3.048
 9863SOL    HW230489   2.921   0.344   3.133
 9864SOL     OW30490   4.591   5.786   2.914
 9864SOL    HW130491   4.605   5.782   3.013
 9864SOL    HW230492   4.671   5.746   2.868
 9865SOL     OW30493   0.632   0.245   3.764
 9865SOL    HW130494   0.573   0.165   3.755
 9865SOL    HW230495   0.695   0.231   3.841
 9866SOL     OW30496   4.805   3.936   4.450
 9866SOL    HW130497   4.860   3.964   4.529
 9866SOL    HW230498   4.779   3.840   4.460
 9867SOL     OW30499   4.905   1.693   0.636
 9867SOL    HW130500   4.999   1.658   0.642
 9867SOL    HW230501   4.852   1.657   0.713
 9868SOL     OW30502   6.625   4.441   6.704
 9868SOL    HW130503   6.608   4.462   6.801
 9868SOL    HW230504   6.687   4.509   6.666
 9869SOL     OW30505   2.223   3.974   3.264
 9869SOL    HW130506   2.220   4.072   3.245
 9869SOL    HW230507   2.132   3.943   3.293
 9870SOL     OW30508   4.548   4.517   2.485
 9870SOL    HW130509   4.622   4.560   2.433
 9870SOL    HW230510   4.460   4.553   2.453
 9871SOL     OW30511   2.130   0.656   5.523
 9871SOL    HW130512   2.050   0.648   5.464
 9871SOL    HW230513   2.211   0.625   5.473
 9872SOL     OW30514   2.986   4.863   3.308
 9872SOL    HW130515   3.040   4.931   3.357
 9872SOL    HW230516   2.916   4.826   3.369
 9873SOL     OW30517   1.739   2.554   0.431
 9873SOL    HW130518   1.738   2.643   0.385
 9873SOL    HW230519   1.833   2.526   0.448
 9874SOL     OW30520   0.467   2.794   3.377
 9874SOL    HW130521   0.386   2.735   3.371
 9874SOL    HW230522   0.516   2.791   3.290
 9875SOL     OW30523   0.608   0.727   2.462
 9875SOL    HW130524   0.562   0.749   2.548
 9875SOL    HW230525   0.547   0.673   2.404
 9876SOL     OW30526   6.393   6.895   2.916
 9876SOL    HW130527   6.395   6.840   2.999
 9876SOL    HW230528   6.408   6.991   2.939
 9877SOL     OW30529   3.410   6.900   2.495
 9877SOL    HW130530   3.374   6.972   2.436
 9877SOL    HW230531   3.358   6.899   2.581
 9878SOL     OW30532   1.560   5.613   5.407
 9878SOL    HW130533   1.482   5.644   5.463
 9878SOL    HW230534   1.592   5.525   5.441
 9879SOL     OW30535   4.305   6.011   4.925
 9879SOL    HW130536   4.369   5.979   4.855
 9879SOL    HW230537   4.267   6.098   4.897
 9880SOL     OW30538   0.946   2.231   5.745
 9880SOL    HW130539   1.035   2.195   5.718
 9880SOL    HW230540   0.956   2.287   5.827
 9881SOL     OW30541   0.564   2.159   5.498
 9881SOL    HW130542   0.663   2.155   5.487
 9881SOL    HW230543   0.538   2.115   5.584
 9882SOL     OW30544   1.291   2.621   4.139
 9882SOL    HW130545   1.347   2.675   4.075
 9882SOL    HW230546   1.351   2.575   4.204
 9883SOL     OW30547   1.567   0.737   1.685
 9883SOL    HW130548   1.477   0.696   1.667
 9883SOL    HW230549   1.638   0.667   1.676
 9884SOL     OW30550   3.987   0.669   3.843
 9884SOL    HW130551   4.019   0.596   3.903
 9884SOL    HW230552   4.015   0.757   3.879
 9885SOL     OW30553   6.187   4.368   4.896
 9885SOL    HW130554   6.185   4.427   4.815
 9885SOL    HW230555   6.130   4.287   4.880
 9886SOL     OW30556   1.307   4.908   2.589
 9886SOL    HW130557   1.362   4.975   2.540
 9886SOL    HW230558   1.362   4.826   2.606
 9887SOL     OW30559   3.686   1.487   0.241
 9887SOL    HW130560   3.706   1.457   0.147
 9887SOL    HW230561   3.738   1.571   0.260
 9888SOL     OW30562   0.180   3.578   0.198
 9888SOL    HW130563   0.123   3.619   0.270
 9888SOL    HW230564   0.276   3.599   0.215
 9889SOL     OW30565   6.268   5.135   0.416
 9889SOL    HW130566   6.199   5.063   0.423
 9889SOL    HW230567   6.359   5.095   0.410
 9890SOL     OW30568   1.572   2.672   1.112
 9890SOL    HW130569   1.501   2.692   1.044
 9890SOL    HW230570   1.660   2.661   1.065
 9891SOL     OW30571   5.634   2.685   0.458
 9891SOL    HW130572   5.544   2.677   0.502
 9891SOL    HW230573   5.705   2.688   0.529
 9892SOL     OW30574   6.786   4.838   0.010
 9892SOL    HW130575   6.845   4.771   0.055
 9892SOL    HW230576   6.790   4.924   0.061
 9893SOL     OW30577   2.362   0.853   0.803
 9893SOL    HW130578   2.265   0.840   0.784
 9893SOL    HW230579   2.413   0.854   0.716
 9894SOL     OW30580   1.485   1.722   0.743
 9894SOL    HW130581   1.451   1.756   0.831
 9894SOL    HW230582   1.408   1.685   0.690
 9895SOL     OW30583   5.610   3.500   4.635
 9895SOL    HW130584   5.631   3.572   4.569
 9895SOL    HW230585   5.652   3.522   4.723
 9896SOL     OW30586   6.524   0.163   0.280
 9896SOL    HW130587   6.475   0.112   0.211
 9896SOL    HW230588   6.621   0.168   0.255
 9897SOL     OW30589   6.020   5.186   3.444
 9897SOL    HW130590   6.092   5.244   3.408
 9897SOL    HW230591   5.983   5.129   3.371
 9898SOL     OW30592   3.043   6.516   5.861
 9898SOL    HW130593   3.141   6.536   5.872
 9898SOL    HW230594   3.006   6.484   5.949
 9899SOL     OW30595   0.780   5.409   0.708
 9899SOL    HW130596   0.826   5.403   0.620
 9899SOL    HW230597   0.696   5.354   0.705
 9900SOL     OW30598   1.314   4.138   3.341
 9900SOL    HW130599   1.409   4.113   3.323
 9900SOL    HW230600   1.273   4.069   3.402
 9901SOL     OW30601   2.508   2.686   5.760
 9901SOL    HW130602   2.562   2.631   5.825
 9901SOL    HW230603   2.570   2.734   5.698
 9902SOL     OW30604   2.473   4.804   6.358
 9902SOL    HW130605   2.446   4.900   6.351
 9902SOL    HW230606   2.565   4.793   6.321
 9903SOL     OW30607   4.831   1.564   3.526
 9903SOL    HW130608   4.766   1.639   3.511
 9903SOL    HW230609   4.900   1.565   3.454
 9904SOL     OW30610   0.161   3.773   6.282
 9904SOL    HW130611   0.072   3.727   6.278
 9904SOL    HW230612   0.162   3.835   6.361
 9905SOL     OW30613   4.110   1.371   0.646
 9905SOL    HW130614   4.149   1.346   0.557
 9905SOL    HW230615   4.035   1.435   0.633
 9906SOL     OW30616   3.740   2.913   2.555
 9906SOL    HW130617   3.825   2.958   2.527
 9906SOL    HW230618   3.696   2.871   2.476
 9907SOL     OW30619   0.261   0.656   1.848
 9907SOL    HW130620   0.162   0.656   1.860
 9907SOL    HW230621   0.304   0.604   1.921
 9908SOL     OW30622   4.877   2.431   3.140
 9908SOL    HW130623   4.974   2.411   3.153
 9908SOL    HW230624   4.837   2.365   3.076
 9909SOL     OW30625   3.476   6.329   3.714
 9909SOL    HW130626   3.419   6.253   3.745
 9909SOL    HW230627   3.482   6.397   3.787
 9910SOL     OW30628   1.078   4.473   2.393
 9910SOL    HW130629   1.066   4.415   2.313
 9910SOL    HW230630   1.069   4.418   2.476
 9911SOL     OW30631   4.291   0.124   2.267
 9911SOL    HW130632   4.321   0.038   2.309
 9911SOL    HW230633   4.247   0.181   2.336
 9912SOL     OW30634   4.377   2.085   0.805
 9912SOL    HW130635   4.359   2.183   0.818
 9912SOL    HW230636   4.346   2.057   0.714
 9913SOL     OW30637   5.861   3.354   6.948
 9913SOL    HW130638   5.779   3.346   7.004
 9913SOL    HW230639   5.835   3.383   6.855
 9914SOL     OW30640   0.590   2.822   4.398
 9914SOL    HW130641   0.664   2.815   4.332
 9914SOL    HW230642   0.627   2.855   4.485
 9915SOL     OW30643   4.744   1.031   3.184
 9915SOL    HW130644   4.816   1.022   3.115
 9915SOL    HW230645   4.675   0.960   3.171
 9916SOL     OW30646   2.405   2.616   2.328
 9916SOL    HW130647   2.481   2.553   2.314
 9916SOL    HW230648   2.402   2.644   2.424
 9917SOL     OW30649   6.725   4.161   6.651
 9917SOL    HW130650   6.702   4.248   6.607
 9917SOL    HW230651   6.791   4.177   6.724
 9918SOL     OW30652   4.245   1.598   3.109
 9918SOL    HW130653   4.312   1.570   3.041
 9918SOL    HW230654   4.203   1.684   3.081
 9919SOL     OW30655   6.243   6.396   1.312
 9919SOL    HW130656   6.241   6.315   1.254
 9919SOL    HW230657   6.335   6.434   1.315
 9920SOL     OW30658   5.042   1.274   2.700
 9920SOL    HW130659   5.037   1.370   2.728
 9920SOL    HW230660   5.016   1.265   2.604
 9921SOL     OW30661   4.441   5.536   5.975
 9921SOL    HW130662   4.525   5.527   6.028
 9921SOL    HW230663   4.388   5.451   5.983
 9922SOL     OW30664   1.173   5.420   0.086
 9922SOL    HW130665   1.150   5.354   0.156
 9922SOL    HW230666   1.103   5.492   0.083
 9923SOL     OW30667   4.779   5.280   6.775
 9923SOL    HW130668   4.823   5.190   6.776
 9923SOL    HW230669   4.680   5.269   6.776
 9924SOL     OW30670   7.014   3.128   5.080
 9924SOL    HW130671   7.002   3.210   5.136
 9924SOL    HW230672   0.085   3.112   5.065
 9925SOL     OW30673   5.856   3.111   4.298
 9925SOL    HW130674   5.849   3.054   4.380
 9925SOL    HW230675   5.953   3.127   4.277
 9926SOL     OW30676   2.607   3.969   0.049
 9926SOL    HW130677   2.618   3.936   0.142
 9926SOL    HW230678   2.689   3.947   7.023
 9927SOL     OW30679   6.649   0.147   2.576
 9927SOL    HW130680   6.634   0.177   2.670
 9927SOL    HW230681   6.574   0.088   2.546
 9928SOL     OW30682   4.769   4.827   1.066
 9928SOL    HW130683   4.674   4.824   1.035
 9928SOL    HW230684   4.778   4.898   1.137
 9929SOL     OW30685   2.107   5.811   5.015
 9929SOL    HW130686   2.122   5.855   4.927
 9929SOL    HW230687   2.067   5.720   5.001
 9930SOL     OW30688   6.718   0.030   4.571
 9930SOL    HW130689   6.696   6.961   4.588
 9930SOL    HW230690   6.772   0.038   4.487
 9931SOL     OW30691   0.776   4.749   4.699
 9931SOL    HW130692   0.680   4.764   4.722
 9931SOL    HW230693   0.802   4.807   4.622
 9932SOL     OW30694   1.027   6.775   6.340
 9932SOL    HW130695   0.971   6.701   6.303
 9932SOL    HW230696   1.094   6.805   6.272
 9933SOL     OW30697   1.798   5.346   2.849
 9933SOL    HW130698   1.844   5.363   2.762
 9933SOL    HW230699   1.866   5.341   2.923
 9934SOL     OW30700   5.613   2.376   5.523
 9934SOL    HW130701   5.620   2.456   5.462
 9934SOL    HW230702   5.544   2.314   5.488
 9935SOL     OW30703   2.437   0.848   0.212
 9935SOL    HW130704   2.356   0.805   0.252
 9935SOL    HW230705   2.503   0.867   0.285
 9936SOL     OW30706   0.440   5.077   5.080
 9936SOL    HW130707   0.412   5.131   5.001
 9936SOL    HW230708   0.540   5.078   5.087
 9937SOL     OW30709   6.141   2.338   5.948
 9937SOL    HW130710   6.170   2.281   6.025
 9937SOL    HW230711   6.217   2.353   5.886
 9938SOL     OW30712   0.262   5.764   3.311
 9938SOL    HW130713   0.227   5.704   3.240
 9938SOL    HW230714   0.207   5.848   3.315
 9939SOL     OW30715   3.158   2.758   1.150
 9939SOL    HW130716   3.089   2.787   1.084
 9939SOL    HW230717   3.122   2.684   1.207
 9940SOL     OW30718   0.282   0.584   1.167
 9940SOL    HW130719   0.350   0.551   1.101
 9940SOL    HW230720   0.328   0.638   1.238
 9941SOL     OW30721   2.787   3.926   5.204
 9941SOL    HW130722   2.798   4.004   5.266
 9941SOL    HW230723   2.714   3.867   5.237
 9942SOL     OW30724   2.068   5.813   2.663
 9942SOL    HW130725   2.128   5.863   2.725
 9942SOL    HW230726   2.117   5.735   2.625
 9943SOL     OW30727   0.764   5.802   6.417
 9943SOL    HW130728   0.741   5.888   6.463
 9943SOL    HW230729   0.860   5.804   6.389
 9944SOL     OW30730   1.898   4.538   6.268
 9944SOL    HW130731   1.813   4.496   6.238
 9944SOL    HW230732   1.883   4.590   6.352
 9945SOL     OW30733   6.842   5.467   0.136
 9945SOL    HW130734   6.831   5.490   0.039
 9945SOL    HW230735   6.820   5.371   0.151
 9946SOL     OW30736   5.072   1.166   4.788
 9946SOL    HW130737   5.036   1.142   4.698
 9946SOL    HW230738   5.052   1.262   4.807
 9947SOL     OW30739   6.367   4.658   5.954
 9947SOL    HW130740   6.428   4.588   5.992
 9947SOL    HW230741   6.395   4.679   5.860
 9948SOL     OW30742   4.678   4.310   4.874
 9948SOL    HW130743   4.582   4.287   4.859
 9948SOL    HW230744   4.716   4.348   4.790
 9949SOL     OW30745   5.419   4.640   3.650
 9949SOL    HW130746   5.491   4.691   3.604
 9949SOL    HW230747   5.395   4.560   3.596
 9950SOL     OW30748   5.259   6.402   5.405
 9950SOL    HW130749   5.316   6.338   5.354
 9950SOL    HW230750   5.274   6.495   5.371
 9951SOL     OW30751   5.822   2.383   3.512
 9951SOL    HW130752   5.739   2.439   3.510
 9951SOL    HW230753   5.800   2.288   3.488
 9952SOL     OW30754   6.405   4.010   0.746
 9952SOL    HW130755   6.407   4.020   0.646
 9952SOL    HW230756   6.401   4.101   0.788
 9953SOL     OW30757   6.548   2.018   3.567
 9953SOL    HW130758   6.522   1.942   3.627
 9953SOL    HW230759   6.518   2.104   3.607
 9954SOL     OW30760   6.132   6.751   5.170
 9954SOL    HW130761   6.198   6.780   5.239
 9954SOL    HW230762   6.171   6.761   5.079
 9955SOL     OW30763   6.853   4.850   4.785
 9955SOL    HW130764   6.911   4.857   4.703
 9955SOL    HW230765   6.760   4.827   4.758
 9956SOL     OW30766   1.848   6.913   2.084
 9956SOL    HW130767   1.919   6.978   2.058
 9956SOL    HW230768   1.785   6.901   2.007
 9957SOL     OW30769   6.370   5.375   3.642
 9957SOL    HW130770   6.435   5.452   3.641
 9957SOL    HW230771   6.326   5.368   3.553
 9958SOL     OW30772   2.903   4.672   0.809
 9958SOL    HW130773   2.880   4.576   0.799
 9958SOL    HW230774   2.912   4.714   0.719
 9959SOL     OW30775   4.108   3.591   6.052
 9959SOL    HW130776   4.169   3.639   5.989
 9959SOL    HW230777   4.162   3.544   6.122
 9960SOL     OW30778   0.092   1.297   3.024
 9960SOL    HW130779   0.051   1.205   3.021
 9960SOL    HW230780   0.191   1.289   3.025
 9961SOL     OW30781   2.440   5.372   4.330
 9961SOL    HW130782   2.444   5.472   4.333
 9961SOL    HW230783   2.449   5.342   4.235
 9962SOL     OW30784   5.821   6.073   5.005
 9962SOL    HW130785   5.839   5.992   5.061
 9962SOL    HW230786   5.864   6.062   4.915
 9963SOL     OW30787   3.464   1.875   1.018
 9963SOL    HW130788   3.406   1.956   1.026
 9963SOL    HW230789   3.560   1.902   1.023
 9964SOL     OW30790   4.585   5.751   4.346
 9964SOL    HW130791   4.575   5.700   4.261
 9964SOL    HW230792   4.666   5.718   4.395
 9965SOL     OW30793   3.696   0.175   6.993
 9965SOL    HW130794   3.778   0.171   6.936
 9965SOL    HW230795   3.722   0.202   0.059
 9966SOL     OW30796   1.488   5.280   1.949
 9966SOL    HW130797   1.443   5.366   1.974
 9966SOL    HW230798   1.432   5.203   1.977
 9967SOL     OW30799   1.645   5.984   1.642
 9967SOL    HW130800   1.597   5.938   1.717
 9967SOL    HW230801   1.716   6.043   1.679
 9968SOL     OW30802   3.874   4.030   2.024
 9968SOL    HW130803   3.828   3.946   2.054
 9968SOL    HW230804   3.842   4.107   2.079
 9969SOL     OW30805   1.561   3.789   2.402
 9969SOL    HW130806   1.615   3.712   2.368
 9969SOL    HW230807   1.470   3.757   2.430
 9970SOL     OW30808   5.531   4.763   1.827
 9970SOL    HW130809   5.577   4.711   1.899
 9970SOL    HW230810   5.456   4.816   1.867
 9971SOL     OW30811   1.848   4.176   0.596
 9971SOL    HW130812   1.864   4.090   0.548
 9971SOL    HW230813   1.776   4.163   0.664
 9972SOL     OW30814   6.475   4.869   3.216
 9972SOL    HW130815   6.551   4.815   3.180
 9972SOL    HW230816   6.438   4.825   3.298
 9973SOL     OW30817   5.861   0.962   4.480
 9973SOL    HW130818   5.775   0.912   4.487
 9973SOL    HW230819   5.932   0.901   4.445
 9974SOL     OW30820   1.584   0.599   3.738
 9974SOL    HW130821   1.543   0.621   3.827
 9974SOL    HW230822   1.679   0.571   3.751
 9975SOL     OW30823   0.127   2.724   0.220
 9975SOL    HW130824   0.079   2.810   0.240
 9975SOL    HW230825   0.217   2.726   0.264
 9976SOL     OW30826   1.186   0.229   5.381
 9976SOL    HW130827   1.103   0.239   5.326
 9976SOL    HW230828   1.255   0.293   5.349
 9977SOL     OW30829   6.461   4.384   4.910
 9977SOL    HW130830   6.482   4.405   4.815
 9977SOL    HW230831   6.363   4.367   4.920
 9978SOL     OW30832   0.505   2.604   4.521
 9978SOL    HW130833   0.509   2.700   4.491
 9978SOL    HW230834   0.577   2.552   4.475
 9979SOL     OW30835   5.960   3.500   4.894
 9979SOL    HW130836   5.920   3.457   4.975
 9979SOL    HW230837   5.970   3.599   4.911
 9980SOL     OW30838   3.391   0.447   6.704
 9980SOL    HW130839   3.369   0.397   6.620
 9980SOL    HW230840   3.413   0.382   6.777
 9981SOL     OW30841   3.161   1.650   3.809
 9981SOL    HW130842   3.119   1.577   3.756
 9981SOL    HW230843   3.173   1.731   3.751
 9982SOL     OW30844   6.943   5.949   4.143
 9982SOL    HW130845   6.903   6.021   4.199
 9982SOL    HW230846   0.014   5.942   4.162
 9983SOL     OW30847   0.090   1.720   2.394
 9983SOL    HW130848   0.152   1.734   2.471
 9983SOL    HW230849   0.109   1.631   2.352
 9984SOL     OW30850   2.984   1.704   6.494
 9984SOL    HW130851   3.062   1.655   6.532
 9984SOL    HW230852   2.907   1.641   6.484
 9985SOL     OW30853   1.804   1.084   1.509
 9985SOL    HW130854   1.854   1.167   1.535
 9985SOL    HW230855   1.756   1.048   1.589
 9986SOL     OW30856   5.489   3.899   4.707
 9986SOL    HW130857   5.458   3.807   4.730
 9986SOL    HW230858   5.479   3.959   4.787
 9987SOL     OW30859   6.224   3.846   6.310
 9987SOL    HW130860   6.146   3.890   6.264
 9987SOL    HW230861   6.305   3.902   6.299
 9988SOL     OW30862   6.605   6.686   5.366
 9988SOL    HW130863   6.573   6.743   5.442
 9988SOL    HW230864   6.527   6.657   5.311
 9989SOL     OW30865   0.043   3.385   5.261
 9989SOL    HW130866   0.038   3.456   5.190
 9989SOL    HW230867   0.129   3.393   5.310
 9990SOL     OW30868   1.007   4.501   2.867
 9990SOL    HW130869   1.086   4.546   2.910
 9990SOL    HW230870   0.924   4.523   2.918
 9991SOL     OW30871   2.983   2.255   4.061
 9991SOL    HW130872   3.049   2.187   4.031
 9991SOL    HW230873   3.003   2.282   4.156
 9992SOL     OW30874   6.054   5.463   6.310
 9992SOL    HW130875   5.982   5.410   6.264
 9992SOL    HW230876   6.019   5.554   6.331
 9993SOL     OW30877   1.468   1.583   1.442
 9993SOL    HW130878   1.435   1.675   1.464
 9993SOL    HW230879   1.528   1.551   1.515
 9994SOL     OW30880   5.804   4.637   3.548
 9994SOL    HW130881   5.849   4.612   3.461
 9994SOL    HW230882   5.800   4.556   3.607
 9995SOL     OW30883   5.896   0.806   4.055
 9995SOL    HW130884   5.986   0.769   4.080
 9995SOL    HW230885   5.836   0.730   4.028
 9996SOL     OW30886   3.493   4.636   6.757
 9996SOL    HW130887   3.554   4.611   6.833
 9996SOL    HW230888   3.420   4.569   6.749
 9997SOL     OW30889   2.333   0.330   5.301
 9997SOL    HW130890   2.242   0.292   5.287
 9997SOL    HW230891   2.398   0.284   5.241
 9998SOL     OW30892   5.688   5.558   5.862
 9998SOL    HW130893   5.638   5.486   5.909
 9998SOL    HW230894   5.637   5.643   5.866
 9999SOL     OW30895   6.209   2.461   5.546
 9999SOL    HW130896   6.251   2.536   5.597
 9999SOL    HW230897   6.163   2.399   5.609
10000SOL     OW30898   6.890   2.459   6.515
10000SOL    HW130899   6.864   2.395   6.587
10000SOL    HW230900   6.990   2.462   6.508
10001SOL     OW30901   4.818   0.273   3.166
10001SOL    HW130902   4.828   0.333   3.244
10001SOL    HW230903   4.833   0.325   3.081
10002SOL     OW30904   1.349   0.590   1.587
10002SOL    HW130905   1.281   0.576   1.659
10002SOL    HW230906   1.310   0.648   1.515
10003SOL     OW30907   3.689   2.094   3.591
10003SOL    HW130908   3.682   2.095   3.491
10003SOL    HW230909   3.598   2.103   3.631
10004SOL     OW30910   6.859   2.275   3.010
10004SOL    HW130911   6.844   2.354   3.069
10004SOL    HW230912   6.957   2.255   3.005
10005SOL     OW30913   4.600   6.968   3.723
10005SOL    HW130914   4.522   6.917   3.761
10005SOL    HW230915   4.664   6.991   3.797
10006SOL     OW30916   3.887   6.739   4.209
10006SOL    HW130917   3.902   6.811   4.277
10006SOL    HW230918   3.884   6.650   4.255
10007SOL     OW30919   0.182   3.382   4.372
10007SOL    HW130920   0.222   3.471   4.394
10007SOL    HW230921   0.084   3.394   4.354
10008SOL     OW30922   2.952   0.542   4.077
10008SOL    HW130923   2.936   0.639   4.058
10008SOL    HW230924   2.924   0.521   4.171
10009SOL     OW30925   1.814   4.254   1.823
10009SOL    HW130926   1.758   4.318   1.771
10009SOL    HW230927   1.765   4.226   1.906
10010SOL     OW30928   1.190   2.068   6.078
10010SOL    HW130929   1.188   1.974   6.113
10010SOL    HW230930   1.239   2.070   5.991
10011SOL     OW30931   6.787   6.729   5.787
10011SOL    HW130932   6.691   6.712   5.767
10011SOL    HW230933   6.808   6.825   5.768
10012SOL     OW30934   6.025   1.261   3.969
10012SOL    HW130935   6.016   1.305   4.058
10012SOL    HW230936   5.942   1.275   3.916
10013SOL     OW30937   0.692   0.605   2.718
10013SOL    HW130938   0.737   0.677   2.771
10013SOL    HW230939   0.733   0.602   2.626
10014SOL     OW30940   0.248   4.777   6.406
10014SOL    HW130941   0.296   4.690   6.417
10014SOL    HW230942   0.216   4.809   6.495
10015SOL     OW30943   1.789   4.379   6.599
10015SOL    HW130944   1.847   4.447   6.555
10015SOL    HW230945   1.845   4.303   6.631
10016SOL     OW30946   2.609   1.176   5.494
10016SOL    HW130947   2.633   1.260   5.446
10016SOL    HW230948   2.561   1.115   5.433
10017SOL     OW30949   1.980   2.292   4.408
10017SOL    HW130950   1.988   2.193   4.395
10017SOL    HW230951   1.886   2.321   4.393
10018SOL     OW30952   5.163   0.359   5.570
10018SOL    HW130953   5.246   0.385   5.619
10018SOL    HW230954   5.133   0.435   5.512
10019SOL     OW30955   1.317   0.876   3.145
10019SOL    HW130956   1.339   0.954   3.203
10019SOL    HW230957   1.377   0.874   3.066
10020SOL     OW30958   0.456   2.880   0.828
10020SOL    HW130959   0.382   2.818   0.856
10020SOL    HW230960   0.541   2.853   0.872
10021SOL     OW30961   0.302   3.632   0.983
10021SOL    HW130962   0.282   3.730   0.975
10021SOL    HW230963   0.366   3.606   0.911
10022SOL     OW30964   1.260   2.207   6.396
10022SOL    HW130965   1.211   2.209   6.483
10022SOL    HW230966   1.269   2.112   6.365
10023SOL     OW30967   0.042   3.549   0.953
10023SOL    HW130968   0.126   3.590   0.989
10023SOL    HW230969   0.040   3.452   0.975
10024SOL     OW30970   1.908   4.656   3.944
10024SOL    HW130971   1.835   4.720   3.918
10024SOL    HW230972   1.997   4.702   3.938
10025SOL     OW30973   1.459   1.329   0.645
10025SOL    HW130974   1.386   1.310   0.580
10025SOL    HW230975   1.476   1.427   0.649
10026SOL     OW30976   6.885   0.730   3.484
10026SOL    HW130977   6.874   0.733   3.385
10026SOL    HW230978   6.957   0.794   3.511
10027SOL     OW30979   4.930   2.928   5.450
10027SOL    HW130980   4.854   2.934   5.385
10027SOL    HW230981   5.003   2.992   5.422
10028SOL     OW30982   1.907   1.187   0.607
10028SOL    HW130983   1.861   1.227   0.528
10028SOL    HW230984   1.847   1.117   0.648
10029SOL     OW30985   6.062   1.819   3.823
10029SOL    HW130986   6.126   1.895   3.817
10029SOL    HW230987   5.969   1.855   3.831
10030SOL     OW30988   1.782   0.186   3.462
10030SOL    HW130989   1.713   0.216   3.396
10030SOL    HW230990   1.837   0.113   3.422
10031SOL     OW30991   6.258   4.524   3.881
10031SOL    HW130992   6.226   4.533   3.975
10031SOL    HW230993   6.340   4.580   3.869
10032SOL     OW30994   2.607   1.471   4.461
10032SOL    HW130995   2.649   1.434   4.544
10032SOL    HW230996   2.616   1.404   4.387
10033SOL     OW30997   5.724   3.101   5.134
10033SOL    HW130998   5.673   3.030   5.085
10033SOL    HW230999   5.725   3.079   5.232
10034SOL     OW31000   5.310   0.615   5.209
10034SOL    HW131001   5.255   0.567   5.141
10034SOL    HW231002   5.407   0.599   5.190
10035SOL     OW31003   0.628   5.573   1.644
10035SOL    HW131004   0.674   5.660   1.634
10035SOL    HW231005   0.529   5.587   1.637
10036SOL     OW31006   6.519   0.905   0.322
10036SOL    HW131007   6.576   0.836   0.277
10036SOL    HW231008   6.441   0.860   0.365
10037SOL     OW31009   0.927   6.824   0.169
10037SOL    HW131010   0.832   6.849   0.190
10037SOL    HW231011   0.934   6.800   0.072
10038SOL     OW31012   6.519   6.932   1.245
10038SOL    HW131013   6.555   7.024   1.228
10038SOL    HW231014   6.485   6.893   1.160
10039SOL     OW31015   3.417   0.062   3.551
10039SOL    HW131016   3.321   0.087   3.549
10039SOL    HW231017   3.444   0.024   3.462
10040SOL     OW31018   0.683   3.166   1.294
10040SOL    HW131019   0.712   3.215   1.212
10040SOL    HW231020   0.763   3.143   1.350
10041SOL     OW31021   1.755   5.933   0.178
10041SOL    HW131022   1.724   6.012   0.125
10041SOL    HW231023   1.681   5.866   0.183
10042SOL     OW31024   5.809   2.820   2.240
10042SOL    HW131025   5.786   2.897   2.181
10042SOL    HW231026   5.909   2.807   2.240
10043SOL     OW31027   0.265   1.683   5.188
10043SOL    HW131028   0.198   1.722   5.251
10043SOL    HW231029   0.218   1.651   5.105
10044SOL     OW31030   3.226   2.223   5.840
10044SOL    HW131031   3.191   2.141   5.886
10044SOL    HW231032   3.318   2.243   5.874
10045SOL     OW31033   3.630   1.220   0.807
10045SOL    HW131034   3.651   1.293   0.872
10045SOL    HW231035   3.694   1.226   0.730
10046SOL     OW31036   1.550   5.650   0.732
10046SOL    HW131037   1.529   5.552   0.725
10046SOL    HW231038   1.648   5.661   0.752
10047SOL     OW31039   0.574   3.368   1.137
10047SOL    HW131040   0.584   3.412   1.227
10047SOL    HW231041   0.480   3.336   1.127
10048SOL     OW31042   6.166   5.609   2.944
10048SOL    HW131043   6.220   5.693   2.941
10048SOL    HW231044   6.099   5.609   2.869
10049SOL     OW31045   6.950   0.745   5.661
10049SOL    HW131046   6.939   0.775   5.756
10049SOL    HW231047   6.861   0.744   5.616
10050SOL     OW31048   6.912   3.040   6.890
10050SOL    HW131049   6.850   3.097   6.835
10050SOL    HW231050   6.903   3.063   6.986
10051SOL     OW31051   2.007   3.365   3.807
10051SOL    HW131052   1.940   3.366   3.881
10051SOL    HW231053   1.983   3.294   3.741
10052SOL     OW31054   1.183   6.442   3.257
10052SOL    HW131055   1.205   6.474   3.164
10052SOL    HW231056   1.267   6.436   3.310
10053SOL     OW31057   5.810   5.323   5.041
10053SOL    HW131058   5.792   5.246   5.102
10053SOL    HW231059   5.894   5.304   4.989
10054SOL     OW31060   6.343   4.118   5.292
10054SOL    HW131061   6.386   4.173   5.220
10054SOL    HW231062   6.412   4.096   5.362
10055SOL     OW31063   1.168   1.462   6.630
10055SOL    HW131064   1.082   1.510   6.609
10055SOL    HW231065   1.239   1.492   6.566
10056SOL     OW31066   6.019   2.152   3.396
10056SOL    HW131067   6.074   2.230   3.427
10056SOL    HW231068   5.922   2.171   3.411
10057SOL     OW31069   6.010   4.815   5.116
10057SOL    HW131070   6.079   4.771   5.058
10057SOL    HW231071   5.994   4.908   5.083
10058SOL     OW31072   6.771   4.051   5.516
10058SOL    HW131073   6.734   4.139   5.486
10058SOL    HW231074   6.847   4.067   5.580
10059SOL     OW31075   6.233   0.942   6.449
10059SOL    HW131076   6.167   0.867   6.460
10059SOL    HW231077   6.230   0.975   6.355
10060SOL     OW31078   2.264   2.054   1.710
10060SOL    HW131079   2.265   2.127   1.641
10060SOL    HW231080   2.236   2.093   1.798
10061SOL     OW31081   3.794   6.993   3.402
10061SOL    HW131082   3.755   0.057   3.409
10061SOL    HW231083   3.741   6.929   3.456
10062SOL     OW31084   6.815   0.024   5.055
10062SOL    HW131085   6.810   0.118   5.089
10062SOL    HW231086   6.741   6.997   5.095
10063SOL     OW31087   2.402   2.367   5.331
10063SOL    HW131088   2.387   2.432   5.405
10063SOL    HW231089   2.343   2.390   5.253
10064SOL     OW31090   2.836   6.866   0.567
10064SOL    HW131091   2.878   6.889   0.655
10064SOL    HW231092   2.810   6.950   0.520
10065SOL     OW31093   0.526   1.666   1.562
10065SOL    HW131094   0.606   1.648   1.505
10065SOL    HW231095   0.535   1.755   1.606
10066SOL     OW31096   6.382   3.499   3.817
10066SOL    HW131097   6.356   3.418   3.765
10066SOL    HW231098   6.453   3.475   3.883
10067SOL     OW31099   6.920   3.267   5.727
10067SOL    HW131100   6.970   3.339   5.776
10067SOL    HW231101   6.970   3.244   5.644
10068SOL     OW31102   2.123   3.486   3.035
10068SOL    HW131103   2.097   3.509   2.942
10068SOL    HW231104   2.159   3.567   3.081
10069SOL     OW31105   3.173   5.159   0.396
10069SOL    HW131106   3.172   5.103   0.479
10069SOL    HW231107   3.105   5.125   0.331
10070SOL     OW31108   4.142   6.599   6.332
10070SOL    HW131109   4.103   6.649   6.255
10070SOL    HW231110   4.164   6.506   6.304
10071SOL     OW31111   6.081   0.146   4.159
10071SOL    HW131112   6.141   0.153   4.239
10071SOL    HW231113   6.069   0.050   4.135
10072SOL     OW31114   6.755   2.967   1.658
10072SOL    HW131115   6.692   3.029   1.612
10072SOL    HW231116   6.707   2.884   1.686
10073SOL     OW31117   6.118   4.593   4.730
10073SOL    HW131118   6.028   4.635   4.718
10073SOL    HW231119   6.181   4.629   4.661
10074SOL     OW31120   1.123   5.186   0.231
10074SOL    HW131121   1.145   5.099   0.188
10074SOL    HW231122   1.026   5.189   0.255
10075SOL     OW31123   1.439   3.218   1.979
10075SOL    HW131124   1.341   3.206   1.992
10075SOL    HW231125   1.484   3.226   2.068
10076SOL     OW31126   5.014   5.271   4.471
10076SOL    HW131127   5.038   5.176   4.491
10076SOL    HW231128   5.063   5.300   4.389
10077SOL     OW31129   5.056   3.413   6.768
10077SOL    HW131130   5.132   3.475   6.787
10077SOL    HW231131   4.969   3.462   6.778
10078SOL     OW31132   6.894   5.425   5.239
10078SOL    HW131133   6.822   5.408   5.306
10078SOL    HW231134   6.977   5.376   5.267
10079SOL     OW31135   4.819   3.027   3.935
10079SOL    HW131136   4.876   3.085   3.993
10079SOL    HW231137   4.761   2.969   3.992
10080SOL     OW31138   5.189   1.591   5.794
10080SOL    HW131139   5.264   1.525   5.795
10080SOL    HW231140   5.211   1.668   5.853
10081SOL     OW31141   1.335   4.197   0.676
10081SOL    HW131142   1.243   4.179   0.712
10081SOL    HW231143   1.390   4.243   0.746
10082SOL     OW31144   0.650   4.720   0.933
10082SOL    HW131145   0.676   4.721   0.837
10082SOL    HW231146   0.584   4.646   0.949
10083SOL     OW31147   3.353   5.420   2.667
10083SOL    HW131148   3.313   5.511   2.678
10083SOL    HW231149   3.280   5.353   2.651
10084SOL     OW31150   0.960   1.004   5.179
10084SOL    HW131151   0.952   1.040   5.272
10084SOL    HW231152   0.868   0.990   5.141
10085SOL     OW31153   5.133   0.434   0.553
10085SOL    HW131154   5.158   0.378   0.474
10085SOL    HW231155   5.190   0.517   0.554
10086SOL     OW31156   5.586   6.639   3.198
10086SOL    HW131157   5.645   6.717   3.219
10086SOL    HW231158   5.492   6.661   3.224
10087SOL     OW31159   1.493   6.076   5.608
10087SOL    HW131160   1.552   6.142   5.654
10087SOL    HW231161   1.458   6.117   5.523
10088SOL     OW31162   6.788   3.077   1.339
10088SOL    HW131163   6.798   3.154   1.275
10088SOL    HW231164   6.879   3.051   1.373
10089SOL     OW31165   3.614   0.724   1.469
10089SOL    HW131166   3.628   0.771   1.556
10089SOL    HW231167   3.683   0.652   1.459
10090SOL     OW31168   2.621   6.426   2.613
10090SOL    HW131169   2.566   6.469   2.541
10090SOL    HW231170   2.571   6.348   2.650
10091SOL     OW31171   6.191   4.486   5.765
10091SOL    HW131172   6.227   4.397   5.791
10091SOL    HW231173   6.262   4.556   5.779
10092SOL     OW31174   1.043   2.682   4.063
10092SOL    HW131175   1.029   2.781   4.070
10092SOL    HW231176   1.135   2.659   4.095
10093SOL     OW31177   4.653   4.719   6.313
10093SOL    HW131178   4.697   4.808   6.313
10093SOL    HW231179   4.721   4.648   6.330
10094SOL     OW31180   3.561   1.832   1.456
10094SOL    HW131181   3.653   1.838   1.418
10094SOL    HW231182   3.511   1.916   1.437
10095SOL     OW31183   4.158   2.995   5.611
10095SOL    HW131184   4.182   3.092   5.600
10095SOL    HW231185   4.059   2.984   5.595
10096SOL     OW31186   6.606   2.867   1.887
10096SOL    HW131187   6.525   2.925   1.876
10096SOL    HW231188   6.615   2.807   1.807
10097SOL     OW31189   0.276   1.299   0.481
10097SOL    HW131190   0.183   1.326   0.457
10097SOL    HW231191   0.277   1.258   0.572
10098SOL     OW31192   2.758   5.392   3.665
10098SOL    HW131193   2.769   5.294   3.681
10098SOL    HW231194   2.672   5.408   3.616
10099SOL     OW31195   0.325   4.980   1.976
10099SOL    HW131196   0.425   4.973   1.973
10099SOL    HW231197   0.295   5.057   1.919
10100SOL     OW31198   5.410   5.208   4.099
10100SOL    HW131199   5.352   5.259   4.163
10100SOL    HW231200   5.475   5.270   4.056
10101SOL     OW31201   0.037   3.293   0.965
10101SOL    HW131202   0.098   3.218   0.994
10101SOL    HW231203   6.989   3.255   0.910
10102SOL     OW31204   6.993   5.186   3.305
10102SOL    HW131205   0.034   5.174   3.232
10102SOL    HW231206   7.016   5.266   3.360
10103SOL     OW31207   6.961   5.752   6.338
10103SOL    HW131208   0.025   5.789   6.319
10103SOL    HW231209   6.970   5.667   6.390
10104SOL     OW31210   2.567   0.652   4.871
10104SOL    HW131211   2.592   0.583   4.804
10104SOL    HW231212   2.532   0.607   4.954
10105SOL     OW31213   3.258   1.332   4.731
10105SOL    HW131214   3.327   1.377   4.788
10105SOL    HW231215   3.175   1.317   4.785
10106SOL     OW31216   5.463   4.479   1.224
10106SOL    HW131217   5.527   4.475   1.147
10106SOL    HW231218   5.501   4.537   1.296
10107SOL     OW31219   5.441   5.279   0.486
10107SOL    HW131220   5.352   5.321   0.502
10107SOL    HW231221   5.496   5.338   0.428
10108SOL     OW31222   2.344   2.177   6.097
10108SOL    HW131223   2.286   2.214   6.169
10108SOL    HW231224   2.434   2.220   6.101
10109SOL     OW31225   1.076   2.412   1.234
10109SOL    HW131226   1.081   2.510   1.213
10109SOL    HW231227   0.980   2.387   1.251
10110SOL     OW31228   6.064   5.333   2.771
10110SOL    HW131229   6.014   5.373   2.694
10110SOL    HW231230   6.008   5.339   2.854
10111SOL     OW31231   0.706   2.336   1.721
10111SOL    HW131232   0.790   2.289   1.747
10111SOL    HW231233   0.726   2.432   1.700
10112SOL     OW31234   0.545   2.377   2.663
10112SOL    HW131235   0.605   2.348   2.588
10112SOL    HW231236   0.577   2.337   2.749
10113SOL     OW31237   6.137   0.384   6.190
10113SOL    HW131238   6.146   0.353   6.284
10113SOL    HW231239   6.044   0.367   6.158
10114SOL     OW31240   6.084   2.891   1.486
10114SOL    HW131241   6.061   2.918   1.393
10114SOL    HW231242   6.099   2.792   1.489
10115SOL     OW31243   3.782   2.713   5.501
10115SOL    HW131244   3.837   2.634   5.476
10115SOL    HW231245   3.713   2.730   5.431
10116SOL     OW31246   0.127   0.232   5.680
10116SOL    HW131247   0.209   0.178   5.698
10116SOL    HW231248   0.102   0.224   5.584
10117SOL     OW31249   6.420   4.707   3.447
10117SOL    HW131250   6.455   4.614   3.442
10117SOL    HW231251   6.323   4.706   3.468
10118SOL     OW31252   4.096   5.116   3.790
10118SOL    HW131253   4.172   5.074   3.740
10118SOL    HW231254   4.022   5.138   3.726
10119SOL     OW31255   6.629   6.145   5.956
10119SOL    HW131256   6.547   6.106   5.914
10119SOL    HW231257   6.672   6.078   6.016
10120SOL     OW31258   2.439   2.694   3.728
10120SOL    HW131259   2.343   2.715   3.713
10120SOL    HW231260   2.493   2.778   3.728
10121SOL     OW31261   0.233   4.655   0.701
10121SOL    HW131262   0.239   4.597   0.783
10121SOL    HW231263   0.314   4.640   0.644
10122SOL     OW31264   1.579   0.293   3.290
10122SOL    HW131265   1.533   0.210   3.320
10122SOL    HW231266   1.511   0.356   3.250
10123SOL     OW31267   6.675   5.090   6.782
10123SOL    HW131268   6.750   5.071   6.718
10123SOL    HW231269   6.660   5.011   6.841
10124SOL     OW31270   2.567   5.127   3.052
10124SOL    HW131271   2.658   5.137   3.012
10124SOL    HW231272   2.521   5.049   3.009
10125SOL     OW31273   1.100   0.511   4.918
10125SOL    HW131274   1.142   0.589   4.873
10125SOL    HW231275   1.009   0.495   4.879
10126SOL     OW31276   6.505   6.595   5.779
10126SOL    HW131277   6.549   6.507   5.763
10126SOL    HW231278   6.415   6.580   5.818
10127SOL     OW31279   3.103   0.049   5.523
10127SOL    HW131280   3.058   0.111   5.587
10127SOL    HW231281   3.156   7.009   5.574
10128SOL     OW31282   2.229   2.742   0.427
10128SOL    HW131283   2.268   2.758   0.336
10128SOL    HW231284   2.131   2.723   0.419
10129SOL     OW31285   6.125   1.730   4.526
10129SOL    HW131286   6.088   1.637   4.523
10129SOL    HW231287   6.081   1.786   4.455
10130SOL     OW31288   0.702   1.713   4.499
10130SOL    HW131289   0.699   1.756   4.409
10130SOL    HW231290   0.785   1.743   4.548
10131SOL     OW31291   2.305   6.683   4.343
10131SOL    HW131292   2.231   6.697   4.408
10131SOL    HW231293   2.329   6.770   4.300
10132SOL     OW31294   5.981   6.924   1.464
10132SOL    HW131295   6.010   6.908   1.370
10132SOL    HW231296   5.989   7.022   1.485
10133SOL     OW31297   5.387   6.671   1.119
10133SOL    HW131298   5.302   6.725   1.115
10133SOL    HW231299   5.417   6.650   1.026
10134SOL     OW31300   6.807   0.333   3.117
10134SOL    HW131301   6.875   0.399   3.147
10134SOL    HW231302   6.784   0.272   3.192
10135SOL     OW31303   5.770   0.191   3.300
10135SOL    HW131304   5.778   0.232   3.391
10135SOL    HW231305   5.700   0.240   3.248
10136SOL     OW31306   4.391   2.076   2.943
10136SOL    HW131307   4.365   1.980   2.939
10136SOL    HW231308   4.450   2.092   3.022
10137SOL     OW31309   6.334   5.268   5.472
10137SOL    HW131310   6.273   5.342   5.444
10137SOL    HW231311   6.307   5.184   5.426
10138SOL     OW31312   0.189   2.432   1.514
10138SOL    HW131313   0.283   2.429   1.481
10138SOL    HW231314   0.128   2.388   1.446
10139SOL     OW31315   3.146   2.576   6.510
10139SOL    HW131316   3.180   2.653   6.455
10139SOL    HW231317   3.061   2.542   6.470
10140SOL     OW31318   1.229   6.178   5.672
10140SOL    HW131319   1.165   6.109   5.706
10140SOL    HW231320   1.322   6.153   5.700
10141SOL     OW31321   1.629   2.720   4.105
10141SOL    HW131322   1.675   2.631   4.098
10141SOL    HW231323   1.610   2.740   4.201
10142SOL     OW31324   4.952   6.449   3.206
10142SOL    HW131325   4.958   6.365   3.152
10142SOL    HW231326   4.869   6.499   3.181
10143SOL     OW31327   5.515   2.622   6.614
10143SOL    HW131328   5.423   2.660   6.609
10143SOL    HW231329   5.528   2.554   6.541
10144SOL     OW31330   3.386   6.346   0.770
10144SOL    HW131331   3.318   6.311   0.705
10144SOL    HW231332   3.466   6.380   0.720
10145SOL     OW31333   6.033   6.802   6.191
10145SOL    HW131334   6.109   6.776   6.251
10145SOL    HW231335   6.013   6.899   6.204
10146SOL     OW31336   0.854   2.787   5.000
10146SOL    HW131337   0.774   2.761   4.945
10146SOL    HW231338   0.871   2.885   4.989
10147SOL     OW31339   4.091   6.059   5.641
10147SOL    HW131340   4.059   5.967   5.662
10147SOL    HW231341   4.062   6.084   5.549
10148SOL     OW31342   0.500   4.359   0.091
10148SOL    HW131343   0.535   4.274   0.128
10148SOL    HW231344   0.524   4.366   7.021
10149SOL     OW31345   3.917   3.444   1.097
10149SOL    HW131346   3.868   3.522   1.135
10149SOL    HW231347   3.851   3.373   1.071
10150SOL     OW31348   4.571   4.342   1.296
10150SOL    HW131349   4.651   4.401   1.295
10150SOL    HW231350   4.555   4.304   1.205
10151SOL     OW31351   6.499   0.629   6.016
10151SOL    HW131352   6.499   0.541   5.969
10151SOL    HW231353   6.408   0.647   6.054
10152SOL     OW31354   4.050   6.696   2.673
10152SOL    HW131355   4.106   6.655   2.745
10152SOL    HW231356   4.093   6.677   2.584
10153SOL     OW31357   4.800   4.553   1.862
10153SOL    HW131358   4.704   4.532   1.845
10153SOL    HW231359   4.818   4.649   1.840
10154SOL     OW31360   4.839   5.418   5.827
10154SOL    HW131361   4.766   5.361   5.787
10154SOL    HW231362   4.874   5.481   5.758
10155SOL     OW31363   4.407   1.838   4.271
10155SOL    HW131364   4.457   1.820   4.355
10155SOL    HW231365   4.471   1.842   4.194
10156SOL     OW31366   3.831   1.713   0.321
10156SOL    HW131367   3.925   1.720   0.354
10156SOL    HW231368   3.820   1.768   0.239
10157SOL     OW31369   0.465   4.590   1.686
10157SOL    HW131370   0.549   4.554   1.726
10157SOL    HW231371   0.482   4.614   1.590
10158SOL     OW31372   5.790   5.226   7.003
10158SOL    HW131373   5.881   5.268   7.000
10158SOL    HW231374   5.723   5.287   6.960
10159SOL     OW31375   3.215   2.831   1.933
10159SOL    HW131376   3.152   2.903   1.960
10159SOL    HW231377   3.167   2.763   1.877
10160SOL     OW31378   0.329   4.631   2.818
10160SOL    HW131379   0.425   4.617   2.792
10160SOL    HW231380   0.275   4.550   2.790
10161SOL     OW31381   5.410   3.387   5.588
10161SOL    HW131382   5.462   3.400   5.672
10161SOL    HW231383   5.411   3.291   5.562
10162SOL     OW31384   1.673   2.320   1.699
10162SOL    HW131385   1.713   2.262   1.769
10162SOL    HW231386   1.604   2.268   1.648
10163SOL     OW31387   2.808   5.386   4.988
10163SOL    HW131388   2.869   5.458   5.022
10163SOL    HW231389   2.822   5.302   5.042
10164SOL     OW31390   0.750   1.729   3.763
10164SOL    HW131391   0.747   1.697   3.668
10164SOL    HW231392   0.836   1.779   3.778
10165SOL     OW31393   0.888   3.391   4.594
10165SOL    HW131394   0.980   3.379   4.631
10165SOL    HW231395   0.894   3.433   4.503
10166SOL     OW31396   2.080   6.207   2.563
10166SOL    HW131397   2.130   6.120   2.558
10166SOL    HW231398   2.081   6.251   2.472
10167SOL     OW31399   2.058   1.742   6.822
10167SOL    HW131400   2.109   1.664   6.857
10167SOL    HW231401   2.117   1.799   6.765
10168SOL     OW31402   6.753   0.292   6.669
10168SOL    HW131403   6.844   0.286   6.709
10168SOL    HW231404   6.688   0.321   6.740
10169SOL     OW31405   5.098   4.456   3.701
10169SOL    HW131406   5.081   4.532   3.763
10169SOL    HW231407   5.176   4.402   3.736
10170SOL     OW31408   5.350   5.779   6.975
10170SOL    HW131409   5.268   5.810   7.023
10170SOL    HW231410   5.332   5.691   6.931
10171SOL     OW31411   2.116   4.870   5.053
10171SOL    HW131412   2.172   4.801   5.099
10171SOL    HW231413   2.026   4.832   5.031
10172SOL     OW31414   6.543   0.798   3.331
10172SOL    HW131415   6.568   0.853   3.411
10172SOL    HW231416   6.626   0.777   3.278
10173SOL     OW31417   3.581   3.463   4.868
10173SOL    HW131418   3.592   3.514   4.782
10173SOL    HW231419   3.596   3.366   4.851
10174SOL     OW31420   4.169   5.486   1.525
10174SOL    HW131421   4.099   5.450   1.587
10174SOL    HW231422   4.232   5.413   1.499
10175SOL     OW31423   7.018   6.946   4.576
10175SOL    HW131424   0.084   6.911   4.588
10175SOL    HW231425   6.977   6.961   4.666
10176SOL     OW31426   6.585   1.109   4.783
10176SOL    HW131427   6.527   1.190   4.774
10176SOL    HW231428   6.657   1.111   4.714
10177SOL     OW31429   2.494   0.939   4.065
10177SOL    HW131430   2.552   0.934   3.983
10177SOL    HW231431   2.416   0.878   4.053
10178SOL     OW31432   0.598   1.730   0.977
10178SOL    HW131433   0.564   1.691   0.892
10178SOL    HW231434   0.591   1.662   1.050
10179SOL     OW31435   1.030   4.107   0.197
10179SOL    HW131436   1.021   4.149   0.287
10179SOL    HW231437   0.958   4.141   0.137
10180SOL     OW31438   4.100   0.235   5.826
10180SOL    HW131439   4.179   0.203   5.773
10180SOL    HW231440   4.129   0.308   5.888
10181SOL     OW31441   5.905   3.229   2.683
10181SOL    HW131442   5.845   3.159   2.644
10181SOL    HW231443   5.963   3.268   2.612
10182SOL     OW31444   4.467   1.052   1.127
10182SOL    HW131445   4.407   0.977   1.155
10182SOL    HW231446   4.412   1.133   1.106
10183SOL     OW31447   5.287   0.880   5.589
10183SOL    HW131448   5.268   0.874   5.491
10183SOL    HW231449   5.276   0.791   5.631
10184SOL     OW31450   5.033   2.079   6.054
10184SOL    HW131451   4.988   2.163   6.081
10184SOL    HW231452   5.112   2.062   6.114
10185SOL     OW31453   3.573   5.364   0.970
10185SOL    HW131454   3.549   5.448   0.922
10185SOL    HW231455   3.617   5.386   1.057
10186SOL     OW31456   3.529   3.467   6.528
10186SOL    HW131457   3.496   3.537   6.591
10186SOL    HW231458   3.569   3.391   6.581
10187SOL     OW31459   1.969   4.704   5.427
10187SOL    HW131460   1.885   4.744   5.391
10187SOL    HW231461   1.946   4.629   5.489
10188SOL     OW31462   2.935   0.295   6.057
10188SOL    HW131463   2.985   0.210   6.039
10188SOL    HW231464   2.927   0.308   6.156
10189SOL     OW31465   2.086   1.795   5.338
10189SOL    HW131466   2.127   1.850   5.410
10189SOL    HW231467   2.007   1.843   5.300
10190SOL     OW31468   4.474   4.565   1.033
10190SOL    HW131469   4.563   4.520   1.020
10190SOL    HW231470   4.402   4.495   1.036
10191SOL     OW31471   5.357   7.004   0.179
10191SOL    HW131472   5.273   7.017   0.231
10191SOL    HW231473   5.433   6.988   0.242
10192SOL     OW31474   1.568   1.139   4.588
10192SOL    HW131475   1.551   1.040   4.579
10192SOL    HW231476   1.618   1.155   4.673
10193SOL     OW31477   3.696   3.638   3.702
10193SOL    HW131478   3.751   3.554   3.702
10193SOL    HW231479   3.657   3.652   3.793
10194SOL     OW31480   2.948   0.319   2.593
10194SOL    HW131481   3.001   0.311   2.508
10194SOL    HW231482   2.867   0.261   2.587
10195SOL     OW31483   5.027   6.837   2.562
10195SOL    HW131484   4.967   6.762   2.589
10195SOL    HW231485   5.055   6.888   2.644
10196SOL     OW31486   5.552   3.241   4.346
10196SOL    HW131487   5.632   3.229   4.405
10196SOL    HW231488   5.579   3.229   4.250
10197SOL     OW31489   5.756   1.313   2.266
10197SOL    HW131490   5.679   1.249   2.268
10197SOL    HW231491   5.729   1.398   2.311
10198SOL     OW31492   2.440   0.047   0.863
10198SOL    HW131493   2.489   0.132   0.841
10198SOL    HW231494   2.342   0.061   0.849
10199SOL     OW31495   0.765   1.790   0.276
10199SOL    HW131496   0.689   1.751   0.329
10199SOL    HW231497   0.730   1.864   0.218
10200SOL     OW31498   5.758   5.006   5.437
10200SOL    HW131499   5.778   4.912   5.466
10200SOL    HW231500   5.713   5.054   5.512
10201SOL     OW31501   2.092   5.101   3.130
10201SOL    HW131502   2.025   5.176   3.129
10201SOL    HW231503   2.069   5.036   3.202
10202SOL     OW31504   0.525   2.736   2.685
10202SOL    HW131505   0.568   2.789   2.758
10202SOL    HW231506   0.539   2.638   2.702
10203SOL     OW31507   1.303   3.440   2.106
10203SOL    HW131508   1.251   3.523   2.129
10203SOL    HW231509   1.270   3.364   2.161
10204SOL     OW31510   3.318   5.172   4.025
10204SOL    HW131511   3.338   5.098   3.961
10204SOL    HW231512   3.231   5.215   3.999
10205SOL     OW31513   4.338   1.042   2.750
10205SOL    HW131514   4.337   1.102   2.830
10205SOL    HW231515   4.373   1.093   2.671
10206SOL     OW31516   4.501   0.422   6.071
10206SOL    HW131517   4.526   0.391   5.980
10206SOL    HW231518   4.569   0.487   6.104
10207SOL     OW31519   4.256   0.931   3.281
10207SOL    HW131520   4.246   1.028   3.307
10207SOL    HW231521   4.241   0.873   3.361
10208SOL     OW31522   5.813   3.869   5.094
10208SOL    HW131523   5.773   3.856   5.185
10208SOL    HW231524   5.844   3.963   5.084
10209SOL     OW31525   5.428   6.694   6.631
10209SOL    HW131526   5.479   6.617   6.594
10209SOL    HW231527   5.412   6.761   6.558
10210SOL     OW31528   5.016   5.635   1.771
10210SOL    HW131529   5.092   5.587   1.725
10210SOL    HW231530   5.001   5.723   1.725
10211SOL     OW31531   3.680   5.649   4.838
10211SOL    HW131532   3.613   5.577   4.856
10211SOL    HW231533   3.650   5.704   4.759
10212SOL     OW31534   6.008   6.542   5.325
10212SOL    HW131535   6.052   6.598   5.255
10212SOL    HW231536   6.060   6.457   5.337
10213SOL     OW31537   5.053   0.368   3.511
10213SOL    HW131538   5.105   0.378   3.596
10213SOL    HW231539   5.081   0.284   3.465
10214SOL     OW31540   6.788   0.364   2.006
10214SOL    HW131541   6.744   0.452   1.988
10214SOL    HW231542   6.812   0.359   2.103
10215SOL     OW31543   3.830   2.820   0.198
10215SOL    HW131544   3.905   2.887   0.199
10215SOL    HW231545   3.762   2.848   0.131
10216SOL     OW31546   4.932   0.349   2.603
10216SOL    HW131547   4.973   0.363   2.512
10216SOL    HW231548   4.840   0.389   2.604
10217SOL     OW31549   3.001   2.176   5.667
10217SOL    HW131550   3.082   2.207   5.716
10217SOL    HW231551   3.011   2.196   5.569
10218SOL     OW31552   2.192   2.602   1.112
10218SOL    HW131553   2.094   2.612   1.130
10218SOL    HW231554   2.237   2.565   1.194
10219SOL     OW31555   0.866   4.069   0.867
10219SOL    HW131556   0.839   4.007   0.940
10219SOL    HW231557   0.785   4.102   0.819
10220SOL     OW31558   4.035   2.329   0.683
10220SOL    HW131559   4.074   2.408   0.635
10220SOL    HW231560   4.064   2.330   0.779
10221SOL     OW31561   3.185   0.919   5.382
10221SOL    HW131562   3.212   0.823   5.367
10221SOL    HW231563   3.131   0.950   5.304
10222SOL     OW31564   1.934   4.817   5.890
10222SOL    HW131565   1.931   4.725   5.850
10222SOL    HW231566   2.028   4.853   5.883
10223SOL     OW31567   6.623   4.783   0.314
10223SOL    HW131568   6.542   4.816   0.364
10223SOL    HW231569   6.670   4.860   0.272
10224SOL     OW31570   2.192   6.829   4.660
10224SOL    HW131571   2.255   6.763   4.699
10224SOL    HW231572   2.243   6.892   4.601
10225SOL     OW31573   5.566   5.861   4.642
10225SOL    HW131574   5.563   5.772   4.689
10225SOL    HW231575   5.651   5.908   4.666
10226SOL     OW31576   6.928   2.365   0.353
10226SOL    HW131577   6.849   2.415   0.389
10226SOL    HW231578   6.927   2.272   0.389
10227SOL     OW31579   5.532   6.058   6.520
10227SOL    HW131580   5.471   6.076   6.443
10227SOL    HW231581   5.479   6.021   6.597
10228SOL     OW31582   0.645   3.611   3.252
10228SOL    HW131583   0.734   3.631   3.211
10228SOL    HW231584   0.624   3.513   3.241
10229SOL     OW31585   2.346   0.945   1.918
10229SOL    HW131586   2.382   0.912   1.831
10229SOL    HW231587   2.421   0.973   1.977
10230SOL     OW31588   6.320   6.598   4.621
10230SOL    HW131589   6.351   6.624   4.712
10230SOL    HW231590   6.326   6.677   4.560
10231SOL     OW31591   4.215   6.331   4.318
10231SOL    HW131592   4.200   6.367   4.226
10231SOL    HW231593   4.304   6.362   4.352
10232SOL     OW31594   3.885   2.047   4.683
10232SOL    HW131595   3.943   1.967   4.699
10232SOL    HW231596   3.925   2.104   4.611
10233SOL     OW31597   4.691   1.033   5.554
10233SOL    HW131598   4.687   1.057   5.457
10233SOL    HW231599   4.779   1.062   5.592
10234SOL     OW31600   5.872   5.960   1.314
10234SOL    HW131601   5.971   5.955   1.301
10234SOL    HW231602   5.840   5.877   1.359
10235SOL     OW31603   5.034   1.479   6.018
10235SOL    HW131604   5.021   1.558   6.077
10235SOL    HW231605   5.104   1.499   5.950
10236SOL     OW31606   2.213   5.914   2.893
10236SOL    HW131607   2.287   5.850   2.872
10236SOL    HW231608   2.250   5.991   2.944
10237SOL     OW31609   6.798   2.493   3.248
10237SOL    HW131610   6.705   2.464   3.227
10237SOL    HW231611   6.800   2.536   3.338
10238SOL     OW31612   4.614   5.203   4.368
10238SOL    HW131613   4.559   5.203   4.284
10238SOL    HW231614   4.596   5.288   4.419
10239SOL     OW31615   6.784   3.943   4.158
10239SOL    HW131616   6.833   3.907   4.078
10239SOL    HW231617   6.848   3.990   4.219
10240SOL     OW31618   6.522   3.758   3.689
10240SOL    HW131619   6.469   3.698   3.748
10240SOL    HW231620   6.581   3.817   3.745
10241SOL     OW31621   1.882   1.153   3.631
10241SOL    HW131622   1.909   1.249   3.633
10241SOL    HW231623   1.884   1.119   3.537
10242SOL     OW31624   0.834   6.407   6.049
10242SOL    HW131625   0.783   6.369   6.126
10242SOL    HW231626   0.771   6.460   5.991
10243SOL     OW31627   0.689   5.794   2.695
10243SOL    HW131628   0.598   5.827   2.670
10243SOL    HW231629   0.755   5.822   2.624
10244SOL     OW31630   1.971   6.316   6.886
10244SOL    HW131631   1.917   6.386   6.840
10244SOL    HW231632   2.062   6.351   6.906
10245SOL     OW31633   2.136   2.305   0.323
10245SOL    HW131634   2.122   2.212   0.288
10245SOL    HW231635   2.193   2.356   0.259
10246SOL     OW31636   3.863   3.822   4.266
10246SOL    HW131637   3.780   3.767   4.267
10246SOL    HW231638   3.847   3.906   4.215
10247SOL     OW31639   1.314   5.798   5.830
10247SOL    HW131640   1.279   5.855   5.904
10247SOL    HW231641   1.383   5.735   5.867
10248SOL     OW31642   4.718   0.360   2.261
10248SOL    HW131643   4.773   0.285   2.224
10248SOL    HW231644   4.644   0.322   2.317
10249SOL     OW31645   4.129   1.184   0.163
10249SOL    HW131646   4.151   1.218   0.072
10249SOL    HW231647   4.068   1.248   0.209
10250SOL     OW31648   6.184   0.336   0.184
10250SOL    HW131649   6.192   0.237   0.174
10250SOL    HW231650   6.099   0.367   0.142
10251SOL     OW31651   3.798   4.381   6.526
10251SOL    HW131652   3.815   4.470   6.568
10251SOL    HW231653   3.716   4.341   6.566
10252SOL     OW31654   6.348   5.161   2.440
10252SOL    HW131655   6.293   5.244   2.434
10252SOL    HW231656   6.418   5.162   2.369
10253SOL     OW31657   3.841   5.271   6.442
10253SOL    HW131658   3.782   5.190   6.432
10253SOL    HW231659   3.793   5.351   6.405
10254SOL     OW31660   2.603   1.763   4.453
10254SOL    HW131661   2.523   1.789   4.508
10254SOL    HW231662   2.613   1.663   4.454
10255SOL     OW31663   3.029   5.893   2.951
10255SOL    HW131664   3.090   5.866   3.025
10255SOL    HW231665   2.934   5.883   2.981
10256SOL     OW31666   5.848   6.012   6.743
10256SOL    HW131667   5.876   6.013   6.839
10256SOL    HW231668   5.753   5.980   6.737
10257SOL     OW31669   1.735   6.579   6.430
10257SOL    HW131670   1.830   6.551   6.417
10257SOL    HW231671   1.732   6.668   6.476
10258SOL     OW31672   4.193   0.769   3.511
10258SOL    HW131673   4.141   0.686   3.533
10258SOL    HW231674   4.234   0.805   3.595
10259SOL     OW31675   0.764   3.491   3.547
10259SOL    HW131676   0.833   3.427   3.512
10259SOL    HW231677   0.735   3.552   3.473
10260SOL     OW31678   0.006   7.003   1.238
10260SOL    HW131679   0.061   0.058   1.253
10260SOL    HW231680   0.013   6.943   1.317
10261SOL     OW31681   2.313   6.823   1.561
10261SOL    HW131682   2.217   6.849   1.546
10261SOL    HW231683   2.372   6.879   1.503
10262SOL     OW31684   1.996   5.093   5.171
10262SOL    HW131685   2.042   5.014   5.130
10262SOL    HW231686   2.049   5.124   5.251
10263SOL     OW31687   6.492   2.106   6.005
10263SOL    HW131688   6.450   2.042   5.940
10263SOL    HW231689   6.565   2.060   6.055
10264SOL     OW31690   0.209   6.584   6.678
10264SOL    HW131691   0.280   6.588   6.749
10264SOL    HW231692   0.119   6.591   6.720
10265SOL     OW31693   4.425   1.864   2.361
10265SOL    HW131694   4.510   1.849   2.310
10265SOL    HW231695   4.381   1.776   2.379
10266SOL     OW31696   3.761   4.362   6.266
10266SOL    HW131697   3.843   4.420   6.261
10266SOL    HW231698   3.733   4.352   6.362
10267SOL     OW31699   6.164   1.686   6.394
10267SOL    HW131700   6.099   1.761   6.405
10267SOL    HW231701   6.229   1.708   6.320
10268SOL     OW31702   6.091   4.650   1.938
10268SOL    HW131703   6.047   4.722   1.993
10268SOL    HW231704   6.090   4.564   1.990
10269SOL     OW31705   3.190   3.119   6.293
10269SOL    HW131706   3.168   3.043   6.232
10269SOL    HW231707   3.256   3.180   6.247
10270SOL     OW31708   2.734   6.068   0.692
10270SOL    HW131709   2.805   6.017   0.740
10270SOL    HW231710   2.771   6.155   0.659
10271SOL     OW31711   3.625   5.029   0.736
10271SOL    HW131712   3.560   5.027   0.659
10271SOL    HW231713   3.715   5.058   0.702
10272SOL     OW31714   0.448   0.856   6.150
10272SOL    HW131715   0.396   0.855   6.065
10272SOL    HW231716   0.398   0.907   6.220
10273SOL     OW31717   4.436   5.911   4.475
10273SOL    HW131718   4.502   5.848   4.435
10273SOL    HW231719   4.346   5.867   4.479
10274SOL     OW31720   2.256   6.139   6.027
10274SOL    HW131721   2.283   6.094   6.112
10274SOL    HW231722   2.203   6.221   6.048
10275SOL     OW31723   1.133   6.050   1.923
10275SOL    HW131724   1.162   6.129   1.977
10275SOL    HW231725   1.072   6.080   1.850
10276SOL     OW31726   6.811   6.423   6.314
10276SOL    HW131727   6.849   6.496   6.371
10276SOL    HW231728   6.855   6.425   6.224
10277SOL     OW31729   1.908   5.188   3.409
10277SOL    HW131730   1.888   5.242   3.327
10277SOL    HW231731   1.960   5.106   3.383
10278SOL     OW31732   6.264   0.651   6.155
10278SOL    HW131733   6.190   0.717   6.166
10278SOL    HW231734   6.232   0.560   6.180
10279SOL     OW31735   3.248   6.645   3.305
10279SOL    HW131736   3.246   6.731   3.255
10279SOL    HW231737   3.343   6.623   3.329
10280SOL     OW31738   2.904   2.590   6.870
10280SOL    HW131739   2.894   2.558   6.776
10280SOL    HW231740   2.895   2.513   6.933
10281SOL     OW31741   4.015   6.763   3.967
10281SOL    HW131742   3.951   6.756   4.043
10281SOL    HW231743   4.023   6.859   3.938
10282SOL     OW31744   1.252   2.698   4.784
10282SOL    HW131745   1.250   2.793   4.752
10282SOL    HW231746   1.312   2.644   4.724
10283SOL     OW31747   0.835   3.330   5.786
10283SOL    HW131748   0.769   3.331   5.710
10283SOL    HW231749   0.878   3.240   5.791
10284SOL     OW31750   5.521   3.516   6.585
10284SOL    HW131751   5.423   3.511   6.571
10284SOL    HW231752   5.559   3.593   6.534
10285SOL     OW31753   5.879   0.348   0.521
10285SOL    HW131754   5.825   0.341   0.606
10285SOL    HW231755   5.972   0.377   0.543
10286SOL     OW31756   4.838   0.933   3.733
10286SOL    HW131757   4.915   0.948   3.671
10286SOL    HW231758   4.804   0.839   3.721
10287SOL     OW31759   2.025   5.544   1.643
10287SOL    HW131760   1.934   5.503   1.634
10287SOL    HW231761   2.039   5.610   1.569
10288SOL     OW31762   4.862   6.221   4.020
10288SOL    HW131763   4.933   6.280   4.058
10288SOL    HW231764   4.886   6.125   4.037
10289SOL     OW31765   3.350   1.497   1.589
10289SOL    HW131766   3.444   1.468   1.610
10289SOL    HW231767   3.352   1.565   1.516
10290SOL     OW31768   2.943   3.703   2.559
10290SOL    HW131769   2.906   3.642   2.489
10290SOL    HW231770   2.930   3.661   2.649
10291SOL     OW31771   3.852   0.382   5.856
10291SOL    HW131772   3.867   0.481   5.855
10291SOL    HW231773   3.937   0.336   5.880
10292SOL     OW31774   6.719   0.709   4.510
10292SOL    HW131775   6.620   0.725   4.509
10292SOL    HW231776   6.736   0.610   4.517
10293SOL     OW31777   2.406   5.588   2.907
10293SOL    HW131778   2.472   5.556   2.839
10293SOL    HW231779   2.455   5.637   2.980
10294SOL     OW31780   6.078   1.532   3.151
10294SOL    HW131781   6.085   1.568   3.058
10294SOL    HW231782   6.119   1.597   3.215
10295SOL     OW31783   0.820   5.105   5.799
10295SOL    HW131784   0.764   5.051   5.862
10295SOL    HW231785   0.798   5.079   5.705
10296SOL     OW31786   6.282   2.189   0.953
10296SOL    HW131787   6.360   2.140   0.994
10296SOL    HW231788   6.199   2.133   0.963
10297SOL     OW31789   2.261   5.130   4.629
10297SOL    HW131790   2.231   5.100   4.719
10297SOL    HW231791   2.278   5.050   4.571
10298SOL     OW31792   5.561   3.500   3.421
10298SOL    HW131793   5.542   3.402   3.414
10298SOL    HW231794   5.639   3.523   3.362
10299SOL     OW31795   5.009   4.921   2.216
10299SOL    HW131796   5.017   4.823   2.235
10299SOL    HW231797   4.918   4.941   2.179
10300SOL     OW31798   2.276   5.111   2.912
10300SOL    HW131799   2.200   5.110   2.977
10300SOL    HW231800   2.264   5.189   2.850
10301SOL     OW31801   5.613   1.920   1.979
10301SOL    HW131802   5.530   1.905   1.927
10301SOL    HW231803   5.646   1.834   2.016
10302SOL     OW31804   1.320   5.100   3.343
10302SOL    HW131805   1.301   5.157   3.423
10302SOL    HW231806   1.264   5.018   3.347
10303SOL     OW31807   3.537   3.116   1.072
10303SOL    HW131808   3.473   3.124   1.148
10303SOL    HW231809   3.519   3.030   1.023
10304SOL     OW31810   6.219   6.484   3.973
10304SOL    HW131811   6.172   6.487   3.885
10304SOL    HW231812   6.307   6.437   3.963
10305SOL     OW31813   1.730   5.804   1.403
10305SOL    HW131814   1.699   5.852   1.321
10305SOL    HW231815   1.703   5.855   1.485
10306SOL     OW31816   4.319   4.801   0.596
10306SOL    HW131817   4.254   4.726   0.581
10306SOL    HW231818   4.308   4.868   0.523
10307SOL     OW31819   2.969   1.259   5.426
10307SOL    HW131820   3.063   1.294   5.434
10307SOL    HW231821   2.949   1.199   5.503
10308SOL     OW31822   3.263   5.711   3.543
10308SOL    HW131823   3.290   5.806   3.558
10308SOL    HW231824   3.176   5.693   3.590
10309SOL     OW31825   0.935   6.537   3.268
10309SOL    HW131826   0.879   6.463   3.307
10309SOL    HW231827   1.031   6.510   3.271
10310SOL     OW31828   3.626   3.693   4.253
10310SOL    HW131829   3.595   3.644   4.171
10310SOL    HW231830   3.650   3.627   4.323
10311SOL     OW31831   0.050   6.254   0.820
10311SOL    HW131832   0.026   6.307   0.902
10311SOL    HW231833   0.127   6.193   0.842
10312SOL     OW31834   1.614   5.399   1.090
10312SOL    HW131835   1.630   5.397   0.992
10312SOL    HW231836   1.585   5.309   1.122
10313SOL     OW31837   5.950   5.896   3.288
10313SOL    HW131838   5.960   5.892   3.189
10313SOL    HW231839   6.002   5.822   3.330
10314SOL     OW31840   6.724   5.532   6.325
10314SOL    HW131841   6.677   5.595   6.387
10314SOL    HW231842   6.756   5.582   6.245
10315SOL     OW31843   6.087   5.860   4.812
10315SOL    HW131844   6.095   5.900   4.904
10315SOL    HW231845   6.115   5.928   4.744
10316SOL     OW31846   6.773   4.130   2.771
10316SOL    HW131847   6.750   4.227   2.760
10316SOL    HW231848   6.840   4.120   2.844
10317SOL     OW31849   3.411   4.790   0.861
10317SOL    HW131850   3.415   4.884   0.827
10317SOL    HW231851   3.318   4.770   0.893
10318SOL     OW31852   6.670   5.487   2.507
10318SOL    HW131853   6.745   5.458   2.448
10318SOL    HW231854   6.601   5.535   2.452
10319SOL     OW31855   4.747   6.094   4.662
10319SOL    HW131856   4.738   5.994   4.656
10319SOL    HW231857   4.832   6.122   4.617
10320SOL     OW31858   4.615   6.417   0.982
10320SOL    HW131859   4.533   6.430   0.926
10320SOL    HW231860   4.593   6.437   1.078
10321SOL     OW31861   4.202   6.696   4.277
10321SOL    HW131862   4.160   6.606   4.261
10321SOL    HW231863   4.148   6.766   4.231
10322SOL     OW31864   6.589   2.777   0.015
10322SOL    HW131865   6.535   2.701   0.051
10322SOL    HW231866   6.686   2.759   0.031
10323SOL     OW31867   5.878   2.283   5.268
10323SOL    HW131868   5.810   2.245   5.330
10323SOL    HW231869   5.881   2.383   5.279
10324SOL     OW31870   2.979   3.767   3.736
10324SOL    HW131871   2.964   3.674   3.702
10324SOL    HW231872   2.938   3.776   3.827
10325SOL     OW31873   0.914   3.648   3.953
10325SOL    HW131874   0.990   3.583   3.942
10325SOL    HW231875   0.837   3.602   3.996
10326SOL     OW31876   4.836   1.387   1.449
10326SOL    HW131877   4.914   1.324   1.454
10326SOL    HW231878   4.868   1.480   1.464
10327SOL     OW31879   0.033   0.799   3.821
10327SOL    HW131880   7.027   0.707   3.804
10327SOL    HW231881   0.085   0.800   3.907
10328SOL     OW31882   5.826   3.092   2.123
10328SOL    HW131883   5.744   3.141   2.093
10328SOL    HW231884   5.875   3.056   2.044
10329SOL     OW31885   3.883   6.215   2.043
10329SOL    HW131886   3.952   6.153   2.079
10329SOL    HW231887   3.918   6.308   2.044
10330SOL     OW31888   3.520   4.307   1.053
10330SOL    HW131889   3.514   4.246   1.133
10330SOL    HW231890   3.604   4.360   1.058
10331SOL     OW31891   5.352   0.606   4.297
10331SOL    HW131892   5.352   0.629   4.394
10331SOL    HW231893   5.350   0.690   4.243
10332SOL     OW31894   6.999   1.690   0.017
10332SOL    HW131895   0.032   1.640   6.981
10332SOL    HW231896   6.972   1.777   7.002
10333SOL     OW31897   5.104   4.113   4.766
10333SOL    HW131898   5.134   4.205   4.742
10333SOL    HW231899   5.131   4.049   4.694
10334SOL     OW31900   0.982   4.714   4.925
10334SOL    HW131901   0.975   4.774   5.005
10334SOL    HW231902   0.905   4.733   4.863
10335SOL     OW31903   2.104   5.281   2.044
10335SOL    HW131904   2.026   5.339   2.020
10335SOL    HW231905   2.188   5.334   2.034
10336SOL     OW31906   4.141   6.264   2.796
10336SOL    HW131907   4.143   6.305   2.888
10336SOL    HW231908   4.167   6.334   2.729
10337SOL     OW31909   0.774   4.970   5.526
10337SOL    HW131910   0.767   4.951   5.428
10337SOL    HW231911   0.749   4.888   5.578
10338SOL     OW31912   3.804   4.879   3.285
10338SOL    HW131913   3.843   4.869   3.194
10338SOL    HW231914   3.866   4.838   3.352
10339SOL     OW31915   3.001   5.398   0.718
10339SOL    HW131916   3.043   5.439   0.637
10339SOL    HW231917   3.013   5.459   0.796
10340SOL     OW31918   1.719   7.001   6.764
10340SOL    HW131919   1.776   0.049   6.799
10340SOL    HW231920   1.628   7.007   6.805
10341SOL     OW31921   1.424   2.026   2.433
10341SOL    HW131922   1.430   2.066   2.524
10341SOL    HW231923   1.496   1.958   2.421
10342SOL     OW31924   2.727   6.821   4.294
10342SOL    HW131925   2.815   6.777   4.281
10342SOL    HW231926   2.737   6.920   4.290
10343SOL     OW31927   2.249   3.076   4.167
10343SOL    HW131928   2.235   3.007   4.237
10343SOL    HW231929   2.199   3.159   4.190
10344SOL     OW31930   3.981   4.042   0.006
10344SOL    HW131931   4.015   3.987   0.082
10344SOL    HW231932   4.045   4.036   6.957
10345SOL     OW31933   1.641   1.844   5.938
10345SOL    HW131934   1.622   1.926   5.884
10345SOL    HW231935   1.737   1.845   5.968
10346SOL     OW31936   5.416   5.515   0.206
10346SOL    HW131937   5.390   5.569   0.286
10346SOL    HW231938   5.337   5.505   0.145
10347SOL     OW31939   4.842   1.608   2.156
10347SOL    HW131940   4.793   1.577   2.237
10347SOL    HW231941   4.778   1.622   2.081
10348SOL     OW31942   0.022   5.022   5.852
10348SOL    HW131943   0.073   5.070   5.781
10348SOL    HW231944   6.963   4.988   5.814
10349SOL     OW31945   0.478   1.760   1.231
10349SOL    HW131946   0.415   1.808   1.169
10349SOL    HW231947   0.508   1.675   1.188
10350SOL     OW31948   2.405   4.384   4.470
10350SOL    HW131949   2.490   4.404   4.518
10350SOL    HW231950   2.334   4.449   4.496
10351SOL     OW31951   4.583   4.548   4.893
10351SOL    HW131952   4.498   4.550   4.945
10351SOL    HW231953   4.623   4.457   4.897
10352SOL     OW31954   5.528   1.226   6.696
10352SOL    HW131955   5.448   1.213   6.638
10352SOL    HW231956   5.590   1.149   6.687
10353SOL     OW31957   6.306   2.673   3.719
10353SOL    HW131958   6.266   2.586   3.691
10353SOL    HW231959   6.232   2.739   3.735
10354SOL     OW31960   6.334   3.278   1.159
10354SOL    HW131961   6.428   3.313   1.165
10354SOL    HW231962   6.334   3.193   1.106
10355SOL     OW31963   0.483   1.651   0.745
10355SOL    HW131964   0.396   1.604   0.759
10355SOL    HW231965   0.519   1.628   0.654
10356SOL     OW31966   5.904   3.466   5.719
10356SOL    HW131967   5.985   3.462   5.776
10356SOL    HW231968   5.853   3.550   5.739
10357SOL     OW31969   0.636   1.036   6.050
10357SOL    HW131970   0.587   0.966   6.102
10357SOL    HW231971   0.612   1.029   5.953
10358SOL     OW31972   0.952   2.487   3.401
10358SOL    HW131973   0.901   2.544   3.337
10358SOL    HW231974   0.996   2.545   3.470
10359SOL     OW31975   6.093   2.423   2.161
10359SOL    HW131976   6.094   2.376   2.250
10359SOL    HW231977   6.187   2.428   2.126
10360SOL     OW31978   5.767   4.300   1.709
10360SOL    HW131979   5.697   4.231   1.689
10360SOL    HW231980   5.728   4.391   1.696
10361SOL     OW31981   6.627   2.015   2.642
10361SOL    HW131982   6.682   2.077   2.698
10361SOL    HW231983   6.603   1.934   2.696
10362SOL     OW31984   1.299   5.924   1.761
10362SOL    HW131985   1.231   5.981   1.807
10362SOL    HW231986   1.262   5.891   1.674
10363SOL     OW31987   5.458   4.517   6.656
10363SOL    HW131988   5.469   4.589   6.588
10363SOL    HW231989   5.383   4.541   6.718
10364SOL     OW31990   6.172   4.697   2.451
10364SOL    HW131991   6.264   4.714   2.418
10364SOL    HW231992   6.176   4.663   2.545
10365SOL     OW31993   5.795   5.048   0.733
10365SOL    HW131994   5.853   5.091   0.802
10365SOL    HW231995   5.701   5.081   0.743
10366SOL     OW31996   2.802   6.324   2.902
10366SOL    HW131997   2.880   6.268   2.874
10366SOL    HW231998   2.810   6.415   2.861
10367SOL     OW31999   5.820   6.240   1.429
10367SOL    HW132000   5.851   6.145   1.428
10367SOL    HW232001   5.832   6.277   1.522
10368SOL     OW32002   2.048   6.863   1.405
10368SOL    HW132003   2.084   6.771   1.424
10368SOL    HW232004   1.975   6.857   1.337
10369SOL     OW32005   2.784   0.353   5.641
10369SOL    HW132006   2.750   0.290   5.711
10369SOL    HW232007   2.707   0.400   5.598
10370SOL     OW32008   1.188   0.874   5.560
10370SOL    HW132009   1.232   0.952   5.604
10370SOL    HW232010   1.206   0.878   5.462
10371SOL     OW32011   4.614   5.262   2.856
10371SOL    HW132012   4.535   5.230   2.909
10371SOL    HW232013   4.598   5.244   2.759
10372SOL     OW32014   2.965   6.293   1.818
10372SOL    HW132015   2.895   6.258   1.756
10372SOL    HW232016   3.009   6.217   1.865
10373SOL     OW32017   6.606   1.518   6.023
10373SOL    HW132018   6.682   1.508   5.959
10373SOL    HW232019   6.519   1.501   5.976
10374SOL     OW32020   3.774   5.502   3.287
10374SOL    HW132021   3.754   5.501   3.385
10374SOL    HW232022   3.712   5.440   3.239
10375SOL     OW32023   2.463   4.932   6.796
10375SOL    HW132024   2.379   4.944   6.744
10375SOL    HW232025   2.484   5.016   6.846
10376SOL     OW32026   2.205   5.156   3.849
10376SOL    HW132027   2.204   5.090   3.774
10376SOL    HW232028   2.165   5.242   3.818
10377SOL     OW32029   1.714   0.869   2.179
10377SOL    HW132030   1.756   0.792   2.228
10377SOL    HW232031   1.770   0.892   2.099
10378SOL     OW32032   0.003   5.502   4.245
10378SOL    HW132033   0.009   5.557   4.162
10378SOL    HW232034   6.990   5.413   4.224
10379SOL     OW32035   2.022   6.898   4.316
10379SOL    HW132036   2.063   6.828   4.258
10379SOL    HW232037   2.065   6.986   4.297
10380SOL     OW32038   2.900   2.156   4.634
10380SOL    HW132039   2.852   2.069   4.627
10380SOL    HW232040   2.956   2.157   4.717
10381SOL     OW32041   4.560   6.391   2.015
10381SOL    HW132042   4.621   6.470   2.028
10381SOL    HW232043   4.547   6.375   1.917
10382SOL     OW32044   4.126   5.852   1.796
10382SOL    HW132045   4.173   5.920   1.740
10382SOL    HW232046   4.194   5.802   1.850
10383SOL     OW32047   1.688   4.548   6.909
10383SOL    HW132048   1.753   4.618   6.879
10383SOL    HW232049   1.594   4.580   6.891
10384SOL     OW32050   5.928   6.000   1.697
10384SOL    HW132051   5.901   6.096   1.702
10384SOL    HW232052   5.850   5.942   1.722
10385SOL     OW32053   4.593   4.725   6.995
10385SOL    HW132054   4.620   4.813   0.007
10385SOL    HW232055   4.494   4.714   7.004
10386SOL     OW32056   0.294   0.953   0.901
10386SOL    HW132057   0.385   0.937   0.863
10386SOL    HW232058   0.288   0.912   0.992
10387SOL     OW32059   5.191   3.127   1.901
10387SOL    HW132060   5.240   3.215   1.901
10387SOL    HW232061   5.143   3.117   1.988
10388SOL     OW32062   2.343   0.282   4.807
10388SOL    HW132063   2.302   0.220   4.874
10388SOL    HW232064   2.429   0.243   4.773
10389SOL     OW32065   0.570   3.592   0.829
10389SOL    HW132066   0.501   3.570   0.759
10389SOL    HW232067   0.610   3.507   0.863
10390SOL     OW32068   2.300   2.245   1.524
10390SOL    HW132069   2.283   2.201   1.436
10390SOL    HW232070   2.393   2.282   1.525
10391SOL     OW32071   5.421   0.039   4.326
10391SOL    HW132072   5.520   0.042   4.310
10391SOL    HW232073   5.390   0.128   4.359
10392SOL     OW32074   6.323   3.867   4.163
10392SOL    HW132075   6.406   3.819   4.191
10392SOL    HW232076   6.349   3.953   4.118
10393SOL     OW32077   1.175   3.344   3.588
10393SOL    HW132078   1.206   3.249   3.589
10393SOL    HW232079   1.230   3.398   3.651
10394SOL     OW32080   3.274   6.882   4.420
10394SOL    HW132081   3.332   6.800   4.418
10394SOL    HW232082   3.313   6.952   4.361
10395SOL     OW32083   1.304   0.633   0.937
10395SOL    HW132084   1.240   0.624   0.860
10395SOL    HW232085   1.287   0.719   0.985
10396SOL     OW32086   2.753   2.128   5.031
10396SOL    HW132087   2.783   2.145   5.125
10396SOL    HW232088   2.653   2.127   5.028
10397SOL     OW32089   3.596   2.096   2.934
10397SOL    HW132090   3.688   2.076   2.968
10397SOL    HW232091   3.542   2.137   3.007
10398SOL     OW32092   6.402   2.555   1.660
10398SOL    HW132093   6.411   2.455   1.654
10398SOL    HW232094   6.328   2.586   1.600
10399SOL     OW32095   0.217   3.487   1.693
10399SOL    HW132096   0.163   3.522   1.769
10399SOL    HW232097   0.157   3.443   1.626
10400SOL     OW32098   4.280   6.436   0.172
10400SOL    HW132099   4.260   6.490   0.254
10400SOL    HW232100   4.204   6.374   0.153
10401SOL     OW32101   0.372   1.123   5.471
10401SOL    HW132102   0.307   1.173   5.529
10401SOL    HW232103   0.391   1.177   5.389
10402SOL     OW32104   6.640   3.074   4.828
10402SOL    HW132105   6.737   3.068   4.802
10402SOL    HW232106   6.583   3.064   4.746
10403SOL     OW32107   2.621   0.582   2.344
10403SOL    HW132108   2.619   0.645   2.266
10403SOL    HW232109   2.716   0.569   2.374
10404SOL     OW32110   0.234   6.856   6.656
10404SOL    HW132111   0.228   6.757   6.667
10404SOL    HW232112   0.267   6.878   6.564
10405SOL     OW32113   6.894   1.367   6.325
10405SOL    HW132114   6.948   1.406   6.251
10405SOL    HW232115   6.942   1.289   6.364
10406SOL     OW32116   2.879   4.573   1.589
10406SOL    HW132117   2.896   4.541   1.682
10406SOL    HW232118   2.959   4.554   1.532
10407SOL     OW32119   3.204   6.556   0.123
10407SOL    HW132120   3.191   6.616   0.202
10407SOL    HW232121   3.130   6.571   0.057
10408SOL     OW32122   3.904   0.639   0.414
10408SOL    HW132123   3.884   0.692   0.332
10408SOL    HW232124   3.888   0.695   0.495
10409SOL     OW32125   5.839   4.819   1.373
10409SOL    HW132126   5.847   4.721   1.354
10409SOL    HW232127   5.827   4.833   1.471
10410SOL     OW32128   5.563   0.706   0.980
10410SOL    HW132129   5.542   0.710   0.882
10410SOL    HW232130   5.652   0.664   0.993
10411SOL     OW32131   3.127   5.609   2.974
10411SOL    HW132132   3.125   5.686   3.037
10411SOL    HW232133   3.164   5.639   2.886
10412SOL     OW32134   6.239   0.321   0.833
10412SOL    HW132135   6.329   0.334   0.790
10412SOL    HW232136   6.228   0.387   0.907
10413SOL     OW32137   5.934   2.521   1.351
10413SOL    HW132138   5.866   2.589   1.379
10413SOL    HW232139   5.991   2.560   1.278
10414SOL     OW32140   4.811   2.793   4.329
10414SOL    HW132141   4.785   2.765   4.237
10414SOL    HW232142   4.739   2.766   4.393
10415SOL     OW32143   0.751   6.132   6.469
10415SOL    HW132144   0.850   6.121   6.457
10415SOL    HW232145   0.729   6.127   6.566
10416SOL     OW32146   5.836   2.989   4.552
10416SOL    HW132147   5.859   3.068   4.609
10416SOL    HW232148   5.745   2.956   4.577
10417SOL     OW32149   2.541   4.690   4.120
10417SOL    HW132150   2.507   4.603   4.155
10417SOL    HW232151   2.582   4.742   4.195
10418SOL     OW32152   0.900   4.836   5.964
10418SOL    HW132153   0.816   4.886   5.985
10418SOL    HW232154   0.930   4.858   5.872
10419SOL     OW32155   1.174   1.132   0.775
10419SOL    HW132156   1.089   1.138   0.828
10419SOL    HW232157   1.203   1.225   0.750
10420SOL     OW32158   6.954   3.287   3.066
10420SOL    HW132159   6.900   3.307   3.148
10420SOL    HW232160   6.954   3.368   3.006
10421SOL     OW32161   0.714   0.720   3.086
10421SOL    HW132162   0.788   0.710   3.020
10421SOL    HW232163   0.654   0.796   3.059
10422SOL     OW32164   6.010   2.805   6.347
10422SOL    HW132165   6.079   2.780   6.415
10422SOL    HW232166   5.941   2.864   6.389
10423SOL     OW32167   4.788   4.591   3.306
10423SOL    HW132168   4.750   4.504   3.277
10423SOL    HW232169   4.817   4.644   3.225
10424SOL     OW32170   5.029   1.665   6.740
10424SOL    HW132171   5.116   1.711   6.756
10424SOL    HW232172   4.990   1.635   6.827
10425SOL     OW32173   1.268   5.607   2.546
10425SOL    HW132174   1.359   5.614   2.589
10425SOL    HW232175   1.239   5.511   2.544
10426SOL     OW32176   6.320   4.569   0.166
10426SOL    HW132177   6.354   4.642   0.106
10426SOL    HW232178   6.221   4.578   0.175
10427SOL     OW32179   5.403   2.193   0.297
10427SOL    HW132180   5.472   2.258   0.264
10427SOL    HW232181   5.416   2.105   0.253
10428SOL     OW32182   4.656   0.395   4.554
10428SOL    HW132183   4.704   0.405   4.641
10428SOL    HW232184   4.707   0.333   4.494
10429SOL     OW32185   6.919   6.242   1.708
10429SOL    HW132186   6.882   6.149   1.708
10429SOL    HW232187   6.993   6.248   1.776
10430SOL     OW32188   4.068   6.631   2.412
10430SOL    HW132189   3.975   6.667   2.421
10430SOL    HW232190   4.110   6.667   2.328
10431SOL     OW32191   2.930   0.519   4.359
10431SOL    HW132192   2.865   0.582   4.401
10431SOL    HW232193   3.007   0.505   4.422
10432SOL     OW32194   6.132   0.823   4.792
10432SOL    HW132195   6.216   0.786   4.831
10432SOL    HW232196   6.155   0.895   4.725
10433SOL     OW32197   2.097   6.940   0.704
10433SOL    HW132198   2.014   6.930   0.760
10433SOL    HW232199   2.125   6.851   0.669
10434SOL     OW32200   2.544   0.596   3.847
10434SOL    HW132201   2.588   0.592   3.937
10434SOL    HW232202   2.477   0.671   3.846
10435SOL     OW32203   5.625   6.348   6.230
10435SOL    HW132204   5.526   6.354   6.217
10435SOL    HW232205   5.671   6.373   6.145
10436SOL     OW32206   1.804   4.922   4.032
10436SOL    HW132207   1.899   4.894   4.048
10436SOL    HW232208   1.782   5.000   4.091
10437SOL     OW32209   6.864   5.324   6.080
10437SOL    HW132210   6.951   5.368   6.058
10437SOL    HW232211   6.830   5.359   6.167
10438SOL     OW32212   4.051   6.780   0.391
10438SOL    HW132213   3.981   6.760   0.460
10438SOL    HW232214   4.115   6.704   0.386
10439SOL     OW32215   3.838   0.082   5.794
10439SOL    HW132216   3.842   0.179   5.820
10439SOL    HW232217   3.925   0.038   5.818
10440SOL     OW32218   1.908   6.530   0.943
10440SOL    HW132219   1.842   6.585   0.994
10440SOL    HW232220   1.864   6.448   0.907
10441SOL     OW32221   5.487   2.054   6.331
10441SOL    HW132222   5.499   2.108   6.247
10441SOL    HW232223   5.541   2.095   6.404
10442SOL     OW32224   3.834   4.853   5.845
10442SOL    HW132225   3.900   4.783   5.872
10442SOL    HW232226   3.771   4.871   5.920
10443SOL     OW32227   5.635   3.550   5.208
10443SOL    HW132228   5.584   3.626   5.247
10443SOL    HW232229   5.637   3.559   5.108
10444SOL     OW32230   4.139   5.297   4.636
10444SOL    HW132231   4.051   5.312   4.681
10444SOL    HW232232   4.124   5.249   4.549
10445SOL     OW32233   6.956   6.201   5.081
10445SOL    HW132234   6.957   6.299   5.061
10445SOL    HW232235   6.889   6.156   5.023
10446SOL     OW32236   1.165   5.216   5.439
10446SOL    HW132237   1.179   5.179   5.530
10446SOL    HW232238   1.068   5.210   5.415
10447SOL     OW32239   6.096   2.605   1.134
10447SOL    HW132240   6.057   2.679   1.080
10447SOL    HW232241   6.080   2.517   1.088
10448SOL     OW32242   3.886   3.869   2.554
10448SOL    HW132243   3.961   3.871   2.488
10448SOL    HW232244   3.829   3.950   2.542
10449SOL     OW32245   2.949   5.495   4.408
10449SOL    HW132246   2.852   5.507   4.428
10449SOL    HW232247   2.999   5.476   4.493
10450SOL     OW32248   0.177   2.178   0.995
10450SOL    HW132249   0.183   2.216   0.903
10450SOL    HW232250   0.207   2.246   1.062
10451SOL     OW32251   2.470   4.496   3.007
10451SOL    HW132252   2.436   4.468   3.097
10451SOL    HW232253   2.428   4.438   2.936
10452SOL     OW32254   0.875   3.169   3.802
10452SOL    HW132255   0.911   3.145   3.713
10452SOL    HW232256   0.881   3.090   3.863
10453SOL     OW32257   4.895   6.533   1.800
10453SOL    HW132258   4.806   6.569   1.829
10453SOL    HW232259   4.958   6.534   1.877
10454SOL     OW32260   5.063   2.975   2.145
10454SOL    HW132261   5.151   2.935   2.172
10454SOL    HW232262   4.996   2.961   2.219
10455SOL     OW32263   0.097   5.007   3.851
10455SOL    HW132264   0.020   4.957   3.890
10455SOL    HW232265   0.178   4.995   3.909
10456SOL     OW32266   4.486   6.149   1.150
10456SOL    HW132267   4.524   6.226   1.201
10456SOL    HW232268   4.386   6.152   1.153
10457SOL     OW32269   4.154   3.539   3.164
10457SOL    HW132270   4.083   3.474   3.190
10457SOL    HW232271   4.233   3.489   3.127
10458SOL     OW32272   1.090   6.679   0.910
10458SOL    HW132273   0.998   6.701   0.878
10458SOL    HW232274   1.157   6.737   0.863
10459SOL     OW32275   6.388   5.145   2.973
10459SOL    HW132276   6.480   5.116   2.945
10459SOL    HW232277   6.390   5.242   2.997
10460SOL     OW32278   2.072   4.864   2.209
10460SOL    HW132279   2.078   4.856   2.308
10460SOL    HW232280   1.993   4.920   2.184
10461SOL     OW32281   2.677   1.491   6.848
10461SOL    HW132282   2.772   1.462   6.854
10461SOL    HW232283   2.671   1.577   6.797
10462SOL     OW32284   6.743   0.294   0.793
10462SOL    HW132285   6.734   0.194   0.788
10462SOL    HW232286   6.780   0.320   0.882
10463SOL     OW32287   2.898   4.840   0.494
10463SOL    HW132288   2.810   4.803   0.523
10463SOL    HW232289   2.885   4.933   0.458
10464SOL     OW32290   5.251   0.428   0.993
10464SOL    HW132291   5.228   0.524   0.978
10464SOL    HW232292   5.195   0.370   0.933
10465SOL     OW32293   6.471   5.073   6.237
10465SOL    HW132294   6.510   5.019   6.312
10465SOL    HW232295   6.466   5.016   6.155
10466SOL     OW32296   5.060   6.030   5.792
10466SOL    HW132297   4.962   6.048   5.794
10466SOL    HW232298   5.076   5.935   5.764
10467SOL     OW32299   2.982   0.844   5.591
10467SOL    HW132300   3.046   0.857   5.515
10467SOL    HW232301   2.949   0.933   5.622
10468SOL     OW32302   3.154   6.400   3.636
10468SOL    HW132303   3.158   6.479   3.697
10468SOL    HW232304   3.111   6.427   3.550
10469SOL     OW32305   1.295   4.413   0.493
10469SOL    HW132306   1.328   4.401   0.399
10469SOL    HW232307   1.326   4.336   0.549
10470SOL     OW32308   2.356   1.572   4.364
10470SOL    HW132309   2.443   1.536   4.397
10470SOL    HW232310   2.283   1.506   4.382
10471SOL     OW32311   3.197   3.818   0.550
10471SOL    HW132312   3.206   3.761   0.632
10471SOL    HW232313   3.222   3.765   0.470
10472SOL     OW32314   4.923   1.221   2.448
10472SOL    HW132315   4.869   1.141   2.473
10472SOL    HW232316   5.013   1.193   2.415
10473SOL     OW32317   4.908   6.356   0.633
10473SOL    HW132318   4.892   6.259   0.614
10473SOL    HW232319   4.890   6.375   0.730
10474SOL     OW32320   3.995   0.416   5.290
10474SOL    HW132321   3.978   0.511   5.267
10474SOL    HW232322   3.975   0.400   5.387
10475SOL     OW32323   4.279   6.740   1.768
10475SOL    HW132324   4.212   6.668   1.748
10475SOL    HW232325   4.323   6.769   1.684
10476SOL     OW32326   7.003   5.211   0.066
10476SOL    HW132327   6.990   5.144   7.020
10476SOL    HW232328   6.979   5.302   0.033
10477SOL     OW32329   5.479   3.806   5.394
10477SOL    HW132330   5.523   3.737   5.452
10477SOL    HW232331   5.381   3.806   5.412
10478SOL     OW32332   0.382   6.701   1.167
10478SOL    HW132333   0.402   6.663   1.256
10478SOL    HW232334   0.346   6.630   1.106
10479SOL     OW32335   1.140   3.950   3.474
10479SOL    HW132336   1.080   3.927   3.398
10479SOL    HW232337   1.087   3.956   3.558
10480SOL     OW32338   5.885   0.278   2.066
10480SOL    HW132339   5.836   0.340   2.127
10480SOL    HW232340   5.833   0.267   1.981
10481SOL     OW32341   2.245   0.506   5.119
10481SOL    HW132342   2.167   0.554   5.159
10481SOL    HW232343   2.267   0.426   5.175
10482SOL     OW32344   1.492   5.604   5.882
10482SOL    HW132345   1.467   5.509   5.898
10482SOL    HW232346   1.559   5.608   5.808
10483SOL     OW32347   0.096   5.394   0.397
10483SOL    HW132348   0.012   5.448   0.404
10483SOL    HW232349   0.073   5.297   0.389
10484SOL     OW32350   6.209   1.180   1.491
10484SOL    HW132351   6.223   1.252   1.422
10484SOL    HW232352   6.224   1.218   1.582
10485SOL     OW32353   3.607   4.163   3.304
10485SOL    HW132354   3.532   4.142   3.366
10485SOL    HW232355   3.690   4.115   3.333
10486SOL     OW32356   6.273   6.852   5.435
10486SOL    HW132357   6.255   6.943   5.398
10486SOL    HW232358   6.359   6.853   5.485
10487SOL     OW32359   5.019   2.606   1.834
10487SOL    HW132360   4.995   2.686   1.889
10487SOL    HW232361   4.938   2.550   1.819
10488SOL     OW32362   5.923   2.698   6.116
10488SOL    HW132363   5.976   2.701   6.032
10488SOL    HW232364   5.969   2.750   6.187
10489SOL     OW32365   6.208   4.697   4.967
10489SOL    HW132366   6.177   4.669   4.876
10489SOL    HW232367   6.303   4.666   4.980
10490SOL     OW32368   5.620   6.468   6.519
10490SOL    HW132369   5.666   6.408   6.585
10490SOL    HW232370   5.592   6.413   6.440
10491SOL     OW32371   1.875   2.464   6.104
10491SOL    HW132372   1.821   2.529   6.050
10491SOL    HW232373   1.966   2.501   6.120
10492SOL     OW32374   3.576   0.726   0.353
10492SOL    HW132375   3.562   0.825   0.350
10492SOL    HW232376   3.575   0.696   0.449
10493SOL     OW32377   4.482   5.811   1.155
10493SOL    HW132378   4.487   5.896   1.207
10493SOL    HW232379   4.392   5.804   1.111
10494SOL     OW32380   0.894   4.639   5.561
10494SOL    HW132381   0.860   4.632   5.467
10494SOL    HW232382   0.818   4.631   5.625
10495SOL     OW32383   0.313   6.708   0.814
10495SOL    HW132384   0.304   6.771   0.891
10495SOL    HW232385   0.337   6.617   0.848
10496SOL     OW32386   7.012   3.562   5.062
10496SOL    HW132387   6.934   3.602   5.110
10496SOL    HW232388   7.002   3.576   4.964
10497SOL     OW32389   2.502   0.318   0.818
10497SOL    HW132390   2.579   0.268   0.780
10497SOL    HW232391   2.505   0.413   0.787
10498SOL     OW32392   4.361   4.544   0.257
10498SOL    HW132393   4.446   4.491   0.261
10498SOL    HW232394   4.340   4.581   0.348
10499SOL     OW32395   5.925   4.605   2.757
10499SOL    HW132396   5.971   4.516   2.755
10499SOL    HW232397   5.830   4.593   2.785
10500SOL     OW32398   0.053   3.165   5.516
10500SOL    HW132399   0.092   3.074   5.532
10500SOL    HW232400   0.010   3.168   5.426
10501SOL     OW32401   3.711   5.153   2.763
10501SOL    HW132402   3.708   5.228   2.830
10501SOL    HW232403   3.625   5.152   2.712
10502SOL     OW32404   3.421   3.835   1.942
10502SOL    HW132405   3.371   3.835   2.028
10502SOL    HW232406   3.519   3.843   1.960
10503SOL     OW32407   6.204   2.660   6.494
10503SOL    HW132408   6.266   2.630   6.566
10503SOL    HW232409   6.154   2.582   6.458
10504SOL     OW32410   1.450   2.833   5.934
10504SOL    HW132411   1.413   2.908   5.988
10504SOL    HW232412   1.399   2.750   5.953
10505SOL     OW32413   6.019   6.608   0.725
10505SOL    HW132414   5.930   6.569   0.704
10505SOL    HW232415   6.023   6.634   0.821
10506SOL     OW32416   1.037   2.350   6.880
10506SOL    HW132417   0.941   2.345   6.853
10506SOL    HW232418   1.063   2.265   6.926
10507SOL     OW32419   0.926   5.342   6.217
10507SOL    HW132420   0.854   5.292   6.169
10507SOL    HW232421   0.997   5.370   6.151
10508SOL     OW32422   1.938   4.935   4.636
10508SOL    HW132423   1.867   4.875   4.673
10508SOL    HW232424   2.013   4.943   4.702
10509SOL     OW32425   4.694   2.819   3.261
10509SOL    HW132426   4.648   2.833   3.349
10509SOL    HW232427   4.762   2.891   3.247
10510SOL     OW32428   5.701   5.582   3.626
10510SOL    HW132429   5.795   5.601   3.653
10510SOL    HW232430   5.639   5.637   3.681
10511SOL     OW32431   4.800   2.218   1.756
10511SOL    HW132432   4.824   2.294   1.694
10511SOL    HW232433   4.834   2.238   1.847
10512SOL     OW32434   4.575   0.863   4.824
10512SOL    HW132435   4.643   0.842   4.895
10512SOL    HW232436   4.529   0.779   4.796
10513SOL     OW32437   4.374   3.281   1.082
10513SOL    HW132438   4.308   3.254   1.153
10513SOL    HW232439   4.411   3.371   1.103
10514SOL     OW32440   1.299   3.490   1.814
10514SOL    HW132441   1.326   3.459   1.905
10514SOL    HW232442   1.289   3.589   1.813
10515SOL     OW32443   2.483   2.576   5.089
10515SOL    HW132444   2.455   2.659   5.039
10515SOL    HW232445   2.522   2.602   5.177
10516SOL     OW32446   3.870   1.900   1.634
10516SOL    HW132447   3.796   1.922   1.699
10516SOL    HW232448   3.948   1.863   1.684
10517SOL     OW32449   1.679   2.213   2.514
10517SOL    HW132450   1.748   2.263   2.462
10517SOL    HW232451   1.612   2.173   2.450
10518SOL     OW32452   0.707   4.793   2.908
10518SOL    HW132453   0.638   4.859   2.880
10518SOL    HW232454   0.739   4.814   3.000
10519SOL     OW32455   3.633   6.562   1.102
10519SOL    HW132456   3.727   6.526   1.102
10519SOL    HW232457   3.578   6.511   1.168
10520SOL     OW32458   6.817   2.640   5.805
10520SOL    HW132459   6.904   2.689   5.814
10520SOL    HW232460   6.819   2.558   5.862
10521SOL     OW32461   0.191   2.909   2.107
10521SOL    HW132462   0.184   2.849   2.027
10521SOL    HW232463   0.100   2.925   2.146
10522SOL     OW32464   5.179   2.661   3.502
10522SOL    HW132465   5.091   2.615   3.490
10522SOL    HW232466   5.167   2.740   3.561
10523SOL     OW32467   0.401   4.237   3.100
10523SOL    HW132468   0.487   4.232   3.151
10523SOL    HW232469   0.357   4.326   3.116
10524SOL     OW32470   0.471   6.124   5.232
10524SOL    HW132471   0.380   6.097   5.262
10524SOL    HW232472   0.466   6.162   5.140
10525SOL     OW32473   4.812   1.808   3.737
10525SOL    HW132474   4.722   1.764   3.739
10525SOL    HW232475   4.879   1.745   3.699
10526SOL     OW32476   1.068   4.692   0.301
10526SOL    HW132477   1.091   4.606   0.257
10526SOL    HW232478   0.973   4.688   0.334
10527SOL     OW32479   0.562   0.194   4.730
10527SOL    HW132480   0.474   0.168   4.690
10527SOL    HW232481   0.588   0.126   4.799
10528SOL     OW32482   1.616   3.656   5.431
10528SOL    HW132483   1.616   3.695   5.524
10528SOL    HW232484   1.525   3.621   5.410
10529SOL     OW32485   0.615   6.251   0.992
10529SOL    HW132486   0.611   6.291   1.084
10529SOL    HW232487   0.680   6.175   0.992
10530SOL     OW32488   0.243   5.304   0.776
10530SOL    HW132489   0.207   5.218   0.812
10530SOL    HW232490   0.176   5.377   0.792
10531SOL     OW32491   2.761   3.376   5.228
10531SOL    HW132492   2.853   3.338   5.238
10531SOL    HW232493   2.694   3.315   5.270
10532SOL     OW32494   5.297   6.394   6.820
10532SOL    HW132495   5.364   6.447   6.872
10532SOL    HW232496   5.299   6.299   6.851
10533SOL     OW32497   3.826   6.224   2.777
10533SOL    HW132498   3.916   6.210   2.818
10533SOL    HW232499   3.823   6.314   2.734
10534SOL     OW32500   1.651   6.134   4.135
10534SOL    HW132501   1.618   6.148   4.042
10534SOL    HW232502   1.675   6.038   4.148
10535SOL     OW32503   3.766   2.101   2.418
10535SOL    HW132504   3.795   2.064   2.330
10535SOL    HW232505   3.843   2.148   2.462
10536SOL     OW32506   5.210   2.679   4.307
10536SOL    HW132507   5.199   2.742   4.384
10536SOL    HW232508   5.127   2.624   4.297
10537SOL     OW32509   3.897   0.013   4.356
10537SOL    HW132510   3.836   6.984   4.412
10537SOL    HW232511   3.922   0.096   4.405
10538SOL     OW32512   0.045   3.745   2.732
10538SOL    HW132513   0.080   3.810   2.799
10538SOL    HW232514   0.114   3.730   2.661
10539SOL     OW32515   6.397   0.097   3.317
10539SOL    HW132516   6.383   0.182   3.368
10539SOL    HW232517   6.366   0.019   3.371
10540SOL     OW32518   1.682   3.815   6.043
10540SOL    HW132519   1.742   3.750   6.089
10540SOL    HW232520   1.731   3.857   5.967
10541SOL     OW32521   3.243   3.259   4.978
10541SOL    HW132522   3.256   3.310   5.063
10541SOL    HW232523   3.146   3.264   4.952
10542SOL     OW32524   4.869   6.964   4.404
10542SOL    HW132525   4.805   6.938   4.476
10542SOL    HW232526   4.850   6.912   4.321
10543SOL     OW32527   0.952   3.320   5.056
10543SOL    HW132528   0.862   3.346   5.022
10543SOL    HW232529   1.014   3.306   4.979
10544SOL     OW32530   1.932   1.782   3.400
10544SOL    HW132531   1.975   1.696   3.429
10544SOL    HW232532   1.846   1.795   3.450
10545SOL     OW32533   2.036   2.597   2.418
10545SOL    HW132534   2.029   2.679   2.362
10545SOL    HW232535   2.127   2.556   2.405
10546SOL     OW32536   3.005   6.599   6.939
10546SOL    HW132537   3.039   6.683   6.896
10546SOL    HW232538   2.922   6.619   6.991
10547SOL     OW32539   4.201   6.886   5.051
10547SOL    HW132540   4.102   6.883   5.036
10547SOL    HW232541   4.240   6.959   4.994
10548SOL     OW32542   0.157   5.520   3.889
10548SOL    HW132543   0.251   5.488   3.896
10548SOL    HW232544   0.134   5.574   3.970
10549SOL     OW32545   0.270   0.556   1.587
10549SOL    HW132546   0.310   0.597   1.669
10549SOL    HW232547   0.170   0.562   1.593
10550SOL     OW32548   4.679   5.582   3.373
10550SOL    HW132549   4.758   5.640   3.355
10550SOL    HW232550   4.663   5.522   3.295
10551SOL     OW32551   2.510   1.774   5.809
10551SOL    HW132552   2.536   1.817   5.723
10551SOL    HW232553   2.564   1.813   5.884
10552SOL     OW32554   2.834   1.142   4.183
10552SOL    HW132555   2.860   1.056   4.140
10552SOL    HW232556   2.867   1.218   4.128
10553SOL     OW32557   6.718   5.457   0.805
10553SOL    HW132558   6.627   5.460   0.765
10553SOL    HW232559   6.785   5.429   0.736
10554SOL     OW32560   5.903   6.206   2.249
10554SOL    HW132561   6.003   6.212   2.246
10554SOL    HW232562   5.864   6.274   2.187
10555SOL     OW32563   4.107   3.153   1.018
10555SOL    HW132564   4.016   3.140   1.056
10555SOL    HW232565   4.119   3.096   0.937
10556SOL     OW32566   2.262   1.571   2.806
10556SOL    HW132567   2.233   1.523   2.889
10556SOL    HW232568   2.183   1.613   2.762
10557SOL     OW32569   2.622   4.671   3.354
10557SOL    HW132570   2.630   4.720   3.440
10557SOL    HW232571   2.599   4.735   3.280
10558SOL     OW32572   3.447   5.691   5.032
10558SOL    HW132573   3.420   5.669   4.938
10558SOL    HW232574   3.521   5.631   5.061
10559SOL     OW32575   3.851   6.690   0.573
10559SOL    HW132576   3.794   6.691   0.655
10559SOL    HW232577   3.902   6.604   0.569
10560SOL     OW32578   5.554   0.043   2.406
10560SOL    HW132579   5.456   0.065   2.412
10560SOL    HW232580   5.576   0.018   2.312
10561SOL     OW32581   5.894   4.791   0.078
10561SOL    HW132582   5.908   4.749   0.168
10561SOL    HW232583   5.950   4.744   0.010
10562SOL     OW32584   4.203   5.802   2.509
10562SOL    HW132585   4.189   5.869   2.582
10562SOL    HW232586   4.299   5.776   2.506
10563SOL     OW32587   0.341   6.971   1.888
10563SOL    HW132588   0.435   6.940   1.874
10563SOL    HW232589   0.279   6.923   1.826
10564SOL     OW32590   5.525   4.967   4.070
10564SOL    HW132591   5.477   5.055   4.077
10564SOL    HW232592   5.554   4.953   3.975
10565SOL     OW32593   0.614   0.279   6.338
10565SOL    HW132594   0.542   0.292   6.270
10565SOL    HW232595   0.691   0.230   6.295
10566SOL     OW32596   3.243   2.882   0.502
10566SOL    HW132597   3.153   2.848   0.473
10566SOL    HW232598   3.289   2.925   0.425
10567SOL     OW32599   1.341   2.421   6.851
10567SOL    HW132600   1.387   2.372   6.926
10567SOL    HW232601   1.247   2.443   6.879
10568SOL     OW32602   4.849   2.549   6.037
10568SOL    HW132603   4.948   2.558   6.048
10568SOL    HW232604   4.807   2.640   6.042
10569SOL     OW32605   6.087   6.532   0.397
10569SOL    HW132606   6.148   6.455   0.417
10569SOL    HW232607   6.044   6.563   0.481
10570SOL     OW32608   0.824   4.558   3.053
10570SOL    HW132609   0.743   4.511   3.087
10570SOL    HW232610   0.875   4.597   3.130
10571SOL     OW32611   6.348   4.642   6.550
10571SOL    HW132612   6.269   4.642   6.488
10571SOL    HW232613   6.428   4.608   6.501
10572SOL     OW32614   5.724   4.211   0.931
10572SOL    HW132615   5.808   4.192   0.982
10572SOL    HW232616   5.745   4.275   0.856
10573SOL     OW32617   5.999   1.818   3.217
10573SOL    HW132618   6.000   1.804   3.316
10573SOL    HW232619   6.090   1.850   3.188
10574SOL     OW32620   6.987   2.571   3.532
10574SOL    HW132621   0.012   2.656   3.540
10574SOL    HW232622   0.023   2.496   3.510
10575SOL     OW32623   6.073   6.912   1.968
10575SOL    HW132624   6.073   6.954   2.058
10575SOL    HW232625   6.161   6.868   1.950
10576SOL     OW32626   1.186   4.291   4.578
10576SOL    HW132627   1.226   4.358   4.516
10576SOL    HW232628   1.205   4.317   4.673
10577SOL     OW32629   3.756   4.661   0.491
10577SOL    HW132630   3.806   4.718   0.556
10577SOL    HW232631   3.743   4.570   0.529
10578SOL     OW32632   0.235   3.007   4.663
10578SOL    HW132633   0.203   2.970   4.576
10578SOL    HW232634   0.196   3.098   4.677
10579SOL     OW32635   0.969   3.601   6.567
10579SOL    HW132636   0.937   3.607   6.473
10579SOL    HW232637   0.893   3.571   6.626
10580SOL     OW32638   6.276   6.774   0.326
10580SOL    HW132639   6.216   6.767   0.406
10580SOL    HW232640   6.371   6.776   0.356
10581SOL     OW32641   5.031   6.956   3.187
10581SOL    HW132642   5.080   6.903   3.119
10581SOL    HW232643   5.007   6.897   3.264
10582SOL     OW32644   5.514   4.097   6.640
10582SOL    HW132645   5.567   4.166   6.591
10582SOL    HW232646   5.554   4.006   6.624
10583SOL     OW32647   3.014   1.837   4.929
10583SOL    HW132648   3.019   1.936   4.914
10583SOL    HW232649   3.025   1.817   5.026
10584SOL     OW32650   1.189   6.896   4.444
10584SOL    HW132651   1.252   6.927   4.515
10584SOL    HW232652   1.236   6.889   4.357
10585SOL     OW32653   1.218   6.905   5.118
10585SOL    HW132654   1.227   6.888   5.216
10585SOL    HW232655   1.224   7.004   5.100
10586SOL     OW32656   4.265   4.214   5.357
10586SOL    HW132657   4.218   4.137   5.314
10586SOL    HW232658   4.231   4.299   5.319
10587SOL     OW32659   2.305   4.894   5.334
10587SOL    HW132660   2.279   4.802   5.304
10587SOL    HW232661   2.385   4.925   5.282
10588SOL     OW32662   1.105   4.042   4.284
10588SOL    HW132663   1.071   4.088   4.366
10588SOL    HW232664   1.067   3.949   4.280
10589SOL     OW32665   5.312   5.906   3.859
10589SOL    HW132666   5.327   5.910   3.958
10589SOL    HW232667   5.262   5.822   3.836
10590SOL     OW32668   0.819   5.102   2.589
10590SOL    HW132669   0.894   5.045   2.556
10590SOL    HW232670   0.734   5.051   2.585
10591SOL     OW32671   6.813   2.570   1.570
10591SOL    HW132672   6.749   2.590   1.495
10591SOL    HW232673   6.844   2.475   1.563
10592SOL     OW32674   6.360   2.198   5.164
10592SOL    HW132675   6.422   2.120   5.163
10592SOL    HW232676   6.397   2.272   5.108
10593SOL     OW32677   3.309   5.404   2.974
10593SOL    HW132678   3.222   5.454   2.973
10593SOL    HW232679   3.295   5.315   3.016
10594SOL     OW32680   2.687   6.381   3.899
10594SOL    HW132681   2.735   6.462   3.866
10594SOL    HW232682   2.750   6.324   3.951
10595SOL     OW32683   5.246   6.537   0.279
10595SOL    HW132684   5.184   6.616   0.288
10595SOL    HW232685   5.326   6.552   0.336
10596SOL     OW32686   4.916   3.051   0.228
10596SOL    HW132687   4.866   3.137   0.242
10596SOL    HW232688   4.894   2.988   0.303
10597SOL     OW32689   2.719   0.697   5.154
10597SOL    HW132690   2.635   0.644   5.144
10597SOL    HW232691   2.743   0.704   5.251
10598SOL     OW32692   2.762   1.307   6.341
10598SOL    HW132693   2.793   1.291   6.248
10598SOL    HW232694   2.757   1.405   6.359
10599SOL     OW32695   0.024   2.146   6.700
10599SOL    HW132696   6.996   2.135   6.783
10599SOL    HW232697   0.096   2.213   6.717
10600SOL     OW32698   2.449   2.332   1.179
10600SOL    HW132699   2.365   2.282   1.200
10600SOL    HW232700   2.507   2.336   1.260
10601SOL     OW32701   1.194   0.572   5.925
10601SOL    HW132702   1.100   0.600   5.942
10601SOL    HW232703   1.256   0.647   5.946
10602SOL     OW32704   6.835   0.150   1.523
10602SOL    HW132705   6.818   0.052   1.514
10602SOL    HW232706   6.931   0.165   1.545
10603SOL     OW32707   4.986   0.682   2.840
10603SOL    HW132708   5.043   0.697   2.920
10603SOL    HW232709   5.013   0.597   2.794
10604SOL     OW32710   5.214   0.017   4.828
10604SOL    HW132711   5.177   6.952   4.831
10604SOL    HW232712   5.144   0.083   4.857
10605SOL     OW32713   2.236   2.156   1.247
10605SOL    HW132714   2.271   2.105   1.168
10605SOL    HW232715   2.144   2.189   1.226
10606SOL     OW32716   6.441   0.436   0.223
10606SOL    HW132717   6.343   0.420   0.215
10606SOL    HW232718   6.473   0.404   0.313
10607SOL     OW32719   3.282   4.848   6.382
10607SOL    HW132720   3.193   4.891   6.366
10607SOL    HW232721   3.279   4.792   6.464
10608SOL     OW32722   5.721   3.974   3.672
10608SOL    HW132723   5.724   3.876   3.691
10608SOL    HW232724   5.764   3.993   3.583
10609SOL     OW32725   4.600   1.560   6.518
10609SOL    HW132726   4.510   1.533   6.483
10609SOL    HW232727   4.588   1.624   6.594
10610SOL     OW32728   0.819   1.326   3.183
10610SOL    HW132729   0.777   1.271   3.111
10610SOL    HW232730   0.822   1.273   3.268
10611SOL     OW32731   3.805   5.688   4.455
10611SOL    HW132732   3.759   5.601   4.439
10611SOL    HW232733   3.884   5.695   4.394
10612SOL     OW32734   6.001   1.771   3.494
10612SOL    HW132735   6.089   1.799   3.532
10612SOL    HW232736   5.930   1.837   3.521
10613SOL     OW32737   4.353   6.291   4.870
10613SOL    HW132738   4.412   6.270   4.791
10613SOL    HW232739   4.403   6.349   4.934
10614SOL     OW32740   3.863   1.188   6.056
10614SOL    HW132741   3.921   1.124   6.107
10614SOL    HW232742   3.837   1.264   6.114
10615SOL     OW32743   1.389   1.567   5.597
10615SOL    HW132744   1.449   1.497   5.557
10615SOL    HW232745   1.294   1.536   5.591
10616SOL     OW32746   2.324   6.201   0.073
10616SOL    HW132747   2.317   6.219   7.002
10616SOL    HW232748   2.288   6.279   0.124
10617SOL     OW32749   2.248   3.304   1.487
10617SOL    HW132750   2.229   3.214   1.528
10617SOL    HW232751   2.346   3.311   1.466
10618SOL     OW32752   1.436   5.242   3.875
10618SOL    HW132753   1.432   5.168   3.807
10618SOL    HW232754   1.485   5.319   3.836
10619SOL     OW32755   2.139   2.402   2.205
10619SOL    HW132756   2.189   2.354   2.277
10619SOL    HW232757   2.072   2.340   2.164
10620SOL     OW32758   3.247   1.222   6.236
10620SOL    HW132759   3.196   1.225   6.322
10620SOL    HW232760   3.250   1.313   6.195
10621SOL     OW32761   0.290   4.006   3.168
10621SOL    HW132762   0.319   4.102   3.158
10621SOL    HW232763   0.353   3.957   3.227
10622SOL     OW32764   4.504   2.184   0.292
10622SOL    HW132765   4.474   2.267   0.339
10622SOL    HW232766   4.454   2.175   0.205
10623SOL     OW32767   4.826   6.688   6.050
10623SOL    HW132768   4.865   6.634   5.975
10623SOL    HW232769   4.739   6.647   6.078
10624SOL     OW32770   0.368   1.895   6.797
10624SOL    HW132771   0.371   1.995   6.810
10624SOL    HW232772   0.413   1.851   6.875
10625SOL     OW32773   5.414   4.782   7.027
10625SOL    HW132774   5.489   4.736   0.048
10625SOL    HW232775   5.381   4.859   0.055
10626SOL     OW32776   5.181   3.202   1.040
10626SOL    HW132777   5.087   3.236   1.044
10626SOL    HW232778   5.187   3.130   0.971
10627SOL     OW32779   5.906   5.276   5.873
10627SOL    HW132780   5.908   5.363   5.824
10627SOL    HW232781   5.813   5.239   5.872
10628SOL     OW32782   3.896   6.673   0.941
10628SOL    HW132783   3.856   6.718   1.021
10628SOL    HW232784   3.822   6.633   0.886
10629SOL     OW32785   3.176   5.716   4.480
10629SOL    HW132786   3.128   5.755   4.559
10629SOL    HW232787   3.117   5.722   4.399
10630SOL     OW32788   3.843   0.949   2.247
10630SOL    HW132789   3.929   0.925   2.203
10630SOL    HW232790   3.857   1.029   2.306
10631SOL     OW32791   3.670   6.209   0.250
10631SOL    HW132792   3.705   6.149   0.178
10631SOL    HW232793   3.577   6.181   0.274
10632SOL     OW32794   4.667   6.211   3.100
10632SOL    HW132795   4.721   6.228   3.018
10632SOL    HW232796   4.717   6.148   3.160
10633SOL     OW32797   1.522   3.215   1.576
10633SOL    HW132798   1.548   3.231   1.671
10633SOL    HW232799   1.425   3.193   1.571
10634SOL     OW32800   0.618   3.410   7.003
10634SOL    HW132801   0.541   3.359   6.965
10634SOL    HW232802   0.617   3.503   6.965
10635SOL     OW32803   2.255   4.677   6.043
10635SOL    HW132804   2.265   4.760   6.098
10635SOL    HW232805   2.307   4.687   5.958
10636SOL     OW32806   6.491   2.298   6.335
10636SOL    HW132807   6.547   2.381   6.333
10636SOL    HW232808   6.442   2.292   6.422
10637SOL     OW32809   3.000   0.853   0.136
10637SOL    HW132810   2.933   0.863   0.063
10637SOL    HW232811   3.090   0.836   0.096
10638SOL     OW32812   6.762   5.866   2.079
10638SOL    HW132813   6.787   5.922   2.157
10638SOL    HW232814   6.691   5.801   2.106
10639SOL     OW32815   1.710   4.422   1.604
10639SOL    HW132816   1.746   4.331   1.586
10639SOL    HW232817   1.669   4.459   1.521
10640SOL     OW32818   4.216   6.729   3.578
10640SOL    HW132819   4.183   6.809   3.628
10640SOL    HW232820   4.291   6.686   3.628
10641SOL     OW32821   1.376   0.973   3.441
10641SOL    HW132822   1.437   0.966   3.520
10641SOL    HW232823   1.335   0.883   3.423
10642SOL     OW32824   5.724   2.151   6.489
10642SOL    HW132825   5.808   2.098   6.483
10642SOL    HW232826   5.690   2.149   6.583
10643SOL     OW32827   2.197   4.857   5.580
10643SOL    HW132828   2.235   4.876   5.489
10643SOL    HW232829   2.189   4.758   5.592
10644SOL     OW32830   6.503   2.782   2.863
10644SOL    HW132831   6.551   2.817   2.783
10644SOL    HW232832   6.410   2.820   2.865
10645SOL     OW32833   2.737   2.335   3.689
10645SOL    HW132834   2.665   2.384   3.739
10645SOL    HW232835   2.700   2.300   3.603
10646SOL     OW32836   5.660   0.798   3.551
10646SOL    HW132837   5.698   0.806   3.643
10646SOL    HW232838   5.694   0.715   3.507
10647SOL     OW32839   3.497   5.217   4.544
10647SOL    HW132840   3.491   5.119   4.523
10647SOL    HW232841   3.509   5.228   4.643
10648SOL     OW32842   5.046   5.288   5.340
10648SOL    HW132843   5.079   5.227   5.268
10648SOL    HW232844   5.123   5.333   5.384
10649SOL     OW32845   6.193   3.587   2.688
10649SOL    HW132846   6.270   3.650   2.675
10649SOL    HW232847   6.189   3.523   2.611
10650SOL     OW32848   0.516   0.510   3.784
10650SOL    HW132849   0.553   0.417   3.783
10650SOL    HW232850   0.519   0.548   3.691
10651SOL     OW32851   4.177   6.024   6.161
10651SOL    HW132852   4.123   6.080   6.098
10651SOL    HW232853   4.116   5.974   6.222
10652SOL     OW32854   1.982   0.223   6.880
10652SOL    HW132855   2.008   0.218   6.977
10652SOL    HW232856   1.902   0.283   6.871
10653SOL     OW32857   4.242   5.927   3.845
10653SOL    HW132858   4.327   5.944   3.896
10653SOL    HW232859   4.256   5.852   3.780
10654SOL     OW32860   5.892   1.719   4.048
10654SOL    HW132861   5.803   1.680   4.025
10654SOL    HW232862   5.961   1.682   3.987
10655SOL     OW32863   0.805   4.932   1.070
10655SOL    HW132864   0.756   4.849   1.043
10655SOL    HW232865   0.760   5.011   1.030
10656SOL     OW32866   6.005   2.254   3.071
10656SOL    HW132867   6.098   2.232   3.099
10656SOL    HW232868   6.007   2.324   2.999
10657SOL     OW32869   5.075   6.645   4.405
10657SOL    HW132870   4.995   6.593   4.434
10657SOL    HW232871   5.088   6.723   4.466
10658SOL     OW32872   0.476   3.194   5.326
10658SOL    HW132873   0.571   3.168   5.339
10658SOL    HW232874   0.423   3.171   5.408
10659SOL     OW32875   1.134   5.670   0.759
10659SOL    HW132876   1.078   5.753   0.753
10659SOL    HW232877   1.108   5.608   0.684
10660SOL     OW32878   5.859   3.157   5.492
10660SOL    HW132879   5.957   3.156   5.472
10660SOL    HW232880   5.817   3.236   5.449
10661SOL     OW32881   1.927   5.008   5.514
10661SOL    HW132882   1.983   4.925   5.506
10661SOL    HW232883   1.948   5.054   5.600
10662SOL     OW32884   2.578   1.135   2.726
10662SOL    HW132885   2.499   1.074   2.718
10662SOL    HW232886   2.547   1.227   2.749
10663SOL     OW32887   1.574   1.648   4.255
10663SOL    HW132888   1.658   1.689   4.291
10663SOL    HW232889   1.577   1.647   4.155
10664SOL     OW32890   1.453   5.288   4.455
10664SOL    HW132891   1.460   5.232   4.372
10664SOL    HW232892   1.503   5.374   4.442
10665SOL     OW32893   1.988   2.936   6.028
10665SOL    HW132894   2.033   2.990   5.957
10665SOL    HW232895   1.929   2.868   5.985
10666SOL     OW32896   3.276   3.568   1.901
10666SOL    HW132897   3.193   3.564   1.845
10666SOL    HW232898   3.301   3.663   1.916
10667SOL     OW32899   5.807   1.878   3.627
10667SOL    HW132900   5.728   1.905   3.572
10667SOL    HW232901   5.819   1.944   3.702
10668SOL     OW32902   3.084   2.507   5.360
10668SOL    HW132903   3.059   2.602   5.341
10668SOL    HW232904   3.157   2.479   5.298
10669SOL     OW32905   6.375   1.330   0.937
10669SOL    HW132906   6.428   1.403   0.981
10669SOL    HW232907   6.432   1.248   0.928
10670SOL     OW32908   4.869   3.349   4.364
10670SOL    HW132909   4.869   3.387   4.457
10670SOL    HW232910   4.905   3.417   4.300
10671SOL     OW32911   1.356   3.312   4.187
10671SOL    HW132912   1.409   3.243   4.137
10671SOL    HW232913   1.409   3.397   4.191
10672SOL     OW32914   6.137   3.732   1.215
10672SOL    HW132915   6.145   3.814   1.158
10672SOL    HW232916   6.221   3.720   1.268
10673SOL     OW32917   2.237   0.917   1.067
10673SOL    HW132918   2.166   0.848   1.078
10673SOL    HW232919   2.293   0.896   0.987
10674SOL     OW32920   3.600   4.070   4.026
10674SOL    HW132921   3.532   4.124   4.077
10674SOL    HW232922   3.690   4.110   4.039
10675SOL     OW32923   3.741   6.892   5.534
10675SOL    HW132924   3.779   6.931   5.450
10675SOL    HW232925   3.739   6.792   5.527
10676SOL     OW32926   2.105   6.124   5.643
10676SOL    HW132927   2.096   6.202   5.705
10676SOL    HW232928   2.036   6.055   5.665
10677SOL     OW32929   0.225   1.610   0.934
10677SOL    HW132930   0.199   1.643   1.024
10677SOL    HW232931   0.252   1.514   0.940
10678SOL     OW32932   4.322   5.297   3.536
10678SOL    HW132933   4.368   5.381   3.565
10678SOL    HW232934   4.239   5.321   3.486
10679SOL     OW32935   3.756   3.690   6.798
10679SOL    HW132936   3.817   3.744   6.741
10679SOL    HW232937   3.697   3.750   6.851
10680SOL     OW32938   4.362   1.001   4.187
10680SOL    HW132939   4.428   0.995   4.262
10680SOL    HW232940   4.411   1.001   4.100
10681SOL     OW32941   1.397   3.062   6.035
10681SOL    HW132942   1.305   3.101   6.039
10681SOL    HW232943   1.450   3.095   6.113
10682SOL     OW32944   5.598   2.756   6.302
10682SOL    HW132945   5.646   2.781   6.386
10682SOL    HW232946   5.501   2.780   6.311
10683SOL     OW32947   3.514   0.100   3.816
10683SOL    HW132948   3.444   0.112   3.886
10683SOL    HW232949   3.471   0.076   3.729
10684SOL     OW32950   4.155   4.665   1.641
10684SOL    HW132951   4.148   4.595   1.712
10684SOL    HW232952   4.164   4.755   1.683
10685SOL     OW32953   0.888   5.959   1.529
10685SOL    HW132954   0.969   5.901   1.530
10685SOL    HW232955   0.877   5.999   1.438
10686SOL     OW32956   2.423   2.959   6.993
10686SOL    HW132957   2.381   3.024   6.930
10686SOL    HW232958   2.461   2.882   6.941
10687SOL     OW32959   0.615   4.501   3.259
10687SOL    HW132960   0.575   4.410   3.268
10687SOL    HW232961   0.687   4.512   3.328
10688SOL     OW32962   5.429   1.501   2.348
10688SOL    HW132963   5.356   1.445   2.389
10688SOL    HW232964   5.393   1.593   2.330
10689SOL     OW32965   6.645   6.869   2.398
10689SOL    HW132966   6.605   6.783   2.366
10689SOL    HW232967   6.718   6.850   2.463
10690SOL     OW32968   0.038   6.557   4.089
10690SOL    HW132969   0.133   6.550   4.059
10690SOL    HW232970   7.013   6.482   4.049
10691SOL     OW32971   3.210   1.504   2.923
10691SOL    HW132972   3.137   1.522   2.857
10691SOL    HW232973   3.182   1.535   3.013
10692SOL     OW32974   2.739   0.778   4.199
10692SOL    HW132975   2.813   0.797   4.134
10692SOL    HW232976   2.671   0.851   4.193
10693SOL     OW32977   1.286   5.800   0.568
10693SOL    HW132978   1.301   5.737   0.491
10693SOL    HW232979   1.280   5.748   0.653
10694SOL     OW32980   4.782   6.396   5.765
10694SOL    HW132981   4.710   6.402   5.835
10694SOL    HW232982   4.842   6.475   5.772
10695SOL     OW32983   0.151   3.713   1.395
10695SOL    HW132984   0.197   3.750   1.476
10695SOL    HW232985   0.221   3.685   1.329
10696SOL     OW32986   0.350   4.648   5.039
10696SOL    HW132987   0.328   4.603   5.125
10696SOL    HW232988   0.290   4.613   4.967
10697SOL     OW32989   1.229   5.394   5.082
10697SOL    HW132990   1.148   5.342   5.056
10697SOL    HW232991   1.270   5.437   5.001
10698SOL     OW32992   4.580   3.570   0.064
10698SOL    HW132993   4.512   3.547   7.021
10698SOL    HW232994   4.631   3.651   0.034
10699SOL     OW32995   3.182   4.219   0.716
10699SOL    HW132996   3.279   4.197   0.727
10699SOL    HW232997   3.139   4.153   0.653
10700SOL     OW32998   5.137   7.025   0.310
10700SOL    HW132999   5.071   6.987   0.245
10700SOL    HW233000   5.090   0.029   0.392
10701SOL     OW33001   2.947   0.283   6.341
10701SOL    HW133002   2.914   0.219   6.410
10701SOL    HW233003   2.895   0.368   6.347
10702SOL     OW33004   4.824   2.703   2.470
10702SOL    HW133005   4.912   2.692   2.518
10702SOL    HW233006   4.751   2.662   2.525
10703SOL     OW33007   1.520   2.621   6.210
10703SOL    HW133008   1.590   2.614   6.138
10703SOL    HW233009   1.430   2.622   6.168
10704SOL     OW33010   0.024   6.661   2.434
10704SOL    HW133011   0.100   6.697   2.487
10704SOL    HW233012   6.965   6.684   2.478
10705SOL     OW33013   5.976   4.719   1.055
10705SOL    HW133014   5.915   4.685   1.126
10705SOL    HW233015   6.060   4.755   1.096
10706SOL     OW33016   5.053   0.358   2.347
10706SOL    HW133017   5.126   0.412   2.304
10706SOL    HW233018   4.987   0.331   2.278
10707SOL     OW33019   5.751   6.761   3.963
10707SOL    HW133020   5.731   6.856   3.984
10707SOL    HW233021   5.665   6.711   3.950
10708SOL     OW33022   4.581   2.586   2.587
10708SOL    HW133023   4.505   2.561   2.527
10708SOL    HW233024   4.550   2.583   2.682
10709SOL     OW33025   5.843   5.428   4.014
10709SOL    HW133026   5.904   5.447   3.937
10709SOL    HW233027   5.898   5.410   4.096
10710SOL     OW33028   5.128   1.049   2.839
10710SOL    HW133029   5.094   1.133   2.798
10710SOL    HW233030   5.182   0.998   2.772
10711SOL     OW33031   3.546   6.610   1.865
10711SOL    HW133032   3.507   6.523   1.895
10711SOL    HW233033   3.629   6.592   1.811
10712SOL     OW33034   3.414   0.054   3.040
10712SOL    HW133035   3.487   0.121   3.029
10712SOL    HW233036   3.453   6.993   3.070
10713SOL     OW33037   1.337   3.476   0.746
10713SOL    HW133038   1.362   3.573   0.753
10713SOL    HW233039   1.243   3.464   0.778
10714SOL     OW33040   3.686   2.997   3.762
10714SOL    HW133041   3.620   2.963   3.696
10714SOL    HW233042   3.651   3.081   3.804
10715SOL     OW33043   5.754   0.787   2.032
10715SOL    HW133044   5.708   0.698   2.036
10715SOL    HW233045   5.836   0.779   1.975
10716SOL     OW33046   6.710   2.425   2.552
10716SOL    HW133047   6.797   2.475   2.546
10716SOL    HW233048   6.711   2.347   2.490
10717SOL     OW33049   1.013   2.785   0.737
10717SOL    HW133050   0.962   2.732   0.669
10717SOL    HW233051   1.109   2.756   0.738
10718SOL     OW33052   1.195   4.503   6.223
10718SOL    HW133053   1.194   4.597   6.190
10718SOL    HW233054   1.191   4.503   6.323
10719SOL     OW33055   6.483   5.794   4.096
10719SOL    HW133056   6.413   5.724   4.114
10719SOL    HW233057   6.481   5.819   3.999
10720SOL     OW33058   5.545   5.555   4.090
10720SOL    HW133059   5.564   5.597   4.178
10720SOL    HW233060   5.613   5.483   4.072
10721SOL     OW33061   5.069   3.941   5.206
10721SOL    HW133062   5.101   3.866   5.263
10721SOL    HW233063   5.062   4.024   5.261
10722SOL     OW33064   6.560   3.874   6.334
10722SOL    HW133065   6.586   3.861   6.238
10722SOL    HW233066   6.640   3.901   6.387
10723SOL     OW33067   0.249   0.968   0.049
10723SOL    HW133068   0.306   1.038   0.006
10723SOL    HW233069   0.306   0.892   0.079
10724SOL     OW33070   0.308   6.813   0.536
10724SOL    HW133071   0.372   6.888   0.553
10724SOL    HW233072   0.282   6.771   0.623
10725SOL     OW33073   2.806   5.268   5.427
10725SOL    HW133074   2.810   5.253   5.526
10725SOL    HW233075   2.803   5.366   5.408
10726SOL     OW33076   5.357   1.079   3.751
10726SOL    HW133077   5.310   1.106   3.667
10726SOL    HW233078   5.431   1.144   3.770
10727SOL     OW33079   1.157   5.363   6.036
10727SOL    HW133080   1.078   5.318   5.995
10727SOL    HW233081   1.241   5.324   6.000
10728SOL     OW33082   6.658   5.237   0.510
10728SOL    HW133083   6.614   5.322   0.478
10728SOL    HW233084   6.741   5.260   0.561
10729SOL     OW33085   6.274   2.031   1.699
10729SOL    HW133086   6.307   2.116   1.658
10729SOL    HW233087   6.282   2.038   1.799
10730SOL     OW33088   3.820   0.510   1.495
10730SOL    HW133089   3.812   0.473   1.587
10730SOL    HW233090   3.851   0.605   1.499
10731SOL     OW33091   4.154   1.082   0.861
10731SOL    HW133092   4.213   1.162   0.877
10731SOL    HW233093   4.210   0.999   0.861
10732SOL     OW33094   0.286   4.955   5.291
10732SOL    HW133095   0.311   4.975   5.197
10732SOL    HW233096   0.277   4.856   5.303
10733SOL     OW33097   5.589   1.729   6.716
10733SOL    HW133098   5.572   1.631   6.725
10733SOL    HW233099   5.570   1.774   6.803
10734SOL     OW33100   0.870   1.565   0.964
10734SOL    HW133101   0.856   1.545   1.061
10734SOL    HW233102   0.869   1.664   0.950
10735SOL     OW33103   0.196   2.829   1.689
10735SOL    HW133104   0.137   2.748   1.686
10735SOL    HW233105   0.147   2.907   1.651
10736SOL     OW33106   1.979   0.252   3.948
10736SOL    HW133107   1.890   0.296   3.937
10736SOL    HW233108   2.051   0.312   3.912
10737SOL     OW33109   0.229   2.105   1.642
10737SOL    HW133110   0.223   2.078   1.738
10737SOL    HW233111   0.314   2.156   1.627
10738SOL     OW33112   3.694   6.007   2.711
10738SOL    HW133113   3.755   5.936   2.745
10738SOL    HW233114   3.735   6.097   2.727
10739SOL     OW33115   1.437   2.708   1.525
10739SOL    HW133116   1.436   2.612   1.500
10739SOL    HW233117   1.479   2.762   1.451
10740SOL     OW33118   5.640   5.045   4.902
10740SOL    HW133119   5.557   4.989   4.913
10740SOL    HW233120   5.657   5.096   4.986
10741SOL     OW33121   4.172   0.804   2.387
10741SOL    HW133122   4.228   0.730   2.424
10741SOL    HW233123   4.162   0.876   2.455
10742SOL     OW33124   5.948   5.497   1.165
10742SOL    HW133125   5.871   5.484   1.227
10742SOL    HW233126   5.914   5.499   1.070
10743SOL     OW33127   2.040   2.163   4.002
10743SOL    HW133128   1.976   2.232   3.970
10743SOL    HW233129   2.113   2.207   4.056
10744SOL     OW33130   2.967   1.605   1.143
10744SOL    HW133131   3.064   1.627   1.140
10744SOL    HW233132   2.914   1.683   1.109
10745SOL     OW33133   0.183   5.591   5.623
10745SOL    HW133134   0.139   5.502   5.623
10745SOL    HW233135   0.282   5.580   5.627
10746SOL     OW33136   1.224   3.670   5.879
10746SOL    HW133137   1.313   3.628   5.899
10746SOL    HW233138   1.153   3.600   5.881
10747SOL     OW33139   2.986   1.102   4.425
10747SOL    HW133140   2.920   1.121   4.352
10747SOL    HW233141   3.078   1.130   4.396
10748SOL     OW33142   6.215   1.155   2.336
10748SOL    HW133143   6.282   1.168   2.262
10748SOL    HW233144   6.149   1.085   2.310
10749SOL     OW33145   1.024   6.419   5.379
10749SOL    HW133146   0.985   6.343   5.326
10749SOL    HW233147   1.121   6.401   5.397
10750SOL     OW33148   3.743   0.607   5.201
10750SOL    HW133149   3.750   0.644   5.294
10750SOL    HW233150   3.818   0.643   5.146
10751SOL     OW33151   2.178   4.586   4.086
10751SOL    HW133152   2.255   4.544   4.135
10751SOL    HW233153   2.188   4.568   3.988
10752SOL     OW33154   4.991   4.982   5.337
10752SOL    HW133155   4.913   4.937   5.294
10752SOL    HW233156   4.984   5.081   5.322
10753SOL     OW33157   0.391   3.767   4.110
10753SOL    HW133158   0.334   3.709   4.051
10753SOL    HW233159   0.417   3.716   4.192
10754SOL     OW33160   0.983   7.017   3.078
10754SOL    HW133161   0.907   0.023   3.022
10754SOL    HW233162   1.019   6.932   3.040
10755SOL     OW33163   6.785   6.792   2.091
10755SOL    HW133164   6.808   6.762   1.999
10755SOL    HW233165   6.868   6.815   2.141
10756SOL     OW33166   6.896   5.631   5.475
10756SOL    HW133167   6.947   5.708   5.511
10756SOL    HW233168   6.916   5.620   5.377
10757SOL     OW33169   2.171   2.784   0.105
10757SOL    HW133170   2.121   2.712   0.155
10757SOL    HW233171   2.269   2.768   0.113
10758SOL     OW33172   0.472   6.449   3.294
10758SOL    HW133173   0.525   6.469   3.211
10758SOL    HW233174   0.487   6.353   3.320
10759SOL     OW33175   0.792   3.147   0.703
10759SOL    HW133176   0.825   3.074   0.763
10759SOL    HW233177   0.786   3.112   0.609
10760SOL     OW33178   5.846   1.254   3.750
10760SOL    HW133179   5.807   1.337   3.711
10760SOL    HW233180   5.878   1.193   3.677
10761SOL     OW33181   1.860   5.268   6.439
10761SOL    HW133182   1.914   5.186   6.419
10761SOL    HW233183   1.818   5.302   6.356
10762SOL     OW33184   2.876   0.267   5.195
10762SOL    HW133185   2.803   0.202   5.217
10762SOL    HW233186   2.854   0.357   5.234
10763SOL     OW33187   3.533   0.621   3.700
10763SOL    HW133188   3.579   0.635   3.612
10763SOL    HW233189   3.490   0.530   3.700
10764SOL     OW33190   5.024   1.125   4.493
10764SOL    HW133191   5.081   1.204   4.517
10764SOL    HW233192   4.942   1.157   4.444
10765SOL     OW33193   5.171   2.986   0.873
10765SOL    HW133194   5.193   2.946   0.962
10765SOL    HW233195   5.209   2.929   0.801
10766SOL     OW33196   3.864   4.243   0.873
10766SOL    HW133197   3.819   4.273   0.788
10766SOL    HW233198   3.820   4.160   0.906
10767SOL     OW33199   2.882   0.060   0.888
10767SOL    HW133200   2.873   6.987   0.885
10767SOL    HW233201   2.931   0.087   0.970
10768SOL     OW33202   6.474   4.835   0.877
10768SOL    HW133203   6.519   4.778   0.808
10768SOL    HW233204   6.520   4.923   0.883
10769SOL     OW33205   1.922   3.496   5.885
10769SOL    HW133206   1.982   3.420   5.910
10769SOL    HW233207   1.828   3.463   5.878
10770SOL     OW33208   4.849   5.305   3.002
10770SOL    HW133209   4.761   5.295   2.955
10770SOL    HW233210   4.839   5.370   3.077
10771SOL     OW33211   3.996   0.005   4.112
10771SOL    HW133212   3.930   0.050   4.052
10771SOL    HW233213   3.957   7.026   4.205
10772SOL     OW33214   6.749   5.756   4.054
10772SOL    HW133215   6.652   5.769   4.075
10772SOL    HW233216   6.803   5.822   4.106
10773SOL     OW33217   6.078   4.383   5.145
10773SOL    HW133218   6.128   4.367   5.059
10773SOL    HW233219   5.987   4.417   5.124
10774SOL     OW33220   1.410   1.408   4.021
10774SOL    HW133221   1.503   1.396   4.055
10774SOL    HW233222   1.346   1.361   4.082
10775SOL     OW33223   1.059   4.259   1.725
10775SOL    HW133224   1.004   4.276   1.644
10775SOL    HW233225   1.135   4.325   1.729
10776SOL     OW33226   1.880   1.002   5.877
10776SOL    HW133227   1.955   1.067   5.875
10776SOL    HW233228   1.882   0.952   5.963
10777SOL     OW33229   3.708   5.128   1.321
10777SOL    HW133230   3.799   5.106   1.356
10777SOL    HW233231   3.710   5.129   1.221
10778SOL     OW33232   5.431   6.005   4.101
10778SOL    HW133233   5.486   6.077   4.058
10778SOL    HW233234   5.360   6.047   4.157
10779SOL     OW33235   6.190   2.925   3.216
10779SOL    HW133236   6.136   2.963   3.140
10779SOL    HW233237   6.165   2.830   3.230
10780SOL     OW33238   1.158   0.895   3.802
10780SOL    HW133239   1.083   0.914   3.866
10780SOL    HW233240   1.237   0.951   3.826
10781SOL     OW33241   3.786   0.349   4.345
10781SOL    HW133242   3.702   0.303   4.376
10781SOL    HW233243   3.786   0.355   4.245
10782SOL     OW33244   6.106   6.827   4.094
10782SOL    HW133245   6.195   6.871   4.093
10782SOL    HW233246   6.105   6.753   4.027
10783SOL     OW33247   0.020   2.552   3.138
10783SOL    HW133248   0.064   2.463   3.150
10783SOL    HW233249   6.954   2.548   3.175
10784SOL     OW33250   2.907   1.400   3.724
10784SOL    HW133251   2.894   1.308   3.761
10784SOL    HW233252   2.858   1.466   3.780
10785SOL     OW33253   0.991   3.951   6.989
10785SOL    HW133254   1.033   3.972   0.051
10785SOL    HW233255   0.939   3.866   6.997
10786SOL     OW33256   6.036   5.889   3.033
10786SOL    HW133257   5.999   5.826   2.964
10786SOL    HW233258   6.135   5.897   3.021
10787SOL     OW33259   0.520   0.678   5.543
10787SOL    HW133260   0.501   0.702   5.638
10787SOL    HW233261   0.611   0.711   5.517
10788SOL     OW33262   0.630   3.663   6.903
10788SOL    HW133263   0.536   3.693   6.893
10788SOL    HW233264   0.692   3.737   6.878
10789SOL     OW33265   6.858   2.784   0.134
10789SOL    HW133266   6.918   2.863   0.144
10789SOL    HW233267   6.911   2.704   0.107
10790SOL     OW33268   0.432   6.757   1.706
10790SOL    HW133269   0.477   6.793   1.788
10790SOL    HW233270   0.333   6.772   1.714
10791SOL     OW33271   6.529   6.268   2.267
10791SOL    HW133272   6.475   6.347   2.239
10791SOL    HW233273   6.509   6.247   2.363
10792SOL     OW33274   3.753   3.619   5.316
10792SOL    HW133275   3.685   3.689   5.339
10792SOL    HW233276   3.818   3.610   5.391
10793SOL     OW33277   5.482   3.479   5.849
10793SOL    HW133278   5.427   3.542   5.904
10793SOL    HW233279   5.574   3.473   5.886
10794SOL     OW33280   3.384   3.423   3.836
10794SOL    HW133281   3.358   3.466   3.750
10794SOL    HW233282   3.302   3.399   3.888
10795SOL     OW33283   1.152   4.273   2.858
10795SOL    HW133284   1.095   4.355   2.869
10795SOL    HW233285   1.146   4.217   2.940
10796SOL     OW33286   0.741   6.513   5.391
10796SOL    HW133287   0.763   6.564   5.308
10796SOL    HW233288   0.823   6.463   5.422
10797SOL     OW33289   4.121   2.955   0.815
10797SOL    HW133290   4.214   2.923   0.795
10797SOL    HW233291   4.058   2.919   0.747
10798SOL     OW33292   1.944   1.288   0.873
10798SOL    HW133293   1.877   1.341   0.926
10798SOL    HW233294   1.920   1.291   0.776
10799SOL     OW33295   3.950   0.570   2.895
10799SOL    HW133296   3.888   0.641   2.928
10799SOL    HW233297   4.022   0.612   2.840
10800SOL     OW33298   1.086   6.179   0.233
10800SOL    HW133299   1.107   6.115   0.160
10800SOL    HW233300   1.153   6.170   0.306
10801SOL     OW33301   1.333   0.847   0.235
10801SOL    HW133302   1.351   0.938   0.273
10801SOL    HW233303   1.408   0.822   0.173
10802SOL     OW33304   6.439   6.666   3.949
10802SOL    HW133305   6.382   6.634   4.025
10802SOL    HW233306   6.393   6.742   3.903
10803SOL     OW33307   1.273   5.435   6.653
10803SOL    HW133308   1.310   5.417   6.744
10803SOL    HW233309   1.320   5.513   6.612
10804SOL     OW33310   0.186   3.152   3.524
10804SOL    HW133311   0.220   3.130   3.615
10804SOL    HW233312   0.261   3.184   3.467
10805SOL     OW33313   6.098   0.642   4.537
10805SOL    HW133314   6.073   0.564   4.595
10805SOL    HW233315   6.151   0.707   4.591
10806SOL     OW33316   2.922   4.951   6.802
10806SOL    HW133317   2.972   4.875   6.844
10806SOL    HW233318   2.843   4.974   6.858
10807SOL     OW33319   2.294   6.053   3.797
10807SOL    HW133320   2.284   6.039   3.699
10807SOL    HW233321   2.208   6.087   3.835
10808SOL     OW33322   6.889   2.219   6.047
10808SOL    HW133323   6.824   2.295   6.037
10808SOL    HW233324   6.962   2.246   6.110
10809SOL     OW33325   2.733   4.798   4.309
10809SOL    HW133326   2.674   4.812   4.388
10809SOL    HW233327   2.828   4.819   4.334
10810SOL     OW33328   0.328   0.510   4.156
10810SOL    HW133329   0.342   0.514   4.255
10810SOL    HW233330   0.413   0.536   4.110
10811SOL     OW33331   4.961   5.785   4.978
10811SOL    HW133332   4.899   5.721   5.024
10811SOL    HW233333   5.010   5.839   5.046
10812SOL     OW33334   7.026   3.212   6.505
10812SOL    HW133335   7.000   3.117   6.487
10812SOL    HW233336   0.026   3.257   6.419
10813SOL     OW33337   0.422   3.893   5.885
10813SOL    HW133338   0.353   3.870   5.818
10813SOL    HW233339   0.479   3.813   5.904
10814SOL     OW33340   1.976   0.330   0.122
10814SOL    HW133341   2.041   0.347   0.196
10814SOL    HW233342   1.886   0.308   0.161
10815SOL     OW33343   5.261   1.464   3.803
10815SOL    HW133344   5.190   1.418   3.749
10815SOL    HW233345   5.307   1.532   3.746
10816SOL     OW33346   3.452   3.055   3.351
10816SOL    HW133347   3.407   3.140   3.380
10816SOL    HW233348   3.399   3.013   3.277
10817SOL     OW33349   2.398   0.357   3.243
10817SOL    HW133350   2.338   0.321   3.171
10817SOL    HW233351   2.447   0.437   3.209
10818SOL     OW33352   4.783   5.410   6.088
10818SOL    HW133353   4.825   5.489   6.133
10818SOL    HW233354   4.828   5.394   6.001
10819SOL     OW33355   0.189   5.412   6.362
10819SOL    HW133356   0.115   5.456   6.411
10819SOL    HW233357   0.157   5.325   6.324
10820SOL     OW33358   1.205   5.504   5.376
10820SOL    HW133359   1.216   5.410   5.409
10820SOL    HW233360   1.220   5.507   5.278
10821SOL     OW33361   4.336   5.188   2.659
10821SOL    HW133362   4.256   5.132   2.680
10821SOL    HW233363   4.307   5.282   2.640
10822SOL     OW33364   5.819   2.436   0.748
10822SOL    HW133365   5.855   2.522   0.711
10822SOL    HW233366   5.895   2.382   0.786
10823SOL     OW33367   0.045   6.822   3.134
10823SOL    HW133368   0.045   6.737   3.187
10823SOL    HW233369   6.991   6.876   3.158
10824SOL     OW33370   1.146   0.954   4.376
10824SOL    HW133371   1.080   1.028   4.372
10824SOL    HW233372   1.108   0.872   4.333
10825SOL     OW33373   1.022   2.045   0.386
10825SOL    HW133374   1.069   2.070   0.471
10825SOL    HW233375   0.992   1.950   0.392
10826SOL     OW33376   1.903   1.968   2.375
10826SOL    HW133377   1.875   1.991   2.282
10826SOL    HW233378   1.931   2.051   2.424
10827SOL     OW33379   6.480   3.477   5.361
10827SOL    HW133380   6.548   3.501   5.430
10827SOL    HW233381   6.404   3.541   5.365
10828SOL     OW33382   6.661   3.842   6.749
10828SOL    HW133383   6.607   3.784   6.689
10828SOL    HW233384   6.639   3.938   6.732
10829SOL     OW33385   4.497   3.313   6.485
10829SOL    HW133386   4.588   3.298   6.523
10829SOL    HW233387   4.471   3.409   6.498
10830SOL     OW33388   5.227   1.362   3.257
10830SOL    HW133389   5.142   1.340   3.304
10830SOL    HW233390   5.245   1.293   3.186
10831SOL     OW33391   4.146   0.794   2.845
10831SOL    HW133392   4.221   0.858   2.826
10831SOL    HW233393   4.132   0.787   2.944
10832SOL     OW33394   6.835   3.408   0.808
10832SOL    HW133395   6.929   3.427   0.836
10832SOL    HW233396   6.777   3.487   0.826
10833SOL     OW33397   0.721   1.496   0.438
10833SOL    HW133398   0.791   1.551   0.485
10833SOL    HW233399   0.632   1.514   0.480
10834SOL     OW33400   6.702   6.823   0.623
10834SOL    HW133401   6.712   6.784   0.714
10834SOL    HW233402   6.701   6.922   0.629
10835SOL     OW33403   5.784   2.942   6.472
10835SOL    HW133404   5.759   3.026   6.424
10835SOL    HW233405   5.731   2.936   6.558
10836SOL     OW33406   0.732   1.736   3.301
10836SOL    HW133407   0.806   1.693   3.249
10836SOL    HW233408   0.720   1.688   3.388
10837SOL     OW33409   0.013   4.458   2.435
10837SOL    HW133410   0.113   4.453   2.439
10837SOL    HW233411   7.006   4.395   2.366
10838SOL     OW33412   6.140   5.741   3.448
10838SOL    HW133413   6.154   5.702   3.357
10838SOL    HW233414   6.228   5.748   3.496
10839SOL     OW33415   4.735   3.756   0.275
10839SOL    HW133416   4.710   3.795   0.186
10839SOL    HW233417   4.674   3.793   0.345
10840SOL     OW33418   3.304   0.403   0.925
10840SOL    HW133419   3.297   0.318   0.977
10840SOL    HW233420   3.292   0.383   0.828
10841SOL     OW33421   1.071   5.201   4.950
10841SOL    HW133422   1.147   5.145   4.917
10841SOL    HW233423   1.034   5.255   4.875
10842SOL     OW33424   4.917   4.084   1.278
10842SOL    HW133425   4.949   4.179   1.280
10842SOL    HW233426   4.831   4.077   1.328
10843SOL     OW33427   1.804   1.883   1.060
10843SOL    HW133428   1.727   1.902   1.119
10843SOL    HW233429   1.773   1.835   0.978
10844SOL     OW33430   1.052   5.590   4.598
10844SOL    HW133431   1.039   5.667   4.661
10844SOL    HW233432   1.034   5.619   4.504
10845SOL     OW33433   4.495   6.135   5.472
10845SOL    HW133434   4.517   6.109   5.566
10845SOL    HW233435   4.565   6.197   5.437
10846SOL     OW33436   5.548   6.326   0.585
10846SOL    HW133437   5.505   6.414   0.565
10846SOL    HW233438   5.517   6.258   0.518
10847SOL     OW33439   1.600   1.728   7.001
10847SOL    HW133440   1.672   1.755   6.937
10847SOL    HW233441   1.523   1.690   6.950
10848SOL     OW33442   1.463   4.300   0.894
10848SOL    HW133443   1.512   4.217   0.919
10848SOL    HW233444   1.528   4.377   0.889
10849SOL     OW33445   2.746   5.821   3.913
10849SOL    HW133446   2.832   5.801   3.867
10849SOL    HW233447   2.716   5.740   3.963
10850SOL     OW33448   3.887   6.263   0.385
10850SOL    HW133449   3.919   6.172   0.413
10850SOL    HW233450   3.797   6.254   0.342
10851SOL     OW33451   2.396   4.543   1.938
10851SOL    HW133452   2.491   4.565   1.964
10851SOL    HW233453   2.334   4.608   1.983
10852SOL     OW33454   2.219   1.628   1.076
10852SOL    HW133455   2.179   1.558   1.017
10852SOL    HW233456   2.177   1.717   1.057
10853SOL     OW33457   2.184   2.282   6.289
10853SOL    HW133458   2.211   2.372   6.323
10853SOL    HW233459   2.090   2.263   6.316
10854SOL     OW33460   4.014   6.091   5.387
10854SOL    HW133461   3.930   6.047   5.354
10854SOL    HW233462   4.090   6.065   5.328
10855SOL     OW33463   3.153   1.291   0.865
10855SOL    HW133464   3.161   1.312   0.962
10855SOL    HW233465   3.243   1.269   0.828
10856SOL     OW33466   6.832   0.354   0.048
10856SOL    HW133467   6.781   0.412   7.011
10856SOL    HW233468   6.892   0.411   0.104
10857SOL     OW33469   6.584   1.188   2.360
10857SOL    HW133470   6.545   1.229   2.278
10857SOL    HW233471   6.674   1.229   2.378
10858SOL     OW33472   2.408   5.689   1.579
10858SOL    HW133473   2.404   5.788   1.561
10858SOL    HW233474   2.360   5.669   1.664
10859SOL     OW33475   0.928   5.440   4.083
10859SOL    HW133476   0.963   5.360   4.034
10859SOL    HW233477   0.830   5.430   4.097
10860SOL     OW33478   6.646   2.700   2.353
10860SOL    HW133479   6.560   2.752   2.357
10860SOL    HW233480   6.706   2.731   2.426
10861SOL     OW33481   3.440   2.981   4.261
10861SOL    HW133482   3.512   2.953   4.324
10861SOL    HW233483   3.461   2.949   4.169
10862SOL     OW33484   1.839   0.153   4.980
10862SOL    HW133485   1.906   0.155   4.907
10862SOL    HW233486   1.871   0.209   5.056
10863SOL     OW33487   3.268   5.971   4.841
10863SOL    HW133488   3.316   5.884   4.849
10863SOL    HW233489   3.334   6.046   4.840
10864SOL     OW33490   3.529   6.509   2.183
10864SOL    HW133491   3.485   6.597   2.195
10864SOL    HW233492   3.627   6.517   2.204
10865SOL     OW33493   6.087   1.339   6.283
10865SOL    HW133494   6.023   1.350   6.360
10865SOL    HW233495   6.179   1.361   6.313
10866SOL     OW33496   5.333   5.046   0.438
10866SOL    HW133497   5.308   5.058   0.342
10866SOL    HW233498   5.370   5.131   0.474
10867SOL     OW33499   3.387   3.716   0.749
10867SOL    HW133500   3.322   3.640   0.749
10867SOL    HW233501   3.471   3.687   0.703
10868SOL     OW33502   3.283   1.699   3.333
10868SOL    HW133503   3.308   1.605   3.357
10868SOL    HW233504   3.337   1.763   3.387
10869NA      NA33505   5.815   2.330   5.626
10870NA      NA33506   4.295   4.606   5.255
10871NA      NA33507   2.136   3.769   1.398
10872NA      NA33508   4.900   3.897   5.060
10873NA      NA33509   4.379   2.457   5.237
10874NA      NA33510   3.730   4.698   1.458
10875NA      NA33511   6.668   5.624   5.569
10876NA      NA33512   3.621   3.554   5.092
10877NA      NA33513   4.941   6.664   6.667
10878NA      NA33514   3.642   0.068   5.641
10879NA      NA33515   6.512   4.735   2.222
10880NA      NA33516   2.166   0.450   3.608
10881NA      NA33517   3.348   4.871   1.324
10882NA      NA33518   3.401   3.672   2.774
   7.02695   7.02695   7.02695
