Generated by trjconv : CNT in water t= 214.00000
33518
    1C        C    1   2.846   2.772   4.748
    1C        C    2   2.898   2.722   4.869
    1C        C    3   2.844   2.779   4.985
    1C        C    4   2.854   2.776   4.261
    1C        C    5   2.902   2.724   4.384
    1C        C    6   2.847   2.772   4.505
    1C        C    7   3.014   2.640   4.628
    1C        C    8   2.899   2.721   4.626
    1C        C    9   3.076   2.601   4.748
    1C        C   10   3.009   2.634   4.868
    1C        C   11   3.185   2.497   4.979
    1C        C   12   3.064   2.568   4.978
    1C        C   13   2.851   2.773   3.773
    1C        C   14   2.904   2.726   3.895
    1C        C   15   2.851   2.773   4.018
    1C        C   16   3.025   2.650   4.138
    1C        C   17   2.906   2.727   4.139
    1C        C   18   3.081   2.611   4.262
    1C        C   19   3.016   2.641   4.384
    1C        C   20   3.210   2.559   4.505
    1C        C   21   3.076   2.604   4.506
    1C        C   22   3.280   2.535   4.625
    1C        C   23   3.208   2.547   4.746
    1C        C   24   3.413   2.481   4.867
    1C        C   25   3.271   2.499   4.865
    1C        C   26   3.494   2.484   4.981
    1C        C   27   2.847   2.770   3.283
    1C        C   28   2.900   2.723   3.405
    1C        C   29   2.853   2.771   3.529
    1C        C   30   3.020   2.641   3.649
    1C        C   31   2.906   2.725   3.652
    1C        C   32   3.080   2.604   3.772
    1C        C   33   3.016   2.640   3.893
    1C        C   34   3.210   2.553   4.015
    1C        C   35   3.081   2.609   4.015
    1C        C   36   3.278   2.538   4.138
    1C        C   37   3.213   2.563   4.261
    1C        C   38   3.417   2.510   4.380
    1C        C   39   3.280   2.544   4.384
    1C        C   40   3.488   2.504   4.502
    1C        C   41   3.418   2.507   4.625
    1C        C   42   3.629   2.484   4.744
    1C        C   43   3.487   2.482   4.745
    1C        C   44   3.707   2.489   4.862
    1C        C   45   3.633   2.488   4.981
    1C        C   46   2.841   2.758   2.796
    1C        C   47   2.897   2.715   2.918
    1C        C   48   2.848   2.769   3.039
    1C        C   49   3.016   2.640   3.162
    1C        C   50   2.900   2.721   3.161
    1C        C   51   3.080   2.609   3.284
    1C        C   52   3.017   2.643   3.406
    1C        C   53   3.206   2.544   3.527
    1C        C   54   3.077   2.602   3.527
    1C        C   55   3.276   2.524   3.648
    1C        C   56   3.210   2.551   3.770
    1C        C   57   3.416   2.499   3.894
    1C        C   58   3.277   2.528   3.893
    1C        C   59   3.489   2.493   4.014
    1C        C   60   3.416   2.507   4.135
    1C        C   61   3.627   2.508   4.259
    1C        C   62   3.486   2.501   4.257
    1C        C   63   3.700   2.511   4.381
    1C        C   64   3.629   2.503   4.503
    1C        C   65   3.837   2.544   4.622
    1C        C   66   3.702   2.502   4.624
    1C        C   67   3.910   2.559   4.741
    1C        C   68   3.843   2.527   4.861
    1C        C   69   4.052   2.593   4.979
    1C        C   70   3.925   2.535   4.974
    1C        C   71   2.827   2.737   2.309
    1C        C   72   2.882   2.694   2.431
    1C        C   73   2.833   2.751   2.551
    1C        C   74   3.007   2.628   2.673
    1C        C   75   2.891   2.709   2.673
    1C        C   76   3.073   2.598   2.795
    1C        C   77   3.013   2.634   2.918
    1C        C   78   3.206   2.546   3.036
    1C        C   79   3.077   2.603   3.040
    1C        C   80   3.271   2.524   3.159
    1C        C   81   3.208   2.550   3.283
    1C        C   82   3.413   2.497   3.403
    1C        C   83   3.275   2.525   3.405
    1C        C   84   3.482   2.489   3.526
    1C        C   85   3.415   2.498   3.650
    1C        C   86   3.627   2.500   3.771
    1C        C   87   3.486   2.489   3.772
    1C        C   88   3.698   2.510   3.893
    1C        C   89   3.630   2.498   4.016
    1C        C   90   3.836   2.548   4.138
    1C        C   91   3.700   2.512   4.138
    1C        C   92   3.907   2.566   4.259
    1C        C   93   3.837   2.544   4.380
    1C        C   94   4.030   2.634   4.499
    1C        C   95   3.905   2.569   4.501
    1C        C   96   4.094   2.671   4.619
    1C        C   97   4.035   2.628   4.740
    1C        C   98   4.196   2.766   4.863
    1C        C   99   4.102   2.658   4.862
    1C        C  100   4.219   2.844   4.977
    1C        C  101   2.816   2.725   2.071
    1C        C  102   2.993   2.595   2.190
    1C        C  103   2.880   2.682   2.189
    1C        C  104   3.064   2.574   2.312
    1C        C  105   3.000   2.617   2.430
    1C        C  106   3.199   2.539   2.551
    1C        C  107   3.066   2.586   2.552
    1C        C  108   3.268   2.520   2.672
    1C        C  109   3.203   2.543   2.796
    1C        C  110   3.414   2.497   2.915
    1C        C  111   3.275   2.522   2.915
    1C        C  112   3.483   2.492   3.038
    1C        C  113   3.411   2.502   3.159
    1C        C  114   3.625   2.493   3.279
    1C        C  115   3.483   2.495   3.280
    1C        C  116   3.692   2.507   3.402
    1C        C  117   3.623   2.498   3.525
    1C        C  118   3.831   2.542   3.647
    1C        C  119   3.694   2.507   3.647
    1C        C  120   3.898   2.572   3.768
    1C        C  121   3.834   2.546   3.892
    1C        C  122   4.025   2.637   4.014
    1C        C  123   3.898   2.576   4.014
    1C        C  124   4.089   2.673   4.135
    1C        C  125   4.033   2.630   4.257
    1C        C  126   4.198   2.768   4.378
    1C        C  127   4.094   2.672   4.378
    1C        C  128   4.243   2.822   4.500
    1C        C  129   4.197   2.767   4.622
    1C        C  130   4.330   2.936   4.740
    1C        C  131   4.252   2.817   4.742
    1C        C  132   4.360   3.004   4.860
    1C        C  133   4.287   2.965   4.974
    1C        C  134   3.169   2.473   2.080
    1C        C  135   3.034   2.512   2.081
    1C        C  136   3.258   2.484   2.188
    1C        C  137   3.196   2.522   2.309
    1C        C  138   3.403   2.477   2.429
    1C        C  139   3.264   2.502   2.431
    1C        C  140   3.478   2.478   2.549
    1C        C  141   3.407   2.493   2.670
    1C        C  142   3.622   2.488   2.790
    1C        C  143   3.481   2.487   2.791
    1C        C  144   3.693   2.504   2.911
    1C        C  145   3.624   2.494   3.035
    1C        C  146   3.830   2.541   3.157
    1C        C  147   3.695   2.499   3.157
    1C        C  148   3.897   2.565   3.280
    1C        C  149   3.830   2.539   3.402
    1C        C  150   4.022   2.628   3.525
    1C        C  151   3.896   2.564   3.524
    1C        C  152   4.082   2.671   3.645
    1C        C  153   4.021   2.641   3.769
    1C        C  154   4.193   2.765   3.889
    1C        C  155   4.083   2.676   3.891
    1C        C  156   4.246   2.815   4.010
    1C        C  157   4.195   2.766   4.133
    1C        C  158   4.336   2.925   4.253
    1C        C  159   4.247   2.816   4.254
    1C        C  160   4.375   2.987   4.374
    1C        C  161   4.331   2.932   4.496
    1C        C  162   4.439   3.116   4.618
    1C        C  163   4.369   2.994   4.617
    1C        C  164   4.471   3.184   4.738
    1C        C  165   4.443   3.118   4.860
    1C        C  166   4.511   3.323   4.976
    1C        C  167   4.482   3.187   4.975
    1C        C  168   3.472   2.435   2.073
    1C        C  169   3.397   2.457   2.190
    1C        C  170   3.616   2.459   2.307
    1C        C  171   3.474   2.462   2.308
    1C        C  172   3.690   2.479   2.425
    1C        C  173   3.619   2.485   2.547
    1C        C  174   3.827   2.538   2.666
    1C        C  175   3.692   2.499   2.667
    1C        C  176   3.894   2.564   2.788
    1C        C  177   3.829   2.542   2.911
    1C        C  178   4.019   2.632   3.035
    1C        C  179   3.896   2.563   3.034
    1C        C  180   4.081   2.667   3.157
    1C        C  181   4.022   2.631   3.280
    1C        C  182   4.191   2.756   3.398
    1C        C  183   4.082   2.667   3.403
    1C        C  184   4.243   2.805   3.520
    1C        C  185   4.194   2.758   3.644
    1C        C  186   4.338   2.915   3.763
    1C        C  187   4.245   2.809   3.766
    1C        C  188   4.381   2.975   3.884
    1C        C  189   4.340   2.920   4.007
    1C        C  190   4.446   3.104   4.128
    1C        C  191   4.378   2.980   4.130
    1C        C  192   4.471   3.173   4.248
    1C        C  193   4.442   3.112   4.372
    1C        C  194   4.506   3.314   4.492
    1C        C  195   4.470   3.177   4.494
    1C        C  196   4.518   3.387   4.612
    1C        C  197   4.510   3.320   4.737
    1C        C  198   4.553   3.535   4.853
    1C        C  199   4.530   3.394   4.856
    1C        C  200   4.581   3.621   4.964
    1C        C  201   3.611   2.417   2.074
    1C        C  202   3.825   2.509   2.184
    1C        C  203   3.689   2.462   2.185
    1C        C  204   3.895   2.541   2.303
    1C        C  205   3.827   2.515   2.424
    1C        C  206   4.020   2.617   2.543
    1C        C  207   3.895   2.551   2.543
    1C        C  208   4.078   2.662   2.664
    1C        C  209   4.017   2.633   2.788
    1C        C  210   4.196   2.744   2.907
    1C        C  211   4.079   2.666   2.911
    1C        C  212   4.246   2.798   3.028
    1C        C  213   4.194   2.751   3.151
    1C        C  214   4.330   2.913   3.273
    1C        C  215   4.242   2.802   3.274
    1C        C  216   4.371   2.972   3.395
    1C        C  217   4.330   2.916   3.518
    1C        C  218   4.442   3.098   3.639
    1C        C  219   4.375   2.973   3.639
    1C        C  220   4.468   3.167   3.760
    1C        C  221   4.441   3.103   3.883
    1C        C  222   4.504   3.306   4.004
    1C        C  223   4.469   3.169   4.005
    1C        C  224   4.513   3.379   4.124
    1C        C  225   4.502   3.311   4.248
    1C        C  226   4.521   3.523   4.367
    1C        C  227   4.518   3.382   4.369
    1C        C  228   4.514   3.597   4.488
    1C        C  229   4.521   3.528   4.611
    1C        C  230   4.504   3.742   4.727
    1C        C  231   4.533   3.603   4.730
    1C        C  232   4.501   3.821   4.844
    1C        C  233   4.545   3.756   4.961
    1C        C  234   4.018   2.610   2.063
    1C        C  235   3.896   2.544   2.069
    1C        C  236   4.081   2.650   2.182
    1C        C  237   4.019   2.612   2.302
    1C        C  238   4.195   2.741   2.421
    1C        C  239   4.080   2.656   2.422
    1C        C  240   4.248   2.787   2.543
    1C        C  241   4.191   2.747   2.666
    1C        C  242   4.336   2.905   2.786
    1C        C  243   4.249   2.794   2.786
    1C        C  244   4.382   2.961   2.907
    1C        C  245   4.336   2.907   3.030
    1C        C  246   4.438   3.094   3.149
    1C        C  247   4.373   2.969   3.151
    1C        C  248   4.455   3.161   3.273
    1C        C  249   4.431   3.100   3.398
    1C        C  250   4.505   3.302   3.511
    1C        C  251   4.465   3.167   3.518
    1C        C  252   4.508   3.372   3.634
    1C        C  253   4.499   3.305   3.758
    1C        C  254   4.523   3.514   3.877
    1C        C  255   4.515   3.373   3.880
    1C        C  256   4.515   3.587   3.998
    1C        C  257   4.515   3.520   4.123
    1C        C  258   4.486   3.731   4.240
    1C        C  259   4.514   3.592   4.244
    1C        C  260   4.469   3.801   4.362
    1C        C  261   4.483   3.734   4.486
    1C        C  262   4.426   3.941   4.605
    1C        C  263   4.472   3.808   4.606
    1C        C  264   4.399   4.011   4.724
    1C        C  265   4.432   3.944   4.843
    1C        C  266   4.320   4.131   4.957
    1C        C  267   4.394   4.013   4.959
    1C        C  268   4.262   2.777   2.064
    1C        C  269   4.196   2.733   2.179
    1C        C  270   4.347   2.888   2.300
    1C        C  271   4.254   2.781   2.299
    1C        C  272   4.382   2.953   2.420
    1C        C  273   4.341   2.893   2.541
    1C        C  274   4.454   3.077   2.662
    1C        C  275   4.376   2.959   2.661
    1C        C  276   4.479   3.147   2.782
    1C        C  277   4.451   3.084   2.905
    1C        C  278   4.511   3.290   3.025
    1C        C  279   4.475   3.153   3.026
    1C        C  280   4.519   3.363   3.146
    1C        C  281   4.502   3.294   3.268
    1C        C  282   4.521   3.510   3.389
    1C        C  283   4.517   3.369   3.387
    1C        C  284   4.513   3.583   3.510
    1C        C  285   4.511   3.513   3.632
    1C        C  286   4.493   3.724   3.754
    1C        C  287   4.514   3.584   3.754
    1C        C  288   4.472   3.795   3.875
    1C        C  289   4.487   3.725   3.997
    1C        C  290   4.423   3.930   4.118
    1C        C  291   4.474   3.798   4.117
    1C        C  292   4.392   3.996   4.239
    1C        C  293   4.423   3.934   4.362
    1C        C  294   4.328   4.127   4.478
    1C        C  295   4.397   4.004   4.482
    1C        C  296   4.282   4.188   4.598
    1C        C  297   4.325   4.133   4.720
    1C        C  298   4.197   4.313   4.839
    1C        C  299   4.280   4.196   4.840
    1C        C  300   4.168   4.403   4.946
    1C        C  301   4.354   2.881   2.059
    1C        C  302   4.467   3.067   2.175
    1C        C  303   4.397   2.942   2.178
    1C        C  304   4.478   3.141   2.296
    1C        C  305   4.452   3.076   2.419
    1C        C  306   4.513   3.279   2.539
    1C        C  307   4.483   3.141   2.540
    1C        C  308   4.519   3.353   2.659
    1C        C  309   4.511   3.285   2.782
    1C        C  310   4.523   3.500   2.899
    1C        C  311   4.520   3.359   2.902
    1C        C  312   4.515   3.570   3.021
    1C        C  313   4.519   3.504   3.146
    1C        C  314   4.485   3.717   3.263
    1C        C  315   4.515   3.579   3.266
    1C        C  316   4.465   3.785   3.385
    1C        C  317   4.484   3.721   3.510
    1C        C  318   4.423   3.924   3.627
    1C        C  319   4.472   3.792   3.632
    1C        C  320   4.389   3.985   3.750
    1C        C  321   4.419   3.926   3.875
    1C        C  322   4.313   4.111   3.991
    1C        C  323   4.391   3.993   3.996
    1C        C  324   4.279   4.174   4.113
    1C        C  325   4.326   4.121   4.235
    1C        C  326   4.191   4.288   4.351
    1C        C  327   4.287   4.184   4.355
    1C        C  328   4.136   4.337   4.471
    1C        C  329   4.188   4.293   4.595
    1C        C  330   4.027   4.438   4.715
    1C        C  331   4.139   4.350   4.715
    1C        C  332   3.973   4.500   4.829
    1C        C  333   4.056   4.486   4.942
    1C        C  334   4.561   3.264   2.066
    1C        C  335   4.539   3.126   2.066
    1C        C  336   4.543   3.349   2.176
    1C        C  337   4.516   3.278   2.295
    1C        C  338   4.523   3.491   2.413
    1C        C  339   4.523   3.350   2.416
    1C        C  340   4.515   3.564   2.534
    1C        C  341   4.519   3.495   2.657
    1C        C  342   4.495   3.710   2.774
    1C        C  343   4.519   3.570   2.777
    1C        C  344   4.472   3.776   2.896
    1C        C  345   4.488   3.709   3.020
    1C        C  346   4.419   3.914   3.139
    1C        C  347   4.468   3.782   3.139
    1C        C  348   4.390   3.980   3.261
    1C        C  349   4.421   3.920   3.384
    1C        C  350   4.315   4.105   3.503
    1C        C  351   4.394   3.988   3.505
    1C        C  352   4.268   4.160   3.625
    1C        C  353   4.313   4.104   3.747
    1C        C  354   4.174   4.268   3.868
    1C        C  355   4.268   4.163   3.868
    1C        C  356   4.121   4.319   3.989
    1C        C  357   4.179   4.274   4.110
    1C        C  358   4.014   4.408   4.233
    1C        C  359   4.133   4.332   4.230
    1C        C  360   3.952   4.448   4.354
    1C        C  361   4.018   4.415   4.474
    1C        C  362   3.831   4.522   4.594
    1C        C  363   3.960   4.464   4.593
    1C        C  364   3.764   4.556   4.714
    1C        C  365   3.840   4.548   4.832
    1C        C  366   3.629   4.594   4.949
    1C        C  367   3.768   4.581   4.947
    1C        C  368   4.517   3.562   2.054
    1C        C  369   4.521   3.489   2.173
    1C        C  370   4.499   3.704   2.288
    1C        C  371   4.521   3.564   2.293
    1C        C  372   4.481   3.773   2.410
    1C        C  373   4.494   3.703   2.532
    1C        C  374   4.419   3.906   2.650
    1C        C  375   4.476   3.777   2.651
    1C        C  376   4.392   3.972   2.772
    1C        C  377   4.424   3.909   2.894
    1C        C  378   4.315   4.094   3.012
    1C        C  379   4.394   3.977   3.015
    1C        C  380   4.273   4.153   3.133
    1C        C  381   4.314   4.099   3.257
    1C        C  382   4.174   4.260   3.377
    1C        C  383   4.271   4.157   3.379
    1C        C  384   4.123   4.309   3.498
    1C        C  385   4.173   4.264   3.623
    1C        C  386   4.007   4.396   3.744
    1C        C  387   4.123   4.314   3.745
    1C        C  388   3.945   4.434   3.865
    1C        C  389   4.005   4.400   3.989
    1C        C  390   3.820   4.498   4.109
    1C        C  391   3.949   4.440   4.112
    1C        C  392   3.755   4.523   4.231
    1C        C  393   3.823   4.505   4.354
    1C        C  394   3.618   4.558   4.473
    1C        C  395   3.757   4.536   4.475
    1C        C  396   3.549   4.571   4.595
    1C        C  397   3.624   4.574   4.714
    1C        C  398   3.411   4.562   4.838
    1C        C  399   3.550   4.583   4.834
    1C        C  400   3.344   4.523   4.955
    1C        C  401   4.504   3.701   2.053
    1C        C  402   4.452   3.914   2.167
    1C        C  403   4.491   3.779   2.169
    1C        C  404   4.405   3.973   2.286
    1C        C  405   4.428   3.904   2.407
    1C        C  406   4.322   4.092   2.525
    1C        C  407   4.389   3.968   2.527
    1C        C  408   4.278   4.152   2.645
    1C        C  409   4.317   4.092   2.767
    1C        C  410   4.173   4.248   2.889
    1C        C  411   4.274   4.149   2.889
    1C        C  412   4.122   4.301   3.010
    1C        C  413   4.175   4.255   3.132
    1C        C  414   4.005   4.385   3.253
    1C        C  415   4.121   4.303   3.253
    1C        C  416   3.946   4.420   3.376
    1C        C  417   4.006   4.389   3.499
    1C        C  418   3.817   4.485   3.619
    1C        C  419   3.945   4.426   3.621
    1C        C  420   3.751   4.511   3.741
    1C        C  421   3.815   4.490   3.865
    1C        C  422   3.612   4.541   3.986
    1C        C  423   3.751   4.518   3.987
    1C        C  424   3.545   4.542   4.111
    1C        C  425   3.615   4.544   4.233
    1C        C  426   3.401   4.545   4.356
    1C        C  427   3.542   4.554   4.354
    1C        C  428   3.333   4.547   4.480
    1C        C  429   3.408   4.557   4.599
    1C        C  430   3.196   4.520   4.723
    1C        C  431   3.335   4.551   4.720
    1C        C  432   3.127   4.495   4.844
    1C        C  433   3.208   4.498   4.959
    1C        C  434   4.381   4.121   2.049
    1C        C  435   4.444   3.996   2.053
    1C        C  436   4.300   4.156   2.161
    1C        C  437   4.328   4.093   2.285
    1C        C  438   4.183   4.254   2.400
    1C        C  439   4.280   4.152   2.404
    1C        C  440   4.124   4.295   2.522
    1C        C  441   4.177   4.251   2.645
    1C        C  442   4.009   4.382   2.765
    1C        C  443   4.122   4.297   2.766
    1C        C  444   3.946   4.418   2.886
    1C        C  445   4.008   4.384   3.008
    1C        C  446   3.817   4.478   3.129
    1C        C  447   3.946   4.421   3.129
    1C        C  448   3.750   4.497   3.252
    1C        C  449   3.815   4.473   3.375
    1C        C  450   3.611   4.529   3.495
    1C        C  451   3.750   4.506   3.496
    1C        C  452   3.544   4.539   3.619
    1C        C  453   3.612   4.539   3.743
    1C        C  454   3.400   4.546   3.865
    1C        C  455   3.541   4.551   3.864
    1C        C  456   3.333   4.535   3.989
    1C        C  457   3.404   4.544   4.111
    1C        C  458   3.194   4.505   4.236
    1C        C  459   3.333   4.533   4.233
    1C        C  460   3.130   4.482   4.360
    1C        C  461   3.196   4.511   4.481
    1C        C  462   2.999   4.432   4.604
    1C        C  463   3.127   4.491   4.603
    1C        C  464   2.933   4.399   4.725
    1C        C  465   2.994   4.443   4.846
    1C        C  466   2.802   4.336   4.962
    1C        C  467   2.905   4.430   4.958
    1C        C  468   4.122   4.280   2.043
    1C        C  469   4.189   4.246   2.161
    1C        C  470   4.006   4.372   2.280
    1C        C  471   4.129   4.301   2.278
    1C        C  472   3.943   4.408   2.401
    1C        C  473   4.010   4.379   2.522
    1C        C  474   3.815   4.466   2.644
    1C        C  475   3.946   4.415   2.642
    1C        C  476   3.746   4.496   2.764
    1C        C  477   3.816   4.474   2.885
    1C        C  478   3.608   4.517   3.006
    1C        C  479   3.747   4.491   3.007
    1C        C  480   3.540   4.528   3.130
    1C        C  481   3.611   4.523   3.252
    1C        C  482   3.398   4.533   3.376
    1C        C  483   3.539   4.534   3.374
    1C        C  484   3.331   4.528   3.500
    1C        C  485   3.403   4.535   3.622
    1C        C  486   3.194   4.495   3.745
    1C        C  487   3.330   4.530   3.743
    1C        C  488   3.129   4.473   3.869
    1C        C  489   3.199   4.493   3.990
    1C        C  490   3.008   4.405   4.117
    1C        C  491   3.133   4.471   4.114
    1C        C  492   2.941   4.380   4.239
    1C        C  493   3.004   4.419   4.359
    1C        C  494   2.835   4.296   4.486
    1C        C  495   2.943   4.387   4.483
    1C        C  496   2.775   4.251   4.606
    1C        C  497   2.822   4.310   4.726
    1C        C  498   2.672   4.159   4.846
    1C        C  499   2.758   4.272   4.845
    1C        C  500   2.604   4.116   4.961
    1C        C  501   4.006   4.356   2.041
    1C        C  502   3.815   4.463   2.155
    1C        C  503   3.943   4.402   2.157
    1C        C  504   3.746   4.483   2.276
    1C        C  505   3.813   4.463   2.399
    1C        C  506   3.608   4.513   2.519
    1C        C  507   3.746   4.483   2.522
    1C        C  508   3.537   4.525   2.640
    1C        C  509   3.608   4.525   2.762
    1C        C  510   3.396   4.528   2.887
    1C        C  511   3.537   4.530   2.885
    1C        C  512   3.326   4.521   3.010
    1C        C  513   3.399   4.530   3.130
    1C        C  514   3.193   4.491   3.256
    1C        C  515   3.330   4.526   3.253
    1C        C  516   3.125   4.469   3.377
    1C        C  517   3.195   4.491   3.498
    1C        C  518   3.006   4.402   3.627
    1C        C  519   3.131   4.467   3.622
    1C        C  520   2.948   4.363   3.750
    1C        C  521   3.005   4.406   3.871
    1C        C  522   2.837   4.281   3.996
    1C        C  523   2.948   4.368   3.995
    1C        C  524   2.786   4.233   4.119
    1C        C  525   2.833   4.289   4.241
    1C        C  526   2.698   4.133   4.364
    1C        C  527   2.782   4.247   4.365
    1C        C  528   2.652   4.077   4.485
    1C        C  529   2.692   4.137   4.607
    1C        C  530   2.579   3.960   4.730
    1C        C  531   2.641   4.088   4.729
    1C        C  532   2.542   3.902   4.854
    1C        C  533   2.531   3.997   4.961
    1C        C  534   3.618   4.553   2.040
    1C        C  535   3.750   4.507   2.039
    1C        C  536   3.538   4.533   2.157
    1C        C  537   3.606   4.507   2.279
    1C        C  538   3.392   4.516   2.400
    1C        C  539   3.533   4.518   2.400
    1C        C  540   3.323   4.509   2.523
    1C        C  541   3.396   4.516   2.643
    1C        C  542   3.188   4.482   2.768
    1C        C  543   3.326   4.511   2.766
    1C        C  544   3.123   4.461   2.892
    1C        C  545   3.188   4.488   3.014
    1C        C  546   2.998   4.396   3.134
    1C        C  547   3.123   4.462   3.136
    1C        C  548   2.942   4.361   3.259
    1C        C  549   3.001   4.400   3.381
    1C        C  550   2.831   4.280   3.507
    1C        C  551   2.942   4.367   3.505
    1C        C  552   2.781   4.230   3.629
    1C        C  553   2.834   4.279   3.751
    1C        C  554   2.699   4.119   3.876
    1C        C  555   2.785   4.231   3.874
    1C        C  556   2.659   4.062   3.999
    1C        C  557   2.698   4.123   4.121
    1C        C  558   2.591   3.943   4.247
    1C        C  559   2.659   4.067   4.245
    1C        C  560   2.565   3.880   4.371
    1C        C  561   2.588   3.951   4.490
    1C        C  562   2.522   3.749   4.617
    1C        C  563   2.557   3.886   4.612
    1C        C  564   2.508   3.683   4.742
    1C        C  565   2.519   3.761   4.860
    1C        C  566   2.533   3.546   4.979
    1C        C  567   2.517   3.684   4.978
    1C        C  568   3.327   4.481   2.040
    1C        C  569   3.398   4.507   2.158
    1C        C  570   3.184   4.474   2.279
    1C        C  571   3.322   4.508   2.278
    1C        C  572   3.119   4.448   2.402
    1C        C  573   3.186   4.476   2.523
    1C        C  574   2.990   4.401   2.648
    1C        C  575   3.118   4.461   2.646
    1C        C  576   2.932   4.361   2.771
    1C        C  577   2.999   4.395   2.890
    1C        C  578   2.830   4.267   3.017
    1C        C  579   2.940   4.355   3.013
    1C        C  580   2.782   4.219   3.141
    1C        C  581   2.832   4.272   3.262
    1C        C  582   2.699   4.111   3.389
    1C        C  583   2.783   4.225   3.386
    1C        C  584   2.662   4.054   3.512
    1C        C  585   2.695   4.118   3.634
    1C        C  586   2.587   3.937   3.755
    1C        C  587   2.652   4.062   3.756
    1C        C  588   2.564   3.874   3.879
    1C        C  589   2.594   3.937   4.002
    1C        C  590   2.526   3.740   4.128
    1C        C  591   2.566   3.876   4.126
    1C        C  592   2.518   3.672   4.252
    1C        C  593   2.528   3.744   4.374
    1C        C  594   2.512   3.534   4.498
    1C        C  595   2.517   3.675   4.497
    1C        C  596   2.516   3.466   4.621
    1C        C  597   2.512   3.541   4.741
    1C        C  598   2.531   3.329   4.863
    1C        C  599   2.528   3.470   4.862
    1C        C  600   2.531   3.251   4.979
    1C        C  601   3.196   4.438   2.041
    1C        C  602   2.983   4.394   2.160
    1C        C  603   3.117   4.443   2.157
    1C        C  604   2.924   4.358   2.284
    1C        C  605   2.989   4.394   2.405
    1C        C  606   2.820   4.269   2.530
    1C        C  607   2.929   4.359   2.528
    1C        C  608   2.768   4.221   2.653
    1C        C  609   2.824   4.270   2.773
    1C        C  610   2.687   4.109   2.899
    1C        C  611   2.776   4.219   2.895
    1C        C  612   2.648   4.053   3.022
    1C        C  613   2.694   4.108   3.144
    1C        C  614   2.588   3.928   3.265
    1C        C  615   2.656   4.051   3.268
    1C        C  616   2.563   3.866   3.390
    1C        C  617   2.591   3.932   3.512
    1C        C  618   2.521   3.732   3.638
    1C        C  619   2.561   3.867   3.634
    1C        C  620   2.509   3.668   3.764
    1C        C  621   2.522   3.739   3.885
    1C        C  622   2.506   3.527   4.010
    1C        C  623   2.513   3.669   4.007
    1C        C  624   2.514   3.459   4.133
    1C        C  625   2.509   3.531   4.254
    1C        C  626   2.534   3.322   4.380
    1C        C  627   2.509   3.461   4.377
    1C        C  628   2.559   3.254   4.501
    1C        C  629   2.542   3.327   4.621
    1C        C  630   2.597   3.122   4.742
    1C        C  631   2.550   3.257   4.744
    1C        C  632   2.616   3.049   4.863
    1C        C  633   2.561   3.114   4.978
    1C        C  634   2.780   4.304   2.054
    1C        C  635   2.891   4.390   2.050
    1C        C  636   2.749   4.230   2.169
    1C        C  637   2.808   4.276   2.289
    1C        C  638   2.674   4.111   2.412
    1C        C  639   2.761   4.222   2.411
    1C        C  640   2.639   4.050   2.534
    1C        C  641   2.681   4.109   2.655
    1C        C  642   2.580   3.924   2.779
    1C        C  643   2.646   4.049   2.778
    1C        C  644   2.553   3.860   2.902
    1C        C  645   2.583   3.928   3.022
    1C        C  646   2.525   3.725   3.151
    1C        C  647   2.557   3.862   3.144
    1C        C  648   2.506   3.657   3.273
    1C        C  649   2.520   3.732   3.392
    1C        C  650   2.505   3.522   3.520
    1C        C  651   2.509   3.663   3.515
    1C        C  652   2.511   3.455   3.644
    1C        C  653   2.508   3.526   3.766
    1C        C  654   2.539   3.317   3.891
    1C        C  655   2.511   3.456   3.888
    1C        C  656   2.556   3.250   4.014
    1C        C  657   2.538   3.320   4.136
    1C        C  658   2.610   3.122   4.258
    1C        C  659   2.555   3.252   4.259
    1C        C  660   2.639   3.057   4.380
    1C        C  661   2.605   3.120   4.502
    1C        C  662   2.714   2.938   4.626
    1C        C  663   2.638   3.057   4.624
    1C        C  664   2.754   2.880   4.748
    1C        C  665   2.701   2.934   4.869
    1C        C  666   2.740   2.872   4.988
    1C        C  667   2.689   4.021   2.056
    1C        C  668   2.691   4.102   2.171
    1C        C  669   2.590   3.913   2.292
    1C        C  670   2.648   4.042   2.291
    1C        C  671   2.560   3.848   2.415
    1C        C  672   2.582   3.921   2.534
    1C        C  673   2.517   3.721   2.660
    1C        C  674   2.556   3.857   2.657
    1C        C  675   2.508   3.652   2.782
    1C        C  676   2.523   3.722   2.904
    1C        C  677   2.503   3.514   3.030
    1C        C  678   2.516   3.655   3.028
    1C        C  679   2.506   3.444   3.153
    1C        C  680   2.500   3.516   3.274
    1C        C  681   2.531   3.311   3.401
    1C        C  682   2.504   3.449   3.399
    1C        C  683   2.556   3.247   3.525
    1C        C  684   2.535   3.316   3.647
    1C        C  685   2.604   3.116   3.772
    1C        C  686   2.555   3.248   3.769
    1C        C  687   2.636   3.051   3.894
    1C        C  688   2.609   3.120   4.015
    1C        C  689   2.717   2.937   4.140
    1C        C  690   2.642   3.057   4.137
    1C        C  691   2.760   2.881   4.262
    1C        C  692   2.716   2.939   4.383
    1C        C  693   2.754   2.878   4.505
    1C        C  694   2.629   3.895   2.058
    1C        C  695   2.520   3.707   2.177
    1C        C  696   2.573   3.839   2.173
    1C        C  697   2.504   3.636   2.298
    1C        C  698   2.521   3.712   2.416
    1C        C  699   2.493   3.506   2.545
    1C        C  700   2.506   3.647   2.540
    1C        C  701   2.497   3.436   2.668
    1C        C  702   2.500   3.511   2.787
    1C        C  703   2.523   3.300   2.910
    1C        C  704   2.505   3.440   2.910
    1C        C  705   2.545   3.236   3.034
    1C        C  706   2.526   3.304   3.156
    1C        C  707   2.602   3.109   3.281
    1C        C  708   2.547   3.239   3.280
    1C        C  709   2.635   3.050   3.406
    1C        C  710   2.605   3.114   3.528
    1C        C  711   2.719   2.937   3.650
    1C        C  712   2.635   3.051   3.650
    1C        C  713   2.761   2.882   3.772
    1C        C  714   2.718   2.937   3.895
    1C        C  715   2.756   2.878   4.018
    1C        C  716   2.450   3.501   2.065
    1C        C  717   2.479   3.638   2.063
    1C        C  718   2.464   3.421   2.184
    1C        C  719   2.485   3.496   2.303
    1C        C  720   2.513   3.289   2.425
    1C        C  721   2.488   3.428   2.427
    1C        C  722   2.535   3.222   2.547
    1C        C  723   2.525   3.297   2.666
    1C        C  724   2.593   3.099   2.791
    1C        C  725   2.543   3.231   2.789
    1C        C  726   2.622   3.037   2.915
    1C        C  727   2.592   3.102   3.036
    1C        C  728   2.707   2.927   3.161
    1C        C  729   2.625   3.042   3.159
    1C        C  730   2.757   2.879   3.284
    1C        C  731   2.714   2.933   3.408
    1C        C  732   2.757   2.875   3.529
    1C        C  733   2.488   3.196   2.074
    1C        C  734   2.479   3.279   2.186
    1C        C  735   2.575   3.083   2.305
    1C        C  736   2.518   3.213   2.306
    1C        C  737   2.601   3.017   2.427
    1C        C  738   2.582   3.088   2.547
    1C        C  739   2.702   2.915   2.671
    1C        C  740   2.624   3.032   2.670
    1C        C  741   2.743   2.859   2.795
    1C        C  742   2.704   2.921   2.916
    1C        C  743   2.750   2.870   3.039
    1C        C  744   2.540   3.067   2.075
    1C        C  745   2.685   2.897   2.186
    1C        C  746   2.610   3.016   2.185
    1C        C  747   2.732   2.843   2.308
    1C        C  748   2.684   2.903   2.427
    1C        C  749   2.738   2.855   2.548
    1C        C  750   2.742   2.843   2.070
    1C        C  751   3.661   2.299   2.000
    1C        O  752   3.678   2.190   2.062
    1C        O  753   3.715   2.312   1.872
    1C        C  754   4.601   3.058   1.950
    1C        O  755   4.547   3.057   1.836
    1C        O  756   4.707   2.967   1.960
    1C        C  757   4.431   4.219   1.950
    1C        O  758   4.548   4.265   1.959
    1C        O  759   4.398   4.226   1.814
    1C        C  760   3.598   4.663   1.942
    1C        O  761   3.632   4.783   1.960
    1C        O  762   3.569   4.639   1.807
    1C        C  763   2.860   4.506   1.963
    1C        O  764   2.916   4.511   1.850
    1C        O  765   2.799   4.626   2.001
    1C        C  766   2.343   3.468   1.969
    1C        O  767   2.372   3.406   1.863
    1C        O  768   2.208   3.448   2.002
    1C        C  769   4.693   3.587   5.054
    1C        O  770   4.673   3.594   5.179
    1C        O  771   4.826   3.605   5.016
    1C        C  772   4.280   4.468   5.018
    1C        O  773   4.290   4.442   5.141
    1C        O  774   4.395   4.523   4.957
    1C        C  775   4.137   2.549   5.093
    1C        O  776   4.224   2.459   5.100
    1C        O  777   4.098   2.572   5.225
    1C        C  778   2.881   4.547   5.045
    1C        O  779   2.829   4.655   5.006
    1C        O  780   2.963   4.567   5.156
    1C        C  781   2.476   3.042   5.076
    1C        O  782   2.386   2.960   5.041
    1C        O  783   2.458   3.081   5.208
    1C        C  784   2.419   4.006   5.057
    1C        O  785   2.328   4.092   5.045
    1C        O  786   2.444   3.993   5.194
    1C        C  787   2.940   2.431   2.001
    1C        O  788   2.935   2.428   1.875
    1C        O  789   2.908   2.311   2.063
    1C        C  790   3.180   2.379   5.068
    1C        O  791   3.150   2.265   5.023
    1C        O  792   3.125   2.393   5.196
    1C        H  793   4.280   3.030   5.059
    1C        H  794   4.205   2.804   5.075
    1C        H  795   4.462   3.145   5.072
    1C        H  796   4.499   3.376   5.068
    1C        H  797   4.547   3.809   5.054
    1C        H  798   4.408   3.963   5.053
    1C        H  799   4.285   4.167   5.052
    1C        H  800   4.042   4.557   5.021
    1C        H  801   3.819   4.578   5.041
    1C        H  802   3.595   4.668   5.019
    1C        H  803   3.399   4.510   5.046
    1C        H  804   3.164   4.467   5.052
    1C        H  805   3.907   2.458   5.047
    1C        H  806   3.679   2.451   5.070
    1C        H  807   3.022   2.588   5.075
    1C        H  808   3.448   2.488   5.078
    1C        H  809   2.914   2.786   5.065
    1C        H  810   2.662   2.857   5.060
    1C        H  811   2.481   3.284   5.068
    1C        H  812   2.554   3.499   5.073
    1C        H  813   2.511   3.736   5.071
    1C        H  814   2.646   4.143   5.056
    1C        H  815   2.785   4.289   5.057
    1C        H  816   2.755   2.912   1.989
    1C        H  817   2.775   2.649   2.008
    1C        H  818   3.201   2.409   2.000
    1C        H  819   3.434   2.479   1.983
    1C        H  820   3.850   2.529   1.974
    1C        H  821   4.076   2.600   1.974
    1C        H  822   4.230   2.741   1.968
    1C        H  823   4.391   2.909   1.963
    1C        H  824   4.596   3.309   1.975
    1C        H  825   4.475   3.511   1.970
    1C        H  826   4.537   3.742   1.960
    1C        H  827   3.814   4.547   1.962
    1C        H  828   3.958   4.372   1.947
    1C        H  829   4.173   4.269   1.949
    1C        H  830   4.521   3.975   1.981
    1C        H  831   2.661   3.830   1.979
    1C        H  832   2.769   4.039   1.987
    1C        H  833   2.753   4.262   1.960
    1C        H  834   3.357   4.533   1.951
    1C        H  835   3.175   4.360   1.972
    1C        H  836   2.543   3.012   1.983
    1C        H  837   2.415   3.216   1.998
    1C        H  838   2.418   3.701   2.001
    2V3OU   H29  839   2.802   3.546   1.969
    2V3OU   C27  840   2.787   3.507   2.073
    2V3OU   H27  841   2.732   3.574   2.143
    2V3OU   H28  842   2.726   3.414   2.060
    2V3OU   O11  843   2.912   3.475   2.135
    2V3OU   C15  844   2.924   3.398   2.248
    2V3OU   C13  845   3.051   3.377   2.306
    2V3OU   C14  846   3.079   3.270   2.392
    2V3OU   C16  847   2.975   3.187   2.433
    2V3OU    H6  848   2.990   3.101   2.500
    2V3OU   C12  849   3.212   3.227   2.438
    2V3OU    O2  850   3.236   3.125   2.507
    2V3OU   C10  851   3.325   3.306   2.386
    2V3OU    C8  852   3.454   3.268   2.419
    2V3OU   O10  853   3.488   3.158   2.492
    2V3OU   H26  854   3.404   3.110   2.502
    2V3OU    C6  855   3.565   3.352   2.385
    2V3OU    C5  856   3.536   3.468   2.315
    2V3OU    C4  857   3.703   3.296   2.392
    2V3OU    H4  858   3.721   3.234   2.485
    2V3OU    H5  859   3.714   3.229   2.302
    2V3OU    C2  860   3.816   3.398   2.397
    2V3OU    O6  861   3.801   3.477   2.515
    2V3OU   H21  862   3.760   3.558   2.481
    2V3OU    C3  863   3.783   3.496   2.283
    2V3OU    H2  864   3.862   3.574   2.272
    2V3OU    H3  865   3.782   3.434   2.190
    2V3OU   C25  866   3.952   3.330   2.384
    2V3OU    O7  867   4.001   3.290   2.279
    2V3OU   C26  868   4.034   3.294   2.507
    2V3OU   H22  869   4.067   3.386   2.561
    2V3OU   H23  870   4.116   3.222   2.480
    2V3OU    O8  871   3.961   3.209   2.593
    2V3OU   H24  872   3.918   3.268   2.657
    2V3OU    C1  873   3.649   3.566   2.295
    2V3OU    H1  874   3.626   3.618   2.198
    2V3OU    O3  875   3.658   3.657   2.405
    2V3OU   C19  876   3.621   3.794   2.398
    2V3OU    H9  877   3.522   3.805   2.345
    2V3OU    O4  878   3.717   3.848   2.311
    2V3OU   C20  879   3.847   3.873   2.365
    2V3OU   H10  880   3.895   3.771   2.378
    2V3OU   C24  881   3.610   3.854   2.539
    2V3OU   H16  882   3.547   3.789   2.604
    2V3OU   H17  883   3.559   3.954   2.538
    2V3OU   C23  884   3.749   3.875   2.598
    2V3OU   H15  885   3.795   3.775   2.629
    2V3OU    N1  886   3.737   3.958   2.716
    2V3OU   H19  887   3.807   3.925   2.779
    2V3OU   H20  888   3.646   3.936   2.753
    2V3OU   C21  889   3.847   3.947   2.500
    2V3OU   H11  890   3.947   3.925   2.548
    2V3OU    O5  891   3.825   4.086   2.489
    2V3OU   H18  892   3.781   4.100   2.575
    2V3OU   C22  893   3.915   3.952   2.255
    2V3OU   H12  894   3.872   4.055   2.245
    2V3OU   H13  895   3.910   3.896   2.159
    2V3OU   H14  896   4.025   3.963   2.274
    2V3OU   C11  897   3.160   3.473   2.286
    2V3OU    O1  898   3.133   3.587   2.242
    2V3OU    C9  899   3.297   3.427   2.318
    2V3OU    C7  900   3.404   3.508   2.279
    2V3OU    O9  901   3.388   3.624   2.206
    2V3OU   H25  902   3.293   3.632   2.188
    2V3OU   C17  903   2.820   3.312   2.291
    2V3OU    H7  904   2.721   3.344   2.258
    2V3OU   C18  905   2.848   3.210   2.382
    2V3OU    H8  906   2.771   3.162   2.443
    3SOL     OW  907   3.287   4.820   0.748
    3SOL    HW1  908   3.301   4.894   0.813
    3SOL    HW2  909   3.225   4.851   0.675
    4SOL     OW  910   6.575   6.077   1.509
    4SOL    HW1  911   6.561   6.056   1.605
    4SOL    HW2  912   6.486   6.095   1.465
    5SOL     OW  913   4.644   1.571   2.968
    5SOL    HW1  914   4.670   1.613   2.881
    5SOL    HW2  915   4.721   1.518   3.003
    6SOL     OW  916   4.298   0.989   0.873
    6SOL    HW1  917   4.223   0.975   0.937
    6SOL    HW2  918   4.314   0.905   0.821
    7SOL     OW  919   6.856   3.999   2.456
    7SOL    HW1  920   6.844   4.021   2.552
    7SOL    HW2  921   6.827   3.904   2.440
    8SOL     OW  922   2.971   0.685   6.834
    8SOL    HW1  923   3.051   0.745   6.844
    8SOL    HW2  924   2.974   0.613   6.903
    9SOL     OW  925   6.484   7.015   6.433
    9SOL    HW1  926   6.555   0.030   6.492
    9SOL    HW2  927   6.461   6.923   6.466
   10SOL     OW  928   1.626   4.899   6.341
   10SOL    HW1  929   1.664   4.983   6.301
   10SOL    HW2  930   1.560   4.922   6.412
   11SOL     OW  931   2.394   0.280   6.314
   11SOL    HW1  932   2.330   0.217   6.270
   11SOL    HW2  933   2.403   0.363   6.258
   12SOL     OW  934   4.067   6.522   3.609
   12SOL    HW1  935   3.990   6.470   3.646
   12SOL    HW2  936   4.113   6.467   3.539
   13SOL     OW  937   4.006   5.602   3.637
   13SOL    HW1  938   4.104   5.584   3.628
   13SOL    HW2  939   3.959   5.517   3.660
   14SOL     OW  940   4.125   5.549   5.720
   14SOL    HW1  941   4.119   5.639   5.677
   14SOL    HW2  942   4.083   5.481   5.660
   15SOL     OW  943   1.379   6.330   1.297
   15SOL    HW1  944   1.456   6.373   1.250
   15SOL    HW2  945   1.377   6.362   1.392
   16SOL     OW  946   5.197   2.912   5.544
   16SOL    HW1  947   5.179   2.915   5.642
   16SOL    HW2  948   5.144   2.983   5.498
   17SOL     OW  949   5.210   6.217   5.665
   17SOL    HW1  950   5.162   6.295   5.623
   17SOL    HW2  951   5.164   6.132   5.639
   18SOL     OW  952   3.226   0.629   6.139
   18SOL    HW1  953   3.187   0.631   6.047
   18SOL    HW2  954   3.325   0.642   6.133
   19SOL     OW  955   0.506   0.168   3.270
   19SOL    HW1  956   0.546   0.105   3.204
   19SOL    HW2  957   0.419   0.132   3.304
   20SOL     OW  958   5.571   2.520   4.687
   20SOL    HW1  959   5.660   2.565   4.682
   20SOL    HW2  960   5.502   2.575   4.640
   21SOL     OW  961   3.561   2.069   2.686
   21SOL    HW1  962   3.609   2.071   2.599
   21SOL    HW2  963   3.624   2.045   2.760
   22SOL     OW  964   2.271   6.213   0.528
   22SOL    HW1  965   2.322   6.223   0.443
   22SOL    HW2  966   2.312   6.140   0.583
   23SOL     OW  967   5.002   6.119   3.042
   23SOL    HW1  968   5.013   6.108   2.943
   23SOL    HW2  969   5.087   6.092   3.088
   24SOL     OW  970   4.897   1.475   3.283
   24SOL    HW1  971   4.879   1.490   3.186
   24SOL    HW2  972   4.811   1.457   3.330
   25SOL     OW  973   3.099   6.951   5.117
   25SOL    HW1  974   3.170   7.010   5.154
   25SOL    HW2  975   3.048   7.001   5.046
   26SOL     OW  976   6.740   1.027   0.450
   26SOL    HW1  977   6.670   1.076   0.398
   26SOL    HW2  978   6.803   0.982   0.386
   27SOL     OW  979   1.274   1.878   2.392
   27SOL    HW1  980   1.281   1.805   2.324
   27SOL    HW2  981   1.182   1.918   2.388
   28SOL     OW  982   3.423   1.760   5.816
   28SOL    HW1  983   3.449   1.681   5.761
   28SOL    HW2  984   3.327   1.752   5.842
   29SOL     OW  985   4.476   2.231   2.355
   29SOL    HW1  986   4.446   2.145   2.397
   29SOL    HW2  987   4.409   2.260   2.287
   30SOL     OW  988   3.418   1.360   4.449
   30SOL    HW1  989   3.347   1.296   4.417
   30SOL    HW2  990   3.503   1.310   4.465
   31SOL     OW  991   1.292   2.710   6.319
   31SOL    HW1  992   1.382   2.710   6.274
   31SOL    HW2  993   1.304   2.695   6.417
   32SOL     OW  994   0.241   1.422   2.745
   32SOL    HW1  995   0.284   1.472   2.670
   32SOL    HW2  996   0.220   1.329   2.714
   33SOL     OW  997   2.321   4.032   6.395
   33SOL    HW1  998   2.350   4.112   6.448
   33SOL    HW2  999   2.398   3.998   6.341
   34SOL     OW 1000   2.399   1.185   4.508
   34SOL    HW1 1001   2.440   1.181   4.417
   34SOL    HW2 1002   2.467   1.219   4.573
   35SOL     OW 1003   3.232   3.423   6.717
   35SOL    HW1 1004   3.279   3.352   6.768
   35SOL    HW2 1005   3.276   3.511   6.732
   36SOL     OW 1006   6.341   0.942   5.253
   36SOL    HW1 1007   6.243   0.958   5.256
   36SOL    HW2 1008   6.360   0.848   5.280
   37SOL     OW 1009   1.337   1.023   0.666
   37SOL    HW1 1010   1.427   1.067   0.674
   37SOL    HW2 1011   1.305   1.029   0.572
   38SOL     OW 1012   7.024   4.830   2.756
   38SOL    HW1 1013   6.951   4.856   2.692
   38SOL    HW2 1014   0.088   4.844   2.712
   39SOL     OW 1015   0.028   4.986   6.388
   39SOL    HW1 1016   0.038   4.928   6.469
   39SOL    HW2 1017   6.956   4.988   6.361
   40SOL     OW 1018   5.333   1.982   0.971
   40SOL    HW1 1019   5.325   2.034   1.056
   40SOL    HW2 1020   5.281   2.028   0.899
   41SOL     OW 1021   6.780   6.230   3.709
   41SOL    HW1 1022   6.740   6.215   3.619
   41SOL    HW2 1023   6.782   6.144   3.760
   42SOL     OW 1024   2.885   5.373   5.204
   42SOL    HW1 1025   2.804   5.415   5.245
   42SOL    HW2 1026   2.866   5.351   5.109
   43SOL     OW 1027   5.941   6.094   5.444
   43SOL    HW1 1028   5.854   6.059   5.410
   43SOL    HW2 1029   5.999   6.017   5.472
   44SOL     OW 1030   5.163   1.582   6.602
   44SOL    HW1 1031   5.072   1.603   6.565
   44SOL    HW2 1032   5.230   1.645   6.563
   45SOL     OW 1033   4.487   6.458   2.929
   45SOL    HW1 1034   4.490   6.407   3.015
   45SOL    HW2 1035   4.537   6.544   2.940
   46SOL     OW 1036   0.595   3.039   3.207
   46SOL    HW1 1037   0.537   2.993   3.140
   46SOL    HW2 1038   0.648   3.111   3.161
   47SOL     OW 1039   4.871   4.250   0.620
   47SOL    HW1 1040   4.939   4.243   0.693
   47SOL    HW2 1041   4.839   4.158   0.597
   48SOL     OW 1042   0.080   2.539   5.452
   48SOL    HW1 1043   0.133   2.456   5.469
   48SOL    HW2 1044   0.120   2.615   5.504
   49SOL     OW 1045   5.364   3.767   1.753
   49SOL    HW1 1046   5.443   3.823   1.778
   49SOL    HW2 1047   5.387   3.670   1.760
   50SOL     OW 1048   5.776   1.082   4.964
   50SOL    HW1 1049   5.712   1.087   4.887
   50SOL    HW2 1050   5.827   1.168   4.970
   51SOL     OW 1051   3.090   6.651   3.409
   51SOL    HW1 1052   3.074   6.750   3.418
   51SOL    HW2 1053   3.125   6.632   3.318
   52SOL     OW 1054   5.533   2.290   3.177
   52SOL    HW1 1055   5.632   2.282   3.172
   52SOL    HW2 1056   5.491   2.203   3.152
   53SOL     OW 1057   3.531   6.862   4.600
   53SOL    HW1 1058   3.565   6.901   4.514
   53SOL    HW2 1059   3.508   6.766   4.586
   54SOL     OW 1060   3.570   5.181   1.007
   54SOL    HW1 1061   3.615   5.232   1.081
   54SOL    HW2 1062   3.599   5.085   1.011
   55SOL     OW 1063   2.939   1.773   6.828
   55SOL    HW1 1064   2.956   1.755   6.731
   55SOL    HW2 1065   2.856   1.829   6.837
   56SOL     OW 1066   6.817   6.944   1.368
   56SOL    HW1 1067   6.775   0.010   1.359
   56SOL    HW2 1068   6.814   6.916   1.464
   57SOL     OW 1069   5.372   1.254   1.092
   57SOL    HW1 1070   5.308   1.245   1.168
   57SOL    HW2 1071   5.433   1.331   1.110
   58SOL     OW 1072   6.468   6.709   5.557
   58SOL    HW1 1073   6.405   6.763   5.501
   58SOL    HW2 1074   6.433   6.616   5.567
   59SOL     OW 1075   0.849   2.086   5.470
   59SOL    HW1 1076   0.915   2.154   5.438
   59SOL    HW2 1077   0.896   2.000   5.489
   60SOL     OW 1078   5.425   2.023   5.604
   60SOL    HW1 1079   5.369   1.980   5.533
   60SOL    HW2 1080   5.422   2.122   5.593
   61SOL     OW 1081   5.124   2.348   5.071
   61SOL    HW1 1082   5.187   2.335   5.148
   61SOL    HW2 1083   5.110   2.446   5.056
   62SOL     OW 1084   0.469   1.294   1.967
   62SOL    HW1 1085   0.417   1.229   1.912
   62SOL    HW2 1086   0.492   1.374   1.911
   63SOL     OW 1087   4.894   1.205   3.463
   63SOL    HW1 1088   4.920   1.299   3.485
   63SOL    HW2 1089   4.860   1.160   3.546
   64SOL     OW 1090   7.016   3.562   5.676
   64SOL    HW1 1091   0.084   3.599   5.663
   64SOL    HW2 1092   6.961   3.629   5.726
   65SOL     OW 1093   0.275   4.885   6.550
   65SOL    HW1 1094   0.341   4.895   6.625
   65SOL    HW2 1095   0.267   4.972   6.502
   66SOL     OW 1096   3.903   0.880   5.555
   66SOL    HW1 1097   3.939   0.851   5.645
   66SOL    HW2 1098   3.892   0.979   5.554
   67SOL     OW 1099   5.310   4.406   5.741
   67SOL    HW1 1100   5.214   4.418   5.764
   67SOL    HW2 1101   5.362   4.487   5.768
   68SOL     OW 1102   5.679   0.906   6.615
   68SOL    HW1 1103   5.660   0.960   6.697
   68SOL    HW2 1104   5.621   0.937   6.540
   69SOL     OW 1105   0.641   3.317   5.655
   69SOL    HW1 1106   0.739   3.335   5.661
   69SOL    HW2 1107   0.626   3.226   5.616
   70SOL     OW 1108   5.644   3.701   4.690
   70SOL    HW1 1109   5.725   3.759   4.677
   70SOL    HW2 1110   5.656   3.615   4.641
   71SOL     OW 1111   4.082   1.976   2.885
   71SOL    HW1 1112   4.017   2.036   2.932
   71SOL    HW2 1113   4.172   2.020   2.882
   72SOL     OW 1114   1.755   6.176   4.577
   72SOL    HW1 1115   1.786   6.099   4.633
   72SOL    HW2 1116   1.803   6.174   4.489
   73SOL     OW 1117   3.347   0.909   1.284
   73SOL    HW1 1118   3.402   0.992   1.273
   73SOL    HW2 1119   3.288   0.898   1.204
   74SOL     OW 1120   4.753   6.629   6.870
   74SOL    HW1 1121   4.657   6.613   6.892
   74SOL    HW2 1122   4.768   6.613   6.772
   75SOL     OW 1123   3.979   0.597   1.116
   75SOL    HW1 1124   3.981   0.684   1.165
   75SOL    HW2 1125   3.978   0.521   1.181
   76SOL     OW 1126   3.164   3.419   0.798
   76SOL    HW1 1127   3.089   3.459   0.850
   76SOL    HW2 1128   3.128   3.352   0.733
   77SOL     OW 1129   6.736   6.652   3.557
   77SOL    HW1 1130   6.815   6.615   3.506
   77SOL    HW2 1131   6.764   6.675   3.650
   78SOL     OW 1132   5.434   1.550   0.171
   78SOL    HW1 1133   5.532   1.564   0.165
   78SOL    HW2 1134   5.386   1.622   0.121
   79SOL     OW 1135   3.322   6.225   0.644
   79SOL    HW1 1136   3.378   6.216   0.561
   79SOL    HW2 1137   3.361   6.168   0.716
   80SOL     OW 1138   5.715   1.212   4.438
   80SOL    HW1 1139   5.767   1.138   4.479
   80SOL    HW2 1140   5.621   1.208   4.471
   81SOL     OW 1141   1.893   6.846   2.746
   81SOL    HW1 1142   1.800   6.810   2.758
   81SOL    HW2 1143   1.948   6.782   2.693
   82SOL     OW 1144   6.299   4.851   1.129
   82SOL    HW1 1145   6.265   4.762   1.160
   82SOL    HW2 1146   6.224   4.918   1.130
   83SOL     OW 1147   0.534   0.642   0.076
   83SOL    HW1 1148   0.618   0.588   0.075
   83SOL    HW2 1149   0.508   0.662   0.170
   84SOL     OW 1150   5.829   2.304   3.242
   84SOL    HW1 1151   5.876   2.366   3.179
   84SOL    HW2 1152   5.817   2.349   3.331
   85SOL     OW 1153   1.560   1.525   4.040
   85SOL    HW1 1154   1.484   1.478   3.995
   85SOL    HW2 1155   1.551   1.623   4.027
   86SOL     OW 1156   6.732   0.796   4.805
   86SOL    HW1 1157   6.633   0.779   4.814
   86SOL    HW2 1158   6.780   0.709   4.803
   87SOL     OW 1159   4.648   3.538   0.791
   87SOL    HW1 1160   4.599   3.507   0.873
   87SOL    HW2 1161   4.618   3.485   0.712
   88SOL     OW 1162   3.235   1.836   5.568
   88SOL    HW1 1163   3.158   1.774   5.561
   88SOL    HW2 1164   3.231   1.887   5.654
   89SOL     OW 1165   1.444   2.895   5.884
   89SOL    HW1 1166   1.354   2.853   5.876
   89SOL    HW2 1167   1.508   2.850   5.822
   90SOL     OW 1168   3.524   5.361   2.223
   90SOL    HW1 1169   3.471   5.316   2.152
   90SOL    HW2 1170   3.604   5.305   2.246
   91SOL     OW 1171   5.138   4.284   4.893
   91SOL    HW1 1172   5.128   4.339   4.810
   91SOL    HW2 1173   5.087   4.327   4.967
   92SOL     OW 1174   4.137   4.681   0.549
   92SOL    HW1 1175   4.138   4.658   0.646
   92SOL    HW2 1176   4.145   4.780   0.538
   93SOL     OW 1177   3.028   4.135   6.481
   93SOL    HW1 1178   2.972   4.056   6.457
   93SOL    HW2 1179   3.027   4.148   6.580
   94SOL     OW 1180   1.933   5.902   6.649
   94SOL    HW1 1181   1.914   5.995   6.680
   94SOL    HW2 1182   1.894   5.836   6.713
   95SOL     OW 1183   1.528   0.673   3.554
   95SOL    HW1 1184   1.437   0.713   3.550
   95SOL    HW2 1185   1.595   0.745   3.572
   96SOL     OW 1186   3.316   0.311   5.308
   96SOL    HW1 1187   3.411   0.337   5.320
   96SOL    HW2 1188   3.260   0.392   5.290
   97SOL     OW 1189   2.493   2.879   5.475
   97SOL    HW1 1190   2.482   2.936   5.557
   97SOL    HW2 1191   2.417   2.897   5.412
   98SOL     OW 1192   0.048   3.860   0.896
   98SOL    HW1 1193   0.004   3.902   0.976
   98SOL    HW2 1194   7.013   3.787   0.860
   99SOL     OW 1195   3.548   3.276   0.922
   99SOL    HW1 1196   3.628   3.254   0.866
   99SOL    HW2 1197   3.570   3.263   1.018
  100SOL     OW 1198   0.065   6.762   4.987
  100SOL    HW1 1199   0.081   6.861   4.992
  100SOL    HW2 1200   0.103   6.727   4.902
  101SOL     OW 1201   1.460   5.165   2.138
  101SOL    HW1 1202   1.497   5.113   2.215
  101SOL    HW2 1203   1.495   5.130   2.052
  102SOL     OW 1204   4.074   5.537   2.542
  102SOL    HW1 1205   4.065   5.633   2.569
  102SOL    HW2 1206   4.048   5.527   2.446
  103SOL     OW 1207   2.360   1.182   1.915
  103SOL    HW1 1208   2.387   1.125   1.993
  103SOL    HW2 1209   2.437   1.240   1.888
  104SOL     OW 1210   1.066   5.726   2.312
  104SOL    HW1 1211   1.124   5.807   2.310
  104SOL    HW2 1212   1.064   5.688   2.404
  105SOL     OW 1213   6.478   2.257   6.275
  105SOL    HW1 1214   6.457   2.259   6.372
  105SOL    HW2 1215   6.577   2.260   6.261
  106SOL     OW 1216   3.467   6.524   4.857
  106SOL    HW1 1217   3.446   6.613   4.898
  106SOL    HW2 1218   3.430   6.451   4.914
  107SOL     OW 1219   1.991   1.463   1.394
  107SOL    HW1 1220   2.024   1.545   1.348
  107SOL    HW2 1221   1.892   1.457   1.386
  108SOL     OW 1222   2.857   5.823   5.558
  108SOL    HW1 1223   2.944   5.791   5.522
  108SOL    HW2 1224   2.869   5.851   5.653
  109SOL     OW 1225   6.866   0.119   1.677
  109SOL    HW1 1226   6.894   0.031   1.640
  109SOL    HW2 1227   6.921   0.192   1.636
  110SOL     OW 1228   3.605   6.252   4.875
  110SOL    HW1 1229   3.583   6.331   4.818
  110SOL    HW2 1230   3.522   6.222   4.924
  111SOL     OW 1231   2.160   1.131   4.633
  111SOL    HW1 1232   2.154   1.191   4.713
  111SOL    HW2 1233   2.245   1.149   4.584
  112SOL     OW 1234   3.885   6.757   6.590
  112SOL    HW1 1235   3.936   6.809   6.522
  112SOL    HW2 1236   3.827   6.819   6.644
  113SOL     OW 1237   6.790   5.833   3.058
  113SOL    HW1 1238   6.844   5.855   2.978
  113SOL    HW2 1239   6.828   5.752   3.103
  114SOL     OW 1240   0.632   0.146   1.580
  114SOL    HW1 1241   0.614   0.048   1.592
  114SOL    HW2 1242   0.673   0.161   1.490
  115SOL     OW 1243   4.542   1.866   3.424
  115SOL    HW1 1244   4.620   1.920   3.456
  115SOL    HW2 1245   4.562   1.828   3.334
  116SOL     OW 1246   5.936   5.310   1.602
  116SOL    HW1 1247   5.953   5.213   1.618
  116SOL    HW2 1248   5.911   5.324   1.506
  117SOL     OW 1249   1.680   2.153   0.395
  117SOL    HW1 1250   1.706   2.067   0.350
  117SOL    HW2 1251   1.580   2.157   0.405
  118SOL     OW 1252   1.494   0.863   3.100
  118SOL    HW1 1253   1.565   0.817   3.153
  118SOL    HW2 1254   1.407   0.815   3.111
  119SOL     OW 1255   0.334   0.389   6.768
  119SOL    HW1 1256   0.265   0.395   6.841
  119SOL    HW2 1257   0.409   0.451   6.789
  120SOL     OW 1258   5.923   6.887   6.812
  120SOL    HW1 1259   5.997   6.891   6.880
  120SOL    HW2 1260   5.958   6.850   6.726
  121SOL     OW 1261   1.258   4.001   6.292
  121SOL    HW1 1262   1.165   3.970   6.313
  121SOL    HW2 1263   1.260   4.037   6.198
  122SOL     OW 1264   1.960   3.489   5.717
  122SOL    HW1 1265   2.029   3.506   5.646
  122SOL    HW2 1266   1.898   3.417   5.686
  123SOL     OW 1267   0.798   1.399   2.998
  123SOL    HW1 1268   0.793   1.359   3.090
  123SOL    HW2 1269   0.721   1.366   2.944
  124SOL     OW 1270   4.162   2.682   0.784
  124SOL    HW1 1271   4.197   2.599   0.741
  124SOL    HW2 1272   4.066   2.669   0.808
  125SOL     OW 1273   2.937   1.868   1.188
  125SOL    HW1 1274   2.935   1.944   1.252
  125SOL    HW2 1275   2.965   1.901   1.098
  126SOL     OW 1276   2.064   4.255   0.990
  126SOL    HW1 1277   2.019   4.342   0.970
  126SOL    HW2 1278   2.146   4.246   0.934
  127SOL     OW 1279   0.736   5.572   0.109
  127SOL    HW1 1280   0.835   5.561   0.120
  127SOL    HW2 1281   0.689   5.498   0.157
  128SOL     OW 1282   5.312   2.542   1.531
  128SOL    HW1 1283   5.249   2.539   1.608
  128SOL    HW2 1284   5.272   2.492   1.454
  129SOL     OW 1285   2.005   3.300   6.394
  129SOL    HW1 1286   2.079   3.367   6.395
  129SOL    HW2 1287   2.042   3.209   6.380
  130SOL     OW 1288   0.937   2.033   4.349
  130SOL    HW1 1289   1.029   1.997   4.338
  130SOL    HW2 1290   0.934   2.095   4.427
  131SOL     OW 1291   5.245   1.462   3.668
  131SOL    HW1 1292   5.288   1.409   3.595
  131SOL    HW2 1293   5.268   1.420   3.756
  132SOL     OW 1294   2.593   3.027   1.027
  132SOL    HW1 1295   2.625   3.121   1.019
  132SOL    HW2 1296   2.509   3.024   1.081
  133SOL     OW 1297   4.819   0.103   4.190
  133SOL    HW1 1298   4.752   0.032   4.209
  133SOL    HW2 1299   4.896   0.064   4.138
  134SOL     OW 1300   6.442   0.710   2.507
  134SOL    HW1 1301   6.493   0.660   2.437
  134SOL    HW2 1302   6.345   0.692   2.497
  135SOL     OW 1303   5.348   3.715   3.287
  135SOL    HW1 1304   5.254   3.747   3.285
  135SOL    HW2 1305   5.410   3.793   3.281
  136SOL     OW 1306   2.712   4.316   5.796
  136SOL    HW1 1307   2.688   4.284   5.704
  136SOL    HW2 1308   2.634   4.304   5.857
  137SOL     OW 1309   5.790   2.202   3.832
  137SOL    HW1 1310   5.857   2.243   3.771
  137SOL    HW2 1311   5.823   2.113   3.863
  138SOL     OW 1312   1.117   4.567   2.473
  138SOL    HW1 1313   1.053   4.582   2.398
  138SOL    HW2 1314   1.074   4.509   2.542
  139SOL     OW 1315   1.730   0.112   5.022
  139SOL    HW1 1316   1.791   0.033   5.029
  139SOL    HW2 1317   1.708   0.128   4.926
  140SOL     OW 1318   1.085   6.125   2.882
  140SOL    HW1 1319   1.039   6.126   2.970
  140SOL    HW2 1320   1.179   6.156   2.893
  141SOL     OW 1321   6.902   2.188   5.263
  141SOL    HW1 1322   6.887   2.163   5.168
  141SOL    HW2 1323   6.847   2.130   5.323
  142SOL     OW 1324   0.877   3.787   1.443
  142SOL    HW1 1325   0.943   3.851   1.404
  142SOL    HW2 1326   0.863   3.710   1.380
  143SOL     OW 1327   6.073   4.517   0.989
  143SOL    HW1 1328   6.026   4.428   0.992
  143SOL    HW2 1329   6.005   4.590   0.982
  144SOL     OW 1330   1.350   5.190   5.881
  144SOL    HW1 1331   1.261   5.206   5.924
  144SOL    HW2 1332   1.420   5.240   5.932
  145SOL     OW 1333   6.993   5.610   0.386
  145SOL    HW1 1334   6.967   5.693   0.436
  145SOL    HW2 1335   6.964   5.529   0.437
  146SOL     OW 1336   5.023   0.272   6.163
  146SOL    HW1 1337   5.060   0.180   6.175
  146SOL    HW2 1338   4.926   0.273   6.186
  147SOL     OW 1339   5.939   3.747   6.724
  147SOL    HW1 1340   5.884   3.675   6.680
  147SOL    HW2 1341   5.902   3.767   6.815
  148SOL     OW 1342   6.401   5.458   6.815
  148SOL    HW1 1343   6.455   5.438   6.896
  148SOL    HW2 1344   6.385   5.374   6.764
  149SOL     OW 1345   3.308   2.066   4.212
  149SOL    HW1 1346   3.219   2.021   4.200
  149SOL    HW2 1347   3.355   2.026   4.290
  150SOL     OW 1348   6.130   6.728   0.706
  150SOL    HW1 1349   6.041   6.716   0.750
  150SOL    HW2 1350   6.186   6.791   0.760
  151SOL     OW 1351   2.642   2.817   1.303
  151SOL    HW1 1352   2.732   2.858   1.287
  151SOL    HW2 1353   2.572   2.889   1.301
  152SOL     OW 1354   0.556   0.823   1.785
  152SOL    HW1 1355   0.564   0.724   1.789
  152SOL    HW2 1356   0.642   0.865   1.814
  153SOL     OW 1357   2.922   0.602   2.123
  153SOL    HW1 1358   2.940   0.635   2.215
  153SOL    HW2 1359   2.900   0.680   2.064
  154SOL     OW 1360   0.337   2.317   1.683
  154SOL    HW1 1361   0.243   2.290   1.661
  154SOL    HW2 1362   0.376   2.252   1.748
  155SOL     OW 1363   0.245   1.640   3.457
  155SOL    HW1 1364   0.322   1.669   3.401
  155SOL    HW2 1365   0.260   1.668   3.552
  156SOL     OW 1366   0.102   2.171   0.577
  156SOL    HW1 1367   0.038   2.101   0.608
  156SOL    HW2 1368   0.063   2.219   0.499
  157SOL     OW 1369   5.207   3.403   1.628
  157SOL    HW1 1370   5.194   3.311   1.592
  157SOL    HW2 1371   5.305   3.421   1.642
  158SOL     OW 1372   2.068   4.718   2.280
  158SOL    HW1 1373   2.003   4.700   2.206
  158SOL    HW2 1374   2.126   4.638   2.294
  159SOL     OW 1375   4.821   4.562   2.176
  159SOL    HW1 1376   4.734   4.525   2.143
  159SOL    HW2 1377   4.895   4.532   2.116
  160SOL     OW 1378   5.236   5.436   0.983
  160SOL    HW1 1379   5.194   5.367   0.924
  160SOL    HW2 1380   5.200   5.526   0.960
  161SOL     OW 1381   2.287   5.831   4.235
  161SOL    HW1 1382   2.373   5.827   4.184
  161SOL    HW2 1383   2.211   5.829   4.170
  162SOL     OW 1384   3.767   5.859   0.033
  162SOL    HW1 1385   3.699   5.858   6.984
  162SOL    HW2 1386   3.858   5.870   7.019
  163SOL     OW 1387   6.061   5.710   0.698
  163SOL    HW1 1388   6.153   5.724   0.660
  163SOL    HW2 1389   5.994   5.718   0.625
  164SOL     OW 1390   6.868   4.810   1.350
  164SOL    HW1 1391   6.812   4.798   1.268
  164SOL    HW2 1392   6.917   4.897   1.344
  165SOL     OW 1393   5.081   3.354   1.083
  165SOL    HW1 1394   5.036   3.347   1.172
  165SOL    HW2 1395   5.046   3.433   1.034
  166SOL     OW 1396   0.371   3.878   2.853
  166SOL    HW1 1397   0.451   3.862   2.911
  166SOL    HW2 1398   0.291   3.895   2.911
  167SOL     OW 1399   4.971   2.575   6.693
  167SOL    HW1 1400   4.956   2.479   6.673
  167SOL    HW2 1401   4.883   2.621   6.706
  168SOL     OW 1402   2.722   3.509   1.174
  168SOL    HW1 1403   2.805   3.468   1.212
  168SOL    HW2 1404   2.661   3.537   1.248
  169SOL     OW 1405   5.264   1.783   2.121
  169SOL    HW1 1406   5.305   1.783   2.212
  169SOL    HW2 1407   5.240   1.877   2.095
  170SOL     OW 1408   0.770   0.941   3.085
  170SOL    HW1 1409   0.755   0.845   3.109
  170SOL    HW2 1410   0.682   0.984   3.065
  171SOL     OW 1411   3.214   4.918   6.030
  171SOL    HW1 1412   3.286   4.904   6.097
  171SOL    HW2 1413   3.254   4.939   5.940
  172SOL     OW 1414   6.357   1.726   3.052
  172SOL    HW1 1415   6.268   1.683   3.065
  172SOL    HW2 1416   6.409   1.723   3.137
  173SOL     OW 1417   5.648   1.556   4.096
  173SOL    HW1 1418   5.595   1.641   4.102
  173SOL    HW2 1419   5.668   1.522   4.188
  174SOL     OW 1420   4.085   5.068   3.449
  174SOL    HW1 1421   4.152   5.136   3.479
  174SOL    HW2 1422   4.105   5.040   3.355
  175SOL     OW 1423   2.716   0.012   1.593
  175SOL    HW1 1424   2.781   6.971   1.631
  175SOL    HW2 1425   2.701   7.016   1.496
  176SOL     OW 1426   0.945   4.837   0.258
  176SOL    HW1 1427   1.026   4.833   0.316
  176SOL    HW2 1428   0.963   4.793   0.170
  177SOL     OW 1429   5.540   3.127   2.822
  177SOL    HW1 1430   5.615   3.169   2.770
  177SOL    HW2 1431   5.472   3.196   2.843
  178SOL     OW 1432   2.545   3.062   6.337
  178SOL    HW1 1433   2.616   3.062   6.408
  178SOL    HW2 1434   2.477   3.132   6.358
  179SOL     OW 1435   3.820   1.286   5.267
  179SOL    HW1 1436   3.824   1.382   5.294
  179SOL    HW2 1437   3.755   1.275   5.192
  180SOL     OW 1438   2.337   6.556   0.314
  180SOL    HW1 1439   2.262   6.490   0.303
  180SOL    HW2 1440   2.335   6.592   0.408
  181SOL     OW 1441   3.385   3.423   6.203
  181SOL    HW1 1442   3.472   3.473   6.207
  181SOL    HW2 1443   3.402   3.330   6.168
  182SOL     OW 1444   3.721   1.769   5.188
  182SOL    HW1 1445   3.629   1.807   5.176
  182SOL    HW2 1446   3.773   1.780   5.104
  183SOL     OW 1447   4.228   2.154   3.410
  183SOL    HW1 1448   4.236   2.212   3.328
  183SOL    HW2 1449   4.315   2.153   3.458
  184SOL     OW 1450   1.229   6.407   4.250
  184SOL    HW1 1451   1.199   6.372   4.162
  184SOL    HW2 1452   1.149   6.421   4.309
  185SOL     OW 1453   0.724   1.205   5.819
  185SOL    HW1 1454   0.813   1.200   5.864
  185SOL    HW2 1455   0.665   1.132   5.853
  186SOL     OW 1456   6.031   0.408   4.597
  186SOL    HW1 1457   6.061   0.326   4.548
  186SOL    HW2 1458   6.067   0.407   4.690
  187SOL     OW 1459   4.199   0.335   2.171
  187SOL    HW1 1460   4.293   0.320   2.141
  187SOL    HW2 1461   4.197   0.348   2.270
  188SOL     OW 1462   0.666   1.976   3.658
  188SOL    HW1 1463   0.733   1.905   3.679
  188SOL    HW2 1464   0.713   2.057   3.622
  189SOL     OW 1465   2.381   5.511   1.435
  189SOL    HW1 1466   2.451   5.576   1.405
  189SOL    HW2 1467   2.385   5.429   1.378
  190SOL     OW 1468   5.184   2.484   4.708
  190SOL    HW1 1469   5.179   2.526   4.617
  190SOL    HW2 1470   5.113   2.413   4.715
  191SOL     OW 1471   5.781   0.256   6.881
  191SOL    HW1 1472   5.767   0.166   6.925
  191SOL    HW2 1473   5.739   0.327   6.938
  192SOL     OW 1474   1.454   5.838   2.047
  192SOL    HW1 1475   1.432   5.849   1.950
  192SOL    HW2 1476   1.396   5.765   2.086
  193SOL     OW 1477   4.239   3.305   5.715
  193SOL    HW1 1478   4.249   3.214   5.755
  193SOL    HW2 1479   4.328   3.340   5.689
  194SOL     OW 1480   4.238   0.683   3.058
  194SOL    HW1 1481   4.277   0.660   3.147
  194SOL    HW2 1482   4.218   0.780   3.054
  195SOL     OW 1483   2.193   0.417   5.145
  195SOL    HW1 1484   2.212   0.488   5.213
  195SOL    HW2 1485   2.143   0.457   5.068
  196SOL     OW 1486   2.715   0.388   0.854
  196SOL    HW1 1487   2.745   0.383   0.949
  196SOL    HW2 1488   2.676   0.479   0.836
  197SOL     OW 1489   2.723   0.152   1.224
  197SOL    HW1 1490   2.667   0.199   1.292
  197SOL    HW2 1491   2.684   0.062   1.204
  198SOL     OW 1492   4.933   0.691   1.982
  198SOL    HW1 1493   5.005   0.623   1.967
  198SOL    HW2 1494   4.848   0.658   1.942
  199SOL     OW 1495   6.765   1.630   3.610
  199SOL    HW1 1496   6.687   1.605   3.667
  199SOL    HW2 1497   6.796   1.722   3.633
  200SOL     OW 1498   1.094   4.610   1.324
  200SOL    HW1 1499   1.030   4.646   1.392
  200SOL    HW2 1500   1.060   4.524   1.287
  201SOL     OW 1501   6.722   0.289   5.277
  201SOL    HW1 1502   6.804   0.345   5.270
  201SOL    HW2 1503   6.676   0.308   5.363
  202SOL     OW 1504   4.542   1.454   6.703
  202SOL    HW1 1505   4.469   1.512   6.739
  202SOL    HW2 1506   4.584   1.402   6.778
  203SOL     OW 1507   5.481   2.111   5.297
  203SOL    HW1 1508   5.479   2.034   5.233
  203SOL    HW2 1509   5.548   2.093   5.369
  204SOL     OW 1510   1.149   0.212   5.328
  204SOL    HW1 1511   1.124   0.120   5.360
  204SOL    HW2 1512   1.068   0.270   5.330
  205SOL     OW 1513   0.647   1.631   2.833
  205SOL    HW1 1514   0.578   1.572   2.876
  205SOL    HW2 1515   0.738   1.596   2.855
  206SOL     OW 1516   0.676   4.313   0.887
  206SOL    HW1 1517   0.764   4.346   0.852
  206SOL    HW2 1518   0.689   4.223   0.928
  207SOL     OW 1519   6.179   1.390   3.720
  207SOL    HW1 1520   6.188   1.401   3.621
  207SOL    HW2 1521   6.202   1.476   3.765
  208SOL     OW 1522   6.151   3.248   4.995
  208SOL    HW1 1523   6.163   3.154   5.029
  208SOL    HW2 1524   6.116   3.245   4.901
  209SOL     OW 1525   0.592   4.981   3.972
  209SOL    HW1 1526   0.674   5.037   3.986
  209SOL    HW2 1527   0.582   4.917   4.047
  210SOL     OW 1528   4.258   2.142   0.472
  210SOL    HW1 1529   4.308   2.056   0.473
  210SOL    HW2 1530   4.188   2.140   0.401
  211SOL     OW 1531   2.141   6.219   2.441
  211SOL    HW1 1532   2.161   6.300   2.385
  211SOL    HW2 1533   2.074   6.162   2.394
  212SOL     OW 1534   0.664   3.954   2.030
  212SOL    HW1 1535   0.695   4.037   1.985
  212SOL    HW2 1536   0.666   3.966   2.129
  213SOL     OW 1537   3.327   0.923   0.826
  213SOL    HW1 1538   3.323   0.949   0.729
  213SOL    HW2 1539   3.259   0.976   0.877
  214SOL     OW 1540   4.515   4.836   1.960
  214SOL    HW1 1541   4.554   4.839   1.867
  214SOL    HW2 1542   4.437   4.898   1.965
  215SOL     OW 1543   2.275   4.269   0.811
  215SOL    HW1 1544   2.312   4.180   0.836
  215SOL    HW2 1545   2.347   4.338   0.818
  216SOL     OW 1546   2.079   6.201   4.062
  216SOL    HW1 1547   2.070   6.126   3.996
  216SOL    HW2 1548   2.176   6.218   4.079
  217SOL     OW 1549   1.373   1.918   4.060
  217SOL    HW1 1550   1.276   1.897   4.042
  217SOL    HW2 1551   1.404   1.866   4.139
  218SOL     OW 1552   6.962   3.575   4.076
  218SOL    HW1 1553   6.963   3.507   4.150
  218SOL    HW2 1554   6.920   3.534   3.995
  219SOL     OW 1555   4.698   0.593   6.531
  219SOL    HW1 1556   4.675   0.509   6.579
  219SOL    HW2 1557   4.623   0.619   6.470
  220SOL     OW 1558   2.945   6.780   1.476
  220SOL    HW1 1559   2.972   6.692   1.514
  220SOL    HW2 1560   3.002   6.852   1.515
  221SOL     OW 1561   6.895   3.668   1.043
  221SOL    HW1 1562   6.874   3.675   1.140
  221SOL    HW2 1563   6.994   3.654   1.031
  222SOL     OW 1564   1.877   4.806   5.947
  222SOL    HW1 1565   1.782   4.838   5.948
  222SOL    HW2 1566   1.881   4.717   5.901
  223SOL     OW 1567   6.006   3.500   6.406
  223SOL    HW1 1568   6.004   3.524   6.309
  223SOL    HW2 1569   6.090   3.536   6.446
  224SOL     OW 1570   1.992   1.408   4.365
  224SOL    HW1 1571   1.996   1.470   4.443
  224SOL    HW2 1572   1.904   1.420   4.318
  225SOL     OW 1573   4.343   3.792   6.513
  225SOL    HW1 1574   4.319   3.710   6.564
  225SOL    HW2 1575   4.321   3.779   6.417
  226SOL     OW 1576   1.835   1.498   5.633
  226SOL    HW1 1577   1.835   1.398   5.633
  226SOL    HW2 1578   1.861   1.532   5.723
  227SOL     OW 1579   1.424   3.855   1.877
  227SOL    HW1 1580   1.424   3.755   1.880
  227SOL    HW2 1581   1.343   3.887   1.829
  228SOL     OW 1582   3.204   6.464   3.850
  228SOL    HW1 1583   3.167   6.455   3.757
  228SOL    HW2 1584   3.128   6.473   3.915
  229SOL     OW 1585   6.327   6.259   0.197
  229SOL    HW1 1586   6.234   6.294   0.208
  229SOL    HW2 1587   6.329   6.161   0.220
  230SOL     OW 1588   3.116   4.826   3.681
  230SOL    HW1 1589   3.204   4.838   3.636
  230SOL    HW2 1590   3.122   4.859   3.775
  231SOL     OW 1591   6.469   1.962   6.329
  231SOL    HW1 1592   6.426   2.042   6.287
  231SOL    HW2 1593   6.520   1.990   6.410
  232SOL     OW 1594   0.727   3.244   6.509
  232SOL    HW1 1595   0.688   3.223   6.599
  232SOL    HW2 1596   0.695   3.334   6.479
  233SOL     OW 1597   3.114   1.383   2.660
  233SOL    HW1 1598   3.196   1.377   2.717
  233SOL    HW2 1599   3.040   1.330   2.702
  234SOL     OW 1600   5.344   0.568   5.758
  234SOL    HW1 1601   5.295   0.508   5.695
  234SOL    HW2 1602   5.330   0.536   5.852
  235SOL     OW 1603   3.351   2.636   1.389
  235SOL    HW1 1604   3.276   2.569   1.384
  235SOL    HW2 1605   3.432   2.593   1.430
  236SOL     OW 1606   5.365   3.159   6.330
  236SOL    HW1 1607   5.413   3.123   6.249
  236SOL    HW2 1608   5.421   3.143   6.411
  237SOL     OW 1609   6.196   4.679   1.739
  237SOL    HW1 1610   6.257   4.640   1.807
  237SOL    HW2 1611   6.195   4.620   1.658
  238SOL     OW 1612   5.166   2.330   0.467
  238SOL    HW1 1613   5.124   2.358   0.381
  238SOL    HW2 1614   5.256   2.289   0.449
  239SOL     OW 1615   0.689   5.206   7.006
  239SOL    HW1 1616   0.709   5.185   6.911
  239SOL    HW2 1617   0.773   5.202   0.035
  240SOL     OW 1618   6.759   2.493   3.554
  240SOL    HW1 1619   6.835   2.490   3.489
  240SOL    HW2 1620   6.749   2.585   3.590
  241SOL     OW 1621   2.392   2.039   5.375
  241SOL    HW1 1622   2.398   2.047   5.275
  241SOL    HW2 1623   2.296   2.039   5.403
  242SOL     OW 1624   3.367   3.488   4.187
  242SOL    HW1 1625   3.400   3.578   4.158
  242SOL    HW2 1626   3.372   3.481   4.287
  243SOL     OW 1627   4.087   0.544   6.109
  243SOL    HW1 1628   4.109   0.451   6.140
  243SOL    HW2 1629   4.169   0.586   6.071
  244SOL     OW 1630   6.011   2.542   4.927
  244SOL    HW1 1631   5.987   2.639   4.928
  244SOL    HW2 1632   6.013   2.509   4.832
  245SOL     OW 1633   5.302   3.476   3.832
  245SOL    HW1 1634   5.338   3.393   3.789
  245SOL    HW2 1635   5.236   3.519   3.770
  246SOL     OW 1636   4.688   2.557   3.677
  246SOL    HW1 1637   4.643   2.555   3.767
  246SOL    HW2 1638   4.632   2.508   3.611
  247SOL     OW 1639   2.931   1.893   1.756
  247SOL    HW1 1640   3.019   1.854   1.783
  247SOL    HW2 1641   2.933   1.992   1.770
  248SOL     OW 1642   3.750   1.431   2.146
  248SOL    HW1 1643   3.824   1.424   2.213
  248SOL    HW2 1644   3.781   1.484   2.067
  249SOL     OW 1645   3.843   0.155   4.767
  249SOL    HW1 1646   3.855   0.081   4.832
  249SOL    HW2 1647   3.764   0.210   4.793
  250SOL     OW 1648   5.036   2.802   0.834
  250SOL    HW1 1649   4.975   2.726   0.812
  250SOL    HW2 1650   5.043   2.810   0.934
  251SOL     OW 1651   4.623   4.387   5.920
  251SOL    HW1 1652   4.694   4.432   5.866
  251SOL    HW2 1653   4.613   4.292   5.891
  252SOL     OW 1654   6.631   5.981   0.281
  252SOL    HW1 1655   6.554   5.982   0.217
  252SOL    HW2 1656   6.660   6.075   0.299
  253SOL     OW 1657   1.980   5.832   6.117
  253SOL    HW1 1658   1.949   5.847   6.210
  253SOL    HW2 1659   2.036   5.749   6.114
  254SOL     OW 1660   5.549   2.881   3.224
  254SOL    HW1 1661   5.614   2.952   3.248
  254SOL    HW2 1662   5.530   2.824   3.304
  255SOL     OW 1663   1.396   4.077   5.376
  255SOL    HW1 1664   1.487   4.104   5.344
  255SOL    HW2 1665   1.375   3.985   5.343
  256SOL     OW 1666   6.529   3.761   6.362
  256SOL    HW1 1667   6.539   3.757   6.262
  256SOL    HW2 1668   6.535   3.668   6.400
  257SOL     OW 1669   4.719   0.181   3.540
  257SOL    HW1 1670   4.800   0.236   3.563
  257SOL    HW2 1671   4.649   0.241   3.500
  258SOL     OW 1672   2.162   5.017   5.039
  258SOL    HW1 1673   2.190   4.920   5.038
  258SOL    HW2 1674   2.184   5.056   5.129
  259SOL     OW 1675   0.699   1.924   2.091
  259SOL    HW1 1676   0.690   2.009   2.039
  259SOL    HW2 1677   0.624   1.863   2.066
  260SOL     OW 1678   4.597   0.466   1.325
  260SOL    HW1 1679   4.679   0.493   1.376
  260SOL    HW2 1680   4.619   0.460   1.227
  261SOL     OW 1681   6.832   3.406   0.720
  261SOL    HW1 1682   6.778   3.487   0.696
  261SOL    HW2 1683   6.789   3.324   0.683
  262SOL     OW 1684   0.242   3.890   0.401
  262SOL    HW1 1685   0.241   3.971   0.459
  262SOL    HW2 1686   0.337   3.861   0.385
  263SOL     OW 1687   1.787   0.979   3.735
  263SOL    HW1 1688   1.869   1.026   3.703
  263SOL    HW2 1689   1.715   1.047   3.754
  264SOL     OW 1690   6.018   3.202   6.516
  264SOL    HW1 1691   5.961   3.284   6.517
  264SOL    HW2 1692   5.977   3.131   6.573
  265SOL     OW 1693   5.253   6.226   2.397
  265SOL    HW1 1694   5.323   6.264   2.458
  265SOL    HW2 1695   5.165   6.269   2.417
  266SOL     OW 1696   3.229   2.667   5.666
  266SOL    HW1 1697   3.284   2.729   5.721
  266SOL    HW2 1698   3.135   2.667   5.698
  267SOL     OW 1699   0.668   0.967   7.001
  267SOL    HW1 1700   0.753   0.914   7.009
  267SOL    HW2 1701   0.689   1.064   6.996
  268SOL     OW 1702   3.517   0.625   6.111
  268SOL    HW1 1703   3.568   0.600   6.028
  268SOL    HW2 1704   3.531   0.722   6.131
  269SOL     OW 1705   0.748   3.347   2.305
  269SOL    HW1 1706   0.807   3.311   2.233
  269SOL    HW2 1707   0.795   3.420   2.354
  270SOL     OW 1708   1.189   0.045   0.539
  270SOL    HW1 1709   1.176   0.143   0.550
  270SOL    HW2 1710   1.286   0.022   0.550
  271SOL     OW 1711   0.238   1.689   6.800
  271SOL    HW1 1712   0.208   1.652   6.712
  271SOL    HW2 1713   0.180   1.654   6.873
  272SOL     OW 1714   3.349   5.497   4.487
  272SOL    HW1 1715   3.418   5.554   4.441
  272SOL    HW2 1716   3.261   5.544   4.485
  273SOL     OW 1717   1.821   4.379   4.909
  273SOL    HW1 1718   1.831   4.375   4.810
  273SOL    HW2 1719   1.912   4.389   4.951
  274SOL     OW 1720   4.254   1.989   3.198
  274SOL    HW1 1721   4.291   2.059   3.137
  274SOL    HW2 1722   4.211   2.032   3.277
  275SOL     OW 1723   5.893   4.134   5.336
  275SOL    HW1 1724   5.985   4.097   5.321
  275SOL    HW2 1725   5.891   4.188   5.420
  276SOL     OW 1726   0.414   6.696   2.440
  276SOL    HW1 1727   0.411   6.745   2.353
  276SOL    HW2 1728   0.505   6.706   2.481
  277SOL     OW 1729   1.338   4.099   0.702
  277SOL    HW1 1730   1.411   4.108   0.770
  277SOL    HW2 1731   1.280   4.021   0.725
  278SOL     OW 1732   6.312   5.084   1.931
  278SOL    HW1 1733   6.256   5.165   1.950
  278SOL    HW2 1734   6.255   5.014   1.887
  279SOL     OW 1735   6.723   2.866   4.249
  279SOL    HW1 1736   6.737   2.846   4.346
  279SOL    HW2 1737   6.806   2.843   4.198
  280SOL     OW 1738   3.284   6.824   2.986
  280SOL    HW1 1739   3.186   6.846   2.980
  280SOL    HW2 1740   3.331   6.858   2.905
  281SOL     OW 1741   2.594   4.738   2.346
  281SOL    HW1 1742   2.614   4.684   2.264
  281SOL    HW2 1743   2.557   4.827   2.320
  282SOL     OW 1744   3.158   1.516   5.747
  282SOL    HW1 1745   3.127   1.569   5.668
  282SOL    HW2 1746   3.197   1.429   5.716
  283SOL     OW 1747   6.291   1.546   6.561
  283SOL    HW1 1748   6.339   1.532   6.648
  283SOL    HW2 1749   6.291   1.643   6.538
  284SOL     OW 1750   1.726   4.039   3.721
  284SOL    HW1 1751   1.660   3.966   3.736
  284SOL    HW2 1752   1.743   4.088   3.806
  285SOL     OW 1753   5.943   4.614   5.260
  285SOL    HW1 1754   5.891   4.545   5.310
  285SOL    HW2 1755   6.039   4.610   5.287
  286SOL     OW 1756   3.943   5.705   5.238
  286SOL    HW1 1757   4.008   5.677   5.167
  286SOL    HW2 1758   3.993   5.747   5.314
  287SOL     OW 1759   0.435   4.545   0.064
  287SOL    HW1 1760   0.503   4.609   0.029
  287SOL    HW2 1761   0.394   4.581   0.147
  288SOL     OW 1762   3.987   1.402   5.896
  288SOL    HW1 1763   3.912   1.394   5.830
  288SOL    HW2 1764   4.051   1.473   5.865
  289SOL     OW 1765   6.923   4.292   4.709
  289SOL    HW1 1766   6.854   4.361   4.690
  289SOL    HW2 1767   6.879   4.205   4.731
  290SOL     OW 1768   5.996   1.802   4.531
  290SOL    HW1 1769   6.072   1.862   4.504
  290SOL    HW2 1770   6.005   1.777   4.627
  291SOL     OW 1771   1.177   2.601   4.591
  291SOL    HW1 1772   1.137   2.575   4.679
  291SOL    HW2 1773   1.277   2.607   4.600
  292SOL     OW 1774   1.198   1.876   3.063
  292SOL    HW1 1775   1.190   1.855   3.160
  292SOL    HW2 1776   1.167   1.969   3.046
  293SOL     OW 1777   4.317   5.027   2.057
  293SOL    HW1 1778   4.227   5.040   2.016
  293SOL    HW2 1779   4.306   4.987   2.148
  294SOL     OW 1780   0.041   5.231   6.262
  294SOL    HW1 1781   0.107   5.306   6.259
  294SOL    HW2 1782   0.080   5.155   6.315
  295SOL     OW 1783   3.380   2.109   4.633
  295SOL    HW1 1784   3.356   2.091   4.729
  295SOL    HW2 1785   3.480   2.115   4.625
  296SOL     OW 1786   4.408   1.791   2.818
  296SOL    HW1 1787   4.446   1.869   2.768
  296SOL    HW2 1788   4.359   1.731   2.754
  297SOL     OW 1789   2.223   4.568   3.039
  297SOL    HW1 1790   2.159   4.628   3.087
  297SOL    HW2 1791   2.314   4.577   3.079
  298SOL     OW 1792   4.016   6.342   0.667
  298SOL    HW1 1793   3.994   6.253   0.627
  298SOL    HW2 1794   3.947   6.367   0.735
  299SOL     OW 1795   4.777   3.861   6.516
  299SOL    HW1 1796   4.818   3.951   6.499
  299SOL    HW2 1797   4.680   3.872   6.536
  300SOL     OW 1798   6.152   0.975   1.485
  300SOL    HW1 1799   6.059   0.941   1.471
  300SOL    HW2 1800   6.190   1.006   1.398
  301SOL     OW 1801   4.994   3.322   1.377
  301SOL    HW1 1802   4.987   3.421   1.393
  301SOL    HW2 1803   4.917   3.276   1.421
  302SOL     OW 1804   0.989   0.462   3.405
  302SOL    HW1 1805   1.006   0.365   3.423
  302SOL    HW2 1806   0.922   0.497   3.471
  303SOL     OW 1807   6.085   0.489   1.401
  303SOL    HW1 1808   6.129   0.471   1.313
  303SOL    HW2 1809   6.056   0.585   1.405
  304SOL     OW 1810   2.614   0.333   3.926
  304SOL    HW1 1811   2.520   0.297   3.924
  304SOL    HW2 1812   2.625   0.393   4.005
  305SOL     OW 1813   0.165   3.427   0.001
  305SOL    HW1 1814   0.119   3.451   6.940
  305SOL    HW2 1815   0.190   3.510   0.051
  306SOL     OW 1816   2.476   1.135   3.469
  306SOL    HW1 1817   2.389   1.180   3.490
  306SOL    HW2 1818   2.547   1.172   3.529
  307SOL     OW 1819   4.676   0.234   0.461
  307SOL    HW1 1820   4.616   0.154   0.449
  307SOL    HW2 1821   4.751   0.228   0.395
  308SOL     OW 1822   5.837   2.831   4.826
  308SOL    HW1 1823   5.806   2.817   4.920
  308SOL    HW2 1824   5.883   2.919   4.818
  309SOL     OW 1825   2.983   5.168   6.815
  309SOL    HW1 1826   2.984   5.257   6.768
  309SOL    HW2 1827   2.944   5.179   6.906
  310SOL     OW 1828   6.077   6.705   5.147
  310SOL    HW1 1829   5.986   6.668   5.126
  310SOL    HW2 1830   6.100   6.682   5.242
  311SOL     OW 1831   5.770   4.662   2.059
  311SOL    HW1 1832   5.723   4.655   1.971
  311SOL    HW2 1833   5.863   4.696   2.045
  312SOL     OW 1834   4.252   1.582   5.681
  312SOL    HW1 1835   4.333   1.639   5.669
  312SOL    HW2 1836   4.170   1.636   5.661
  313SOL     OW 1837   3.469   4.038   1.858
  313SOL    HW1 1838   3.423   3.953   1.884
  313SOL    HW2 1839   3.567   4.030   1.877
  314SOL     OW 1840   3.178   4.984   6.872
  314SOL    HW1 1841   3.087   5.015   6.846
  314SOL    HW2 1842   3.197   4.896   6.828
  315SOL     OW 1843   1.390   2.641   3.631
  315SOL    HW1 1844   1.396   2.569   3.562
  315SOL    HW2 1845   1.463   2.707   3.617
  316SOL     OW 1846   3.015   1.599   4.274
  316SOL    HW1 1847   3.014   1.589   4.374
  316SOL    HW2 1848   3.017   1.509   4.232
  317SOL     OW 1849   0.760   0.594   1.050
  317SOL    HW1 1850   0.765   0.684   1.094
  317SOL    HW2 1851   0.810   0.597   0.963
  318SOL     OW 1852   1.457   6.293   0.136
  318SOL    HW1 1853   1.540   6.327   0.180
  318SOL    HW2 1854   1.481   6.247   0.050
  319SOL     OW 1855   6.906   0.535   3.895
  319SOL    HW1 1856   6.968   0.518   3.818
  319SOL    HW2 1857   6.856   0.620   3.880
  320SOL     OW 1858   6.084   1.997   0.433
  320SOL    HW1 1859   6.061   2.001   0.336
  320SOL    HW2 1860   6.036   2.070   0.482
  321SOL     OW 1861   4.036   1.581   0.891
  321SOL    HW1 1862   4.115   1.617   0.940
  321SOL    HW2 1863   3.952   1.621   0.930
  322SOL     OW 1864   3.749   4.176   4.834
  322SOL    HW1 1865   3.655   4.200   4.808
  322SOL    HW2 1866   3.759   4.187   4.933
  323SOL     OW 1867   0.909   3.686   6.167
  323SOL    HW1 1868   0.813   3.709   6.188
  323SOL    HW2 1869   0.918   3.671   6.069
  324SOL     OW 1870   2.561   2.106   3.903
  324SOL    HW1 1871   2.634   2.173   3.893
  324SOL    HW2 1872   2.517   2.091   3.815
  325SOL     OW 1873   1.278   2.781   1.602
  325SOL    HW1 1874   1.346   2.854   1.613
  325SOL    HW2 1875   1.222   2.776   1.685
  326SOL     OW 1876   1.255   4.922   6.962
  326SOL    HW1 1877   1.341   4.900   6.915
  326SOL    HW2 1878   1.262   5.012   7.003
  327SOL     OW 1879   1.471   5.136   3.697
  327SOL    HW1 1880   1.474   5.135   3.797
  327SOL    HW2 1881   1.525   5.212   3.662
  328SOL     OW 1882   1.382   6.171   1.897
  328SOL    HW1 1883   1.370   6.231   1.818
  328SOL    HW2 1884   1.468   6.120   1.888
  329SOL     OW 1885   3.717   4.129   4.523
  329SOL    HW1 1886   3.739   4.196   4.594
  329SOL    HW2 1887   3.797   4.072   4.505
  330SOL     OW 1888   2.628   7.014   1.000
  330SOL    HW1 1889   2.582   0.064   0.952
  330SOL    HW2 1890   2.722   7.006   0.966
  331SOL     OW 1891   3.748   5.681   0.235
  331SOL    HW1 1892   3.761   5.736   0.152
  331SOL    HW2 1893   3.708   5.738   0.307
  332SOL     OW 1894   3.004   1.608   4.812
  332SOL    HW1 1895   3.058   1.672   4.866
  332SOL    HW2 1896   2.914   1.596   4.855
  333SOL     OW 1897   3.563   6.422   6.648
  333SOL    HW1 1898   3.511   6.343   6.617
  333SOL    HW2 1899   3.537   6.444   6.742
  334SOL     OW 1900   2.792   0.515   1.417
  334SOL    HW1 1901   2.828   0.466   1.497
  334SOL    HW2 1902   2.816   0.465   1.334
  335SOL     OW 1903   3.512   0.121   4.119
  335SOL    HW1 1904   3.543   0.173   4.198
  335SOL    HW2 1905   3.483   0.030   4.148
  336SOL     OW 1906   2.559   1.048   3.907
  336SOL    HW1 1907   2.474   1.016   3.866
  336SOL    HW2 1908   2.565   1.148   3.899
  337SOL     OW 1909   6.888   3.373   0.220
  337SOL    HW1 1910   6.895   3.473   0.224
  337SOL    HW2 1911   6.797   3.348   0.186
  338SOL     OW 1912   3.078   2.724   1.652
  338SOL    HW1 1913   2.994   2.702   1.702
  338SOL    HW2 1914   3.157   2.713   1.712
  339SOL     OW 1915   3.172   6.490   4.631
  339SOL    HW1 1916   3.260   6.537   4.627
  339SOL    HW2 1917   3.186   6.392   4.643
  340SOL     OW 1918   5.023   4.430   5.806
  340SOL    HW1 1919   5.041   4.411   5.902
  340SOL    HW2 1920   4.928   4.457   5.794
  341SOL     OW 1921   6.976   0.711   4.239
  341SOL    HW1 1922   6.877   0.705   4.242
  341SOL    HW2 1923   7.014   0.624   4.207
  342SOL     OW 1924   5.966   4.061   0.018
  342SOL    HW1 1925   6.009   4.069   0.108
  342SOL    HW2 1926   6.003   4.132   6.982
  343SOL     OW 1927   1.861   5.359   0.348
  343SOL    HW1 1928   1.767   5.326   0.347
  343SOL    HW2 1929   1.874   5.420   0.426
  344SOL     OW 1930   1.274   4.938   2.292
  344SOL    HW1 1931   1.231   4.965   2.206
  344SOL    HW2 1932   1.228   4.984   2.368
  345SOL     OW 1933   6.186   1.077   4.925
  345SOL    HW1 1934   6.259   1.025   4.970
  345SOL    HW2 1935   6.186   1.171   4.959
  346SOL     OW 1936   1.971   0.355   2.857
  346SOL    HW1 1937   1.925   0.284   2.910
  346SOL    HW2 1938   2.056   0.382   2.904
  347SOL     OW 1939   3.140   5.704   6.190
  347SOL    HW1 1940   3.212   5.654   6.239
  347SOL    HW2 1941   3.157   5.802   6.196
  348SOL     OW 1942   5.430   5.033   1.331
  348SOL    HW1 1943   5.447   4.934   1.341
  348SOL    HW2 1944   5.518   5.080   1.318
  349SOL     OW 1945   6.775   4.414   0.802
  349SOL    HW1 1946   6.700   4.380   0.859
  349SOL    HW2 1947   6.814   4.495   0.845
  350SOL     OW 1948   3.805   2.851   0.909
  350SOL    HW1 1949   3.856   2.916   0.965
  350SOL    HW2 1950   3.721   2.825   0.957
  351SOL     OW 1951   2.359   2.822   0.461
  351SOL    HW1 1952   2.272   2.801   0.417
  351SOL    HW2 1953   2.409   2.737   0.477
  352SOL     OW 1954   3.436   0.366   4.991
  352SOL    HW1 1955   3.433   0.273   5.028
  352SOL    HW2 1956   3.480   0.427   5.057
  353SOL     OW 1957   2.622   6.737   0.895
  353SOL    HW1 1958   2.704   6.720   0.840
  353SOL    HW2 1959   2.632   6.824   0.943
  354SOL     OW 1960   3.199   2.620   6.960
  354SOL    HW1 1961   3.179   2.524   6.982
  354SOL    HW2 1962   3.264   2.624   6.885
  355SOL     OW 1963   0.149   2.924   2.630
  355SOL    HW1 1964   0.090   2.878   2.697
  355SOL    HW2 1965   0.096   2.992   2.580
  356SOL     OW 1966   4.020   6.152   5.253
  356SOL    HW1 1967   3.944   6.158   5.318
  356SOL    HW2 1968   4.107   6.148   5.303
  357SOL     OW 1969   6.551   6.605   5.284
  357SOL    HW1 1970   6.614   6.527   5.280
  357SOL    HW2 1971   6.533   6.629   5.379
  358SOL     OW 1972   5.411   0.222   1.949
  358SOL    HW1 1973   5.473   0.187   1.879
  358SOL    HW2 1974   5.338   0.155   1.965
  359SOL     OW 1975   1.510   2.012   2.331
  359SOL    HW1 1976   1.419   1.976   2.347
  359SOL    HW2 1977   1.521   2.036   2.234
  360SOL     OW 1978   1.325   5.746   6.602
  360SOL    HW1 1979   1.271   5.823   6.636
  360SOL    HW2 1980   1.263   5.672   6.574
  361SOL     OW 1981   5.488   5.873   3.094
  361SOL    HW1 1982   5.558   5.816   3.136
  361SOL    HW2 1983   5.492   5.863   2.995
  362SOL     OW 1984   3.777   3.987   1.215
  362SOL    HW1 1985   3.719   3.943   1.146
  362SOL    HW2 1986   3.855   4.030   1.170
  363SOL     OW 1987   4.938   4.285   3.804
  363SOL    HW1 1988   4.937   4.314   3.899
  363SOL    HW2 1989   4.875   4.208   3.792
  364SOL     OW 1990   6.798   5.735   6.014
  364SOL    HW1 1991   6.884   5.778   5.986
  364SOL    HW2 1992   6.721   5.788   5.978
  365SOL     OW 1993   5.278   5.160   2.058
  365SOL    HW1 1994   5.188   5.190   2.026
  365SOL    HW2 1995   5.272   5.065   2.090
  366SOL     OW 1996   6.183   0.826   0.127
  366SOL    HW1 1997   6.248   0.871   0.066
  366SOL    HW2 1998   6.225   0.743   0.164
  367SOL     OW 1999   5.176   3.097   1.167
  367SOL    HW1 2000   5.199   3.187   1.206
  367SOL    HW2 2001   5.167   3.106   1.068
  368SOL     OW 2002   0.366   3.403   4.743
  368SOL    HW1 2003   0.394   3.417   4.837
  368SOL    HW2 2004   0.307   3.478   4.714
  369SOL     OW 2005   6.999   5.139   1.651
  369SOL    HW1 2006   6.916   5.180   1.689
  369SOL    HW2 2007   0.055   5.178   1.696
  370SOL     OW 2008   3.210   1.418   5.408
  370SOL    HW1 2009   3.248   1.510   5.412
  370SOL    HW2 2010   3.110   1.424   5.398
  371SOL     OW 2011   2.589   3.558   6.742
  371SOL    HW1 2012   2.518   3.591   6.804
  371SOL    HW2 2013   2.547   3.512   6.664
  372SOL     OW 2014   0.114   0.120   5.507
  372SOL    HW1 2015   0.102   0.085   5.414
  372SOL    HW2 2016   0.172   0.201   5.505
  373SOL     OW 2017   6.338   6.040   5.498
  373SOL    HW1 2018   6.360   6.109   5.566
  373SOL    HW2 2019   6.422   6.005   5.457
  374SOL     OW 2020   3.175   0.765   2.048
  374SOL    HW1 2021   3.212   0.855   2.024
  374SOL    HW2 2022   3.135   0.769   2.140
  375SOL     OW 2023   0.771   4.357   3.520
  375SOL    HW1 2024   0.768   4.457   3.510
  375SOL    HW2 2025   0.832   4.334   3.596
  376SOL     OW 2026   1.911   2.672   4.669
  376SOL    HW1 2027   1.820   2.665   4.628
  376SOL    HW2 2028   1.945   2.765   4.656
  377SOL     OW 2029   6.816   2.799   2.219
  377SOL    HW1 2030   6.879   2.740   2.269
  377SOL    HW2 2031   6.734   2.748   2.194
  378SOL     OW 2032   3.570   2.975   5.506
  378SOL    HW1 2033   3.555   2.994   5.409
  378SOL    HW2 2034   3.661   3.007   5.532
  379SOL     OW 2035   6.446   4.023   2.157
  379SOL    HW1 2036   6.468   3.930   2.189
  379SOL    HW2 2037   6.450   4.025   2.057
  380SOL     OW 2038   2.649   1.242   1.862
  380SOL    HW1 2039   2.722   1.235   1.931
  380SOL    HW2 2040   2.651   1.161   1.803
  381SOL     OW 2041   1.702   4.603   2.402
  381SOL    HW1 2042   1.646   4.581   2.322
  381SOL    HW2 2043   1.766   4.528   2.419
  382SOL     OW 2044   5.458   6.271   6.018
  382SOL    HW1 2045   5.534   6.330   6.047
  382SOL    HW2 2046   5.389   6.268   6.091
  383SOL     OW 2047   5.598   3.309   5.747
  383SOL    HW1 2048   5.663   3.318   5.671
  383SOL    HW2 2049   5.623   3.372   5.820
  384SOL     OW 2050   6.649   4.281   4.168
  384SOL    HW1 2051   6.570   4.272   4.230
  384SOL    HW2 2052   6.672   4.378   4.157
  385SOL     OW 2053   4.255   6.401   6.442
  385SOL    HW1 2054   4.324   6.452   6.492
  385SOL    HW2 2055   4.235   6.448   6.356
  386SOL     OW 2056   3.251   6.383   5.559
  386SOL    HW1 2057   3.272   6.347   5.650
  386SOL    HW2 2058   3.159   6.422   5.558
  387SOL     OW 2059   6.742   6.270   3.024
  387SOL    HW1 2060   6.792   6.356   3.019
  387SOL    HW2 2061   6.751   6.231   3.115
  388SOL     OW 2062   0.766   2.691   3.679
  388SOL    HW1 2063   0.712   2.654   3.604
  388SOL    HW2 2064   0.862   2.696   3.653
  389SOL     OW 2065   4.449   4.099   1.576
  389SOL    HW1 2066   4.451   4.002   1.600
  389SOL    HW2 2067   4.440   4.154   1.659
  390SOL     OW 2068   3.635   1.436   0.101
  390SOL    HW1 2069   3.575   1.508   0.065
  390SOL    HW2 2070   3.642   1.446   0.200
  391SOL     OW 2071   2.481   4.269   5.320
  391SOL    HW1 2072   2.422   4.314   5.253
  391SOL    HW2 2073   2.512   4.181   5.283
  392SOL     OW 2074   1.786   3.686   1.873
  392SOL    HW1 2075   1.762   3.751   1.801
  392SOL    HW2 2076   1.834   3.734   1.947
  393SOL     OW 2077   1.379   5.193   0.380
  393SOL    HW1 2078   1.364   5.209   0.478
  393SOL    HW2 2079   1.306   5.236   0.327
  394SOL     OW 2080   1.002   2.939   6.974
  394SOL    HW1 2081   0.963   2.944   6.882
  394SOL    HW2 2082   1.102   2.941   6.968
  395SOL     OW 2083   5.306   4.140   2.710
  395SOL    HW1 2084   5.347   4.102   2.627
  395SOL    HW2 2085   5.219   4.183   2.688
  396SOL     OW 2086   2.385   2.581   2.076
  396SOL    HW1 2087   2.407   2.582   1.978
  396SOL    HW2 2088   2.441   2.513   2.122
  397SOL     OW 2089   5.650   1.894   6.706
  397SOL    HW1 2090   5.589   1.815   6.709
  397SOL    HW2 2091   5.732   1.874   6.761
  398SOL     OW 2092   1.602   6.116   3.637
  398SOL    HW1 2093   1.568   6.210   3.646
  398SOL    HW2 2094   1.646   6.088   3.723
  399SOL     OW 2095   5.762   6.374   4.443
  399SOL    HW1 2096   5.817   6.328   4.373
  399SOL    HW2 2097   5.794   6.346   4.534
  400SOL     OW 2098   6.192   6.273   5.552
  400SOL    HW1 2099   6.186   6.185   5.506
  400SOL    HW2 2100   6.166   6.346   5.488
  401SOL     OW 2101   5.731   0.284   6.085
  401SOL    HW1 2102   5.752   0.284   6.183
  401SOL    HW2 2103   5.697   0.194   6.058
  402SOL     OW 2104   6.076   0.038   3.052
  402SOL    HW1 2105   5.988   0.083   3.037
  402SOL    HW2 2106   6.149   0.105   3.043
  403SOL     OW 2107   3.608   0.506   6.316
  403SOL    HW1 2108   3.579   0.551   6.232
  403SOL    HW2 2109   3.535   0.446   6.349
  404SOL     OW 2110   1.978   5.275   5.727
  404SOL    HW1 2111   2.069   5.306   5.699
  404SOL    HW2 2112   1.986   5.183   5.766
  405SOL     OW 2113   1.877   3.954   3.332
  405SOL    HW1 2114   1.942   3.954   3.257
  405SOL    HW2 2115   1.912   4.011   3.407
  406SOL     OW 2116   0.940   4.652   4.889
  406SOL    HW1 2117   0.965   4.594   4.966
  406SOL    HW2 2118   0.847   4.632   4.861
  407SOL     OW 2119   2.046   2.689   4.381
  407SOL    HW1 2120   1.986   2.687   4.461
  407SOL    HW2 2121   2.135   2.726   4.407
  408SOL     OW 2122   3.130   2.045   2.907
  408SOL    HW1 2123   3.182   2.096   2.838
  408SOL    HW2 2124   3.152   2.079   2.998
  409SOL     OW 2125   0.004   3.695   1.950
  409SOL    HW1 2126   6.974   3.621   1.989
  409SOL    HW2 2127   7.003   3.782   1.992
  410SOL     OW 2128   1.489   2.184   1.285
  410SOL    HW1 2129   1.508   2.121   1.361
  410SOL    HW2 2130   1.409   2.240   1.307
  411SOL     OW 2131   6.257   0.781   1.637
  411SOL    HW1 2132   6.188   0.837   1.593
  411SOL    HW2 2133   6.329   0.759   1.571
  412SOL     OW 2134   3.565   4.904   2.829
  412SOL    HW1 2135   3.479   4.857   2.812
  412SOL    HW2 2136   3.571   4.986   2.771
  413SOL     OW 2137   4.441   4.530   1.401
  413SOL    HW1 2138   4.410   4.436   1.415
  413SOL    HW2 2139   4.432   4.554   1.304
  414SOL     OW 2140   3.724   0.236   3.877
  414SOL    HW1 2141   3.779   0.199   3.802
  414SOL    HW2 2142   3.645   0.177   3.892
  415SOL     OW 2143   0.539   0.995   6.731
  415SOL    HW1 2144   0.589   0.975   6.815
  415SOL    HW2 2145   0.441   0.990   6.748
  416SOL     OW 2146   4.997   5.060   4.826
  416SOL    HW1 2147   5.062   5.018   4.763
  416SOL    HW2 2148   4.904   5.052   4.789
  417SOL     OW 2149   2.115   1.495   6.652
  417SOL    HW1 2150   2.181   1.482   6.579
  417SOL    HW2 2151   2.026   1.460   6.624
  418SOL     OW 2152   2.532   6.639   5.631
  418SOL    HW1 2153   2.539   6.617   5.533
  418SOL    HW2 2154   2.618   6.680   5.662
  419SOL     OW 2155   0.312   6.877   3.266
  419SOL    HW1 2156   0.320   6.896   3.363
  419SOL    HW2 2157   0.226   6.914   3.231
  420SOL     OW 2158   5.598   1.231   6.263
  420SOL    HW1 2159   5.603   1.317   6.213
  420SOL    HW2 2160   5.643   1.159   6.209
  421SOL     OW 2161   5.733   3.782   5.027
  421SOL    HW1 2162   5.634   3.796   5.019
  421SOL    HW2 2163   5.779   3.827   4.950
  422SOL     OW 2164   5.264   2.864   0.613
  422SOL    HW1 2165   5.336   2.809   0.654
  422SOL    HW2 2166   5.181   2.857   0.669
  423SOL     OW 2167   2.614   1.282   7.013
  423SOL    HW1 2168   2.546   1.295   0.061
  423SOL    HW2 2169   2.702   1.318   0.019
  424SOL     OW 2170   2.174   4.953   2.767
  424SOL    HW1 2171   2.166   4.854   2.763
  424SOL    HW2 2172   2.255   4.978   2.821
  425SOL     OW 2173   5.139   1.108   4.553
  425SOL    HW1 2174   5.224   1.158   4.571
  425SOL    HW2 2175   5.160   1.023   4.505
  426SOL     OW 2176   2.105   3.036   5.095
  426SOL    HW1 2177   2.200   3.030   5.067
  426SOL    HW2 2178   2.085   2.964   5.162
  427SOL     OW 2179   5.563   0.488   3.827
  427SOL    HW1 2180   5.478   0.440   3.848
  427SOL    HW2 2181   5.585   0.476   3.730
  428SOL     OW 2182   3.081   0.461   3.114
  428SOL    HW1 2183   3.056   0.367   3.137
  428SOL    HW2 2184   3.047   0.522   3.185
  429SOL     OW 2185   0.502   4.997   4.361
  429SOL    HW1 2186   0.412   5.007   4.319
  429SOL    HW2 2187   0.557   4.933   4.309
  430SOL     OW 2188   1.524   7.013   3.700
  430SOL    HW1 2189   1.504   6.920   3.668
  430SOL    HW2 2190   1.591   7.009   3.773
  431SOL     OW 2191   2.443   2.316   0.761
  431SOL    HW1 2192   2.538   2.290   0.779
  431SOL    HW2 2193   2.405   2.362   0.841
  432SOL     OW 2194   6.285   2.065   0.828
  432SOL    HW1 2195   6.322   2.075   0.736
  432SOL    HW2 2196   6.191   2.031   0.823
  433SOL     OW 2197   3.153   6.030   5.717
  433SOL    HW1 2198   3.102   6.069   5.640
  433SOL    HW2 2199   3.153   6.095   5.793
  434SOL     OW 2200   4.155   5.464   4.379
  434SOL    HW1 2201   4.204   5.502   4.457
  434SOL    HW2 2202   4.073   5.519   4.361
  435SOL     OW 2203   4.103   1.554   5.263
  435SOL    HW1 2204   4.021   1.520   5.217
  435SOL    HW2 2205   4.157   1.476   5.296
  436SOL     OW 2206   3.301   5.933   2.573
  436SOL    HW1 2207   3.311   5.863   2.502
  436SOL    HW2 2208   3.366   6.007   2.557
  437SOL     OW 2209   0.070   1.223   5.259
  437SOL    HW1 2210   0.130   1.301   5.244
  437SOL    HW2 2211   0.114   1.160   5.323
  438SOL     OW 2212   2.007   4.122   3.550
  438SOL    HW1 2213   1.925   4.135   3.606
  438SOL    HW2 2214   2.070   4.060   3.597
  439SOL     OW 2215   5.947   0.355   2.488
  439SOL    HW1 2216   5.917   0.378   2.580
  439SOL    HW2 2217   6.046   0.363   2.482
  440SOL     OW 2218   3.520   1.287   6.593
  440SOL    HW1 2219   3.553   1.206   6.642
  440SOL    HW2 2220   3.440   1.264   6.539
  441SOL     OW 2221   5.828   4.219   3.160
  441SOL    HW1 2222   5.809   4.123   3.137
  441SOL    HW2 2223   5.907   4.250   3.107
  442SOL     OW 2224   4.460   4.603   5.846
  442SOL    HW1 2225   4.518   4.540   5.898
  442SOL    HW2 2226   4.481   4.594   5.748
  443SOL     OW 2227   5.388   4.655   3.921
  443SOL    HW1 2228   5.362   4.702   4.006
  443SOL    HW2 2229   5.481   4.681   3.896
  444SOL     OW 2230   4.208   1.678   6.161
  444SOL    HW1 2231   4.259   1.691   6.075
  444SOL    HW2 2232   4.139   1.749   6.170
  445SOL     OW 2233   2.467   5.975   3.236
  445SOL    HW1 2234   2.408   5.938   3.165
  445SOL    HW2 2235   2.563   5.955   3.213
  446SOL     OW 2236   4.164   5.495   3.060
  446SOL    HW1 2237   4.217   5.431   3.004
  446SOL    HW2 2238   4.091   5.534   3.004
  447SOL     OW 2239   6.428   3.216   5.093
  447SOL    HW1 2240   6.339   3.261   5.091
  447SOL    HW2 2241   6.434   3.156   5.173
  448SOL     OW 2242   2.263   1.255   2.715
  448SOL    HW1 2243   2.217   1.190   2.654
  448SOL    HW2 2244   2.202   1.333   2.732
  449SOL     OW 2245   2.533   2.322   3.368
  449SOL    HW1 2246   2.547   2.328   3.270
  449SOL    HW2 2247   2.445   2.279   3.387
  450SOL     OW 2248   1.538   4.719   3.442
  450SOL    HW1 2249   1.581   4.775   3.513
  450SOL    HW2 2250   1.476   4.653   3.485
  451SOL     OW 2251   0.926   3.133   3.991
  451SOL    HW1 2252   0.920   3.139   3.891
  451SOL    HW2 2253   0.979   3.210   4.026
  452SOL     OW 2254   3.664   0.526   1.430
  452SOL    HW1 2255   3.719   0.555   1.508
  452SOL    HW2 2256   3.577   0.576   1.430
  453SOL     OW 2257   3.817   0.329   6.662
  453SOL    HW1 2258   3.734   0.283   6.632
  453SOL    HW2 2259   3.798   0.386   6.742
  454SOL     OW 2260   6.989   4.111   6.543
  454SOL    HW1 2261   0.017   4.127   6.627
  454SOL    HW2 2262   6.914   4.048   6.561
  455SOL     OW 2263   6.332   3.740   5.178
  455SOL    HW1 2264   6.331   3.688   5.263
  455SOL    HW2 2265   6.388   3.692   5.110
  456SOL     OW 2266   1.684   0.850   4.353
  456SOL    HW1 2267   1.711   0.910   4.277
  456SOL    HW2 2268   1.684   0.755   4.322
  457SOL     OW 2269   1.006   5.127   4.760
  457SOL    HW1 2270   0.922   5.164   4.799
  457SOL    HW2 2271   0.999   5.028   4.751
  458SOL     OW 2272   3.317   1.004   2.962
  458SOL    HW1 2273   3.350   1.080   3.018
  458SOL    HW2 2274   3.383   0.986   2.889
  459SOL     OW 2275   1.994   0.806   5.643
  459SOL    HW1 2276   2.069   0.740   5.633
  459SOL    HW2 2277   1.988   0.836   5.738
  460SOL     OW 2278   1.326   1.501   5.262
  460SOL    HW1 2279   1.404   1.493   5.324
  460SOL    HW2 2280   1.356   1.545   5.177
  461SOL     OW 2281   6.739   4.763   5.608
  461SOL    HW1 2282   6.795   4.837   5.570
  461SOL    HW2 2283   6.771   4.675   5.573
  462SOL     OW 2284   3.935   3.685   4.620
  462SOL    HW1 2285   3.920   3.764   4.561
  462SOL    HW2 2286   4.000   3.709   4.692
  463SOL     OW 2287   6.498   6.817   3.095
  463SOL    HW1 2288   6.582   6.834   3.043
  463SOL    HW2 2289   6.500   6.724   3.132
  464SOL     OW 2290   3.231   0.002   6.276
  464SOL    HW1 2291   3.318   0.045   6.298
  464SOL    HW2 2292   3.166   0.072   6.245
  465SOL     OW 2293   0.844   2.686   0.150
  465SOL    HW1 2294   0.792   2.756   0.101
  465SOL    HW2 2295   0.781   2.619   0.189
  466SOL     OW 2296   2.782   6.764   4.218
  466SOL    HW1 2297   2.761   6.834   4.285
  466SOL    HW2 2298   2.879   6.769   4.193
  467SOL     OW 2299   0.467   1.862   2.433
  467SOL    HW1 2300   0.532   1.812   2.491
  467SOL    HW2 2301   0.376   1.822   2.444
  468SOL     OW 2302   4.661   6.701   6.231
  468SOL    HW1 2303   4.583   6.728   6.288
  468SOL    HW2 2304   4.674   6.769   6.159
  469SOL     OW 2305   2.969   4.292   5.901
  469SOL    HW1 2306   2.906   4.356   5.857
  469SOL    HW2 2307   3.045   4.342   5.943
  470SOL     OW 2308   3.584   5.968   2.791
  470SOL    HW1 2309   3.516   6.023   2.839
  470SOL    HW2 2310   3.588   5.877   2.833
  471SOL     OW 2311   2.679   2.422   3.916
  471SOL    HW1 2312   2.625   2.461   3.841
  471SOL    HW2 2313   2.773   2.409   3.886
  472SOL     OW 2314   6.291   5.137   0.019
  472SOL    HW1 2315   6.266   5.055   6.991
  472SOL    HW2 2316   6.213   5.200   0.021
  473SOL     OW 2317   0.039   2.033   2.264
  473SOL    HW1 2318   6.988   2.050   2.327
  473SOL    HW2 2319   0.096   2.115   2.256
  474SOL     OW 2320   6.181   4.887   5.509
  474SOL    HW1 2321   6.098   4.894   5.564
  474SOL    HW2 2322   6.259   4.924   5.561
  475SOL     OW 2323   5.900   3.316   0.281
  475SOL    HW1 2324   5.951   3.335   0.198
  475SOL    HW2 2325   5.815   3.269   0.258
  476SOL     OW 2326   0.081   4.203   1.717
  476SOL    HW1 2327   0.028   4.222   1.634
  476SOL    HW2 2328   0.108   4.289   1.759
  477SOL     OW 2329   1.835   5.810   3.451
  477SOL    HW1 2330   1.806   5.805   3.547
  477SOL    HW2 2331   1.908   5.744   3.435
  478SOL     OW 2332   4.251   5.767   2.975
  478SOL    HW1 2333   4.191   5.690   2.995
  478SOL    HW2 2334   4.201   5.837   2.924
  479SOL     OW 2335   3.724   3.255   4.772
  479SOL    HW1 2336   3.636   3.207   4.768
  479SOL    HW2 2337   3.796   3.196   4.734
  480SOL     OW 2338   1.904   0.075   2.254
  480SOL    HW1 2339   1.819   0.041   2.213
  480SOL    HW2 2340   1.886   0.099   2.349
  481SOL     OW 2341   0.729   6.795   1.246
  481SOL    HW1 2342   0.687   6.757   1.163
  481SOL    HW2 2343   0.733   6.725   1.317
  482SOL     OW 2344   4.777   4.862   2.907
  482SOL    HW1 2345   4.789   4.937   2.842
  482SOL    HW2 2346   4.810   4.777   2.866
  483SOL     OW 2347   6.469   2.589   2.693
  483SOL    HW1 2348   6.370   2.575   2.692
  483SOL    HW2 2349   6.515   2.509   2.655
  484SOL     OW 2350   1.670   4.170   4.963
  484SOL    HW1 2351   1.590   4.164   4.903
  484SOL    HW2 2352   1.714   4.260   4.951
  485SOL     OW 2353   5.241   3.607   2.436
  485SOL    HW1 2354   5.189   3.691   2.423
  485SOL    HW2 2355   5.204   3.556   2.513
  486SOL     OW 2356   5.541   0.640   6.495
  486SOL    HW1 2357   5.627   0.612   6.536
  486SOL    HW2 2358   5.546   0.737   6.468
  487SOL     OW 2359   0.278   0.598   3.483
  487SOL    HW1 2360   0.327   0.518   3.518
  487SOL    HW2 2361   0.260   0.586   3.385
  488SOL     OW 2362   1.703   6.453   3.356
  488SOL    HW1 2363   1.629   6.447   3.423
  488SOL    HW2 2364   1.670   6.501   3.275
  489SOL     OW 2365   6.224   5.729   4.734
  489SOL    HW1 2366   6.257   5.794   4.803
  489SOL    HW2 2367   6.301   5.681   4.693
  490SOL     OW 2368   1.633   5.733   4.773
  490SOL    HW1 2369   1.550   5.685   4.800
  490SOL    HW2 2370   1.695   5.740   4.852
  491SOL     OW 2371   0.556   4.078   0.483
  491SOL    HW1 2372   0.465   4.084   0.525
  491SOL    HW2 2373   0.587   4.170   0.459
  492SOL     OW 2374   1.640   1.240   5.536
  492SOL    HW1 2375   1.688   1.156   5.560
  492SOL    HW2 2376   1.542   1.228   5.550
  493SOL     OW 2377   2.278   6.766   5.888
  493SOL    HW1 2378   2.309   6.719   5.805
  493SOL    HW2 2379   2.328   6.731   5.967
  494SOL     OW 2380   2.217   1.308   5.903
  494SOL    HW1 2381   2.214   1.213   5.870
  494SOL    HW2 2382   2.235   1.369   5.826
  495SOL     OW 2383   4.719   6.356   5.432
  495SOL    HW1 2384   4.726   6.323   5.526
  495SOL    HW2 2385   4.660   6.436   5.428
  496SOL     OW 2386   6.251   1.114   2.645
  496SOL    HW1 2387   6.205   1.032   2.610
  496SOL    HW2 2388   6.243   1.187   2.577
  497SOL     OW 2389   3.862   1.530   5.108
  497SOL    HW1 2390   3.803   1.560   5.183
  497SOL    HW2 2391   3.875   1.606   5.045
  498SOL     OW 2392   0.412   5.084   1.658
  498SOL    HW1 2393   0.443   5.028   1.580
  498SOL    HW2 2394   0.480   5.156   1.675
  499SOL     OW 2395   2.678   5.606   5.572
  499SOL    HW1 2396   2.759   5.663   5.581
  499SOL    HW2 2397   2.671   5.544   5.650
  500SOL     OW 2398   5.063   3.254   5.611
  500SOL    HW1 2399   5.079   3.331   5.672
  500SOL    HW2 2400   5.067   3.285   5.516
  501SOL     OW 2401   2.286   6.964   2.632
  501SOL    HW1 2402   2.238   0.025   2.652
  501SOL    HW2 2403   2.284   6.905   2.713
  502SOL     OW 2404   1.469   4.487   6.388
  502SOL    HW1 2405   1.370   4.479   6.374
  502SOL    HW2 2406   1.507   4.547   6.318
  503SOL     OW 2407   2.452   5.377   6.175
  503SOL    HW1 2408   2.449   5.424   6.087
  503SOL    HW2 2409   2.360   5.344   6.198
  504SOL     OW 2410   0.343   5.399   2.824
  504SOL    HW1 2411   0.412   5.353   2.769
  504SOL    HW2 2412   0.340   5.496   2.800
  505SOL     OW 2413   3.957   0.134   5.089
  505SOL    HW1 2414   4.044   0.088   5.107
  505SOL    HW2 2415   3.970   0.233   5.089
  506SOL     OW 2416   3.004   5.208   2.579
  506SOL    HW1 2417   2.928   5.250   2.629
  506SOL    HW2 2418   2.973   5.121   2.540
  507SOL     OW 2419   4.476   1.341   2.225
  507SOL    HW1 2420   4.447   1.404   2.153
  507SOL    HW2 2421   4.397   1.318   2.283
  508SOL     OW 2422   6.980   2.225   3.602
  508SOL    HW1 2423   6.914   2.290   3.564
  508SOL    HW2 2424   6.960   2.133   3.567
  509SOL     OW 2425   4.450   0.874   0.044
  509SOL    HW1 2426   4.550   0.869   0.043
  509SOL    HW2 2427   4.414   0.821   6.991
  510SOL     OW 2428   7.018   5.045   5.719
  510SOL    HW1 2429   6.999   4.951   5.748
  510SOL    HW2 2430   6.947   5.106   5.754
  511SOL     OW 2431   1.584   1.971   6.364
  511SOL    HW1 2432   1.674   1.930   6.380
  511SOL    HW2 2433   1.521   1.944   6.437
  512SOL     OW 2434   6.004   2.345   6.813
  512SOL    HW1 2435   5.957   2.258   6.831
  512SOL    HW2 2436   6.081   2.354   6.875
  513SOL     OW 2437   5.573   6.597   2.844
  513SOL    HW1 2438   5.545   6.576   2.751
  513SOL    HW2 2439   5.505   6.655   2.888
  514SOL     OW 2440   0.341   6.761   3.683
  514SOL    HW1 2441   0.246   6.753   3.713
  514SOL    HW2 2442   0.364   6.686   3.621
  515SOL     OW 2443   2.147   0.548   6.235
  515SOL    HW1 2444   2.124   0.463   6.282
  515SOL    HW2 2445   2.240   0.576   6.261
  516SOL     OW 2446   2.277   4.185   1.775
  516SOL    HW1 2447   2.267   4.132   1.859
  516SOL    HW2 2448   2.289   4.282   1.798
  517SOL     OW 2449   3.751   4.910   2.478
  517SOL    HW1 2450   3.666   4.938   2.522
  517SOL    HW2 2451   3.735   4.889   2.382
  518SOL     OW 2452   2.367   2.801   3.782
  518SOL    HW1 2453   2.434   2.818   3.854
  518SOL    HW2 2454   2.287   2.755   3.822
  519SOL     OW 2455   0.037   6.612   3.873
  519SOL    HW1 2456   0.019   6.514   3.862
  519SOL    HW2 2457   0.028   6.637   3.970
  520SOL     OW 2458   0.696   3.877   6.891
  520SOL    HW1 2459   0.786   3.868   6.933
  520SOL    HW2 2460   0.677   3.973   6.872
  521SOL     OW 2461   4.640   5.582   4.386
  521SOL    HW1 2462   4.592   5.606   4.471
  521SOL    HW2 2463   4.688   5.496   4.398
  522SOL     OW 2464   3.823   3.860   1.467
  522SOL    HW1 2465   3.804   3.880   1.371
  522SOL    HW2 2466   3.748   3.894   1.524
  523SOL     OW 2467   0.485   6.320   1.790
  523SOL    HW1 2468   0.521   6.351   1.702
  523SOL    HW2 2469   0.548   6.346   1.863
  524SOL     OW 2470   0.809   3.097   2.459
  524SOL    HW1 2471   0.810   3.176   2.399
  524SOL    HW2 2472   0.844   3.122   2.549
  525SOL     OW 2473   1.760   3.488   6.665
  525SOL    HW1 2474   1.763   3.435   6.581
  525SOL    HW2 2475   1.818   3.445   6.734
  526SOL     OW 2476   2.661   6.913   3.974
  526SOL    HW1 2477   2.658   6.879   4.068
  526SOL    HW2 2478   2.571   6.947   3.948
  527SOL     OW 2479   0.660   2.469   0.058
  527SOL    HW1 2480   0.612   2.520   0.128
  527SOL    HW2 2481   0.594   2.417   0.003
  528SOL     OW 2482   1.130   3.343   3.859
  528SOL    HW1 2483   1.083   3.417   3.810
  528SOL    HW2 2484   1.225   3.337   3.828
  529SOL     OW 2485   2.435   0.614   5.503
  529SOL    HW1 2486   2.398   0.574   5.586
  529SOL    HW2 2487   2.369   0.605   5.429
  530SOL     OW 2488   3.795   2.964   2.223
  530SOL    HW1 2489   3.786   2.961   2.323
  530SOL    HW2 2490   3.832   2.877   2.191
  531SOL     OW 2491   1.713   0.661   2.621
  531SOL    HW1 2492   1.803   0.641   2.584
  531SOL    HW2 2493   1.717   0.660   2.721
  532SOL     OW 2494   1.182   3.623   0.640
  532SOL    HW1 2495   1.278   3.599   0.653
  532SOL    HW2 2496   1.175   3.704   0.581
  533SOL     OW 2497   5.202   6.995   3.653
  533SOL    HW1 2498   5.145   0.036   3.703
  533SOL    HW2 2499   5.293   0.010   3.640
  534SOL     OW 2500   7.008   6.140   1.817
  534SOL    HW1 2501   0.008   6.191   1.900
  534SOL    HW2 2502   6.957   6.058   1.842
  535SOL     OW 2503   6.698   4.413   3.210
  535SOL    HW1 2504   6.616   4.461   3.241
  535SOL    HW2 2505   6.694   4.318   3.240
  536SOL     OW 2506   6.085   5.664   3.084
  536SOL    HW1 2507   6.054   5.759   3.082
  536SOL    HW2 2508   6.170   5.656   3.033
  537SOL     OW 2509   3.424   6.900   4.167
  537SOL    HW1 2510   3.351   6.875   4.230
  537SOL    HW2 2511   3.493   6.828   4.164
  538SOL     OW 2512   1.088   4.870   4.829
  538SOL    HW1 2513   1.009   4.812   4.848
  538SOL    HW2 2514   1.168   4.813   4.808
  539SOL     OW 2515   1.923   5.978   2.153
  539SOL    HW1 2516   1.965   6.069   2.161
  539SOL    HW2 2517   1.886   5.950   2.241
  540SOL     OW 2518   2.146   0.898   3.971
  540SOL    HW1 2519   2.090   0.815   3.965
  540SOL    HW2 2520   2.086   0.978   3.970
  541SOL     OW 2521   4.684   5.896   3.773
  541SOL    HW1 2522   4.720   5.815   3.820
  541SOL    HW2 2523   4.589   5.881   3.748
  542SOL     OW 2524   3.332   6.372   6.324
  542SOL    HW1 2525   3.277   6.298   6.363
  542SOL    HW2 2526   3.418   6.334   6.290
  543SOL     OW 2527   5.472   3.241   3.776
  543SOL    HW1 2528   5.459   3.143   3.759
  543SOL    HW2 2529   5.543   3.253   3.846
  544SOL     OW 2530   0.365   5.170   0.582
  544SOL    HW1 2531   0.346   5.256   0.629
  544SOL    HW2 2532   0.441   5.183   0.518
  545SOL     OW 2533   4.406   1.305   1.301
  545SOL    HW1 2534   4.409   1.271   1.207
  545SOL    HW2 2535   4.358   1.393   1.303
  546SOL     OW 2536   0.855   3.822   1.898
  546SOL    HW1 2537   0.789   3.870   1.955
  546SOL    HW2 2538   0.808   3.783   1.819
  547SOL     OW 2539   3.124   2.839   0.937
  547SOL    HW1 2540   3.027   2.854   0.958
  547SOL    HW2 2541   3.132   2.764   0.871
  548SOL     OW 2542   3.335   3.748   1.249
  548SOL    HW1 2543   3.392   3.713   1.174
  548SOL    HW2 2544   3.386   3.744   1.335
  549SOL     OW 2545   5.377   2.809   1.774
  549SOL    HW1 2546   5.470   2.797   1.809
  549SOL    HW2 2547   5.314   2.747   1.823
  550SOL     OW 2548   0.390   5.268   3.099
  550SOL    HW1 2549   0.480   5.282   3.058
  550SOL    HW2 2550   0.320   5.276   3.028
  551SOL     OW 2551   7.001   0.338   1.435
  551SOL    HW1 2552   6.981   0.424   1.481
  551SOL    HW2 2553   0.016   0.356   1.345
  552SOL     OW 2554   5.159   4.687   4.806
  552SOL    HW1 2555   5.165   4.615   4.736
  552SOL    HW2 2556   5.153   4.776   4.762
  553SOL     OW 2557   3.336   6.883   3.747
  553SOL    HW1 2558   3.333   6.943   3.666
  553SOL    HW2 2559   3.362   6.791   3.719
  554SOL     OW 2560   5.825   6.054   0.174
  554SOL    HW1 2561   5.865   6.144   0.158
  554SOL    HW2 2562   5.796   6.014   0.087
  555SOL     OW 2563   2.854   5.201   5.405
  555SOL    HW1 2564   2.899   5.261   5.339
  555SOL    HW2 2565   2.755   5.202   5.390
  556SOL     OW 2566   5.317   1.107   4.244
  556SOL    HW1 2567   5.258   1.081   4.167
  556SOL    HW2 2568   5.362   1.026   4.280
  557SOL     OW 2569   0.637   4.882   6.214
  557SOL    HW1 2570   0.624   4.820   6.137
  557SOL    HW2 2571   0.576   4.856   6.289
  558SOL     OW 2572   3.717   3.045   4.523
  558SOL    HW1 2573   3.627   3.065   4.561
  558SOL    HW2 2574   3.706   3.006   4.431
  559SOL     OW 2575   6.832   5.679   5.628
  559SOL    HW1 2576   6.871   5.750   5.687
  559SOL    HW2 2577   6.825   5.714   5.534
  560SOL     OW 2578   6.357   3.826   3.110
  560SOL    HW1 2579   6.305   3.902   3.148
  560SOL    HW2 2580   6.344   3.745   3.167
  561SOL     OW 2581   0.336   2.450   0.033
  561SOL    HW1 2582   0.252   2.503   0.043
  561SOL    HW2 2583   0.328   2.365   0.086
  562SOL     OW 2584   4.265   1.149   6.131
  562SOL    HW1 2585   4.336   1.142   6.061
  562SOL    HW2 2586   4.300   1.203   6.208
  563SOL     OW 2587   2.496   1.647   3.232
  563SOL    HW1 2588   2.558   1.574   3.261
  563SOL    HW2 2589   2.411   1.641   3.284
  564SOL     OW 2590   0.903   2.471   6.925
  564SOL    HW1 2591   0.909   2.543   6.856
  564SOL    HW2 2592   0.808   2.460   6.954
  565SOL     OW 2593   2.937   3.599   3.524
  565SOL    HW1 2594   2.924   3.512   3.476
  565SOL    HW2 2595   2.971   3.667   3.459
  566SOL     OW 2596   1.869   3.671   3.444
  566SOL    HW1 2597   1.911   3.665   3.535
  566SOL    HW2 2598   1.853   3.767   3.421
  567SOL     OW 2599   2.888   2.970   1.255
  567SOL    HW1 2600   2.969   3.024   1.278
  567SOL    HW2 2601   2.884   2.955   1.156
  568SOL     OW 2602   5.301   6.884   0.339
  568SOL    HW1 2603   5.304   6.806   0.276
  568SOL    HW2 2604   5.324   6.968   0.290
  569SOL     OW 2605   0.799   2.773   0.818
  569SOL    HW1 2606   0.760   2.720   0.743
  569SOL    HW2 2607   0.898   2.759   0.821
  570SOL     OW 2608   3.209   0.414   6.650
  570SOL    HW1 2609   3.253   0.452   6.731
  570SOL    HW2 2610   3.158   0.486   6.603
  571SOL     OW 2611   2.691   4.692   3.896
  571SOL    HW1 2612   2.756   4.702   3.821
  571SOL    HW2 2613   2.727   4.737   3.978
  572SOL     OW 2614   1.774   5.029   5.194
  572SOL    HW1 2615   1.680   5.054   5.215
  572SOL    HW2 2616   1.794   5.053   5.099
  573SOL     OW 2617   6.489   1.047   5.722
  573SOL    HW1 2618   6.404   0.996   5.738
  573SOL    HW2 2619   6.479   1.141   5.755
  574SOL     OW 2620   3.580   0.375   5.369
  574SOL    HW1 2621   3.641   0.445   5.407
  574SOL    HW2 2622   3.629   0.288   5.363
  575SOL     OW 2623   4.096   2.776   1.464
  575SOL    HW1 2624   4.149   2.694   1.443
  575SOL    HW2 2625   4.045   2.763   1.549
  576SOL     OW 2626   1.340   3.145   3.014
  576SOL    HW1 2627   1.280   3.065   3.011
  576SOL    HW2 2628   1.377   3.155   3.106
  577SOL     OW 2629   1.645   0.863   2.083
  577SOL    HW1 2630   1.633   0.798   2.158
  577SOL    HW2 2631   1.558   0.876   2.035
  578SOL     OW 2632   0.938   5.052   5.289
  578SOL    HW1 2633   1.010   5.024   5.227
  578SOL    HW2 2634   0.928   5.152   5.286
  579SOL     OW 2635   1.623   4.585   3.209
  579SOL    HW1 2636   1.549   4.537   3.162
  579SOL    HW2 2637   1.584   4.647   3.277
  580SOL     OW 2638   3.837   4.989   5.410
  580SOL    HW1 2639   3.787   4.912   5.371
  580SOL    HW2 2640   3.795   5.074   5.380
  581SOL     OW 2641   1.898   3.232   3.054
  581SOL    HW1 2642   1.866   3.165   2.987
  581SOL    HW2 2643   1.838   3.311   3.054
  582SOL     OW 2644   4.441   5.903   3.093
  582SOL    HW1 2645   4.431   5.987   3.040
  582SOL    HW2 2646   4.382   5.832   3.056
  583SOL     OW 2647   2.644   5.963   5.471
  583SOL    HW1 2648   2.733   5.930   5.504
  583SOL    HW2 2649   2.620   5.914   5.387
  584SOL     OW 2650   3.215   0.026   6.676
  584SOL    HW1 2651   3.171   6.970   6.636
  584SOL    HW2 2652   3.191   0.107   6.622
  585SOL     OW 2653   4.537   1.454   0.698
  585SOL    HW1 2654   4.556   1.379   0.762
  585SOL    HW2 2655   4.493   1.418   0.616
  586SOL     OW 2656   3.693   0.476   0.817
  586SOL    HW1 2657   3.641   0.507   0.737
  586SOL    HW2 2658   3.667   0.531   0.897
  587SOL     OW 2659   5.111   2.528   2.837
  587SOL    HW1 2660   5.092   2.443   2.787
  587SOL    HW2 2661   5.059   2.602   2.796
  588SOL     OW 2662   2.021   5.327   1.016
  588SOL    HW1 2663   2.115   5.339   0.986
  588SOL    HW2 2664   1.980   5.249   0.968
  589SOL     OW 2665   3.770   5.760   1.312
  589SOL    HW1 2666   3.789   5.841   1.258
  589SOL    HW2 2667   3.750   5.786   1.406
  590SOL     OW 2668   5.550   1.430   1.218
  590SOL    HW1 2669   5.586   1.483   1.142
  590SOL    HW2 2670   5.522   1.491   1.292
  591SOL     OW 2671   3.632   6.332   3.836
  591SOL    HW1 2672   3.717   6.279   3.834
  591SOL    HW2 2673   3.645   6.418   3.788
  592SOL     OW 2674   4.475   0.673   2.442
  592SOL    HW1 2675   4.544   0.660   2.371
  592SOL    HW2 2676   4.487   0.603   2.513
  593SOL     OW 2677   4.523   1.662   4.159
  593SOL    HW1 2678   4.620   1.680   4.173
  593SOL    HW2 2679   4.513   1.584   4.096
  594SOL     OW 2680   6.476   0.523   1.012
  594SOL    HW1 2681   6.477   0.622   1.029
  594SOL    HW2 2682   6.452   0.506   0.916
  595SOL     OW 2683   5.563   6.733   3.837
  595SOL    HW1 2684   5.469   6.701   3.826
  595SOL    HW2 2685   5.600   6.758   3.747
  596SOL     OW 2686   0.406   5.025   3.235
  596SOL    HW1 2687   0.481   4.992   3.178
  596SOL    HW2 2688   0.389   5.122   3.215
  597SOL     OW 2689   2.547   6.295   6.604
  597SOL    HW1 2690   2.542   6.325   6.509
  597SOL    HW2 2691   2.513   6.368   6.664
  598SOL     OW 2692   3.942   3.963   4.474
  598SOL    HW1 2693   4.027   4.016   4.473
  598SOL    HW2 2694   3.919   3.934   4.381
  599SOL     OW 2695   2.111   5.487   3.324
  599SOL    HW1 2696   2.020   5.482   3.282
  599SOL    HW2 2697   2.171   5.542   3.266
  600SOL     OW 2698   6.337   2.698   6.177
  600SOL    HW1 2699   6.392   2.625   6.135
  600SOL    HW2 2700   6.357   2.702   6.275
  601SOL     OW 2701   1.250   1.222   4.148
  601SOL    HW1 2702   1.210   1.287   4.084
  601SOL    HW2 2703   1.327   1.175   4.106
  602SOL     OW 2704   2.394   0.607   6.365
  602SOL    HW1 2705   2.446   0.568   6.441
  602SOL    HW2 2706   2.448   0.679   6.321
  603SOL     OW 2707   2.596   2.451   5.302
  603SOL    HW1 2708   2.597   2.549   5.285
  603SOL    HW2 2709   2.687   2.420   5.328
  604SOL     OW 2710   1.485   1.969   1.475
  604SOL    HW1 2711   1.437   1.979   1.563
  604SOL    HW2 2712   1.421   1.935   1.407
  605SOL     OW 2713   6.618   4.996   1.846
  605SOL    HW1 2714   6.519   4.994   1.837
  605SOL    HW2 2715   6.656   4.906   1.826
  606SOL     OW 2716   4.942   6.402   5.263
  606SOL    HW1 2717   4.880   6.479   5.276
  606SOL    HW2 2718   4.921   6.358   5.175
  607SOL     OW 2719   6.908   5.187   4.799
  607SOL    HW1 2720   6.908   5.107   4.739
  607SOL    HW2 2721   6.978   5.252   4.768
  608SOL     OW 2722   3.759   6.248   6.963
  608SOL    HW1 2723   3.779   6.343   6.988
  608SOL    HW2 2724   3.662   6.238   6.943
  609SOL     OW 2725   3.810   3.181   2.019
  609SOL    HW1 2726   3.830   3.105   2.082
  609SOL    HW2 2727   3.774   3.258   2.072
  610SOL     OW 2728   5.706   3.097   6.894
  610SOL    HW1 2729   5.610   3.101   6.866
  610SOL    HW2 2730   5.716   3.028   6.966
  611SOL     OW 2731   4.266   0.297   1.844
  611SOL    HW1 2732   4.218   0.349   1.774
  611SOL    HW2 2733   4.331   0.357   1.892
  612SOL     OW 2734   3.043   5.993   4.611
  612SOL    HW1 2735   3.018   5.921   4.545
  612SOL    HW2 2736   3.108   5.956   4.677
  613SOL     OW 2737   4.948   4.321   5.116
  613SOL    HW1 2738   4.950   4.329   5.216
  613SOL    HW2 2739   4.900   4.238   5.091
  614SOL     OW 2740   5.142   4.957   5.516
  614SOL    HW1 2741   5.051   4.952   5.474
  614SOL    HW2 2742   5.138   5.014   5.598
  615SOL     OW 2743   6.955   2.368   1.228
  615SOL    HW1 2744   6.874   2.396   1.177
  615SOL    HW2 2745   6.982   2.441   1.290
  616SOL     OW 2746   6.524   1.995   2.842
  616SOL    HW1 2747   6.558   2.054   2.914
  616SOL    HW2 2748   6.439   2.032   2.804
  617SOL     OW 2749   0.703   4.636   5.624
  617SOL    HW1 2750   0.722   4.562   5.688
  617SOL    HW2 2751   0.630   4.608   5.561
  618SOL     OW 2752   1.422   2.552   0.619
  618SOL    HW1 2753   1.407   2.581   0.525
  618SOL    HW2 2754   1.450   2.631   0.674
  619SOL     OW 2755   2.654   1.903   0.923
  619SOL    HW1 2756   2.706   1.866   1.000
  619SOL    HW2 2757   2.561   1.924   0.952
  620SOL     OW 2758   4.738   2.434   6.939
  620SOL    HW1 2759   4.714   2.512   6.880
  620SOL    HW2 2760   4.665   2.421   7.006
  621SOL     OW 2761   3.379   5.421   6.841
  621SOL    HW1 2762   3.478   5.426   6.830
  621SOL    HW2 2763   3.356   5.402   6.936
  622SOL     OW 2764   1.040   0.683   6.578
  622SOL    HW1 2765   1.133   0.713   6.601
  622SOL    HW2 2766   1.004   0.740   6.505
  623SOL     OW 2767   0.824   6.321   5.964
  623SOL    HW1 2768   0.895   6.390   5.979
  623SOL    HW2 2769   0.739   6.351   6.007
  624SOL     OW 2770   0.588   2.719   1.263
  624SOL    HW1 2771   0.652   2.757   1.196
  624SOL    HW2 2772   0.636   2.656   1.324
  625SOL     OW 2773   2.550   2.684   1.042
  625SOL    HW1 2774   2.482   2.757   1.037
  625SOL    HW2 2775   2.633   2.714   0.995
  626SOL     OW 2776   2.750   5.810   3.763
  626SOL    HW1 2777   2.771   5.713   3.748
  626SOL    HW2 2778   2.654   5.827   3.741
  627SOL     OW 2779   5.387   0.799   0.827
  627SOL    HW1 2780   5.390   0.834   0.733
  627SOL    HW2 2781   5.424   0.869   0.889
  628SOL     OW 2782   5.413   5.013   5.704
  628SOL    HW1 2783   5.352   5.079   5.659
  628SOL    HW2 2784   5.358   4.949   5.758
  629SOL     OW 2785   6.863   6.431   1.236
  629SOL    HW1 2786   6.771   6.434   1.275
  629SOL    HW2 2787   6.896   6.337   1.233
  630SOL     OW 2788   6.020   1.589   2.956
  630SOL    HW1 2789   6.009   1.624   2.863
  630SOL    HW2 2790   5.971   1.648   3.020
  631SOL     OW 2791   3.735   6.731   5.080
  631SOL    HW1 2792   3.791   6.777   5.012
  631SOL    HW2 2793   3.641   6.722   5.046
  632SOL     OW 2794   2.702   2.167   0.575
  632SOL    HW1 2795   2.620   2.154   0.519
  632SOL    HW2 2796   2.676   2.169   0.671
  633SOL     OW 2797   4.124   5.129   0.092
  633SOL    HW1 2798   4.130   5.228   0.087
  633SOL    HW2 2799   4.075   5.094   0.012
  634SOL     OW 2800   4.737   4.494   1.739
  634SOL    HW1 2801   4.817   4.436   1.753
  634SOL    HW2 2802   4.657   4.453   1.782
  635SOL     OW 2803   4.378   6.062   2.637
  635SOL    HW1 2804   4.429   6.118   2.573
  635SOL    HW2 2805   4.298   6.112   2.669
  636SOL     OW 2806   4.931   6.099   6.155
  636SOL    HW1 2807   4.871   6.096   6.076
  636SOL    HW2 2808   4.878   6.125   6.236
  637SOL     OW 2809   6.192   4.285   1.836
  637SOL    HW1 2810   6.180   4.382   1.855
  637SOL    HW2 2811   6.157   4.263   1.745
  638SOL     OW 2812   5.157   1.384   2.023
  638SOL    HW1 2813   5.062   1.415   2.016
  638SOL    HW2 2814   5.196   1.415   2.110
  639SOL     OW 2815   5.157   4.000   2.487
  639SOL    HW1 2816   5.140   4.089   2.445
  639SOL    HW2 2817   5.254   3.975   2.474
  640SOL     OW 2818   1.473   4.791   5.073
  640SOL    HW1 2819   1.452   4.881   5.034
  640SOL    HW2 2820   1.457   4.793   5.171
  641SOL     OW 2821   0.257   5.629   4.648
  641SOL    HW1 2822   0.353   5.641   4.621
  641SOL    HW2 2823   0.202   5.702   4.606
  642SOL     OW 2824   6.790   3.805   4.026
  642SOL    HW1 2825   6.777   3.782   3.929
  642SOL    HW2 2826   6.886   3.793   4.050
  643SOL     OW 2827   5.839   4.292   5.081
  643SOL    HW1 2828   5.836   4.246   5.170
  643SOL    HW2 2829   5.781   4.373   5.084
  644SOL     OW 2830   1.237   5.970   3.203
  644SOL    HW1 2831   1.256   6.047   3.142
  644SOL    HW2 2832   1.139   5.967   3.222
  645SOL     OW 2833   4.985   2.304   4.406
  645SOL    HW1 2834   4.901   2.266   4.368
  645SOL    HW2 2835   5.063   2.276   4.350
  646SOL     OW 2836   2.742   1.745   3.452
  646SOL    HW1 2837   2.731   1.660   3.399
  646SOL    HW2 2838   2.820   1.736   3.513
  647SOL     OW 2839   5.490   2.725   6.030
  647SOL    HW1 2840   5.500   2.684   5.940
  647SOL    HW2 2841   5.572   2.779   6.051
  648SOL     OW 2842   0.139   3.932   2.982
  648SOL    HW1 2843   0.070   3.989   3.027
  648SOL    HW2 2844   0.116   3.835   2.994
  649SOL     OW 2845   4.201   3.928   0.532
  649SOL    HW1 2846   4.122   3.969   0.579
  649SOL    HW2 2847   4.180   3.833   0.508
  650SOL     OW 2848   5.249   4.139   0.728
  650SOL    HW1 2849   5.325   4.198   0.756
  650SOL    HW2 2850   5.283   4.048   0.705
  651SOL     OW 2851   0.371   6.608   6.824
  651SOL    HW1 2852   0.318   6.528   6.852
  651SOL    HW2 2853   0.310   6.683   6.800
  652SOL     OW 2854   5.203   6.125   3.771
  652SOL    HW1 2855   5.189   6.199   3.836
  652SOL    HW2 2856   5.252   6.050   3.816
  653SOL     OW 2857   3.374   5.726   5.265
  653SOL    HW1 2858   3.394   5.824   5.271
  653SOL    HW2 2859   3.400   5.681   5.350
  654SOL     OW 2860   0.296   4.372   5.741
  654SOL    HW1 2861   0.339   4.445   5.688
  654SOL    HW2 2862   0.364   4.302   5.762
  655SOL     OW 2863   0.694   6.903   2.278
  655SOL    HW1 2864   0.695   6.981   2.340
  655SOL    HW2 2865   0.779   6.902   2.225
  656SOL     OW 2866   1.720   5.764   1.320
  656SOL    HW1 2867   1.736   5.752   1.418
  656SOL    HW2 2868   1.789   5.712   1.269
  657SOL     OW 2869   2.142   2.080   1.620
  657SOL    HW1 2870   2.188   2.155   1.571
  657SOL    HW2 2871   2.207   2.038   1.683
  658SOL     OW 2872   3.018   3.645   6.187
  658SOL    HW1 2873   3.039   3.628   6.090
  658SOL    HW2 2874   2.965   3.568   6.223
  659SOL     OW 2875   2.884   6.542   6.614
  659SOL    HW1 2876   2.820   6.616   6.633
  659SOL    HW2 2877   2.891   6.528   6.515
  660SOL     OW 2878   4.938   4.312   1.790
  660SOL    HW1 2879   4.991   4.232   1.819
  660SOL    HW2 2880   4.996   4.372   1.735
  661SOL     OW 2881   4.603   6.145   3.826
  661SOL    HW1 2882   4.660   6.068   3.794
  661SOL    HW2 2883   4.523   6.109   3.874
  662SOL     OW 2884   4.124   0.778   5.202
  662SOL    HW1 2885   4.145   0.837   5.124
  662SOL    HW2 2886   4.104   0.685   5.169
  663SOL     OW 2887   2.407   3.405   6.145
  663SOL    HW1 2888   2.324   3.394   6.089
  663SOL    HW2 2889   2.488   3.397   6.087
  664SOL     OW 2890   0.585   6.471   6.319
  664SOL    HW1 2891   0.591   6.551   6.378
  664SOL    HW2 2892   0.566   6.390   6.374
  665SOL     OW 2893   4.356   5.556   1.909
  665SOL    HW1 2894   4.453   5.543   1.930
  665SOL    HW2 2895   4.317   5.471   1.875
  666SOL     OW 2896   5.384   1.253   1.966
  666SOL    HW1 2897   5.317   1.327   1.968
  666SOL    HW2 2898   5.476   1.292   1.970
  667SOL     OW 2899   1.338   5.387   2.729
  667SOL    HW1 2900   1.373   5.313   2.787
  667SOL    HW2 2901   1.273   5.442   2.781
  668SOL     OW 2902   4.805   6.477   6.160
  668SOL    HW1 2903   4.883   6.494   6.099
  668SOL    HW2 2904   4.744   6.556   6.159
  669SOL     OW 2905   5.333   0.550   3.315
  669SOL    HW1 2906   5.367   0.625   3.370
  669SOL    HW2 2907   5.237   0.533   3.336
  670SOL     OW 2908   2.937   2.150   1.832
  670SOL    HW1 2909   2.927   2.250   1.836
  670SOL    HW2 2910   2.955   2.114   1.924
  671SOL     OW 2911   3.502   6.093   0.859
  671SOL    HW1 2912   3.450   6.021   0.904
  671SOL    HW2 2913   3.547   6.150   0.928
  672SOL     OW 2914   6.547   5.385   1.852
  672SOL    HW1 2915   6.507   5.432   1.930
  672SOL    HW2 2916   6.475   5.338   1.801
  673SOL     OW 2917   6.499   0.015   1.001
  673SOL    HW1 2918   6.429   0.085   0.997
  673SOL    HW2 2919   6.562   0.026   0.924
  674SOL     OW 2920   0.463   1.448   4.843
  674SOL    HW1 2921   0.477   1.350   4.832
  674SOL    HW2 2922   0.367   1.470   4.823
  675SOL     OW 2923   5.978   2.301   2.573
  675SOL    HW1 2924   5.956   2.338   2.663
  675SOL    HW2 2925   5.965   2.373   2.504
  676SOL     OW 2926   2.989   5.472   3.853
  676SOL    HW1 2927   2.984   5.396   3.788
  676SOL    HW2 2928   3.024   5.439   3.940
  677SOL     OW 2929   5.126   1.233   0.415
  677SOL    HW1 2930   5.045   1.228   0.474
  677SOL    HW2 2931   5.170   1.143   0.411
  678SOL     OW 2932   2.576   6.120   5.020
  678SOL    HW1 2933   2.568   6.218   5.000
  678SOL    HW2 2934   2.485   6.078   5.020
  679SOL     OW 2935   4.800   1.667   4.226
  679SOL    HW1 2936   4.837   1.677   4.134
  679SOL    HW2 2937   4.781   1.757   4.265
  680SOL     OW 2938   5.169   5.774   4.773
  680SOL    HW1 2939   5.205   5.823   4.852
  680SOL    HW2 2940   5.072   5.755   4.787
  681SOL     OW 2941   4.633   5.557   1.673
  681SOL    HW1 2942   4.621   5.557   1.772
  681SOL    HW2 2943   4.549   5.587   1.629
  682SOL     OW 2944   6.150   1.163   1.707
  682SOL    HW1 2945   6.148   1.115   1.619
  682SOL    HW2 2946   6.056   1.177   1.739
  683SOL     OW 2947   4.382   2.646   0.522
  683SOL    HW1 2948   4.444   2.572   0.495
  683SOL    HW2 2949   4.289   2.624   0.493
  684SOL     OW 2950   6.459   1.003   0.883
  684SOL    HW1 2951   6.375   0.974   0.837
  684SOL    HW2 2952   6.467   1.103   0.878
  685SOL     OW 2953   3.159   1.826   4.209
  685SOL    HW1 2954   3.120   1.735   4.222
  685SOL    HW2 2955   3.239   1.837   4.267
  686SOL     OW 2956   4.682   2.267   4.456
  686SOL    HW1 2957   4.593   2.297   4.488
  686SOL    HW2 2958   4.717   2.194   4.516
  687SOL     OW 2959   0.918   2.222   4.106
  687SOL    HW1 2960   0.995   2.182   4.056
  687SOL    HW2 2961   0.858   2.150   4.140
  688SOL     OW 2962   0.548   1.559   6.343
  688SOL    HW1 2963   0.567   1.555   6.441
  688SOL    HW2 2964   0.458   1.518   6.325
  689SOL     OW 2965   1.239   4.470   6.089
  689SOL    HW1 2966   1.166   4.506   6.031
  689SOL    HW2 2967   1.218   4.490   6.185
  690SOL     OW 2968   6.833   3.109   3.183
  690SOL    HW1 2969   6.881   3.069   3.105
  690SOL    HW2 2970   6.799   3.200   3.159
  691SOL     OW 2971   3.401   1.607   0.053
  691SOL    HW1 2972   3.397   1.703   0.082
  691SOL    HW2 2973   3.327   1.556   0.096
  692SOL     OW 2974   4.460   2.402   4.199
  692SOL    HW1 2975   4.514   2.480   4.230
  692SOL    HW2 2976   4.434   2.346   4.278
  693SOL     OW 2977   4.737   6.627   4.031
  693SOL    HW1 2978   4.668   6.699   4.024
  693SOL    HW2 2979   4.722   6.559   3.959
  694SOL     OW 2980   4.228   0.065   5.107
  694SOL    HW1 2981   4.285   0.147   5.098
  694SOL    HW2 2982   4.198   0.056   5.202
  695SOL     OW 2983   4.006   6.796   3.675
  695SOL    HW1 2984   4.046   6.705   3.665
  695SOL    HW2 2985   4.017   6.847   3.590
  696SOL     OW 2986   5.207   4.550   3.469
  696SOL    HW1 2987   5.285   4.507   3.424
  696SOL    HW2 2988   5.240   4.607   3.544
  697SOL     OW 2989   1.570   3.610   2.306
  697SOL    HW1 2990   1.583   3.689   2.247
  697SOL    HW2 2991   1.659   3.575   2.336
  698SOL     OW 2992   5.373   6.401   1.369
  698SOL    HW1 2993   5.313   6.457   1.313
  698SOL    HW2 2994   5.337   6.396   1.463
  699SOL     OW 2995   1.781   3.721   0.183
  699SOL    HW1 2996   1.764   3.778   0.103
  699SOL    HW2 2997   1.863   3.752   0.231
  700SOL     OW 2998   3.515   0.231   2.376
  700SOL    HW1 2999   3.576   0.233   2.456
  700SOL    HW2 3000   3.443   0.299   2.388
  701SOL     OW 3001   6.639   3.972   0.272
  701SOL    HW1 3002   6.702   4.030   0.323
  701SOL    HW2 3003   6.597   3.907   0.335
  702SOL     OW 3004   1.630   6.336   4.772
  702SOL    HW1 3005   1.683   6.290   4.701
  702SOL    HW2 3006   1.595   6.422   4.737
  703SOL     OW 3007   3.407   3.575   5.764
  703SOL    HW1 3008   3.471   3.631   5.711
  703SOL    HW2 3009   3.320   3.570   5.715
  704SOL     OW 3010   1.523   2.707   6.170
  704SOL    HW1 3011   1.534   2.798   6.132
  704SOL    HW2 3012   1.546   2.639   6.100
  705SOL     OW 3013   5.669   5.659   2.834
  705SOL    HW1 3014   5.702   5.744   2.792
  705SOL    HW2 3015   5.639   5.596   2.762
  706SOL     OW 3016   3.991   1.837   5.312
  706SOL    HW1 3017   4.017   1.741   5.305
  706SOL    HW2 3018   3.892   1.846   5.306
  707SOL     OW 3019   4.469   4.516   3.248
  707SOL    HW1 3020   4.466   4.469   3.160
  707SOL    HW2 3021   4.541   4.477   3.305
  708SOL     OW 3022   2.842   0.821   2.747
  708SOL    HW1 3023   2.846   0.830   2.847
  708SOL    HW2 3024   2.932   0.797   2.712
  709SOL     OW 3025   1.262   5.648   0.716
  709SOL    HW1 3026   1.264   5.725   0.653
  709SOL    HW2 3027   1.280   5.679   0.809
  710SOL     OW 3028   4.419   2.044   1.063
  710SOL    HW1 3029   4.475   2.103   1.120
  710SOL    HW2 3030   4.322   2.061   1.081
  711SOL     OW 3031   0.161   2.749   6.026
  711SOL    HW1 3032   0.113   2.690   5.961
  711SOL    HW2 3033   0.224   2.808   5.977
  712SOL     OW 3034   4.711   2.656   0.895
  712SOL    HW1 3035   4.789   2.602   0.928
  712SOL    HW2 3036   4.713   2.659   0.795
  713SOL     OW 3037   3.774   3.681   5.880
  713SOL    HW1 3038   3.723   3.595   5.888
  713SOL    HW2 3039   3.869   3.665   5.908
  714SOL     OW 3040   0.114   5.106   4.006
  714SOL    HW1 3041   0.031   5.101   3.951
  714SOL    HW2 3042   0.194   5.103   3.945
  715SOL     OW 3043   5.417   6.037   6.718
  715SOL    HW1 3044   5.345   6.096   6.681
  715SOL    HW2 3045   5.378   5.948   6.743
  716SOL     OW 3046   0.897   0.982   2.525
  716SOL    HW1 3047   0.959   1.052   2.492
  716SOL    HW2 3048   0.923   0.956   2.618
  717SOL     OW 3049   6.920   4.877   4.172
  717SOL    HW1 3050   6.879   4.810   4.111
  717SOL    HW2 3051   6.890   4.968   4.147
  718SOL     OW 3052   4.855   3.305   6.046
  718SOL    HW1 3053   4.764   3.338   6.022
  718SOL    HW2 3054   4.884   3.343   6.133
  719SOL     OW 3055   5.679   6.904   2.774
  719SOL    HW1 3056   5.735   6.879   2.853
  719SOL    HW2 3057   5.692   6.837   2.701
  720SOL     OW 3058   2.050   0.328   6.390
  720SOL    HW1 3059   2.096   0.259   6.446
  720SOL    HW2 3060   2.045   0.296   6.295
  721SOL     OW 3061   2.247   1.369   2.176
  721SOL    HW1 3062   2.337   1.399   2.145
  721SOL    HW2 3063   2.253   1.335   2.269
  722SOL     OW 3064   3.041   0.745   5.570
  722SOL    HW1 3065   3.098   0.684   5.625
  722SOL    HW2 3066   2.945   0.725   5.587
  723SOL     OW 3067   2.075   5.060   3.557
  723SOL    HW1 3068   2.100   5.077   3.653
  723SOL    HW2 3069   2.122   5.125   3.498
  724SOL     OW 3070   0.771   1.283   3.272
  724SOL    HW1 3071   0.856   1.263   3.222
  724SOL    HW2 3072   0.750   1.208   3.334
  725SOL     OW 3073   1.259   4.899   2.737
  725SOL    HW1 3074   1.296   4.863   2.652
  725SOL    HW2 3075   1.159   4.900   2.732
  726SOL     OW 3076   2.750   5.106   1.388
  726SOL    HW1 3077   2.733   5.044   1.465
  726SOL    HW2 3078   2.725   5.199   1.414
  727SOL     OW 3079   5.359   4.588   6.218
  727SOL    HW1 3080   5.415   4.504   6.215
  727SOL    HW2 3081   5.296   4.582   6.295
  728SOL     OW 3082   6.478   3.366   4.123
  728SOL    HW1 3083   6.442   3.373   4.216
  728SOL    HW2 3084   6.520   3.453   4.098
  729SOL     OW 3085   0.096   3.009   1.192
  729SOL    HW1 3086   0.152   2.927   1.189
  729SOL    HW2 3087   0.155   3.090   1.192
  730SOL     OW 3088   6.960   0.134   4.135
  730SOL    HW1 3089   6.999   0.225   4.121
  730SOL    HW2 3090   0.004   0.064   4.113
  731SOL     OW 3091   4.766   5.220   6.315
  731SOL    HW1 3092   4.724   5.299   6.270
  731SOL    HW2 3093   4.765   5.142   6.252
  732SOL     OW 3094   5.923   2.553   2.431
  732SOL    HW1 3095   5.834   2.597   2.445
  732SOL    HW2 3096   5.973   2.601   2.359
  733SOL     OW 3097   5.482   0.122   5.507
  733SOL    HW1 3098   5.473   0.207   5.455
  733SOL    HW2 3099   5.393   0.078   5.517
  734SOL     OW 3100   5.974   5.286   2.503
  734SOL    HW1 3101   5.942   5.273   2.597
  734SOL    HW2 3102   6.029   5.369   2.498
  735SOL     OW 3103   4.076   1.537   0.601
  735SOL    HW1 3104   4.134   1.618   0.593
  735SOL    HW2 3105   4.043   1.530   0.695
  736SOL     OW 3106   0.895   1.336   3.720
  736SOL    HW1 3107   0.943   1.364   3.803
  736SOL    HW2 3108   0.954   1.349   3.641
  737SOL     OW 3109   5.272   1.719   6.044
  737SOL    HW1 3110   5.340   1.775   5.995
  737SOL    HW2 3111   5.310   1.629   6.064
  738SOL     OW 3112   2.954   3.527   1.426
  738SOL    HW1 3113   2.948   3.444   1.482
  738SOL    HW2 3114   2.928   3.606   1.481
  739SOL     OW 3115   4.182   0.417   4.581
  739SOL    HW1 3116   4.177   0.325   4.620
  739SOL    HW2 3117   4.166   0.484   4.653
  740SOL     OW 3118   5.626   1.631   3.182
  740SOL    HW1 3119   5.611   1.705   3.248
  740SOL    HW2 3120   5.667   1.669   3.099
  741SOL     OW 3121   1.733   0.315   4.178
  741SOL    HW1 3122   1.727   0.316   4.078
  741SOL    HW2 3123   1.765   0.403   4.211
  742SOL     OW 3124   1.810   6.426   1.405
  742SOL    HW1 3125   1.818   6.525   1.412
  742SOL    HW2 3126   1.838   6.396   1.314
  743SOL     OW 3127   0.140   5.465   3.331
  743SOL    HW1 3128   0.076   5.534   3.365
  743SOL    HW2 3129   0.202   5.507   3.265
  744SOL     OW 3130   5.613   0.747   1.182
  744SOL    HW1 3131   5.545   0.680   1.152
  744SOL    HW2 3132   5.622   0.742   1.282
  745SOL     OW 3133   1.777   5.498   5.148
  745SOL    HW1 3134   1.848   5.438   5.112
  745SOL    HW2 3135   1.702   5.443   5.184
  746SOL     OW 3136   6.062   3.570   6.154
  746SOL    HW1 3137   6.148   3.557   6.104
  746SOL    HW2 3138   6.053   3.666   6.179
  747SOL     OW 3139   4.365   5.996   4.663
  747SOL    HW1 3140   4.372   6.069   4.595
  747SOL    HW2 3141   4.272   5.994   4.700
  748SOL     OW 3142   4.555   5.506   2.222
  748SOL    HW1 3143   4.476   5.562   2.246
  748SOL    HW2 3144   4.629   5.523   2.288
  749SOL     OW 3145   5.839   3.846   4.521
  749SOL    HW1 3146   5.913   3.781   4.502
  749SOL    HW2 3147   5.765   3.832   4.455
  750SOL     OW 3148   2.330   1.380   1.524
  750SOL    HW1 3149   2.280   1.376   1.438
  750SOL    HW2 3150   2.410   1.320   1.520
  751SOL     OW 3151   4.310   1.543   0.183
  751SOL    HW1 3152   4.249   1.584   0.251
  751SOL    HW2 3153   4.380   1.610   0.156
  752SOL     OW 3154   2.852   3.198   0.579
  752SOL    HW1 3155   2.820   3.291   0.595
  752SOL    HW2 3156   2.774   3.138   0.565
  753SOL     OW 3157   1.197   3.572   5.753
  753SOL    HW1 3158   1.191   3.540   5.658
  753SOL    HW2 3159   1.193   3.672   5.755
  754SOL     OW 3160   4.650   1.714   6.287
  754SOL    HW1 3161   4.577   1.782   6.296
  754SOL    HW2 3162   4.675   1.679   6.377
  755SOL     OW 3163   2.625   4.581   5.545
  755SOL    HW1 3164   2.551   4.528   5.587
  755SOL    HW2 3165   2.617   4.576   5.445
  756SOL     OW 3166   2.538   5.426   7.011
  756SOL    HW1 3167   2.505   5.430   6.917
  756SOL    HW2 3168   2.482   5.360   0.038
  757SOL     OW 3169   1.770   5.787   3.726
  757SOL    HW1 3170   1.808   5.866   3.773
  757SOL    HW2 3171   1.670   5.797   3.718
  758SOL     OW 3172   4.287   0.946   3.275
  758SOL    HW1 3173   4.249   0.962   3.184
  758SOL    HW2 3174   4.253   1.015   3.338
  759SOL     OW 3175   0.300   2.782   2.459
  759SOL    HW1 3176   0.319   2.843   2.382
  759SOL    HW2 3177   0.226   2.820   2.515
  760SOL     OW 3178   6.209   6.755   4.007
  760SOL    HW1 3179   6.171   6.720   4.092
  760SOL    HW2 3180   6.180   6.697   3.931
  761SOL     OW 3181   5.472   4.533   6.493
  761SOL    HW1 3182   5.534   4.517   6.570
  761SOL    HW2 3183   5.465   4.449   6.438
  762SOL     OW 3184   3.269   0.193   5.589
  762SOL    HW1 3185   3.179   0.154   5.607
  762SOL    HW2 3186   3.267   0.244   5.503
  763SOL     OW 3187   4.133   6.443   6.160
  763SOL    HW1 3188   4.085   6.357   6.142
  763SOL    HW2 3189   4.090   6.516   6.107
  764SOL     OW 3190   5.012   0.597   5.762
  764SOL    HW1 3191   5.072   0.570   5.837
  764SOL    HW2 3192   4.925   0.548   5.770
  765SOL     OW 3193   1.691   6.050   0.590
  765SOL    HW1 3194   1.705   5.994   0.672
  765SOL    HW2 3195   1.612   6.017   0.539
  766SOL     OW 3196   3.001   1.669   5.540
  766SOL    HW1 3197   2.955   1.680   5.452
  766SOL    HW2 3198   2.934   1.673   5.613
  767SOL     OW 3199   6.291   6.674   3.661
  767SOL    HW1 3200   6.275   6.586   3.705
  767SOL    HW2 3201   6.233   6.682   3.580
  768SOL     OW 3202   1.910   5.505   3.634
  768SOL    HW1 3203   1.872   5.583   3.685
  768SOL    HW2 3204   1.956   5.443   3.698
  769SOL     OW 3205   3.190   0.983   5.603
  769SOL    HW1 3206   3.125   1.056   5.584
  769SOL    HW2 3207   3.146   0.894   5.587
  770SOL     OW 3208   1.715   5.349   3.919
  770SOL    HW1 3209   1.697   5.322   3.824
  770SOL    HW2 3210   1.722   5.449   3.923
  771SOL     OW 3211   1.246   4.675   2.932
  771SOL    HW1 3212   1.244   4.638   2.839
  771SOL    HW2 3213   1.244   4.775   2.928
  772SOL     OW 3214   6.203   4.937   6.634
  772SOL    HW1 3215   6.277   4.886   6.591
  772SOL    HW2 3216   6.118   4.885   6.629
  773SOL     OW 3217   0.662   3.913   2.986
  773SOL    HW1 3218   0.664   3.815   3.008
  773SOL    HW2 3219   0.753   3.942   2.955
  774SOL     OW 3220   1.690   1.811   2.636
  774SOL    HW1 3221   1.761   1.812   2.706
  774SOL    HW2 3222   1.714   1.874   2.563
  775SOL     OW 3223   2.294   1.660   3.968
  775SOL    HW1 3224   2.292   1.728   4.042
  775SOL    HW2 3225   2.353   1.694   3.894
  776SOL     OW 3226   6.782   0.856   6.249
  776SOL    HW1 3227   6.760   0.813   6.161
  776SOL    HW2 3228   6.875   0.831   6.275
  777SOL     OW 3229   2.080   4.373   1.469
  777SOL    HW1 3230   2.015   4.423   1.412
  777SOL    HW2 3231   2.067   4.275   1.457
  778SOL     OW 3232   2.065   0.131   1.462
  778SOL    HW1 3233   2.131   0.057   1.454
  778SOL    HW2 3234   2.102   0.204   1.520
  779SOL     OW 3235   6.714   1.842   2.040
  779SOL    HW1 3236   6.727   1.762   2.099
  779SOL    HW2 3237   6.776   1.837   1.962
  780SOL     OW 3238   0.745   1.950   4.178
  780SOL    HW1 3239   0.821   1.960   4.243
  780SOL    HW2 3240   0.703   2.039   4.162
  781SOL     OW 3241   5.664   5.745   0.426
  781SOL    HW1 3242   5.647   5.693   0.510
  781SOL    HW2 3243   5.605   5.826   0.425
  782SOL     OW 3244   1.700   3.795   5.708
  782SOL    HW1 3245   1.717   3.885   5.749
  782SOL    HW2 3246   1.640   3.805   5.630
  783SOL     OW 3247   5.473   4.771   1.334
  783SOL    HW1 3248   5.414   4.744   1.258
  783SOL    HW2 3249   5.527   4.693   1.365
  784SOL     OW 3250   4.066   5.060   1.980
  784SOL    HW1 3251   4.026   4.968   1.985
  784SOL    HW2 3252   4.001   5.127   2.014
  785SOL     OW 3253   0.758   1.075   3.442
  785SOL    HW1 3254   0.762   1.078   3.542
  785SOL    HW2 3255   0.749   0.980   3.411
  786SOL     OW 3256   0.025   0.827   2.537
  786SOL    HW1 3257   6.987   0.777   2.597
  786SOL    HW2 3258   0.106   0.855   2.588
  787SOL     OW 3259   1.606   6.965   6.679
  787SOL    HW1 3260   1.623   6.879   6.727
  787SOL    HW2 3261   1.693   7.007   6.654
  788SOL     OW 3262   4.534   2.471   1.006
  788SOL    HW1 3263   4.520   2.394   0.944
  788SOL    HW2 3264   4.587   2.543   0.961
  789SOL     OW 3265   4.756   5.303   2.160
  789SOL    HW1 3266   4.679   5.365   2.177
  789SOL    HW2 3267   4.746   5.221   2.216
  790SOL     OW 3268   2.602   1.242   2.506
  790SOL    HW1 3269   2.666   1.229   2.430
  790SOL    HW2 3270   2.639   1.201   2.589
  791SOL     OW 3271   2.084   6.040   5.366
  791SOL    HW1 3272   2.145   6.023   5.444
  791SOL    HW2 3273   2.060   5.952   5.323
  792SOL     OW 3274   0.631   0.516   2.118
  792SOL    HW1 3275   0.619   0.488   2.023
  792SOL    HW2 3276   0.549   0.493   2.171
  793SOL     OW 3277   5.233   5.530   5.056
  793SOL    HW1 3278   5.242   5.448   5.112
  793SOL    HW2 3279   5.177   5.597   5.104
  794SOL     OW 3280   2.812   3.595   5.544
  794SOL    HW1 3281   2.859   3.526   5.488
  794SOL    HW2 3282   2.875   3.632   5.611
  795SOL     OW 3283   3.938   0.381   5.476
  795SOL    HW1 3284   3.858   0.437   5.455
  795SOL    HW2 3285   4.021   0.427   5.442
  796SOL     OW 3286   1.111   2.661   0.277
  796SOL    HW1 3287   1.022   2.692   0.245
  796SOL    HW2 3288   1.159   2.617   0.200
  797SOL     OW 3289   4.537   0.603   0.673
  797SOL    HW1 3290   4.615   0.630   0.615
  797SOL    HW2 3291   4.485   0.685   0.699
  798SOL     OW 3292   3.793   6.408   1.686
  798SOL    HW1 3293   3.777   6.417   1.587
  798SOL    HW2 3294   3.856   6.332   1.702
  799SOL     OW 3295   0.656   0.407   6.495
  799SOL    HW1 3296   0.630   0.465   6.417
  799SOL    HW2 3297   0.754   0.417   6.512
  800SOL     OW 3298   6.885   1.008   2.412
  800SOL    HW1 3299   6.806   0.948   2.405
  800SOL    HW2 3300   6.957   0.962   2.463
  801SOL     OW 3301   2.312   4.360   5.086
  801SOL    HW1 3302   2.328   4.408   4.999
  801SOL    HW2 3303   2.329   4.262   5.073
  802SOL     OW 3304   3.177   2.366   0.037
  802SOL    HW1 3305   3.089   2.321   0.021
  802SOL    HW2 3306   3.209   2.346   0.130
  803SOL     OW 3307   1.556   0.303   5.630
  803SOL    HW1 3308   1.595   0.271   5.716
  803SOL    HW2 3309   1.463   0.270   5.620
  804SOL     OW 3310   6.486   6.762   1.533
  804SOL    HW1 3311   6.482   6.772   1.433
  804SOL    HW2 3312   6.471   6.851   1.576
  805SOL     OW 3313   1.645   0.866   3.940
  805SOL    HW1 3314   1.708   0.894   3.868
  805SOL    HW2 3315   1.605   0.778   3.917
  806SOL     OW 3316   6.120   0.489   6.564
  806SOL    HW1 3317   6.201   0.434   6.584
  806SOL    HW2 3318   6.038   0.439   6.592
  807SOL     OW 3319   0.671   6.892   3.753
  807SOL    HW1 3320   0.623   6.979   3.738
  807SOL    HW2 3321   0.664   6.866   3.849
  808SOL     OW 3322   5.020   2.936   0.022
  808SOL    HW1 3323   5.041   2.998   0.098
  808SOL    HW2 3324   4.936   2.886   0.043
  809SOL     OW 3325   1.261   4.752   0.859
  809SOL    HW1 3326   1.162   4.758   0.847
  809SOL    HW2 3327   1.285   4.781   0.952
  810SOL     OW 3328   3.090   4.066   0.016
  810SOL    HW1 3329   2.996   4.093   0.034
  810SOL    HW2 3330   3.140   4.058   0.102
  811SOL     OW 3331   5.214   5.429   4.232
  811SOL    HW1 3332   5.249   5.406   4.323
  811SOL    HW2 3333   5.114   5.424   4.233
  812SOL     OW 3334   0.100   2.099   1.684
  812SOL    HW1 3335   0.030   2.152   1.733
  812SOL    HW2 3336   0.168   2.066   1.748
  813SOL     OW 3337   2.839   0.467   4.383
  813SOL    HW1 3338   2.858   0.389   4.323
  813SOL    HW2 3339   2.874   0.551   4.341
  814SOL     OW 3340   6.350   5.900   2.579
  814SOL    HW1 3341   6.393   5.819   2.618
  814SOL    HW2 3342   6.398   5.926   2.495
  815SOL     OW 3343   5.699   3.116   3.301
  815SOL    HW1 3344   5.631   3.185   3.326
  815SOL    HW2 3345   5.732   3.134   3.208
  816SOL     OW 3346   5.162   5.202   0.110
  816SOL    HW1 3347   5.092   5.272   0.100
  816SOL    HW2 3348   5.229   5.231   0.179
  817SOL     OW 3349   0.851   5.461   1.626
  817SOL    HW1 3350   0.862   5.365   1.653
  817SOL    HW2 3351   0.814   5.514   1.702
  818SOL     OW 3352   5.547   2.890   3.580
  818SOL    HW1 3353   5.621   2.828   3.605
  818SOL    HW2 3354   5.464   2.837   3.562
  819SOL     OW 3355   6.291   2.546   1.627
  819SOL    HW1 3356   6.370   2.488   1.609
  819SOL    HW2 3357   6.268   2.542   1.724
  820SOL     OW 3358   2.879   2.265   4.716
  820SOL    HW1 3359   2.893   2.232   4.809
  820SOL    HW2 3360   2.968   2.276   4.671
  821SOL     OW 3361   6.580   4.701   6.137
  821SOL    HW1 3362   6.616   4.716   6.045
  821SOL    HW2 3363   6.655   4.681   6.200
  822SOL     OW 3364   7.019   3.405   3.085
  822SOL    HW1 3365   0.028   3.340   3.153
  822SOL    HW2 3366   6.926   3.380   3.058
  823SOL     OW 3367   6.591   4.114   6.627
  823SOL    HW1 3368   6.516   4.053   6.602
  823SOL    HW2 3369   6.636   4.148   6.545
  824SOL     OW 3370   4.756   0.835   5.873
  824SOL    HW1 3371   4.823   0.873   5.937
  824SOL    HW2 3372   4.776   0.868   5.781
  825SOL     OW 3373   6.510   5.781   0.852
  825SOL    HW1 3374   6.450   5.808   0.928
  825SOL    HW2 3375   6.548   5.691   0.871
  826SOL     OW 3376   3.683   2.433   5.724
  826SOL    HW1 3377   3.698   2.531   5.715
  826SOL    HW2 3378   3.758   2.384   5.680
  827SOL     OW 3379   2.893   4.171   5.272
  827SOL    HW1 3380   2.817   4.111   5.300
  827SOL    HW2 3381   2.936   4.134   5.190
  828SOL     OW 3382   6.010   6.264   6.636
  828SOL    HW1 3383   6.087   6.324   6.658
  828SOL    HW2 3384   6.039   6.195   6.571
  829SOL     OW 3385   3.617   3.219   1.813
  829SOL    HW1 3386   3.706   3.178   1.835
  829SOL    HW2 3387   3.545   3.159   1.847
  830SOL     OW 3388   5.951   5.191   0.042
  830SOL    HW1 3389   6.039   5.234   0.062
  830SOL    HW2 3390   5.896   5.251   7.008
  831SOL     OW 3391   5.915   0.026   1.043
  831SOL    HW1 3392   5.848   0.097   1.064
  831SOL    HW2 3393   5.884   6.963   1.079
  832SOL     OW 3394   4.357   1.865   4.065
  832SOL    HW1 3395   4.416   1.941   4.037
  832SOL    HW2 3396   4.413   1.789   4.097
  833SOL     OW 3397   1.959   3.680   5.913
  833SOL    HW1 3398   1.952   3.600   5.854
  833SOL    HW2 3399   2.055   3.705   5.923
  834SOL     OW 3400   5.057   3.761   1.011
  834SOL    HW1 3401   5.000   3.680   1.000
  834SOL    HW2 3402   5.093   3.763   1.105
  835SOL     OW 3403   2.470   0.421   4.760
  835SOL    HW1 3404   2.430   0.361   4.691
  835SOL    HW2 3405   2.399   0.482   4.796
  836SOL     OW 3406   3.467   0.942   5.060
  836SOL    HW1 3407   3.417   1.029   5.065
  836SOL    HW2 3408   3.534   0.939   5.135
  837SOL     OW 3409   0.558   0.141   0.790
  837SOL    HW1 3410   0.637   0.181   0.837
  837SOL    HW2 3411   0.555   0.175   0.696
  838SOL     OW 3412   2.406   6.274   4.723
  838SOL    HW1 3413   2.328   6.252   4.782
  838SOL    HW2 3414   2.460   6.192   4.708
  839SOL     OW 3415   2.136   1.420   1.732
  839SOL    HW1 3416   2.143   1.519   1.739
  839SOL    HW2 3417   2.197   1.387   1.660
  840SOL     OW 3418   6.514   5.342   0.393
  840SOL    HW1 3419   6.545   5.396   0.315
  840SOL    HW2 3420   6.540   5.246   0.379
  841SOL     OW 3421   3.515   5.643   5.850
  841SOL    HW1 3422   3.544   5.572   5.913
  841SOL    HW2 3423   3.425   5.620   5.812
  842SOL     OW 3424   3.859   6.931   6.153
  842SOL    HW1 3425   3.885   6.915   6.248
  842SOL    HW2 3426   3.762   6.913   6.141
  843SOL     OW 3427   1.711   2.031   1.828
  843SOL    HW1 3428   1.767   2.014   1.747
  843SOL    HW2 3429   1.768   2.068   1.901
  844SOL     OW 3430   6.926   6.842   1.158
  844SOL    HW1 3431   6.880   6.898   1.227
  844SOL    HW2 3432   6.992   6.782   1.202
  845SOL     OW 3433   5.117   3.844   3.288
  845SOL    HW1 3434   5.109   3.872   3.192
  845SOL    HW2 3435   5.035   3.794   3.315
  846SOL     OW 3436   2.778   0.667   5.591
  846SOL    HW1 3437   2.761   0.699   5.498
  846SOL    HW2 3438   2.746   0.573   5.600
  847SOL     OW 3439   2.063   2.960   1.934
  847SOL    HW1 3440   2.152   2.971   1.889
  847SOL    HW2 3441   2.064   3.007   2.022
  848SOL     OW 3442   6.425   6.945   5.820
  848SOL    HW1 3443   6.367   6.873   5.782
  848SOL    HW2 3444   6.440   6.929   5.917
  849SOL     OW 3445   6.155   4.046   6.043
  849SOL    HW1 3446   6.183   4.099   6.123
  849SOL    HW2 3447   6.119   4.108   5.973
  850SOL     OW 3448   6.315   6.988   5.006
  850SOL    HW1 3449   6.230   6.944   4.977
  850SOL    HW2 3450   6.377   6.920   5.044
  851SOL     OW 3451   0.142   2.626   0.066
  851SOL    HW1 3452   0.192   2.711   0.049
  851SOL    HW2 3453   0.132   2.612   0.164
  852SOL     OW 3454   0.890   4.621   0.623
  852SOL    HW1 3455   0.816   4.617   0.557
  852SOL    HW2 3456   0.976   4.644   0.577
  853SOL     OW 3457   1.019   4.753   0.004
  853SOL    HW1 3458   0.959   4.754   6.947
  853SOL    HW2 3459   1.085   4.828   7.021
  854SOL     OW 3460   4.840   5.901   0.022
  854SOL    HW1 3461   4.756   5.950   7.023
  854SOL    HW2 3462   4.909   5.966   0.054
  855SOL     OW 3463   6.730   0.206   0.557
  855SOL    HW1 3464   6.777   0.294   0.566
  855SOL    HW2 3465   6.650   0.216   0.498
  856SOL     OW 3466   1.281   1.326   6.986
  856SOL    HW1 3467   1.210   1.285   0.018
  856SOL    HW2 3468   1.349   1.369   0.021
  857SOL     OW 3469   6.165   5.271   2.191
  857SOL    HW1 3470   6.171   5.297   2.094
  857SOL    HW2 3471   6.257   5.269   2.230
  858SOL     OW 3472   3.384   4.942   1.208
  858SOL    HW1 3473   3.370   5.039   1.225
  858SOL    HW2 3474   3.421   4.898   1.290
  859SOL     OW 3475   5.920   6.295   5.255
  859SOL    HW1 3476   5.929   6.226   5.327
  859SOL    HW2 3477   5.824   6.307   5.232
  860SOL     OW 3478   6.123   2.491   6.332
  860SOL    HW1 3479   6.205   2.540   6.360
  860SOL    HW2 3480   6.149   2.410   6.279
  861SOL     OW 3481   2.679   4.992   3.033
  861SOL    HW1 3482   2.597   5.029   2.991
  861SOL    HW2 3483   2.712   5.055   3.104
  862SOL     OW 3484   2.192   4.191   3.272
  862SOL    HW1 3485   2.232   4.225   3.187
  862SOL    HW2 3486   2.111   4.245   3.295
  863SOL     OW 3487   5.999   1.212   6.033
  863SOL    HW1 3488   5.989   1.246   5.940
  863SOL    HW2 3489   6.095   1.195   6.053
  864SOL     OW 3490   4.093   5.984   4.619
  864SOL    HW1 3491   4.021   6.048   4.645
  864SOL    HW2 3492   4.078   5.952   4.526
  865SOL     OW 3493   2.248   0.111   5.486
  865SOL    HW1 3494   2.177   0.045   5.512
  865SOL    HW2 3495   2.337   0.067   5.491
  866SOL     OW 3496   3.140   0.482   0.470
  866SOL    HW1 3497   3.046   0.503   0.497
  866SOL    HW2 3498   3.158   0.521   0.379
  867SOL     OW 3499   4.714   3.667   1.075
  867SOL    HW1 3500   4.709   3.653   1.174
  867SOL    HW2 3501   4.641   3.729   1.046
  868SOL     OW 3502   6.915   1.418   1.609
  868SOL    HW1 3503   6.873   1.350   1.668
  868SOL    HW2 3504   6.881   1.407   1.515
  869SOL     OW 3505   0.191   4.716   3.193
  869SOL    HW1 3506   0.127   4.769   3.248
  869SOL    HW2 3507   0.283   4.755   3.203
  870SOL     OW 3508   4.237   4.337   0.993
  870SOL    HW1 3509   4.254   4.386   1.078
  870SOL    HW2 3510   4.149   4.289   0.999
  871SOL     OW 3511   5.374   2.382   4.032
  871SOL    HW1 3512   5.356   2.288   4.061
  871SOL    HW2 3513   5.321   2.445   4.089
  872SOL     OW 3514   6.200   2.359   4.098
  872SOL    HW1 3515   6.113   2.314   4.114
  872SOL    HW2 3516   6.213   2.374   4.000
  873SOL     OW 3517   5.156   5.708   5.303
  873SOL    HW1 3518   5.096   5.756   5.239
  873SOL    HW2 3519   5.102   5.671   5.379
  874SOL     OW 3520   6.307   3.681   0.176
  874SOL    HW1 3521   6.277   3.598   0.129
  874SOL    HW2 3522   6.227   3.737   0.199
  875SOL     OW 3523   4.462   4.879   0.962
  875SOL    HW1 3524   4.393   4.946   0.935
  875SOL    HW2 3525   4.545   4.927   0.991
  876SOL     OW 3526   0.443   5.739   2.046
  876SOL    HW1 3527   0.349   5.710   2.062
  876SOL    HW2 3528   0.473   5.709   1.956
  877SOL     OW 3529   3.423   4.625   6.060
  877SOL    HW1 3530   3.436   4.685   5.981
  877SOL    HW2 3531   3.472   4.662   6.139
  878SOL     OW 3532   4.621   6.611   4.651
  878SOL    HW1 3533   4.661   6.555   4.724
  878SOL    HW2 3534   4.574   6.552   4.586
  879SOL     OW 3535   3.901   0.353   1.719
  879SOL    HW1 3536   3.847   0.293   1.658
  879SOL    HW2 3537   3.996   0.355   1.687
  880SOL     OW 3538   3.428   3.181   4.121
  880SOL    HW1 3539   3.401   3.261   4.067
  880SOL    HW2 3540   3.420   3.099   4.064
  881SOL     OW 3541   5.047   3.749   5.471
  881SOL    HW1 3542   5.105   3.692   5.528
  881SOL    HW2 3543   4.955   3.752   5.510
  882SOL     OW 3544   0.806   2.396   3.918
  882SOL    HW1 3545   0.846   2.488   3.910
  882SOL    HW2 3546   0.851   2.347   3.993
  883SOL     OW 3547   3.244   0.587   1.022
  883SOL    HW1 3548   3.341   0.567   1.032
  883SOL    HW2 3549   3.207   0.620   1.109
  884SOL     OW 3550   6.330   3.873   5.930
  884SOL    HW1 3551   6.272   3.940   5.976
  884SOL    HW2 3552   6.291   3.782   5.942
  885SOL     OW 3553   3.924   0.844   4.572
  885SOL    HW1 3554   3.842   0.900   4.565
  885SOL    HW2 3555   3.916   0.764   4.512
  886SOL     OW 3556   3.229   0.562   0.214
  886SOL    HW1 3557   3.283   0.479   0.203
  886SOL    HW2 3558   3.282   0.631   0.263
  887SOL     OW 3559   3.648   6.568   3.706
  887SOL    HW1 3560   3.696   6.603   3.786
  887SOL    HW2 3561   3.554   6.601   3.706
  888SOL     OW 3562   0.271   5.917   2.852
  888SOL    HW1 3563   0.202   5.902   2.923
  888SOL    HW2 3564   0.359   5.879   2.882
  889SOL     OW 3565   6.907   1.894   0.217
  889SOL    HW1 3566   6.961   1.968   0.176
  889SOL    HW2 3567   6.811   1.922   0.222
  890SOL     OW 3568   1.967   4.897   3.041
  890SOL    HW1 3569   1.893   4.910   2.974
  890SOL    HW2 3570   1.938   4.832   3.110
  891SOL     OW 3571   6.258   3.652   1.576
  891SOL    HW1 3572   6.324   3.720   1.607
  891SOL    HW2 3573   6.305   3.566   1.555
  892SOL     OW 3574   3.066   3.660   4.785
  892SOL    HW1 3575   3.105   3.603   4.713
  892SOL    HW2 3576   3.010   3.604   4.846
  893SOL     OW 3577   2.104   6.481   3.333
  893SOL    HW1 3578   2.116   6.538   3.252
  893SOL    HW2 3579   2.068   6.536   3.408
  894SOL     OW 3580   1.039   3.093   2.270
  894SOL    HW1 3581   1.020   3.084   2.368
  894SOL    HW2 3582   1.086   3.180   2.254
  895SOL     OW 3583   1.317   4.649   3.655
  895SOL    HW1 3584   1.368   4.641   3.741
  895SOL    HW2 3585   1.221   4.630   3.672
  896SOL     OW 3586   5.286   4.739   1.108
  896SOL    HW1 3587   5.306   4.831   1.075
  896SOL    HW2 3588   5.310   4.672   1.037
  897SOL     OW 3589   3.981   1.789   6.809
  897SOL    HW1 3590   4.001   1.875   6.763
  897SOL    HW2 3591   3.967   1.717   6.741
  898SOL     OW 3592   3.772   6.238   2.873
  898SOL    HW1 3593   3.782   6.175   2.951
  898SOL    HW2 3594   3.676   6.257   2.857
  899SOL     OW 3595   0.321   6.643   0.108
  899SOL    HW1 3596   0.388   6.622   0.036
  899SOL    HW2 3597   0.284   6.734   0.094
  900SOL     OW 3598   5.509   0.498   0.211
  900SOL    HW1 3599   5.534   0.436   0.286
  900SOL    HW2 3600   5.548   0.464   0.125
  901SOL     OW 3601   1.777   0.822   3.531
  901SOL    HW1 3602   1.756   0.869   3.445
  901SOL    HW2 3603   1.768   0.886   3.607
  902SOL     OW 3604   1.324   2.335   1.421
  902SOL    HW1 3605   1.365   2.421   1.452
  902SOL    HW2 3606   1.224   2.340   1.431
  903SOL     OW 3607   1.012   3.279   6.790
  903SOL    HW1 3608   0.936   3.291   6.855
  903SOL    HW2 3609   1.095   3.256   6.840
  904SOL     OW 3610   1.791   1.524   2.474
  904SOL    HW1 3611   1.702   1.498   2.510
  904SOL    HW2 3612   1.841   1.443   2.445
  905SOL     OW 3613   5.337   3.294   6.110
  905SOL    HW1 3614   5.319   3.276   6.207
  905SOL    HW2 3615   5.310   3.214   6.056
  906SOL     OW 3616   0.241   1.902   6.416
  906SOL    HW1 3617   0.241   1.985   6.473
  906SOL    HW2 3618   0.161   1.847   6.438
  907SOL     OW 3619   5.515   3.543   0.740
  907SOL    HW1 3620   5.457   3.490   0.677
  907SOL    HW2 3621   5.474   3.542   0.831
  908SOL     OW 3622   2.926   4.890   2.969
  908SOL    HW1 3623   2.836   4.914   3.007
  908SOL    HW2 3624   2.998   4.933   3.024
  909SOL     OW 3625   3.977   6.563   1.413
  909SOL    HW1 3626   3.925   6.483   1.384
  909SOL    HW2 3627   4.037   6.592   1.339
  910SOL     OW 3628   3.622   1.742   1.194
  910SOL    HW1 3629   3.537   1.702   1.160
  910SOL    HW2 3630   3.606   1.781   1.285
  911SOL     OW 3631   1.331   6.600   6.697
  911SOL    HW1 3632   1.398   6.545   6.746
  911SOL    HW2 3633   1.312   6.558   6.608
  912SOL     OW 3634   5.951   1.355   3.053
  912SOL    HW1 3635   5.985   1.355   3.147
  912SOL    HW2 3636   5.983   1.437   3.006
  913SOL     OW 3637   3.614   0.724   3.381
  913SOL    HW1 3638   3.521   0.689   3.367
  913SOL    HW2 3639   3.617   0.776   3.466
  914SOL     OW 3640   2.249   0.043   6.124
  914SOL    HW1 3641   2.327   7.005   6.118
  914SOL    HW2 3642   2.266   0.123   6.066
  915SOL     OW 3643   6.191   3.494   0.000
  915SOL    HW1 3644   6.207   3.406   6.981
  915SOL    HW2 3645   6.188   3.566   6.955
  916SOL     OW 3646   1.479   3.382   2.703
  916SOL    HW1 3647   1.460   3.344   2.613
  916SOL    HW2 3648   1.521   3.313   2.761
  917SOL     OW 3649   0.667   6.715   1.544
  917SOL    HW1 3650   0.713   6.729   1.632
  917SOL    HW2 3651   0.642   6.618   1.535
  918SOL     OW 3652   4.027   0.783   1.315
  918SOL    HW1 3653   4.044   0.881   1.329
  918SOL    HW2 3654   4.111   0.739   1.281
  919SOL     OW 3655   6.685   0.000   2.711
  919SOL    HW1 3656   6.782   0.022   2.698
  919SOL    HW2 3657   6.645   6.999   2.623
  920SOL     OW 3658   2.263   4.197   2.198
  920SOL    HW1 3659   2.228   4.198   2.292
  920SOL    HW2 3660   2.312   4.283   2.181
  921SOL     OW 3661   3.845   5.387   4.487
  921SOL    HW1 3662   3.888   5.300   4.464
  921SOL    HW2 3663   3.894   5.461   4.441
  922SOL     OW 3664   3.099   3.180   4.422
  922SOL    HW1 3665   3.015   3.161   4.473
  922SOL    HW2 3666   3.087   3.263   4.368
  923SOL     OW 3667   2.060   3.584   6.346
  923SOL    HW1 3668   1.986   3.553   6.286
  923SOL    HW2 3669   2.064   3.684   6.345
  924SOL     OW 3670   6.501   3.575   2.060
  924SOL    HW1 3671   6.499   3.672   2.035
  924SOL    HW2 3672   6.547   3.523   1.989
  925SOL     OW 3673   0.002   2.008   6.711
  925SOL    HW1 3674   0.098   2.010   6.686
  925SOL    HW2 3675   7.003   1.919   6.750
  926SOL     OW 3676   6.844   1.231   1.398
  926SOL    HW1 3677   6.770   1.215   1.464
  926SOL    HW2 3678   6.810   1.290   1.324
  927SOL     OW 3679   5.607   3.629   3.263
  927SOL    HW1 3680   5.508   3.642   3.255
  927SOL    HW2 3681   5.648   3.634   3.172
  928SOL     OW 3682   2.488   5.935   0.511
  928SOL    HW1 3683   2.560   6.003   0.500
  928SOL    HW2 3684   2.529   5.844   0.517
  929SOL     OW 3685   0.637   0.748   6.439
  929SOL    HW1 3686   0.628   0.702   6.528
  929SOL    HW2 3687   0.549   0.748   6.393
  930SOL     OW 3688   5.542   6.711   6.301
  930SOL    HW1 3689   5.520   6.633   6.360
  930SOL    HW2 3690   5.633   6.745   6.325
  931SOL     OW 3691   0.030   0.798   5.017
  931SOL    HW1 3692   0.090   0.813   4.938
  931SOL    HW2 3693   7.006   0.883   5.038
  932SOL     OW 3694   3.063   0.941   3.317
  932SOL    HW1 3695   3.046   1.009   3.389
  932SOL    HW2 3696   3.153   0.900   3.332
  933SOL     OW 3697   1.806   5.507   3.373
  933SOL    HW1 3698   1.727   5.447   3.361
  933SOL    HW2 3699   1.851   5.486   3.460
  934SOL     OW 3700   2.454   5.985   0.190
  934SOL    HW1 3701   2.501   5.897   0.183
  934SOL    HW2 3702   2.389   5.982   0.266
  935SOL     OW 3703   5.023   4.024   4.343
  935SOL    HW1 3704   5.075   3.980   4.269
  935SOL    HW2 3705   4.987   3.953   4.404
  936SOL     OW 3706   6.928   0.216   5.670
  936SOL    HW1 3707   6.837   0.228   5.631
  936SOL    HW2 3708   6.992   0.188   5.599
  937SOL     OW 3709   5.654   1.513   6.333
  937SOL    HW1 3710   5.586   1.485   6.400
  937SOL    HW2 3711   5.742   1.473   6.356
  938SOL     OW 3712   5.717   4.429   6.284
  938SOL    HW1 3713   5.730   4.496   6.357
  938SOL    HW2 3714   5.799   4.373   6.275
  939SOL     OW 3715   0.715   6.637   3.632
  939SOL    HW1 3716   0.684   6.725   3.666
  939SOL    HW2 3717   0.793   6.605   3.686
  940SOL     OW 3718   0.247   4.192   1.021
  940SOL    HW1 3719   0.295   4.249   0.953
  940SOL    HW2 3720   0.203   4.251   1.089
  941SOL     OW 3721   5.554   1.923   0.166
  941SOL    HW1 3722   5.462   1.904   0.134
  941SOL    HW2 3723   5.606   1.967   0.093
  942SOL     OW 3724   5.951   6.827   2.350
  942SOL    HW1 3725   5.974   6.923   2.364
  942SOL    HW2 3726   5.905   6.791   2.431
  943SOL     OW 3727   1.384   4.463   2.990
  943SOL    HW1 3728   1.337   4.551   2.994
  943SOL    HW2 3729   1.324   4.391   3.025
  944SOL     OW 3730   0.176   5.495   5.343
  944SOL    HW1 3731   0.231   5.474   5.425
  944SOL    HW2 3732   0.178   5.417   5.281
  945SOL     OW 3733   0.830   4.552   6.039
  945SOL    HW1 3734   0.919   4.556   5.993
  945SOL    HW2 3735   0.757   4.569   5.972
  946SOL     OW 3736   4.991   4.280   5.588
  946SOL    HW1 3737   4.998   4.333   5.672
  946SOL    HW2 3738   4.930   4.328   5.524
  947SOL     OW 3739   3.506   2.886   3.181
  947SOL    HW1 3740   3.493   2.825   3.104
  947SOL    HW2 3741   3.558   2.967   3.151
  948SOL     OW 3742   5.418   0.943   3.112
  948SOL    HW1 3743   5.336   0.922   3.060
  948SOL    HW2 3744   5.414   1.038   3.143
  949SOL     OW 3745   2.574   5.724   0.195
  949SOL    HW1 3746   2.570   5.688   0.103
  949SOL    HW2 3747   2.540   5.656   0.260
  950SOL     OW 3748   6.057   5.941   2.212
  950SOL    HW1 3749   6.054   5.915   2.308
  950SOL    HW2 3750   6.152   5.946   2.182
  951SOL     OW 3751   1.864   0.061   4.246
  951SOL    HW1 3752   1.793   0.010   4.196
  951SOL    HW2 3753   1.831   0.154   4.264
  952SOL     OW 3754   4.747   2.524   3.322
  952SOL    HW1 3755   4.649   2.547   3.323
  952SOL    HW2 3756   4.799   2.602   3.289
  953SOL     OW 3757   5.714   5.803   4.904
  953SOL    HW1 3758   5.766   5.720   4.927
  953SOL    HW2 3759   5.684   5.797   4.809
  954SOL     OW 3760   3.324   5.682   2.411
  954SOL    HW1 3761   3.355   5.704   2.319
  954SOL    HW2 3762   3.353   5.590   2.435
  955SOL     OW 3763   1.231   4.107   1.002
  955SOL    HW1 3764   1.135   4.128   1.018
  955SOL    HW2 3765   1.287   4.184   1.035
  956SOL     OW 3766   6.232   0.459   1.144
  956SOL    HW1 3767   6.324   0.457   1.106
  956SOL    HW2 3768   6.172   0.399   1.092
  957SOL     OW 3769   5.355   2.407   2.258
  957SOL    HW1 3770   5.333   2.505   2.259
  957SOL    HW2 3771   5.427   2.389   2.324
  958SOL     OW 3772   4.155   0.416   1.633
  958SOL    HW1 3773   4.102   0.500   1.618
  958SOL    HW2 3774   4.245   0.426   1.590
  959SOL     OW 3775   3.435   6.606   4.597
  959SOL    HW1 3776   3.459   6.548   4.520
  959SOL    HW2 3777   3.469   6.565   4.682
  960SOL     OW 3778   0.863   0.402   1.606
  960SOL    HW1 3779   0.803   0.380   1.683
  960SOL    HW2 3780   0.929   0.328   1.593
  961SOL     OW 3781   4.280   6.207   3.567
  961SOL    HW1 3782   4.336   6.140   3.518
  961SOL    HW2 3783   4.333   6.292   3.579
  962SOL     OW 3784   6.940   0.543   5.011
  962SOL    HW1 3785   6.939   0.643   5.006
  962SOL    HW2 3786   6.919   0.514   5.104
  963SOL     OW 3787   5.247   0.900   6.722
  963SOL    HW1 3788   5.261   0.807   6.690
  963SOL    HW2 3789   5.268   0.905   6.820
  964SOL     OW 3790   5.064   4.918   6.291
  964SOL    HW1 3791   5.091   4.963   6.376
  964SOL    HW2 3792   5.144   4.874   6.249
  965SOL     OW 3793   6.209   1.370   2.104
  965SOL    HW1 3794   6.232   1.281   2.144
  965SOL    HW2 3795   6.282   1.436   2.123
  966SOL     OW 3796   5.658   2.220   2.552
  966SOL    HW1 3797   5.694   2.201   2.461
  966SOL    HW2 3798   5.726   2.193   2.621
  967SOL     OW 3799   3.119   4.607   0.793
  967SOL    HW1 3800   3.179   4.687   0.787
  967SOL    HW2 3801   3.173   4.526   0.815
  968SOL     OW 3802   4.425   0.567   1.678
  968SOL    HW1 3803   4.369   0.622   1.741
  968SOL    HW2 3804   4.386   0.572   1.586
  969SOL     OW 3805   2.327   4.191   5.645
  969SOL    HW1 3806   2.383   4.273   5.651
  969SOL    HW2 3807   2.309   4.170   5.549
  970SOL     OW 3808   5.201   0.510   6.406
  970SOL    HW1 3809   5.108   0.472   6.415
  970SOL    HW2 3810   5.213   0.550   6.316
  971SOL     OW 3811   6.960   3.086   2.950
  971SOL    HW1 3812   6.931   3.138   2.869
  971SOL    HW2 3813   0.031   3.058   2.939
  972SOL     OW 3814   6.014   1.704   1.484
  972SOL    HW1 3815   6.098   1.726   1.533
  972SOL    HW2 3816   6.034   1.648   1.405
  973SOL     OW 3817   1.028   5.289   6.887
  973SOL    HW1 3818   1.020   5.382   6.852
  973SOL    HW2 3819   1.021   5.290   6.987
  974SOL     OW 3820   6.336   5.766   1.587
  974SOL    HW1 3821   6.272   5.811   1.650
  974SOL    HW2 3822   6.402   5.712   1.639
  975SOL     OW 3823   2.461   0.432   0.477
  975SOL    HW1 3824   2.460   0.524   0.438
  975SOL    HW2 3825   2.555   0.408   0.502
  976SOL     OW 3826   0.118   3.535   1.388
  976SOL    HW1 3827   0.066   3.483   1.320
  976SOL    HW2 3828   0.216   3.529   1.367
  977SOL     OW 3829   0.401   0.403   2.195
  977SOL    HW1 3830   0.448   0.326   2.239
  977SOL    HW2 3831   0.302   0.389   2.201
  978SOL     OW 3832   5.422   2.003   0.389
  978SOL    HW1 3833   5.471   1.979   0.305
  978SOL    HW2 3834   5.487   2.015   0.464
  979SOL     OW 3835   1.219   3.492   0.066
  979SOL    HW1 3836   1.257   3.538   7.009
  979SOL    HW2 3837   1.258   3.534   0.148
  980SOL     OW 3838   5.333   2.093   4.017
  980SOL    HW1 3839   5.386   2.097   3.932
  980SOL    HW2 3840   5.277   2.010   4.018
  981SOL     OW 3841   0.416   0.917   4.897
  981SOL    HW1 3842   0.447   0.824   4.875
  981SOL    HW2 3843   0.323   0.930   4.862
  982SOL     OW 3844   0.894   1.065   4.777
  982SOL    HW1 3845   0.935   1.021   4.857
  982SOL    HW2 3846   0.906   1.164   4.783
  983SOL     OW 3847   6.602   2.953   3.197
  983SOL    HW1 3848   6.587   2.911   3.286
  983SOL    HW2 3849   6.676   3.019   3.203
  984SOL     OW 3850   2.456   2.535   3.729
  984SOL    HW1 3851   2.381   2.474   3.755
  984SOL    HW2 3852   2.423   2.629   3.725
  985SOL     OW 3853   6.579   3.702   4.571
  985SOL    HW1 3854   6.547   3.703   4.476
  985SOL    HW2 3855   6.531   3.630   4.621
  986SOL     OW 3856   4.739   4.405   1.219
  986SOL    HW1 3857   4.732   4.356   1.306
  986SOL    HW2 3858   4.723   4.502   1.234
  987SOL     OW 3859   4.563   6.744   2.475
  987SOL    HW1 3860   4.495   6.689   2.524
  987SOL    HW2 3861   4.518   6.822   2.433
  988SOL     OW 3862   3.149   4.150   1.308
  988SOL    HW1 3863   3.115   4.207   1.383
  988SOL    HW2 3864   3.123   4.191   1.221
  989SOL     OW 3865   6.710   1.648   6.549
  989SOL    HW1 3866   6.657   1.715   6.497
  989SOL    HW2 3867   6.681   1.649   6.644
  990SOL     OW 3868   3.566   0.568   2.190
  990SOL    HW1 3869   3.546   0.592   2.285
  990SOL    HW2 3870   3.641   0.501   2.189
  991SOL     OW 3871   0.460   3.603   3.511
  991SOL    HW1 3872   0.433   3.542   3.437
  991SOL    HW2 3873   0.553   3.583   3.540
  992SOL     OW 3874   0.469   3.441   1.968
  992SOL    HW1 3875   0.508   3.533   1.973
  992SOL    HW2 3876   0.375   3.447   1.934
  993SOL     OW 3877   0.138   4.597   0.545
  993SOL    HW1 3878   0.124   4.695   0.531
  993SOL    HW2 3879   0.057   4.547   0.512
  994SOL     OW 3880   4.340   5.314   2.131
  994SOL    HW1 3881   4.398   5.332   2.210
  994SOL    HW2 3882   4.333   5.215   2.116
  995SOL     OW 3883   4.004   2.954   6.241
  995SOL    HW1 3884   4.054   2.986   6.161
  995SOL    HW2 3885   3.906   2.963   6.225
  996SOL     OW 3886   3.608   4.973   4.733
  996SOL    HW1 3887   3.517   4.958   4.770
  996SOL    HW2 3888   3.673   4.986   4.808
  997SOL     OW 3889   1.088   6.731   3.183
  997SOL    HW1 3890   0.993   6.707   3.163
  997SOL    HW2 3891   1.149   6.679   3.123
  998SOL     OW 3892   6.370   0.271   5.963
  998SOL    HW1 3893   6.272   0.256   5.961
  998SOL    HW2 3894   6.415   0.214   5.895
  999SOL     OW 3895   4.870   3.845   2.282
  999SOL    HW1 3896   4.854   3.841   2.380
  999SOL    HW2 3897   4.968   3.851   2.264
 1000SOL     OW 3898   4.279   1.771   1.380
 1000SOL    HW1 3899   4.203   1.716   1.413
 1000SOL    HW2 3900   4.243   1.853   1.334
 1001SOL     OW 3901   4.092   6.202   1.923
 1001SOL    HW1 3902   4.191   6.218   1.925
 1001SOL    HW2 3903   4.049   6.251   1.999
 1002SOL     OW 3904   5.414   2.125   1.210
 1002SOL    HW1 3905   5.479   2.152   1.282
 1002SOL    HW2 3906   5.369   2.040   1.236
 1003SOL     OW 3907   2.205   5.230   3.377
 1003SOL    HW1 3908   2.161   5.317   3.354
 1003SOL    HW2 3909   2.180   5.161   3.309
 1004SOL     OW 3910   0.550   1.203   2.269
 1004SOL    HW1 3911   0.451   1.189   2.282
 1004SOL    HW2 3912   0.564   1.281   2.207
 1005SOL     OW 3913   1.689   2.898   4.122
 1005SOL    HW1 3914   1.612   2.946   4.163
 1005SOL    HW2 3915   1.681   2.901   4.022
 1006SOL     OW 3916   1.371   3.969   0.305
 1006SOL    HW1 3917   1.427   3.887   0.292
 1006SOL    HW2 3918   1.427   4.041   0.344
 1007SOL     OW 3919   4.294   0.897   5.862
 1007SOL    HW1 3920   4.329   0.990   5.872
 1007SOL    HW2 3921   4.247   0.888   5.774
 1008SOL     OW 3922   0.487   2.349   5.449
 1008SOL    HW1 3923   0.551   2.317   5.379
 1008SOL    HW2 3924   0.523   2.328   5.540
 1009SOL     OW 3925   6.602   5.261   5.751
 1009SOL    HW1 3926   6.559   5.288   5.837
 1009SOL    HW2 3927   6.699   5.243   5.767
 1010SOL     OW 3928   2.746   3.159   1.411
 1010SOL    HW1 3929   2.756   3.072   1.364
 1010SOL    HW2 3930   2.658   3.162   1.458
 1011SOL     OW 3931   1.177   5.230   3.594
 1011SOL    HW1 3932   1.177   5.137   3.557
 1011SOL    HW2 3933   1.213   5.293   3.524
 1012SOL     OW 3934   0.064   6.316   2.057
 1012SOL    HW1 3935   0.008   6.380   2.005
 1012SOL    HW2 3936   0.121   6.366   2.121
 1013SOL     OW 3937   0.369   0.544   6.089
 1013SOL    HW1 3938   0.284   0.494   6.072
 1013SOL    HW2 3939   0.377   0.619   6.024
 1014SOL     OW 3940   0.495   3.993   4.687
 1014SOL    HW1 3941   0.421   4.025   4.627
 1014SOL    HW2 3942   0.583   4.012   4.644
 1015SOL     OW 3943   2.078   0.322   5.800
 1015SOL    HW1 3944   2.015   0.266   5.854
 1015SOL    HW2 3945   2.171   0.312   5.834
 1016SOL     OW 3946   4.073   4.321   0.614
 1016SOL    HW1 3947   4.094   4.413   0.647
 1016SOL    HW2 3948   4.045   4.326   0.518
 1017SOL     OW 3949   4.023   2.315   0.985
 1017SOL    HW1 3950   3.934   2.351   1.012
 1017SOL    HW2 3951   4.016   2.278   0.892
 1018SOL     OW 3952   0.834   4.375   4.369
 1018SOL    HW1 3953   0.771   4.391   4.446
 1018SOL    HW2 3954   0.803   4.426   4.289
 1019SOL     OW 3955   0.163   5.695   1.363
 1019SOL    HW1 3956   0.082   5.753   1.356
 1019SOL    HW2 3957   0.237   5.747   1.405
 1020SOL     OW 3958   6.420   1.205   1.688
 1020SOL    HW1 3959   6.322   1.184   1.695
 1020SOL    HW2 3960   6.432   1.291   1.639
 1021SOL     OW 3961   5.475   6.787   2.116
 1021SOL    HW1 3962   5.401   6.848   2.090
 1021SOL    HW2 3963   5.542   6.838   2.171
 1022SOL     OW 3964   3.064   5.054   5.517
 1022SOL    HW1 3965   3.085   4.968   5.470
 1022SOL    HW2 3966   2.981   5.094   5.478
 1023SOL     OW 3967   0.315   1.044   3.003
 1023SOL    HW1 3968   0.308   1.110   3.078
 1023SOL    HW2 3969   0.399   1.060   2.952
 1024SOL     OW 3970   0.449   1.826   3.566
 1024SOL    HW1 3971   0.519   1.883   3.609
 1024SOL    HW2 3972   0.359   1.866   3.580
 1025SOL     OW 3973   3.680   3.664   0.640
 1025SOL    HW1 3974   3.728   3.612   0.710
 1025SOL    HW2 3975   3.615   3.727   0.683
 1026SOL     OW 3976   2.281   3.013   1.775
 1026SOL    HW1 3977   2.359   2.959   1.741
 1026SOL    HW2 3978   2.290   3.107   1.744
 1027SOL     OW 3979   2.437   6.854   2.445
 1027SOL    HW1 3980   2.401   6.898   2.527
 1027SOL    HW2 3981   2.421   6.913   2.366
 1028SOL     OW 3982   1.620   0.050   2.749
 1028SOL    HW1 3983   1.630   6.991   2.696
 1028SOL    HW2 3984   1.528   0.054   2.789
 1029SOL     OW 3985   1.216   1.728   6.045
 1029SOL    HW1 3986   1.232   1.743   6.142
 1029SOL    HW2 3987   1.303   1.729   5.996
 1030SOL     OW 3988   3.278   3.440   1.598
 1030SOL    HW1 3989   3.223   3.442   1.514
 1030SOL    HW2 3990   3.288   3.346   1.630
 1031SOL     OW 3991   5.013   3.215   1.817
 1031SOL    HW1 3992   5.004   3.167   1.729
 1031SOL    HW2 3993   4.956   3.297   1.816
 1032SOL     OW 3994   1.466   1.146   5.226
 1032SOL    HW1 3995   1.381   1.192   5.252
 1032SOL    HW2 3996   1.445   1.059   5.181
 1033SOL     OW 3997   1.524   5.415   2.002
 1033SOL    HW1 3998   1.491   5.328   2.040
 1033SOL    HW2 3999   1.623   5.419   2.010
 1034SOL     OW 4000   1.578   5.470   4.457
 1034SOL    HW1 4001   1.640   5.540   4.493
 1034SOL    HW2 4002   1.484   5.501   4.466
 1035SOL     OW 4003   6.975   2.221   6.892
 1035SOL    HW1 4004   6.974   2.137   6.837
 1035SOL    HW2 4005   7.005   2.200   6.985
 1036SOL     OW 4006   4.267   1.136   1.804
 1036SOL    HW1 4007   4.321   1.095   1.878
 1036SOL    HW2 4008   4.213   1.065   1.759
 1037SOL     OW 4009   1.651   1.197   2.662
 1037SOL    HW1 4010   1.624   1.258   2.737
 1037SOL    HW2 4011   1.748   1.175   2.670
 1038SOL     OW 4012   1.991   1.478   5.212
 1038SOL    HW1 4013   1.958   1.517   5.126
 1038SOL    HW2 4014   1.966   1.538   5.288
 1039SOL     OW 4015   3.540   4.066   4.296
 1039SOL    HW1 4016   3.583   4.117   4.370
 1039SOL    HW2 4017   3.610   4.036   4.231
 1040SOL     OW 4018   5.091   0.902   2.087
 1040SOL    HW1 4019   5.101   0.969   2.013
 1040SOL    HW2 4020   5.017   0.840   2.066
 1041SOL     OW 4021   6.607   5.948   3.228
 1041SOL    HW1 4022   6.519   5.903   3.221
 1041SOL    HW2 4023   6.669   5.912   3.158
 1042SOL     OW 4024   4.004   5.392   2.798
 1042SOL    HW1 4025   4.016   5.459   2.725
 1042SOL    HW2 4026   4.093   5.357   2.827
 1043SOL     OW 4027   3.754   2.155   3.189
 1043SOL    HW1 4028   3.665   2.137   3.148
 1043SOL    HW2 4029   3.744   2.167   3.287
 1044SOL     OW 4030   5.972   5.094   2.320
 1044SOL    HW1 4031   6.042   5.103   2.249
 1044SOL    HW2 4032   5.984   5.167   2.388
 1045SOL     OW 4033   4.260   0.617   2.799
 1045SOL    HW1 4034   4.256   0.637   2.897
 1045SOL    HW2 4035   4.167   0.607   2.764
 1046SOL     OW 4036   1.709   1.428   0.106
 1046SOL    HW1 4037   1.752   1.447   0.195
 1046SOL    HW2 4038   1.759   1.477   0.035
 1047SOL     OW 4039   2.641   0.516   4.134
 1047SOL    HW1 4040   2.719   0.565   4.173
 1047SOL    HW2 4041   2.575   0.582   4.098
 1048SOL     OW 4042   3.393   6.439   1.898
 1048SOL    HW1 4043   3.491   6.453   1.890
 1048SOL    HW2 4044   3.349   6.465   1.812
 1049SOL     OW 4045   6.243   6.925   3.701
 1049SOL    HW1 4046   6.147   6.929   3.728
 1049SOL    HW2 4047   6.270   6.830   3.687
 1050SOL     OW 4048   3.735   5.183   2.240
 1050SOL    HW1 4049   3.708   5.092   2.209
 1050SOL    HW2 4050   3.811   5.176   2.304
 1051SOL     OW 4051   0.599   5.454   0.679
 1051SOL    HW1 4052   0.500   5.436   0.683
 1051SOL    HW2 4053   0.631   5.440   0.585
 1052SOL     OW 4054   4.612   0.730   5.362
 1052SOL    HW1 4055   4.642   0.742   5.268
 1052SOL    HW2 4056   4.532   0.671   5.365
 1053SOL     OW 4057   5.491   3.716   2.448
 1053SOL    HW1 4058   5.402   3.671   2.436
 1053SOL    HW2 4059   5.550   3.657   2.503
 1054SOL     OW 4060   2.996   3.541   1.005
 1054SOL    HW1 4061   3.053   3.522   1.085
 1054SOL    HW2 4062   2.900   3.525   1.027
 1055SOL     OW 4063   4.296   6.355   5.380
 1055SOL    HW1 4064   4.382   6.392   5.415
 1055SOL    HW2 4065   4.219   6.409   5.414
 1056SOL     OW 4066   1.405   3.339   0.560
 1056SOL    HW1 4067   1.319   3.303   0.525
 1056SOL    HW2 4068   1.480   3.278   0.533
 1057SOL     OW 4069   3.418   2.951   1.222
 1057SOL    HW1 4070   3.377   2.957   1.313
 1057SOL    HW2 4071   3.350   2.976   1.153
 1058SOL     OW 4072   5.199   2.209   4.232
 1058SOL    HW1 4073   5.263   2.140   4.198
 1058SOL    HW2 4074   5.153   2.252   4.154
 1059SOL     OW 4075   2.185   6.968   1.950
 1059SOL    HW1 4076   2.156   6.967   2.045
 1059SOL    HW2 4077   2.277   6.929   1.943
 1060SOL     OW 4078   0.222   4.484   4.268
 1060SOL    HW1 4079   0.260   4.528   4.186
 1060SOL    HW2 4080   0.152   4.542   4.307
 1061SOL     OW 4081   6.812   3.351   6.137
 1061SOL    HW1 4082   6.903   3.335   6.098
 1061SOL    HW2 4083   6.760   3.266   6.137
 1062SOL     OW 4084   4.926   5.378   6.004
 1062SOL    HW1 4085   4.911   5.440   6.082
 1062SOL    HW2 4086   4.990   5.306   6.031
 1063SOL     OW 4087   0.383   6.291   0.478
 1063SOL    HW1 4088   0.423   6.200   0.470
 1063SOL    HW2 4089   0.298   6.285   0.530
 1064SOL     OW 4090   1.654   4.101   2.365
 1064SOL    HW1 4091   1.636   4.182   2.420
 1064SOL    HW2 4092   1.711   4.125   2.286
 1065SOL     OW 4093   4.551   0.968   2.640
 1065SOL    HW1 4094   4.491   0.903   2.593
 1065SOL    HW2 4095   4.559   1.051   2.587
 1066SOL     OW 4096   4.434   6.572   2.679
 1066SOL    HW1 4097   4.439   6.547   2.775
 1066SOL    HW2 4098   4.357   6.525   2.635
 1067SOL     OW 4099   1.808   2.348   0.199
 1067SOL    HW1 4100   1.743   2.412   0.157
 1067SOL    HW2 4101   1.758   2.284   0.258
 1068SOL     OW 4102   6.663   4.408   1.397
 1068SOL    HW1 4103   6.680   4.377   1.490
 1068SOL    HW2 4104   6.718   4.355   1.333
 1069SOL     OW 4105   5.042   6.173   0.636
 1069SOL    HW1 4106   5.066   6.134   0.725
 1069SOL    HW2 4107   5.016   6.268   0.647
 1070SOL     OW 4108   1.473   0.445   1.840
 1070SOL    HW1 4109   1.499   0.478   1.749
 1070SOL    HW2 4110   1.534   0.370   1.866
 1071SOL     OW 4111   2.428   1.765   3.750
 1071SOL    HW1 4112   2.522   1.730   3.745
 1071SOL    HW2 4113   2.425   1.857   3.710
 1072SOL     OW 4114   2.623   1.173   0.938
 1072SOL    HW1 4115   2.642   1.188   0.841
 1072SOL    HW2 4116   2.619   1.074   0.956
 1073SOL     OW 4117   4.676   0.992   3.366
 1073SOL    HW1 4118   4.702   0.938   3.285
 1073SOL    HW2 4119   4.726   0.959   3.446
 1074SOL     OW 4120   2.570   5.251   1.924
 1074SOL    HW1 4121   2.519   5.266   1.839
 1074SOL    HW2 4122   2.556   5.329   1.985
 1075SOL     OW 4123   6.116   0.544   3.240
 1075SOL    HW1 4124   6.033   0.495   3.270
 1075SOL    HW2 4125   6.195   0.510   3.290
 1076SOL     OW 4126   0.845   2.139   5.784
 1076SOL    HW1 4127   0.813   2.099   5.698
 1076SOL    HW2 4128   0.767   2.149   5.847
 1077SOL     OW 4129   6.549   6.545   0.967
 1077SOL    HW1 4130   6.644   6.548   0.937
 1077SOL    HW2 4131   6.531   6.620   1.031
 1078SOL     OW 4132   6.683   0.289   3.109
 1078SOL    HW1 4133   6.600   0.248   3.145
 1078SOL    HW2 4134   6.733   0.335   3.183
 1079SOL     OW 4135   1.515   5.705   2.397
 1079SOL    HW1 4136   1.484   5.781   2.455
 1079SOL    HW2 4137   1.445   5.684   2.329
 1080SOL     OW 4138   2.340   5.374   3.808
 1080SOL    HW1 4139   2.407   5.418   3.749
 1080SOL    HW2 4140   2.369   5.281   3.829
 1081SOL     OW 4141   6.662   5.158   5.508
 1081SOL    HW1 4142   6.641   5.178   5.604
 1081SOL    HW2 4143   6.692   5.242   5.463
 1082SOL     OW 4144   6.047   1.863   5.808
 1082SOL    HW1 4145   6.139   1.856   5.770
 1082SOL    HW2 4146   6.042   1.943   5.869
 1083SOL     OW 4147   4.967   3.610   0.624
 1083SOL    HW1 4148   4.960   3.534   0.559
 1083SOL    HW2 4149   4.881   3.620   0.673
 1084SOL     OW 4150   6.591   6.657   6.307
 1084SOL    HW1 4151   6.556   6.564   6.292
 1084SOL    HW2 4152   6.555   6.693   6.393
 1085SOL     OW 4153   1.792   3.903   4.629
 1085SOL    HW1 4154   1.764   3.833   4.563
 1085SOL    HW2 4155   1.861   3.865   4.691
 1086SOL     OW 4156   6.836   4.754   0.463
 1086SOL    HW1 4157   6.737   4.748   0.476
 1086SOL    HW2 4158   6.872   4.663   0.444
 1087SOL     OW 4159   0.006   1.899   5.020
 1087SOL    HW1 4160   0.041   1.859   5.105
 1087SOL    HW2 4161   6.945   1.947   5.040
 1088SOL     OW 4162   0.029   4.355   2.733
 1088SOL    HW1 4163   0.027   4.390   2.827
 1088SOL    HW2 4164   0.042   4.255   2.735
 1089SOL     OW 4165   6.588   5.594   4.885
 1089SOL    HW1 4166   6.672   5.544   4.862
 1089SOL    HW2 4167   6.526   5.534   4.935
 1090SOL     OW 4168   3.719   1.958   2.856
 1090SOL    HW1 4169   3.702   1.924   2.949
 1090SOL    HW2 4170   3.809   1.926   2.825
 1091SOL     OW 4171   2.245   2.907   4.046
 1091SOL    HW1 4172   2.330   2.856   4.055
 1091SOL    HW2 4173   2.260   2.985   3.985
 1092SOL     OW 4174   1.337   4.750   0.592
 1092SOL    HW1 4175   1.404   4.676   0.594
 1092SOL    HW2 4176   1.310   4.774   0.685
 1093SOL     OW 4177   2.759   6.585   1.702
 1093SOL    HW1 4178   2.793   6.527   1.628
 1093SOL    HW2 4179   2.823   6.582   1.778
 1094SOL     OW 4180   0.601   6.423   2.552
 1094SOL    HW1 4181   0.661   6.481   2.607
 1094SOL    HW2 4182   0.620   6.438   2.455
 1095SOL     OW 4183   0.330   2.706   6.249
 1095SOL    HW1 4184   0.268   2.715   6.171
 1095SOL    HW2 4185   0.421   2.740   6.223
 1096SOL     OW 4186   3.517   4.492   1.437
 1096SOL    HW1 4187   3.420   4.511   1.451
 1096SOL    HW2 4188   3.560   4.473   1.526
 1097SOL     OW 4189   2.131   4.381   3.882
 1097SOL    HW1 4190   2.136   4.480   3.897
 1097SOL    HW2 4191   2.176   4.333   3.957
 1098SOL     OW 4192   5.592   3.354   6.195
 1098SOL    HW1 4193   5.504   3.349   6.148
 1098SOL    HW2 4194   5.630   3.262   6.205
 1099SOL     OW 4195   4.360   1.214   6.409
 1099SOL    HW1 4196   4.383   1.311   6.413
 1099SOL    HW2 4197   4.373   1.173   6.500
 1100SOL     OW 4198   4.336   1.480   4.547
 1100SOL    HW1 4199   4.428   1.442   4.558
 1100SOL    HW2 4200   4.319   1.549   4.618
 1101SOL     OW 4201   5.642   4.030   5.533
 1101SOL    HW1 4202   5.572   3.983   5.586
 1101SOL    HW2 4203   5.651   3.986   5.444
 1102SOL     OW 4204   1.927   0.944   4.928
 1102SOL    HW1 4205   1.934   0.866   4.865
 1102SOL    HW2 4206   1.839   0.990   4.913
 1103SOL     OW 4207   3.206   1.611   0.562
 1103SOL    HW1 4208   3.146   1.546   0.609
 1103SOL    HW2 4209   3.156   1.695   0.543
 1104SOL     OW 4210   1.860   3.566   4.051
 1104SOL    HW1 4211   1.862   3.514   4.137
 1104SOL    HW2 4212   1.884   3.505   3.975
 1105SOL     OW 4213   5.718   2.983   4.638
 1105SOL    HW1 4214   5.633   3.021   4.674
 1105SOL    HW2 4215   5.745   2.905   4.695
 1106SOL     OW 4216   1.081   2.277   1.542
 1106SOL    HW1 4217   1.100   2.311   1.635
 1106SOL    HW2 4218   1.088   2.178   1.541
 1107SOL     OW 4219   1.391   0.062   6.946
 1107SOL    HW1 4220   1.407   0.159   6.927
 1107SOL    HW2 4221   1.301   0.051   6.988
 1108SOL     OW 4222   3.352   6.891   5.441
 1108SOL    HW1 4223   3.435   6.860   5.396
 1108SOL    HW2 4224   3.316   6.971   5.394
 1109SOL     OW 4225   5.755   0.939   4.484
 1109SOL    HW1 4226   5.792   0.896   4.567
 1109SOL    HW2 4227   5.823   0.935   4.411
 1110SOL     OW 4228   4.721   2.302   2.775
 1110SOL    HW1 4229   4.720   2.270   2.869
 1110SOL    HW2 4230   4.689   2.397   2.772
 1111SOL     OW 4231   5.667   5.921   6.597
 1111SOL    HW1 4232   5.588   5.960   6.644
 1111SOL    HW2 4233   5.751   5.959   6.636
 1112SOL     OW 4234   5.776   1.051   2.665
 1112SOL    HW1 4235   5.722   0.998   2.731
 1112SOL    HW2 4236   5.835   1.115   2.715
 1113SOL     OW 4237   5.686   4.327   1.466
 1113SOL    HW1 4238   5.612   4.263   1.482
 1113SOL    HW2 4239   5.713   4.370   1.552
 1114SOL     OW 4240   2.388   1.173   6.406
 1114SOL    HW1 4241   2.367   1.216   6.318
 1114SOL    HW2 4242   2.422   1.241   6.470
 1115SOL     OW 4243   3.598   3.774   5.673
 1115SOL    HW1 4244   3.678   3.780   5.732
 1115SOL    HW2 4245   3.628   3.772   5.577
 1116SOL     OW 4246   5.005   6.759   6.539
 1116SOL    HW1 4247   5.029   6.832   6.474
 1116SOL    HW2 4248   5.011   6.795   6.632
 1117SOL     OW 4249   0.972   2.061   2.048
 1117SOL    HW1 4250   0.909   2.059   1.970
 1117SOL    HW2 4251   1.065   2.041   2.016
 1118SOL     OW 4252   2.363   5.186   0.123
 1118SOL    HW1 4253   2.265   5.201   0.137
 1118SOL    HW2 4254   2.404   5.150   0.206
 1119SOL     OW 4255   4.226   4.339   1.647
 1119SOL    HW1 4256   4.282   4.268   1.690
 1119SOL    HW2 4257   4.285   4.411   1.612
 1120SOL     OW 4258   5.606   5.690   0.983
 1120SOL    HW1 4259   5.641   5.610   0.934
 1120SOL    HW2 4260   5.595   5.766   0.920
 1121SOL     OW 4261   0.290   4.089   4.534
 1121SOL    HW1 4262   0.314   4.186   4.535
 1121SOL    HW2 4263   0.230   4.070   4.457
 1122SOL     OW 4264   5.431   2.983   2.410
 1122SOL    HW1 4265   5.453   2.916   2.340
 1122SOL    HW2 4266   5.332   2.998   2.413
 1123SOL     OW 4267   5.117   2.201   3.415
 1123SOL    HW1 4268   5.210   2.232   3.399
 1123SOL    HW2 4269   5.053   2.276   3.398
 1124SOL     OW 4270   0.109   3.947   5.235
 1124SOL    HW1 4271   0.080   3.958   5.330
 1124SOL    HW2 4272   0.126   3.851   5.215
 1125SOL     OW 4273   1.520   2.369   3.927
 1125SOL    HW1 4274   1.601   2.426   3.915
 1125SOL    HW2 4275   1.443   2.426   3.957
 1126SOL     OW 4276   6.339   5.276   6.250
 1126SOL    HW1 4277   6.396   5.331   6.189
 1126SOL    HW2 4278   6.390   5.195   6.278
 1127SOL     OW 4279   5.990   6.067   4.856
 1127SOL    HW1 4280   5.943   6.028   4.935
 1127SOL    HW2 4281   6.048   6.143   4.886
 1128SOL     OW 4282   6.081   1.227   4.556
 1128SOL    HW1 4283   6.049   1.212   4.462
 1128SOL    HW2 4284   6.174   1.192   4.565
 1129SOL     OW 4285   1.928   6.587   0.948
 1129SOL    HW1 4286   1.920   6.626   1.040
 1129SOL    HW2 4287   1.836   6.572   0.911
 1130SOL     OW 4288   2.380   4.997   1.155
 1130SOL    HW1 4289   2.298   4.960   1.111
 1130SOL    HW2 4290   2.448   5.020   1.085
 1131SOL     OW 4291   1.881   6.917   5.060
 1131SOL    HW1 4292   1.945   6.911   5.137
 1131SOL    HW2 4293   1.902   6.846   4.993
 1132SOL     OW 4294   4.460   0.065   2.961
 1132SOL    HW1 4295   4.433   0.145   3.015
 1132SOL    HW2 4296   4.468   0.091   2.864
 1133SOL     OW 4297   1.956   0.963   0.486
 1133SOL    HW1 4298   2.011   0.891   0.529
 1133SOL    HW2 4299   1.967   0.957   0.387
 1134SOL     OW 4300   4.840   0.127   2.841
 1134SOL    HW1 4301   4.906   0.202   2.852
 1134SOL    HW2 4302   4.831   0.078   2.927
 1135SOL     OW 4303   1.977   6.469   4.023
 1135SOL    HW1 4304   2.034   6.493   3.944
 1135SOL    HW2 4305   1.989   6.372   4.045
 1136SOL     OW 4306   4.233   4.721   2.742
 1136SOL    HW1 4307   4.232   4.723   2.842
 1136SOL    HW2 4308   4.140   4.711   2.708
 1137SOL     OW 4309   1.343   6.683   0.109
 1137SOL    HW1 4310   1.294   6.675   0.195
 1137SOL    HW2 4311   1.295   6.747   0.049
 1138SOL     OW 4312   0.147   1.508   5.683
 1138SOL    HW1 4313   0.127   1.417   5.646
 1138SOL    HW2 4314   0.238   1.537   5.653
 1139SOL     OW 4315   2.567   5.083   3.400
 1139SOL    HW1 4316   2.522   5.023   3.334
 1139SOL    HW2 4317   2.515   5.168   3.408
 1140SOL     OW 4318   2.734   0.416   2.070
 1140SOL    HW1 4319   2.712   0.351   2.143
 1140SOL    HW2 4320   2.795   0.486   2.106
 1141SOL     OW 4321   0.402   6.409   0.214
 1141SOL    HW1 4322   0.365   6.502   0.206
 1141SOL    HW2 4323   0.399   6.380   0.310
 1142SOL     OW 4324   3.347   0.351   4.066
 1142SOL    HW1 4325   3.419   0.282   4.074
 1142SOL    HW2 4326   3.286   0.346   4.145
 1143SOL     OW 4327   2.004   2.790   2.787
 1143SOL    HW1 4328   2.072   2.843   2.838
 1143SOL    HW2 4329   2.037   2.696   2.776
 1144SOL     OW 4330   5.645   4.666   3.468
 1144SOL    HW1 4331   5.667   4.617   3.553
 1144SOL    HW2 4332   5.687   4.757   3.471
 1145SOL     OW 4333   0.026   3.079   0.587
 1145SOL    HW1 4334   0.055   2.997   0.538
 1145SOL    HW2 4335   0.066   3.160   0.543
 1146SOL     OW 4336   0.520   1.718   2.042
 1146SOL    HW1 4337   0.539   1.676   1.953
 1146SOL    HW2 4338   0.484   1.649   2.105
 1147SOL     OW 4339   3.265   5.822   1.480
 1147SOL    HW1 4340   3.232   5.794   1.570
 1147SOL    HW2 4341   3.307   5.913   1.487
 1148SOL     OW 4342   4.527   6.081   0.678
 1148SOL    HW1 4343   4.585   6.133   0.740
 1148SOL    HW2 4344   4.580   6.007   0.636
 1149SOL     OW 4345   5.147   2.249   2.184
 1149SOL    HW1 4346   5.201   2.328   2.214
 1149SOL    HW2 4347   5.065   2.281   2.137
 1150SOL     OW 4348   0.927   4.530   0.137
 1150SOL    HW1 4349   0.916   4.441   0.093
 1150SOL    HW2 4350   0.970   4.594   0.073
 1151SOL     OW 4351   5.401   4.501   4.863
 1151SOL    HW1 4352   5.370   4.436   4.933
 1151SOL    HW2 4353   5.414   4.451   4.777
 1152SOL     OW 4354   4.754   6.074   6.352
 1152SOL    HW1 4355   4.776   5.978   6.365
 1152SOL    HW2 4356   4.690   6.104   6.423
 1153SOL     OW 4357   6.717   6.861   1.866
 1153SOL    HW1 4358   6.618   6.853   1.858
 1153SOL    HW2 4359   6.741   6.950   1.903
 1154SOL     OW 4360   0.441   4.888   0.577
 1154SOL    HW1 4361   0.417   4.853   0.486
 1154SOL    HW2 4362   0.395   4.975   0.592
 1155SOL     OW 4363   3.134   5.252   5.151
 1155SOL    HW1 4364   3.191   5.282   5.228
 1155SOL    HW2 4365   3.047   5.301   5.153
 1156SOL     OW 4366   4.411   1.832   5.254
 1156SOL    HW1 4367   4.466   1.915   5.248
 1156SOL    HW2 4368   4.468   1.753   5.236
 1157SOL     OW 4369   5.364   1.170   6.011
 1157SOL    HW1 4370   5.404   1.136   6.096
 1157SOL    HW2 4371   5.436   1.205   5.952
 1158SOL     OW 4372   6.810   5.183   5.036
 1158SOL    HW1 4373   6.804   5.086   5.059
 1158SOL    HW2 4374   6.844   5.193   4.943
 1159SOL     OW 4375   6.375   6.997   3.443
 1159SOL    HW1 4376   6.469   6.974   3.468
 1159SOL    HW2 4377   6.312   6.965   3.515
 1160SOL     OW 4378   4.333   5.012   1.710
 1160SOL    HW1 4379   4.388   5.052   1.784
 1160SOL    HW2 4380   4.237   5.009   1.738
 1161SOL     OW 4381   0.221   5.879   6.084
 1161SOL    HW1 4382   0.173   5.924   6.160
 1161SOL    HW2 4383   0.157   5.862   6.009
 1162SOL     OW 4384   2.225   2.373   5.995
 1162SOL    HW1 4385   2.129   2.344   5.995
 1162SOL    HW2 4386   2.283   2.295   5.968
 1163SOL     OW 4387   6.532   4.150   1.902
 1163SOL    HW1 4388   6.473   4.112   1.830
 1163SOL    HW2 4389   6.610   4.089   1.916
 1164SOL     OW 4390   4.603   2.045   4.624
 1164SOL    HW1 4391   4.661   1.966   4.646
 1164SOL    HW2 4392   4.596   2.105   4.703
 1165SOL     OW 4393   4.433   5.705   3.744
 1165SOL    HW1 4394   4.361   5.764   3.708
 1165SOL    HW2 4395   4.478   5.659   3.668
 1166SOL     OW 4396   2.734   6.539   0.303
 1166SOL    HW1 4397   2.645   6.576   0.277
 1166SOL    HW2 4398   2.738   6.442   0.276
 1167SOL     OW 4399   4.499   6.055   0.255
 1167SOL    HW1 4400   4.517   5.963   0.290
 1167SOL    HW2 4401   4.476   6.050   0.158
 1168SOL     OW 4402   5.815   2.543   1.806
 1168SOL    HW1 4403   5.728   2.582   1.777
 1168SOL    HW2 4404   5.881   2.549   1.731
 1169SOL     OW 4405   4.726   2.022   6.018
 1169SOL    HW1 4406   4.766   1.998   6.107
 1169SOL    HW2 4407   4.776   1.975   5.945
 1170SOL     OW 4408   5.183   0.243   3.192
 1170SOL    HW1 4409   5.139   0.228   3.280
 1170SOL    HW2 4410   5.232   0.330   3.194
 1171SOL     OW 4411   3.012   6.428   6.852
 1171SOL    HW1 4412   3.019   6.484   6.770
 1171SOL    HW2 4413   2.946   6.355   6.837
 1172SOL     OW 4414   5.182   4.455   0.901
 1172SOL    HW1 4415   5.137   4.368   0.881
 1172SOL    HW2 4416   5.154   4.524   0.834
 1173SOL     OW 4417   3.487   1.150   0.928
 1173SOL    HW1 4418   3.501   1.125   0.832
 1173SOL    HW2 4419   3.401   1.201   0.936
 1174SOL     OW 4420   3.301   3.839   1.931
 1174SOL    HW1 4421   3.208   3.875   1.939
 1174SOL    HW2 4422   3.297   3.741   1.910
 1175SOL     OW 4423   4.265   3.772   6.262
 1175SOL    HW1 4424   4.228   3.683   6.237
 1175SOL    HW2 4425   4.247   3.838   6.189
 1176SOL     OW 4426   5.262   3.612   0.333
 1176SOL    HW1 4427   5.290   3.549   0.405
 1176SOL    HW2 4428   5.273   3.706   0.365
 1177SOL     OW 4429   6.096   3.857   4.899
 1177SOL    HW1 4430   6.009   3.899   4.873
 1177SOL    HW2 4431   6.170   3.924   4.892
 1178SOL     OW 4432   2.863   4.194   0.114
 1178SOL    HW1 4433   2.810   4.146   0.183
 1178SOL    HW2 4434   2.877   4.289   0.142
 1179SOL     OW 4435   2.365   5.835   1.007
 1179SOL    HW1 4436   2.376   5.736   0.996
 1179SOL    HW2 4437   2.372   5.880   0.918
 1180SOL     OW 4438   2.645   6.651   3.693
 1180SOL    HW1 4439   2.709   6.653   3.617
 1180SOL    HW2 4440   2.696   6.650   3.779
 1181SOL     OW 4441   0.384   5.539   4.870
 1181SOL    HW1 4442   0.344   5.542   4.778
 1181SOL    HW2 4443   0.346   5.462   4.921
 1182SOL     OW 4444   4.980   5.236   3.735
 1182SOL    HW1 4445   4.935   5.190   3.659
 1182SOL    HW2 4446   4.911   5.283   3.791
 1183SOL     OW 4447   2.535   4.487   0.219
 1183SOL    HW1 4448   2.573   4.578   0.233
 1183SOL    HW2 4449   2.470   4.465   0.292
 1184SOL     OW 4450   6.902   0.899   4.644
 1184SOL    HW1 4451   6.936   0.819   4.593
 1184SOL    HW2 4452   6.836   0.868   4.713
 1185SOL     OW 4453   0.785   0.847   1.141
 1185SOL    HW1 4454   0.797   0.922   1.075
 1185SOL    HW2 4455   0.863   0.843   1.202
 1186SOL     OW 4456   5.522   6.144   5.777
 1186SOL    HW1 4457   5.503   6.192   5.863
 1186SOL    HW2 4458   5.449   6.162   5.711
 1187SOL     OW 4459   4.941   6.865   5.890
 1187SOL    HW1 4460   4.960   6.794   5.958
 1187SOL    HW2 4461   4.984   6.841   5.803
 1188SOL     OW 4462   3.306   6.286   5.915
 1188SOL    HW1 4463   3.323   6.228   5.995
 1188SOL    HW2 4464   3.339   6.378   5.933
 1189SOL     OW 4465   6.514   2.128   1.581
 1189SOL    HW1 4466   6.559   2.070   1.650
 1189SOL    HW2 4467   6.475   2.070   1.510
 1190SOL     OW 4468   3.344   5.764   3.812
 1190SOL    HW1 4469   3.422   5.713   3.775
 1190SOL    HW2 4470   3.360   5.862   3.801
 1191SOL     OW 4471   4.426   5.523   4.201
 1191SOL    HW1 4472   4.350   5.503   4.262
 1191SOL    HW2 4473   4.490   5.585   4.247
 1192SOL     OW 4474   5.378   4.462   1.991
 1192SOL    HW1 4475   5.358   4.406   1.911
 1192SOL    HW2 4476   5.407   4.404   2.067
 1193SOL     OW 4477   6.332   2.271   4.886
 1193SOL    HW1 4478   6.291   2.227   4.966
 1193SOL    HW2 4479   6.264   2.275   4.813
 1194SOL     OW 4480   5.864   7.014   1.973
 1194SOL    HW1 4481   5.882   6.958   1.892
 1194SOL    HW2 4482   5.845   6.954   2.052
 1195SOL     OW 4483   0.366   4.322   0.806
 1195SOL    HW1 4484   0.361   4.401   0.745
 1195SOL    HW2 4485   0.462   4.302   0.827
 1196SOL     OW 4486   6.884   4.881   3.620
 1196SOL    HW1 4487   6.905   4.944   3.545
 1196SOL    HW2 4488   6.844   4.797   3.582
 1197SOL     OW 4489   4.700   0.216   4.975
 1197SOL    HW1 4490   4.650   0.287   4.925
 1197SOL    HW2 4491   4.638   0.167   5.035
 1198SOL     OW 4492   1.542   2.895   3.356
 1198SOL    HW1 4493   1.627   2.857   3.320
 1198SOL    HW2 4494   1.521   2.981   3.310
 1199SOL     OW 4495   3.114   3.902   1.236
 1199SOL    HW1 4496   3.207   3.866   1.240
 1199SOL    HW2 4497   3.112   3.994   1.275
 1200SOL     OW 4498   3.334   4.072   4.099
 1200SOL    HW1 4499   3.402   4.043   4.166
 1200SOL    HW2 4500   3.244   4.075   4.142
 1201SOL     OW 4501   0.878   1.158   4.186
 1201SOL    HW1 4502   0.861   1.091   4.257
 1201SOL    HW2 4503   0.914   1.242   4.227
 1202SOL     OW 4504   0.379   6.078   5.564
 1202SOL    HW1 4505   0.438   6.002   5.534
 1202SOL    HW2 4506   0.310   6.044   5.628
 1203SOL     OW 4507   6.798   6.140   6.522
 1203SOL    HW1 4508   6.878   6.199   6.511
 1203SOL    HW2 4509   6.828   6.049   6.552
 1204SOL     OW 4510   4.360   0.994   1.458
 1204SOL    HW1 4511   4.431   0.946   1.511
 1204SOL    HW2 4512   4.379   0.983   1.360
 1205SOL     OW 4513   4.093   3.137   0.643
 1205SOL    HW1 4514   4.106   3.105   0.737
 1205SOL    HW2 4515   4.145   3.078   0.581
 1206SOL     OW 4516   2.641   2.731   5.285
 1206SOL    HW1 4517   2.730   2.773   5.271
 1206SOL    HW2 4518   2.602   2.764   5.372
 1207SOL     OW 4519   1.946   6.162   0.932
 1207SOL    HW1 4520   1.891   6.196   0.856
 1207SOL    HW2 4521   1.963   6.064   0.919
 1208SOL     OW 4522   2.872   3.293   0.925
 1208SOL    HW1 4523   2.943   3.235   0.884
 1208SOL    HW2 4524   2.893   3.309   1.021
 1209SOL     OW 4525   4.143   1.269   4.028
 1209SOL    HW1 4526   4.177   1.236   4.115
 1209SOL    HW2 4527   4.152   1.369   4.024
 1210SOL     OW 4528   3.377   0.298   3.793
 1210SOL    HW1 4529   3.374   0.313   3.892
 1210SOL    HW2 4530   3.410   0.205   3.774
 1211SOL     OW 4531   0.263   3.536   2.567
 1211SOL    HW1 4532   0.292   3.449   2.608
 1211SOL    HW2 4533   0.306   3.546   2.478
 1212SOL     OW 4534   6.074   0.535   0.487
 1212SOL    HW1 4535   6.126   0.535   0.402
 1212SOL    HW2 4536   5.981   0.502   0.470
 1213SOL     OW 4537   6.406   2.721   1.217
 1213SOL    HW1 4538   6.460   2.674   1.147
 1213SOL    HW2 4539   6.315   2.740   1.180
 1214SOL     OW 4540   1.289   2.991   0.034
 1214SOL    HW1 4541   1.333   2.957   6.975
 1214SOL    HW2 4542   1.349   2.974   0.112
 1215SOL     OW 4543   0.873   4.980   2.984
 1215SOL    HW1 4544   0.954   4.957   3.038
 1215SOL    HW2 4545   0.791   4.947   3.032
 1216SOL     OW 4546   5.075   0.146   1.330
 1216SOL    HW1 4547   5.071   0.148   1.230
 1216SOL    HW2 4548   5.108   0.234   1.364
 1217SOL     OW 4549   2.218   4.710   0.787
 1217SOL    HW1 4550   2.305   4.704   0.837
 1217SOL    HW2 4551   2.199   4.622   0.743
 1218SOL     OW 4552   1.453   4.338   4.838
 1218SOL    HW1 4553   1.413   4.397   4.907
 1218SOL    HW2 4554   1.404   4.251   4.836
 1219SOL     OW 4555   5.095   6.207   1.894
 1219SOL    HW1 4556   5.081   6.293   1.845
 1219SOL    HW2 4557   5.011   6.152   1.888
 1220SOL     OW 4558   0.503   4.413   3.020
 1220SOL    HW1 4559   0.485   4.458   2.933
 1220SOL    HW2 4560   0.425   4.356   3.045
 1221SOL     OW 4561   5.161   4.219   6.571
 1221SOL    HW1 4562   5.193   4.190   6.481
 1221SOL    HW2 4563   5.160   4.319   6.575
 1222SOL     OW 4564   0.079   0.619   6.699
 1222SOL    HW1 4565   0.164   0.658   6.735
 1222SOL    HW2 4566   0.015   0.693   6.677
 1223SOL     OW 4567   3.986   1.711   0.213
 1223SOL    HW1 4568   4.006   1.617   0.243
 1223SOL    HW2 4569   4.016   1.776   0.283
 1224SOL     OW 4570   3.574   5.706   0.678
 1224SOL    HW1 4571   3.639   5.746   0.743
 1224SOL    HW2 4572   3.488   5.685   0.725
 1225SOL     OW 4573   3.033   3.321   6.076
 1225SOL    HW1 4574   3.052   3.324   5.978
 1225SOL    HW2 4575   3.027   3.225   6.105
 1226SOL     OW 4576   2.811   5.636   1.521
 1226SOL    HW1 4577   2.779   5.729   1.503
 1226SOL    HW2 4578   2.861   5.601   1.442
 1227SOL     OW 4579   6.933   3.821   6.179
 1227SOL    HW1 4580   6.869   3.781   6.113
 1227SOL    HW2 4581   6.926   3.773   6.266
 1228SOL     OW 4582   3.518   2.093   6.426
 1228SOL    HW1 4583   3.583   2.128   6.493
 1228SOL    HW2 4584   3.567   2.037   6.359
 1229SOL     OW 4585   3.325   5.370   5.356
 1229SOL    HW1 4586   3.373   5.329   5.278
 1229SOL    HW2 4587   3.389   5.385   5.431
 1230SOL     OW 4588   4.551   0.123   2.699
 1230SOL    HW1 4589   4.649   0.107   2.708
 1230SOL    HW2 4590   4.518   0.088   2.611
 1231SOL     OW 4591   1.831   3.179   4.582
 1231SOL    HW1 4592   1.781   3.202   4.499
 1231SOL    HW2 4593   1.827   3.256   4.646
 1232SOL     OW 4594   0.729   1.447   4.717
 1232SOL    HW1 4595   0.732   1.544   4.692
 1232SOL    HW2 4596   0.646   1.430   4.770
 1233SOL     OW 4597   0.923   4.284   4.849
 1233SOL    HW1 4598   0.964   4.299   4.759
 1233SOL    HW2 4599   0.841   4.341   4.859
 1234SOL     OW 4600   6.504   3.628   4.998
 1234SOL    HW1 4601   6.577   3.623   5.066
 1234SOL    HW2 4602   6.520   3.707   4.939
 1235SOL     OW 4603   0.026   5.872   2.384
 1235SOL    HW1 4604   0.084   5.828   2.316
 1235SOL    HW2 4605   0.081   5.895   2.465
 1236SOL     OW 4606   4.806   1.742   0.112
 1236SOL    HW1 4607   4.809   1.840   0.129
 1236SOL    HW2 4608   4.814   1.725   0.014
 1237SOL     OW 4609   1.709   5.295   5.648
 1237SOL    HW1 4610   1.807   5.311   5.636
 1237SOL    HW2 4611   1.690   5.281   5.745
 1238SOL     OW 4612   2.689   1.371   0.426
 1238SOL    HW1 4613   2.697   1.286   0.375
 1238SOL    HW2 4614   2.736   1.444   0.377
 1239SOL     OW 4615   0.051   6.987   5.739
 1239SOL    HW1 4616   0.073   0.039   5.678
 1239SOL    HW2 4617   6.990   6.943   5.708
 1240SOL     OW 4618   5.415   6.385   1.923
 1240SOL    HW1 4619   5.403   6.288   1.901
 1240SOL    HW2 4620   5.371   6.405   2.010
 1241SOL     OW 4621   5.837   3.795   3.774
 1241SOL    HW1 4622   5.767   3.843   3.720
 1241SOL    HW2 4623   5.806   3.702   3.793
 1242SOL     OW 4624   0.171   3.518   1.665
 1242SOL    HW1 4625   0.136   3.533   1.573
 1242SOL    HW2 4626   0.257   3.567   1.677
 1243SOL     OW 4627   6.848   6.766   4.773
 1243SOL    HW1 4628   6.822   6.670   4.762
 1243SOL    HW2 4629   6.896   6.776   4.860
 1244SOL     OW 4630   6.641   0.012   4.369
 1244SOL    HW1 4631   6.658   6.993   4.458
 1244SOL    HW2 4632   6.700   0.092   4.359
 1245SOL     OW 4633   4.674   4.780   0.245
 1245SOL    HW1 4634   4.582   4.817   0.232
 1245SOL    HW2 4635   4.669   4.702   0.308
 1246SOL     OW 4636   2.123   6.163   1.416
 1246SOL    HW1 4637   2.160   6.248   1.378
 1246SOL    HW2 4638   2.191   6.122   1.477
 1247SOL     OW 4639   2.222   0.657   6.799
 1247SOL    HW1 4640   2.154   0.623   6.734
 1247SOL    HW2 4641   2.192   0.745   6.835
 1248SOL     OW 4642   2.074   0.185   4.854
 1248SOL    HW1 4643   1.980   0.221   4.862
 1248SOL    HW2 4644   2.104   0.191   4.759
 1249SOL     OW 4645   5.711   2.170   2.298
 1249SOL    HW1 4646   5.643   2.148   2.228
 1249SOL    HW2 4647   5.782   2.228   2.259
 1250SOL     OW 4648   6.192   4.828   4.380
 1250SOL    HW1 4649   6.154   4.749   4.428
 1250SOL    HW2 4650   6.291   4.819   4.373
 1251SOL     OW 4651   3.293   0.439   4.789
 1251SOL    HW1 4652   3.344   0.416   4.871
 1251SOL    HW2 4653   3.343   0.407   4.708
 1252SOL     OW 4654   3.790   3.334   5.057
 1252SOL    HW1 4655   3.762   3.333   4.961
 1252SOL    HW2 4656   3.887   3.308   5.064
 1253SOL     OW 4657   3.478   5.624   1.691
 1253SOL    HW1 4658   3.555   5.560   1.685
 1253SOL    HW2 4659   3.448   5.631   1.786
 1254SOL     OW 4660   0.857   2.737   2.793
 1254SOL    HW1 4661   0.824   2.720   2.700
 1254SOL    HW2 4662   0.780   2.750   2.854
 1255SOL     OW 4663   6.266   1.827   4.594
 1255SOL    HW1 4664   6.245   1.731   4.573
 1255SOL    HW2 4665   6.361   1.846   4.572
 1256SOL     OW 4666   6.706   6.379   3.307
 1256SOL    HW1 4667   6.712   6.287   3.347
 1256SOL    HW2 4668   6.766   6.441   3.358
 1257SOL     OW 4669   0.298   6.764   4.241
 1257SOL    HW1 4670   0.375   6.769   4.305
 1257SOL    HW2 4671   0.330   6.732   4.152
 1258SOL     OW 4672   1.688   5.637   3.971
 1258SOL    HW1 4673   1.625   5.702   4.013
 1258SOL    HW2 4674   1.721   5.674   3.884
 1259SOL     OW 4675   3.732   1.455   4.230
 1259SOL    HW1 4676   3.650   1.474   4.285
 1259SOL    HW2 4677   3.813   1.465   4.287
 1260SOL     OW 4678   1.271   1.663   0.122
 1260SOL    HW1 4679   1.206   1.654   0.046
 1260SOL    HW2 4680   1.327   1.581   0.128
 1261SOL     OW 4681   0.453   5.703   6.649
 1261SOL    HW1 4682   0.449   5.780   6.713
 1261SOL    HW2 4683   0.363   5.662   6.639
 1262SOL     OW 4684   4.665   4.123   1.202
 1262SOL    HW1 4685   4.663   4.159   1.296
 1262SOL    HW2 4686   4.760   4.107   1.175
 1263SOL     OW 4687   0.862   1.403   2.476
 1263SOL    HW1 4688   0.865   1.410   2.376
 1263SOL    HW2 4689   0.954   1.388   2.512
 1264SOL     OW 4690   6.995   4.066   0.109
 1264SOL    HW1 4691   6.983   4.161   0.081
 1264SOL    HW2 4692   0.056   4.030   0.072
 1265SOL     OW 4693   5.823   5.148   4.892
 1265SOL    HW1 4694   5.793   5.110   4.805
 1265SOL    HW2 4695   5.825   5.075   4.961
 1266SOL     OW 4696   0.299   0.801   4.489
 1266SOL    HW1 4697   0.336   0.856   4.415
 1266SOL    HW2 4698   0.372   0.748   4.531
 1267SOL     OW 4699   5.626   1.666   1.064
 1267SOL    HW1 4700   5.606   1.763   1.054
 1267SOL    HW2 4701   5.722   1.649   1.043
 1268SOL     OW 4702   2.736   3.049   6.562
 1268SOL    HW1 4703   2.814   2.990   6.582
 1268SOL    HW2 4704   2.716   3.107   6.641
 1269SOL     OW 4705   5.797   3.202   4.219
 1269SOL    HW1 4706   5.825   3.295   4.243
 1269SOL    HW2 4707   5.879   3.145   4.209
 1270SOL     OW 4708   2.191   4.684   2.755
 1270SOL    HW1 4709   2.191   4.620   2.832
 1270SOL    HW2 4710   2.163   4.636   2.672
 1271SOL     OW 4711   3.511   1.808   2.475
 1271SOL    HW1 4712   3.530   1.726   2.420
 1271SOL    HW2 4713   3.558   1.886   2.435
 1272SOL     OW 4714   5.465   4.941   6.728
 1272SOL    HW1 4715   5.477   4.878   6.651
 1272SOL    HW2 4716   5.497   4.897   6.812
 1273SOL     OW 4717   0.899   4.183   5.641
 1273SOL    HW1 4718   0.954   4.201   5.723
 1273SOL    HW2 4719   0.917   4.253   5.572
 1274SOL     OW 4720   0.164   4.609   0.883
 1274SOL    HW1 4721   0.162   4.702   0.920
 1274SOL    HW2 4722   0.247   4.596   0.829
 1275SOL     OW 4723   3.639   1.885   3.377
 1275SOL    HW1 4724   3.711   1.820   3.402
 1275SOL    HW2 4725   3.653   1.971   3.425
 1276SOL     OW 4726   5.454   4.872   5.084
 1276SOL    HW1 4727   5.455   4.826   5.173
 1276SOL    HW2 4728   5.513   4.823   5.021
 1277SOL     OW 4729   1.890   5.193   6.455
 1277SOL    HW1 4730   1.911   5.163   6.362
 1277SOL    HW2 4731   1.792   5.203   6.466
 1278SOL     OW 4732   1.655   0.462   5.083
 1278SOL    HW1 4733   1.560   0.434   5.069
 1278SOL    HW2 4734   1.710   0.434   5.004
 1279SOL     OW 4735   1.828   4.815   6.709
 1279SOL    HW1 4736   1.913   4.860   6.738
 1279SOL    HW2 4737   1.835   4.789   6.613
 1280SOL     OW 4738   4.384   6.492   3.824
 1280SOL    HW1 4739   4.312   6.426   3.805
 1280SOL    HW2 4740   4.468   6.464   3.778
 1281SOL     OW 4741   2.582   6.521   3.069
 1281SOL    HW1 4742   2.496   6.506   3.116
 1281SOL    HW2 4743   2.585   6.466   2.985
 1282SOL     OW 4744   6.645   1.703   6.867
 1282SOL    HW1 4745   6.698   1.620   6.852
 1282SOL    HW2 4746   6.638   1.722   6.965
 1283SOL     OW 4747   6.693   2.761   5.274
 1283SOL    HW1 4748   6.732   2.809   5.195
 1283SOL    HW2 4749   6.594   2.777   5.277
 1284SOL     OW 4750   4.421   1.249   1.625
 1284SOL    HW1 4751   4.366   1.199   1.691
 1284SOL    HW2 4752   4.419   1.202   1.537
 1285SOL     OW 4753   4.975   1.425   5.262
 1285SOL    HW1 4754   4.994   1.388   5.171
 1285SOL    HW2 4755   4.966   1.524   5.257
 1286SOL     OW 4756   4.775   2.936   1.007
 1286SOL    HW1 4757   4.751   2.941   1.104
 1286SOL    HW2 4758   4.771   2.841   0.977
 1287SOL     OW 4759   5.456   4.268   5.343
 1287SOL    HW1 4760   5.368   4.250   5.386
 1287SOL    HW2 4761   5.529   4.259   5.410
 1288SOL     OW 4762   3.976   4.206   6.579
 1288SOL    HW1 4763   4.060   4.258   6.564
 1288SOL    HW2 4764   3.998   4.118   6.619
 1289SOL     OW 4765   0.441   0.724   1.289
 1289SOL    HW1 4766   0.353   0.728   1.336
 1289SOL    HW2 4767   0.514   0.710   1.356
 1290SOL     OW 4768   1.363   6.941   0.321
 1290SOL    HW1 4769   1.293   6.874   0.348
 1290SOL    HW2 4770   1.453   6.897   0.319
 1291SOL     OW 4771   0.412   4.030   4.007
 1291SOL    HW1 4772   0.485   4.086   3.969
 1291SOL    HW2 4773   0.323   4.063   3.975
 1292SOL     OW 4774   0.442   5.648   2.346
 1292SOL    HW1 4775   0.517   5.681   2.403
 1292SOL    HW2 4776   0.462   5.667   2.250
 1293SOL     OW 4777   2.084   2.151   6.683
 1293SOL    HW1 4778   2.030   2.069   6.703
 1293SOL    HW2 4779   2.153   2.129   6.614
 1294SOL     OW 4780   0.407   3.641   5.864
 1294SOL    HW1 4781   0.321   3.680   5.831
 1294SOL    HW2 4782   0.465   3.617   5.786
 1295SOL     OW 4783   0.038   3.358   1.185
 1295SOL    HW1 4784   0.047   3.339   1.087
 1295SOL    HW2 4785   0.096   3.296   1.237
 1296SOL     OW 4786   4.570   0.086   5.185
 1296SOL    HW1 4787   4.660   0.072   5.226
 1296SOL    HW2 4788   4.506   0.017   5.221
 1297SOL     OW 4789   1.032   6.725   1.374
 1297SOL    HW1 4790   1.119   6.676   1.382
 1297SOL    HW2 4791   1.012   6.742   1.278
 1298SOL     OW 4792   5.331   6.592   3.759
 1298SOL    HW1 4793   5.238   6.557   3.759
 1298SOL    HW2 4794   5.376   6.566   3.673
 1299SOL     OW 4795   2.542   2.574   3.429
 1299SOL    HW1 4796   2.525   2.479   3.403
 1299SOL    HW2 4797   2.514   2.588   3.523
 1300SOL     OW 4798   2.224   3.141   1.042
 1300SOL    HW1 4799   2.226   3.240   1.029
 1300SOL    HW2 4800   2.287   3.098   0.978
 1301SOL     OW 4801   0.471   6.938   1.727
 1301SOL    HW1 4802   0.464   6.854   1.673
 1301SOL    HW2 4803   0.559   6.940   1.775
 1302SOL     OW 4804   5.147   0.147   5.235
 1302SOL    HW1 4805   5.085   0.157   5.157
 1302SOL    HW2 4806   5.222   0.212   5.226
 1303SOL     OW 4807   4.093   1.057   1.326
 1303SOL    HW1 4808   4.188   1.063   1.356
 1303SOL    HW2 4809   4.061   1.148   1.296
 1304SOL     OW 4810   1.568   6.896   0.922
 1304SOL    HW1 4811   1.483   6.938   0.955
 1304SOL    HW2 4812   1.607   6.951   0.849
 1305SOL     OW 4813   5.772   4.338   0.143
 1305SOL    HW1 4814   5.849   4.326   0.205
 1305SOL    HW2 4815   5.709   4.261   0.153
 1306SOL     OW 4816   1.301   5.953   4.239
 1306SOL    HW1 4817   1.388   5.985   4.276
 1306SOL    HW2 4818   1.316   5.914   4.148
 1307SOL     OW 4819   1.843   4.088   4.275
 1307SOL    HW1 4820   1.868   4.000   4.235
 1307SOL    HW2 4821   1.922   4.148   4.277
 1308SOL     OW 4822   0.080   6.897   5.997
 1308SOL    HW1 4823   0.098   6.798   5.995
 1308SOL    HW2 4824   0.082   6.933   5.904
 1309SOL     OW 4825   5.737   4.455   5.369
 1309SOL    HW1 4826   5.702   4.375   5.417
 1309SOL    HW2 4827   5.671   4.485   5.301
 1310SOL     OW 4828   0.318   3.303   2.866
 1310SOL    HW1 4829   0.305   3.363   2.945
 1310SOL    HW2 4830   0.408   3.321   2.825
 1311SOL     OW 4831   0.081   6.025   6.318
 1311SOL    HW1 4832   0.051   6.086   6.245
 1311SOL    HW2 4833   0.010   5.957   6.336
 1312SOL     OW 4834   1.616   6.599   0.148
 1312SOL    HW1 4835   1.518   6.603   0.127
 1312SOL    HW2 4836   1.636   6.514   0.195
 1313SOL     OW 4837   0.059   5.190   2.616
 1313SOL    HW1 4838   0.099   5.166   2.704
 1313SOL    HW2 4839   0.063   5.110   2.555
 1314SOL     OW 4840   3.525   1.680   4.736
 1314SOL    HW1 4841   3.551   1.625   4.815
 1314SOL    HW2 4842   3.427   1.699   4.738
 1315SOL     OW 4843   6.719   1.332   3.186
 1315SOL    HW1 4844   6.625   1.324   3.152
 1315SOL    HW2 4845   6.732   1.268   3.262
 1316SOL     OW 4846   3.421   0.137   6.034
 1316SOL    HW1 4847   3.342   0.103   5.984
 1316SOL    HW2 4848   3.402   0.135   6.133
 1317SOL     OW 4849   1.832   4.088   5.825
 1317SOL    HW1 4850   1.777   4.112   5.745
 1317SOL    HW2 4851   1.911   4.149   5.830
 1318SOL     OW 4852   1.136   2.797   0.527
 1318SOL    HW1 4853   1.220   2.849   0.509
 1318SOL    HW2 4854   1.102   2.757   0.442
 1319SOL     OW 4855   0.324   5.905   0.721
 1319SOL    HW1 4856   0.373   5.818   0.723
 1319SOL    HW2 4857   0.258   5.904   0.646
 1320SOL     OW 4858   3.356   3.935   0.105
 1320SOL    HW1 4859   3.301   3.904   0.028
 1320SOL    HW2 4860   3.356   3.865   0.177
 1321SOL     OW 4861   5.286   2.940   6.123
 1321SOL    HW1 4862   5.349   2.871   6.159
 1321SOL    HW2 4863   5.197   2.931   6.166
 1322SOL     OW 4864   3.764   1.833   4.707
 1322SOL    HW1 4865   3.674   1.790   4.698
 1322SOL    HW2 4866   3.753   1.927   4.738
 1323SOL     OW 4867   3.463   6.933   6.616
 1323SOL    HW1 4868   3.373   6.963   6.648
 1323SOL    HW2 4869   3.454   6.882   6.531
 1324SOL     OW 4870   0.272   2.987   6.686
 1324SOL    HW1 4871   0.310   3.074   6.715
 1324SOL    HW2 4872   0.304   2.965   6.594
 1325SOL     OW 4873   3.932   6.153   4.880
 1325SOL    HW1 4874   3.946   6.249   4.905
 1325SOL    HW2 4875   3.961   6.094   4.956
 1326SOL     OW 4876   4.671   3.871   5.304
 1326SOL    HW1 4877   4.738   3.902   5.236
 1326SOL    HW2 4878   4.640   3.779   5.281
 1327SOL     OW 4879   1.323   6.083   0.864
 1327SOL    HW1 4880   1.313   6.108   0.960
 1327SOL    HW2 4881   1.326   6.167   0.808
 1328SOL     OW 4882   2.311   3.272   0.173
 1328SOL    HW1 4883   2.390   3.287   0.114
 1328SOL    HW2 4884   2.339   3.220   0.254
 1329SOL     OW 4885   0.731   2.736   2.443
 1329SOL    HW1 4886   0.782   2.759   2.360
 1329SOL    HW2 4887   0.663   2.667   2.422
 1330SOL     OW 4888   1.721   1.846   1.434
 1330SOL    HW1 4889   1.697   1.755   1.402
 1330SOL    HW2 4890   1.638   1.902   1.439
 1331SOL     OW 4891   4.877   2.722   3.175
 1331SOL    HW1 4892   4.813   2.789   3.136
 1331SOL    HW2 4893   4.970   2.745   3.148
 1332SOL     OW 4894   2.794   6.897   0.713
 1332SOL    HW1 4895   2.779   6.866   0.619
 1332SOL    HW2 4896   2.877   6.953   0.716
 1333SOL     OW 4897   2.949   3.557   2.910
 1333SOL    HW1 4898   2.929   3.528   2.816
 1333SOL    HW2 4899   3.007   3.639   2.907
 1334SOL     OW 4900   6.588   1.491   3.779
 1334SOL    HW1 4901   6.661   1.424   3.770
 1334SOL    HW2 4902   6.585   1.525   3.874
 1335SOL     OW 4903   2.336   1.670   2.155
 1335SOL    HW1 4904   2.313   1.753   2.205
 1335SOL    HW2 4905   2.259   1.605   2.161
 1336SOL     OW 4906   2.623   1.819   4.575
 1336SOL    HW1 4907   2.684   1.861   4.508
 1336SOL    HW2 4908   2.550   1.883   4.599
 1337SOL     OW 4909   1.075   1.524   2.634
 1337SOL    HW1 4910   1.113   1.607   2.674
 1337SOL    HW2 4911   1.064   1.454   2.706
 1338SOL     OW 4912   6.842   3.008   4.713
 1338SOL    HW1 4913   6.843   3.028   4.811
 1338SOL    HW2 4914   6.814   3.090   4.662
 1339SOL     OW 4915   6.097   1.972   0.094
 1339SOL    HW1 4916   6.046   1.888   0.114
 1339SOL    HW2 4917   6.187   1.948   0.056
 1340SOL     OW 4918   5.209   1.347   2.684
 1340SOL    HW1 4919   5.192   1.440   2.652
 1340SOL    HW2 4920   5.290   1.347   2.743
 1341SOL     OW 4921   4.447   6.812   6.596
 1341SOL    HW1 4922   4.413   6.844   6.685
 1341SOL    HW2 4923   4.462   6.713   6.599
 1342SOL     OW 4924   2.875   5.601   6.552
 1342SOL    HW1 4925   2.830   5.598   6.463
 1342SOL    HW2 4926   2.901   5.695   6.573
 1343SOL     OW 4927   5.288   5.607   2.822
 1343SOL    HW1 4928   5.235   5.690   2.841
 1343SOL    HW2 4929   5.364   5.601   2.886
 1344SOL     OW 4930   0.560   6.183   4.428
 1344SOL    HW1 4931   0.552   6.150   4.522
 1344SOL    HW2 4932   0.653   6.166   4.394
 1345SOL     OW 4933   0.683   5.589   2.794
 1345SOL    HW1 4934   0.773   5.548   2.779
 1345SOL    HW2 4935   0.685   5.685   2.767
 1346SOL     OW 4936   2.011   5.411   5.326
 1346SOL    HW1 4937   2.050   5.466   5.401
 1346SOL    HW2 4938   1.953   5.469   5.269
 1347SOL     OW 4939   6.707   6.942   5.938
 1347SOL    HW1 4940   6.706   6.865   6.003
 1347SOL    HW2 4941   6.698   6.907   5.845
 1348SOL     OW 4942   6.847   6.047   4.232
 1348SOL    HW1 4943   6.922   5.994   4.193
 1348SOL    HW2 4944   6.872   6.144   4.231
 1349SOL     OW 4945   5.706   2.773   5.061
 1349SOL    HW1 4946   5.626   2.830   5.046
 1349SOL    HW2 4947   5.678   2.679   5.079
 1350SOL     OW 4948   5.396   4.868   5.404
 1350SOL    HW1 4949   5.405   4.769   5.412
 1350SOL    HW2 4950   5.311   4.898   5.446
 1351SOL     OW 4951   5.488   2.134   3.803
 1351SOL    HW1 4952   5.583   2.153   3.826
 1351SOL    HW2 4953   5.448   2.214   3.758
 1352SOL     OW 4954   6.080   5.618   4.288
 1352SOL    HW1 4955   6.084   5.710   4.327
 1352SOL    HW2 4956   6.045   5.554   4.356
 1353SOL     OW 4957   0.553   2.600   0.279
 1353SOL    HW1 4958   0.466   2.649   0.280
 1353SOL    HW2 4959   0.607   2.627   0.359
 1354SOL     OW 4960   0.064   4.811   1.862
 1354SOL    HW1 4961   0.122   4.812   1.781
 1354SOL    HW2 4962   0.026   4.719   1.874
 1355SOL     OW 4963   6.116   3.848   4.312
 1355SOL    HW1 4964   6.126   3.835   4.214
 1355SOL    HW2 4965   6.084   3.763   4.354
 1356SOL     OW 4966   3.546   2.931   2.150
 1356SOL    HW1 4967   3.498   2.888   2.226
 1356SOL    HW2 4968   3.638   2.956   2.178
 1357SOL     OW 4969   0.187   4.190   6.202
 1357SOL    HW1 4970   0.240   4.249   6.141
 1357SOL    HW2 4971   0.193   4.226   6.295
 1358SOL     OW 4972   6.030   6.557   6.789
 1358SOL    HW1 4973   5.940   6.569   6.747
 1358SOL    HW2 4974   6.096   6.526   6.720
 1359SOL     OW 4975   5.998   4.700   2.643
 1359SOL    HW1 4976   5.904   4.670   2.661
 1359SOL    HW2 4977   6.000   4.758   2.562
 1360SOL     OW 4978   2.392   3.840   0.578
 1360SOL    HW1 4979   2.356   3.747   0.570
 1360SOL    HW2 4980   2.319   3.905   0.556
 1361SOL     OW 4981   6.169   4.594   5.034
 1361SOL    HW1 4982   6.124   4.508   5.057
 1361SOL    HW2 4983   6.216   4.630   5.115
 1362SOL     OW 4984   4.080   3.701   3.171
 1362SOL    HW1 4985   4.031   3.644   3.237
 1362SOL    HW2 4986   4.106   3.646   3.092
 1363SOL     OW 4987   0.305   4.909   4.709
 1363SOL    HW1 4988   0.373   4.861   4.654
 1363SOL    HW2 4989   0.214   4.886   4.677
 1364SOL     OW 4990   5.386   4.486   0.600
 1364SOL    HW1 4991   5.294   4.505   0.567
 1364SOL    HW2 4992   5.432   4.424   0.536
 1365SOL     OW 4993   0.511   4.582   6.123
 1365SOL    HW1 4994   0.560   4.649   6.068
 1365SOL    HW2 4995   0.453   4.629   6.189
 1366SOL     OW 4996   1.649   6.395   6.309
 1366SOL    HW1 4997   1.728   6.449   6.283
 1366SOL    HW2 4998   1.605   6.358   6.228
 1367SOL     OW 4999   2.439   6.572   2.742
 1367SOL    HW1 5000   2.418   6.528   2.654
 1367SOL    HW2 5001   2.372   6.644   2.760
 1368SOL     OW 5002   5.279   6.997   4.187
 1368SOL    HW1 5003   5.365   6.986   4.138
 1368SOL    HW2 5004   5.290   6.965   4.281
 1369SOL     OW 5005   1.794   6.585   2.962
 1369SOL    HW1 5006   1.818   6.676   2.997
 1369SOL    HW2 5007   1.839   6.515   3.018
 1370SOL     OW 5008   3.572   1.010   1.803
 1370SOL    HW1 5009   3.484   0.971   1.833
 1370SOL    HW2 5010   3.556   1.099   1.760
 1371SOL     OW 5011   5.174   1.652   4.408
 1371SOL    HW1 5012   5.145   1.568   4.361
 1371SOL    HW2 5013   5.263   1.638   4.450
 1372SOL     OW 5014   1.488   2.895   0.181
 1372SOL    HW1 5015   1.438   2.912   0.266
 1372SOL    HW2 5016   1.579   2.859   0.203
 1373SOL     OW 5017   6.217   4.507   0.401
 1373SOL    HW1 5018   6.308   4.488   0.438
 1373SOL    HW2 5019   6.180   4.589   0.445
 1374SOL     OW 5020   3.937   2.228   0.743
 1374SOL    HW1 5021   3.861   2.279   0.702
 1374SOL    HW2 5022   3.925   2.130   0.727
 1375SOL     OW 5023   6.911   4.865   6.088
 1375SOL    HW1 5024   6.986   4.847   6.024
 1375SOL    HW2 5025   6.922   4.955   6.128
 1376SOL     OW 5026   5.075   3.259   3.853
 1376SOL    HW1 5027   5.119   3.171   3.870
 1376SOL    HW2 5028   5.033   3.258   3.762
 1377SOL     OW 5029   6.691   3.554   5.179
 1377SOL    HW1 5030   6.677   3.641   5.225
 1377SOL    HW2 5031   6.788   3.540   5.161
 1378SOL     OW 5032   6.112   2.067   5.015
 1378SOL    HW1 5033   6.114   2.042   4.918
 1378SOL    HW2 5034   6.046   2.009   5.063
 1379SOL     OW 5035   3.519   6.754   2.279
 1379SOL    HW1 5036   3.425   6.746   2.244
 1379SOL    HW2 5037   3.522   6.822   2.352
 1380SOL     OW 5038   0.099   6.809   2.299
 1380SOL    HW1 5039   0.191   6.847   2.309
 1380SOL    HW2 5040   0.039   6.848   2.369
 1381SOL     OW 5041   5.188   2.723   0.378
 1381SOL    HW1 5042   5.215   2.714   0.474
 1381SOL    HW2 5043   5.166   2.819   0.359
 1382SOL     OW 5044   5.913   5.067   6.710
 1382SOL    HW1 5045   5.904   4.998   6.782
 1382SOL    HW2 5046   5.873   5.153   6.742
 1383SOL     OW 5047   1.830   1.218   0.592
 1383SOL    HW1 5048   1.886   1.301   0.594
 1383SOL    HW2 5049   1.878   1.147   0.539
 1384SOL     OW 5050   4.004   1.531   2.813
 1384SOL    HW1 5051   3.990   1.442   2.856
 1384SOL    HW2 5052   4.075   1.581   2.864
 1385SOL     OW 5053   0.427   2.884   2.755
 1385SOL    HW1 5054   0.488   2.924   2.687
 1385SOL    HW2 5055   0.340   2.859   2.712
 1386SOL     OW 5056   1.944   2.237   4.430
 1386SOL    HW1 5057   1.923   2.221   4.526
 1386SOL    HW2 5058   1.866   2.208   4.374
 1387SOL     OW 5059   3.657   0.807   3.644
 1387SOL    HW1 5060   3.591   0.792   3.717
 1387SOL    HW2 5061   3.725   0.734   3.645
 1388SOL     OW 5062   6.725   6.324   4.281
 1388SOL    HW1 5063   6.633   6.284   4.286
 1388SOL    HW2 5064   6.750   6.338   4.185
 1389SOL     OW 5065   0.329   1.027   3.720
 1389SOL    HW1 5066   0.379   0.942   3.708
 1389SOL    HW2 5067   0.260   1.037   3.649
 1390SOL     OW 5068   4.672   1.691   6.565
 1390SOL    HW1 5069   4.634   1.608   6.606
 1390SOL    HW2 5070   4.642   1.771   6.617
 1391SOL     OW 5071   6.308   1.702   5.677
 1391SOL    HW1 5072   6.267   1.622   5.632
 1391SOL    HW2 5073   6.296   1.694   5.776
 1392SOL     OW 5074   4.836   6.061   5.890
 1392SOL    HW1 5075   4.856   6.128   5.819
 1392SOL    HW2 5076   4.920   6.010   5.912
 1393SOL     OW 5077   6.075   2.788   6.464
 1393SOL    HW1 5078   6.142   2.715   6.459
 1393SOL    HW2 5079   5.994   2.762   6.411
 1394SOL     OW 5080   3.775   6.692   3.916
 1394SOL    HW1 5081   3.836   6.614   3.928
 1394SOL    HW2 5082   3.826   6.776   3.935
 1395SOL     OW 5083   0.409   4.160   2.491
 1395SOL    HW1 5084   0.339   4.114   2.546
 1395SOL    HW2 5085   0.463   4.091   2.441
 1396SOL     OW 5086   2.067   0.249   4.283
 1396SOL    HW1 5087   2.045   0.155   4.255
 1396SOL    HW2 5088   2.105   0.248   4.375
 1397SOL     OW 5089   0.671   5.771   5.260
 1397SOL    HW1 5090   0.579   5.782   5.221
 1397SOL    HW2 5091   0.677   5.821   5.346
 1398SOL     OW 5092   1.819   0.950   0.974
 1398SOL    HW1 5093   1.724   0.947   0.944
 1398SOL    HW2 5094   1.853   1.044   0.970
 1399SOL     OW 5095   4.263   0.570   1.037
 1399SOL    HW1 5096   4.342   0.538   0.985
 1399SOL    HW2 5097   4.183   0.573   0.977
 1400SOL     OW 5098   6.428   0.681   4.606
 1400SOL    HW1 5099   6.481   0.596   4.600
 1400SOL    HW2 5100   6.356   0.680   4.537
 1401SOL     OW 5101   5.864   0.092   4.156
 1401SOL    HW1 5102   5.862   7.018   4.136
 1401SOL    HW2 5103   5.773   0.123   4.183
 1402SOL     OW 5104   5.983   4.337   0.309
 1402SOL    HW1 5105   6.021   4.381   0.228
 1402SOL    HW2 5106   6.018   4.383   0.391
 1403SOL     OW 5107   3.012   3.269   0.370
 1403SOL    HW1 5108   2.968   3.188   0.411
 1403SOL    HW2 5109   3.078   3.306   0.435
 1404SOL     OW 5110   4.897   0.593   0.905
 1404SOL    HW1 5111   4.906   0.512   0.847
 1404SOL    HW2 5112   4.954   0.666   0.868
 1405SOL     OW 5113   1.471   3.847   1.227
 1405SOL    HW1 5114   1.466   3.885   1.319
 1405SOL    HW2 5115   1.528   3.765   1.227
 1406SOL     OW 5116   2.162   3.998   1.628
 1406SOL    HW1 5117   2.203   4.077   1.675
 1406SOL    HW2 5118   2.128   3.933   1.697
 1407SOL     OW 5119   0.873   3.463   1.759
 1407SOL    HW1 5120   0.833   3.374   1.783
 1407SOL    HW2 5121   0.949   3.450   1.696
 1408SOL     OW 5122   6.560   6.260   0.009
 1408SOL    HW1 5123   6.478   6.249   0.065
 1408SOL    HW2 5124   6.622   6.324   0.055
 1409SOL     OW 5125   6.660   1.314   5.302
 1409SOL    HW1 5126   6.609   1.240   5.347
 1409SOL    HW2 5127   6.723   1.275   5.236
 1410SOL     OW 5128   2.142   3.082   6.353
 1410SOL    HW1 5129   2.170   3.004   6.409
 1410SOL    HW2 5130   2.095   3.050   6.271
 1411SOL     OW 5131   3.455   6.527   6.866
 1411SOL    HW1 5132   3.407   6.466   6.929
 1411SOL    HW2 5133   3.388   6.576   6.810
 1412SOL     OW 5134   0.459   3.539   0.980
 1412SOL    HW1 5135   0.519   3.501   1.050
 1412SOL    HW2 5136   0.511   3.556   0.897
 1413SOL     OW 5137   1.680   2.220   4.851
 1413SOL    HW1 5138   1.589   2.260   4.840
 1413SOL    HW2 5139   1.682   2.129   4.811
 1414SOL     OW 5140   1.347   3.327   1.816
 1414SOL    HW1 5141   1.415   3.278   1.870
 1414SOL    HW2 5142   1.371   3.321   1.719
 1415SOL     OW 5143   2.333   1.890   4.625
 1415SOL    HW1 5144   2.300   1.953   4.555
 1415SOL    HW2 5145   2.378   1.812   4.582
 1416SOL     OW 5146   3.876   0.658   4.810
 1416SOL    HW1 5147   3.876   0.734   4.746
 1416SOL    HW2 5148   3.783   0.641   4.842
 1417SOL     OW 5149   2.747   3.363   6.088
 1417SOL    HW1 5150   2.712   3.411   6.168
 1417SOL    HW2 5151   2.845   3.377   6.080
 1418SOL     OW 5152   3.146   4.112   0.284
 1418SOL    HW1 5153   3.093   4.192   0.257
 1418SOL    HW2 5154   3.111   4.077   0.372
 1419SOL     OW 5155   1.717   4.452   4.100
 1419SOL    HW1 5156   1.681   4.361   4.078
 1419SOL    HW2 5157   1.815   4.455   4.081
 1420SOL     OW 5158   3.756   5.272   2.700
 1420SOL    HW1 5159   3.665   5.302   2.728
 1420SOL    HW2 5160   3.817   5.351   2.698
 1421SOL     OW 5161   0.643   4.931   4.712
 1421SOL    HW1 5162   0.583   5.005   4.684
 1421SOL    HW2 5163   0.696   4.899   4.634
 1422SOL     OW 5164   2.644   4.032   5.598
 1422SOL    HW1 5165   2.693   4.019   5.684
 1422SOL    HW2 5166   2.654   4.126   5.567
 1423SOL     OW 5167   4.225   1.656   4.749
 1423SOL    HW1 5168   4.221   1.630   4.846
 1423SOL    HW2 5169   4.137   1.638   4.706
 1424SOL     OW 5170   6.314   3.371   6.209
 1424SOL    HW1 5171   6.247   3.378   6.282
 1424SOL    HW2 5172   6.370   3.289   6.222
 1425SOL     OW 5173   3.078   6.225   5.258
 1425SOL    HW1 5174   2.984   6.213   5.225
 1425SOL    HW2 5175   3.092   6.320   5.285
 1426SOL     OW 5176   2.280   1.531   6.903
 1426SOL    HW1 5177   2.276   1.574   6.813
 1426SOL    HW2 5178   2.332   1.446   6.898
 1427SOL     OW 5179   1.255   0.295   3.276
 1427SOL    HW1 5180   1.292   0.348   3.352
 1427SOL    HW2 5181   1.222   0.356   3.205
 1428SOL     OW 5182   6.974   2.698   1.879
 1428SOL    HW1 5183   6.903   2.660   1.938
 1428SOL    HW2 5184   6.958   2.669   1.784
 1429SOL     OW 5185   6.280   1.122   6.471
 1429SOL    HW1 5186   6.224   1.136   6.390
 1429SOL    HW2 5187   6.228   1.147   6.553
 1430SOL     OW 5188   2.790   4.877   4.094
 1430SOL    HW1 5189   2.772   4.795   4.148
 1430SOL    HW2 5190   2.871   4.924   4.130
 1431SOL     OW 5191   2.599   1.549   5.734
 1431SOL    HW1 5192   2.526   1.612   5.764
 1431SOL    HW2 5193   2.559   1.479   5.675
 1432SOL     OW 5194   2.471   1.394   0.734
 1432SOL    HW1 5195   2.475   1.463   0.662
 1432SOL    HW2 5196   2.535   1.319   0.713
 1433SOL     OW 5197   3.332   0.432   3.040
 1433SOL    HW1 5198   3.390   0.418   3.120
 1433SOL    HW2 5199   3.238   0.449   3.070
 1434SOL     OW 5200   0.289   2.201   0.124
 1434SOL    HW1 5201   0.339   2.123   0.087
 1434SOL    HW2 5202   0.293   2.199   0.224
 1435SOL     OW 5203   1.114   0.141   4.081
 1435SOL    HW1 5204   1.046   0.086   4.129
 1435SOL    HW2 5205   1.070   0.224   4.046
 1436SOL     OW 5206   5.558   3.903   0.782
 1436SOL    HW1 5207   5.470   3.889   0.829
 1436SOL    HW2 5208   5.570   3.833   0.712
 1437SOL     OW 5209   4.625   1.473   6.156
 1437SOL    HW1 5210   4.701   1.455   6.093
 1437SOL    HW2 5211   4.642   1.558   6.205
 1438SOL     OW 5212   2.934   1.015   1.224
 1438SOL    HW1 5213   2.938   0.981   1.318
 1438SOL    HW2 5214   2.892   1.106   1.222
 1439SOL     OW 5215   0.446   5.897   6.994
 1439SOL    HW1 5216   0.500   5.825   6.950
 1439SOL    HW2 5217   0.488   5.922   0.057
 1440SOL     OW 5218   3.248   3.518   3.889
 1440SOL    HW1 5219   3.256   3.614   3.864
 1440SOL    HW2 5220   3.263   3.508   3.988
 1441SOL     OW 5221   6.623   3.711   3.521
 1441SOL    HW1 5222   6.673   3.661   3.450
 1441SOL    HW2 5223   6.688   3.744   3.590
 1442SOL     OW 5224   5.371   4.863   0.862
 1442SOL    HW1 5225   5.418   4.927   0.924
 1442SOL    HW2 5226   5.424   4.778   0.856
 1443SOL     OW 5227   0.764   0.559   3.549
 1443SOL    HW1 5228   0.792   0.607   3.633
 1443SOL    HW2 5229   0.698   0.614   3.500
 1444SOL     OW 5230   4.558   6.258   3.198
 1444SOL    HW1 5231   4.594   6.341   3.242
 1444SOL    HW2 5232   4.531   6.192   3.268
 1445SOL     OW 5233   0.474   2.797   1.765
 1445SOL    HW1 5234   0.395   2.741   1.790
 1445SOL    HW2 5235   0.554   2.738   1.752
 1446SOL     OW 5236   4.589   2.661   0.221
 1446SOL    HW1 5237   4.646   2.691   0.297
 1446SOL    HW2 5238   4.607   2.565   0.202
 1447SOL     OW 5239   6.510   1.444   5.060
 1447SOL    HW1 5240   6.545   1.373   4.999
 1447SOL    HW2 5241   6.547   1.431   5.151
 1448SOL     OW 5242   6.308   1.654   0.866
 1448SOL    HW1 5243   6.261   1.703   0.939
 1448SOL    HW2 5244   6.315   1.557   0.890
 1449SOL     OW 5245   6.206   6.364   0.737
 1449SOL    HW1 5246   6.223   6.266   0.729
 1449SOL    HW2 5247   6.108   6.381   0.734
 1450SOL     OW 5248   6.177   2.523   2.666
 1450SOL    HW1 5249   6.224   2.435   2.661
 1450SOL    HW2 5250   6.177   2.566   2.576
 1451SOL     OW 5251   2.747   6.901   2.897
 1451SOL    HW1 5252   2.716   6.855   2.815
 1451SOL    HW2 5253   2.826   6.853   2.935
 1452SOL     OW 5254   5.210   0.835   4.811
 1452SOL    HW1 5255   5.173   0.754   4.766
 1452SOL    HW2 5256   5.287   0.870   4.758
 1453SOL     OW 5257   5.582   3.395   4.720
 1453SOL    HW1 5258   5.560   3.300   4.738
 1453SOL    HW2 5259   5.499   3.445   4.697
 1454SOL     OW 5260   5.298   2.592   1.910
 1454SOL    HW1 5261   5.366   2.520   1.928
 1454SOL    HW2 5262   5.230   2.557   1.845
 1455SOL     OW 5263   1.214   0.654   2.034
 1455SOL    HW1 5264   1.146   0.582   2.020
 1455SOL    HW2 5265   1.257   0.677   1.947
 1456SOL     OW 5266   0.097   6.485   5.151
 1456SOL    HW1 5267   0.071   6.576   5.118
 1456SOL    HW2 5268   0.015   6.435   5.179
 1457SOL     OW 5269   1.459   6.791   3.305
 1457SOL    HW1 5270   1.452   6.743   3.218
 1457SOL    HW2 5271   1.443   6.889   3.290
 1458SOL     OW 5272   5.161   6.668   5.184
 1458SOL    HW1 5273   5.128   6.578   5.155
 1458SOL    HW2 5274   5.259   6.662   5.206
 1459SOL     OW 5275   2.613   5.752   6.717
 1459SOL    HW1 5276   2.517   5.773   6.734
 1459SOL    HW2 5277   2.620   5.684   6.644
 1460SOL     OW 5278   0.246   6.419   6.507
 1460SOL    HW1 5279   0.278   6.514   6.509
 1460SOL    HW2 5280   0.321   6.359   6.537
 1461SOL     OW 5281   6.432   4.123   3.643
 1461SOL    HW1 5282   6.451   4.210   3.599
 1461SOL    HW2 5283   6.338   4.121   3.677
 1462SOL     OW 5284   6.537   1.633   0.389
 1462SOL    HW1 5285   6.494   1.639   0.479
 1462SOL    HW2 5286   6.605   1.560   0.390
 1463SOL     OW 5287   0.515   0.151   5.589
 1463SOL    HW1 5288   0.440   0.212   5.614
 1463SOL    HW2 5289   0.592   0.205   5.555
 1464SOL     OW 5290   0.381   6.819   0.307
 1464SOL    HW1 5291   0.429   6.740   0.346
 1464SOL    HW2 5292   0.286   6.795   0.290
 1465SOL     OW 5293   1.008   1.254   3.132
 1465SOL    HW1 5294   1.014   1.168   3.081
 1465SOL    HW2 5295   1.061   1.325   3.085
 1466SOL     OW 5296   6.999   6.248   2.459
 1466SOL    HW1 5297   0.067   6.279   2.439
 1466SOL    HW2 5298   6.998   6.202   2.548
 1467SOL     OW 5299   1.486   0.461   2.699
 1467SOL    HW1 5300   1.426   0.500   2.769
 1467SOL    HW2 5301   1.500   0.528   2.626
 1468SOL     OW 5302   5.697   5.747   3.211
 1468SOL    HW1 5303   5.693   5.655   3.170
 1468SOL    HW2 5304   5.714   5.739   3.309
 1469SOL     OW 5305   0.605   0.682   3.159
 1469SOL    HW1 5306   0.520   0.732   3.144
 1469SOL    HW2 5307   0.586   0.583   3.156
 1470SOL     OW 5308   1.203   0.635   2.526
 1470SOL    HW1 5309   1.203   0.678   2.435
 1470SOL    HW2 5310   1.282   0.667   2.578
 1471SOL     OW 5311   6.551   0.774   6.368
 1471SOL    HW1 5312   6.630   0.829   6.345
 1471SOL    HW2 5313   6.581   0.684   6.400
 1472SOL     OW 5314   4.729   6.138   4.651
 1472SOL    HW1 5315   4.769   6.047   4.646
 1472SOL    HW2 5316   4.691   6.163   4.562
 1473SOL     OW 5317   5.994   5.415   3.135
 1473SOL    HW1 5318   6.030   5.506   3.112
 1473SOL    HW2 5319   6.024   5.349   3.066
 1474SOL     OW 5320   6.027   5.970   3.866
 1474SOL    HW1 5321   5.957   5.909   3.829
 1474SOL    HW2 5322   5.996   6.065   3.860
 1475SOL     OW 5323   0.154   0.174   1.810
 1475SOL    HW1 5324   0.136   0.183   1.908
 1475SOL    HW2 5325   0.137   0.261   1.765
 1476SOL     OW 5326   1.333   1.199   1.942
 1476SOL    HW1 5327   1.423   1.186   1.901
 1476SOL    HW2 5328   1.306   1.117   1.992
 1477SOL     OW 5329   2.596   0.214   6.114
 1477SOL    HW1 5330   2.585   0.119   6.142
 1477SOL    HW2 5331   2.562   0.274   6.186
 1478SOL     OW 5332   5.915   4.750   0.958
 1478SOL    HW1 5333   5.837   4.724   1.015
 1478SOL    HW2 5334   5.887   4.821   0.894
 1479SOL     OW 5335   1.520   4.530   0.567
 1479SOL    HW1 5336   1.508   4.454   0.631
 1479SOL    HW2 5337   1.488   4.503   0.476
 1480SOL     OW 5338   2.453   0.796   7.001
 1480SOL    HW1 5339   2.457   0.731   6.926
 1480SOL    HW2 5340   2.543   0.805   0.019
 1481SOL     OW 5341   5.295   1.815   5.358
 1481SOL    HW1 5342   5.251   1.729   5.383
 1481SOL    HW2 5343   5.394   1.805   5.366
 1482SOL     OW 5344   5.918   1.684   1.058
 1482SOL    HW1 5345   5.960   1.649   0.974
 1482SOL    HW2 5346   5.954   1.634   1.137
 1483SOL     OW 5347   0.043   3.207   0.097
 1483SOL    HW1 5348   6.993   3.245   0.151
 1483SOL    HW2 5349   0.103   3.281   0.067
 1484SOL     OW 5350   6.107   4.250   3.364
 1484SOL    HW1 5351   6.108   4.192   3.282
 1484SOL    HW2 5352   6.015   4.286   3.378
 1485SOL     OW 5353   4.544   2.554   2.366
 1485SOL    HW1 5354   4.623   2.496   2.387
 1485SOL    HW2 5355   4.532   2.622   2.438
 1486SOL     OW 5356   4.455   2.163   3.592
 1486SOL    HW1 5357   4.540   2.113   3.576
 1486SOL    HW2 5358   4.449   2.191   3.688
 1487SOL     OW 5359   6.920   1.458   6.596
 1487SOL    HW1 5360   6.958   1.393   6.531
 1487SOL    HW2 5361   6.839   1.502   6.557
 1488SOL     OW 5362   5.069   1.934   2.703
 1488SOL    HW1 5363   5.096   1.979   2.788
 1488SOL    HW2 5364   4.973   1.953   2.684
 1489SOL     OW 5365   3.824   4.903   4.527
 1489SOL    HW1 5366   3.822   4.917   4.428
 1489SOL    HW2 5367   3.732   4.888   4.561
 1490SOL     OW 5368   1.351   1.967   0.586
 1490SOL    HW1 5369   1.343   2.056   0.542
 1490SOL    HW2 5370   1.273   1.952   0.646
 1491SOL     OW 5371   6.315   3.608   3.295
 1491SOL    HW1 5372   6.294   3.664   3.376
 1491SOL    HW2 5373   6.295   3.512   3.315
 1492SOL     OW 5374   5.077   2.016   1.798
 1492SOL    HW1 5375   5.084   2.097   1.740
 1492SOL    HW2 5376   4.983   1.981   1.796
 1493SOL     OW 5377   4.545   0.244   4.551
 1493SOL    HW1 5378   4.523   0.341   4.559
 1493SOL    HW2 5379   4.637   0.234   4.513
 1494SOL     OW 5380   4.091   2.803   5.682
 1494SOL    HW1 5381   4.085   2.790   5.583
 1494SOL    HW2 5382   4.023   2.746   5.728
 1495SOL     OW 5383   0.409   3.415   3.303
 1495SOL    HW1 5384   0.321   3.368   3.304
 1495SOL    HW2 5385   0.417   3.469   3.220
 1496SOL     OW 5386   0.289   0.494   1.543
 1496SOL    HW1 5387   0.220   0.473   1.613
 1496SOL    HW2 5388   0.276   0.588   1.512
 1497SOL     OW 5389   0.125   4.714   3.838
 1497SOL    HW1 5390   0.085   4.622   3.845
 1497SOL    HW2 5391   0.187   4.717   3.760
 1498SOL     OW 5392   2.383   4.840   6.377
 1498SOL    HW1 5393   2.466   4.785   6.384
 1498SOL    HW2 5394   2.406   4.937   6.388
 1499SOL     OW 5395   1.196   4.104   5.151
 1499SOL    HW1 5396   1.290   4.122   5.179
 1499SOL    HW2 5397   1.166   4.175   5.088
 1500SOL     OW 5398   5.868   7.002   0.764
 1500SOL    HW1 5399   5.886   6.905   0.774
 1500SOL    HW2 5400   5.863   0.020   0.855
 1501SOL     OW 5401   3.934   0.838   6.595
 1501SOL    HW1 5402   3.986   0.769   6.647
 1501SOL    HW2 5403   3.944   0.927   6.639
 1502SOL     OW 5404   6.785   6.932   0.109
 1502SOL    HW1 5405   6.844   6.978   0.043
 1502SOL    HW2 5406   6.797   6.833   0.102
 1503SOL     OW 5407   2.137   2.731   1.264
 1503SOL    HW1 5408   2.091   2.769   1.344
 1503SOL    HW2 5409   2.118   2.633   1.259
 1504SOL     OW 5410   2.719   6.997   4.849
 1504SOL    HW1 5411   2.649   0.038   4.876
 1504SOL    HW2 5412   2.722   6.990   4.749
 1505SOL     OW 5413   5.264   0.034   5.960
 1505SOL    HW1 5414   5.224   0.016   6.050
 1505SOL    HW2 5415   5.193   0.065   5.898
 1506SOL     OW 5416   1.036   5.024   3.400
 1506SOL    HW1 5417   0.952   4.991   3.356
 1506SOL    HW2 5418   1.107   4.954   3.393
 1507SOL     OW 5419   1.570   1.452   4.733
 1507SOL    HW1 5420   1.614   1.457   4.823
 1507SOL    HW2 5421   1.636   1.480   4.663
 1508SOL     OW 5422   4.634   0.102   0.932
 1508SOL    HW1 5423   4.580   0.134   0.854
 1508SOL    HW2 5424   4.574   0.058   0.998
 1509SOL     OW 5425   4.160   2.946   6.496
 1509SOL    HW1 5426   4.111   2.860   6.508
 1509SOL    HW2 5427   4.138   2.984   6.407
 1510SOL     OW 5428   5.634   2.472   4.057
 1510SOL    HW1 5429   5.542   2.438   4.076
 1510SOL    HW2 5430   5.700   2.424   4.115
 1511SOL     OW 5431   2.432   1.756   6.953
 1511SOL    HW1 5432   2.378   1.672   6.955
 1511SOL    HW2 5433   2.497   1.751   6.877
 1512SOL     OW 5434   6.506   6.517   1.641
 1512SOL    HW1 5435   6.512   6.614   1.617
 1512SOL    HW2 5436   6.424   6.477   1.601
 1513SOL     OW 5437   3.934   0.918   3.787
 1513SOL    HW1 5438   3.922   0.951   3.693
 1513SOL    HW2 5439   3.887   0.830   3.798
 1514SOL     OW 5440   5.281   1.693   4.801
 1514SOL    HW1 5441   5.316   1.640   4.879
 1514SOL    HW2 5442   5.288   1.790   4.822
 1515SOL     OW 5443   0.348   3.340   5.426
 1515SOL    HW1 5444   0.436   3.305   5.394
 1515SOL    HW2 5445   0.302   3.270   5.480
 1516SOL     OW 5446   0.877   1.069   0.981
 1516SOL    HW1 5447   0.969   1.087   1.016
 1516SOL    HW2 5448   0.839   1.152   0.941
 1517SOL     OW 5449   4.026   5.094   4.023
 1517SOL    HW1 5450   4.053   5.073   3.929
 1517SOL    HW2 5451   4.028   5.010   4.078
 1518SOL     OW 5452   6.950   3.818   6.806
 1518SOL    HW1 5453   6.859   3.860   6.808
 1518SOL    HW2 5454   6.940   3.719   6.798
 1519SOL     OW 5455   6.889   4.299   1.254
 1519SOL    HW1 5456   6.944   4.362   1.198
 1519SOL    HW2 5457   6.932   4.290   1.344
 1520SOL     OW 5458   1.815   3.519   2.398
 1520SOL    HW1 5459   1.869   3.603   2.404
 1520SOL    HW2 5460   1.871   3.445   2.360
 1521SOL     OW 5461   1.872   3.146   0.212
 1521SOL    HW1 5462   1.915   3.216   0.155
 1521SOL    HW2 5463   1.799   3.101   0.159
 1522SOL     OW 5464   0.026   1.979   6.141
 1522SOL    HW1 5465   7.008   1.926   6.214
 1522SOL    HW2 5466   0.119   1.946   6.125
 1523SOL     OW 5467   5.218   3.720   6.609
 1523SOL    HW1 5468   5.266   3.699   6.694
 1523SOL    HW2 5469   5.125   3.685   6.613
 1524SOL     OW 5470   1.111   1.661   1.573
 1524SOL    HW1 5471   1.157   1.677   1.660
 1524SOL    HW2 5472   1.042   1.732   1.559
 1525SOL     OW 5473   4.776   2.055   5.496
 1525SOL    HW1 5474   4.778   1.969   5.546
 1525SOL    HW2 5475   4.868   2.078   5.464
 1526SOL     OW 5476   0.470   1.211   1.287
 1526SOL    HW1 5477   0.569   1.226   1.282
 1526SOL    HW2 5478   0.445   1.135   1.226
 1527SOL     OW 5479   3.120   1.880   4.958
 1527SOL    HW1 5480   3.052   1.902   5.028
 1527SOL    HW2 5481   3.183   1.957   4.948
 1528SOL     OW 5482   5.046   6.052   2.775
 1528SOL    HW1 5483   5.130   6.089   2.735
 1528SOL    HW2 5484   4.975   6.047   2.705
 1529SOL     OW 5485   4.879   1.400   6.043
 1529SOL    HW1 5486   4.939   1.472   6.007
 1529SOL    HW2 5487   4.824   1.363   5.968
 1530SOL     OW 5488   3.158   6.964   1.159
 1530SOL    HW1 5489   3.206   6.983   1.073
 1530SOL    HW2 5490   3.224   6.951   1.232
 1531SOL     OW 5491   5.571   0.669   5.268
 1531SOL    HW1 5492   5.649   0.640   5.323
 1531SOL    HW2 5493   5.595   0.750   5.215
 1532SOL     OW 5494   2.713   2.180   4.490
 1532SOL    HW1 5495   2.760   2.187   4.577
 1532SOL    HW2 5496   2.755   2.242   4.424
 1533SOL     OW 5497   0.055   3.328   6.750
 1533SOL    HW1 5498   0.050   3.327   6.650
 1533SOL    HW2 5499   0.143   3.289   6.779
 1534SOL     OW 5500   2.041   5.028   0.327
 1534SOL    HW1 5501   2.065   5.108   0.271
 1534SOL    HW2 5502   2.041   4.946   0.270
 1535SOL     OW 5503   5.460   5.179   4.365
 1535SOL    HW1 5504   5.546   5.186   4.416
 1535SOL    HW2 5505   5.473   5.216   4.273
 1536SOL     OW 5506   3.362   5.488   4.133
 1536SOL    HW1 5507   3.377   5.396   4.099
 1536SOL    HW2 5508   3.440   5.516   4.189
 1537SOL     OW 5509   3.295   5.289   3.850
 1537SOL    HW1 5510   3.290   5.244   3.939
 1537SOL    HW2 5511   3.376   5.346   3.846
 1538SOL     OW 5512   3.393   4.879   6.227
 1538SOL    HW1 5513   3.395   4.942   6.304
 1538SOL    HW2 5514   3.487   4.863   6.195
 1539SOL     OW 5515   3.942   4.202   1.357
 1539SOL    HW1 5516   3.862   4.252   1.325
 1539SOL    HW2 5517   3.980   4.147   1.283
 1540SOL     OW 5518   1.243   0.274   4.629
 1540SOL    HW1 5519   1.155   0.249   4.669
 1540SOL    HW2 5520   1.292   0.192   4.600
 1541SOL     OW 5521   3.725   2.417   1.323
 1541SOL    HW1 5522   3.686   2.489   1.381
 1541SOL    HW2 5523   3.817   2.396   1.354
 1542SOL     OW 5524   6.800   5.917   1.729
 1542SOL    HW1 5525   6.823   5.961   1.643
 1542SOL    HW2 5526   6.714   5.955   1.764
 1543SOL     OW 5527   3.207   3.475   3.251
 1543SOL    HW1 5528   3.294   3.506   3.288
 1543SOL    HW2 5529   3.205   3.375   3.248
 1544SOL     OW 5530   3.016   4.015   2.212
 1544SOL    HW1 5531   2.972   4.103   2.228
 1544SOL    HW2 5532   3.088   4.001   2.279
 1545SOL     OW 5533   5.243   0.403   5.326
 1545SOL    HW1 5534   5.170   0.397   5.394
 1545SOL    HW2 5535   5.331   0.414   5.372
 1546SOL     OW 5536   5.425   0.382   5.970
 1546SOL    HW1 5537   5.409   0.339   6.059
 1546SOL    HW2 5538   5.512   0.349   5.933
 1547SOL     OW 5539   2.183   4.216   2.480
 1547SOL    HW1 5540   2.165   4.142   2.545
 1547SOL    HW2 5541   2.150   4.302   2.517
 1548SOL     OW 5542   4.212   4.210   5.863
 1548SOL    HW1 5543   4.119   4.199   5.899
 1548SOL    HW2 5544   4.257   4.286   5.909
 1549SOL     OW 5545   6.725   1.188   2.057
 1549SOL    HW1 5546   6.812   1.176   2.106
 1549SOL    HW2 5547   6.681   1.272   2.088
 1550SOL     OW 5548   3.324   6.843   5.732
 1550SOL    HW1 5549   3.405   6.842   5.791
 1550SOL    HW2 5550   3.352   6.838   5.637
 1551SOL     OW 5551   1.822   3.031   1.448
 1551SOL    HW1 5552   1.745   3.058   1.506
 1551SOL    HW2 5553   1.877   3.112   1.426
 1552SOL     OW 5554   0.979   0.023   1.057
 1552SOL    HW1 5555   0.973   0.115   1.018
 1552SOL    HW2 5556   0.916   6.987   1.009
 1553SOL     OW 5557   6.334   1.741   6.314
 1553SOL    HW1 5558   6.391   1.822   6.330
 1553SOL    HW2 5559   6.389   1.671   6.268
 1554SOL     OW 5560   4.239   2.302   3.161
 1554SOL    HW1 5561   4.310   2.362   3.199
 1554SOL    HW2 5562   4.234   2.315   3.062
 1555SOL     OW 5563   4.653   2.588   5.418
 1555SOL    HW1 5564   4.736   2.597   5.363
 1555SOL    HW2 5565   4.675   2.541   5.503
 1556SOL     OW 5566   3.100   0.319   0.703
 1556SOL    HW1 5567   3.154   0.390   0.657
 1556SOL    HW2 5568   3.080   0.348   0.797
 1557SOL     OW 5569   2.322   2.869   0.992
 1557SOL    HW1 5570   2.309   2.845   0.895
 1557SOL    HW2 5571   2.235   2.856   1.041
 1558SOL     OW 5572   5.895   2.254   5.348
 1558SOL    HW1 5573   5.924   2.298   5.263
 1558SOL    HW2 5574   5.934   2.162   5.353
 1559SOL     OW 5575   0.305   3.759   1.993
 1559SOL    HW1 5576   0.298   3.838   1.932
 1559SOL    HW2 5577   0.232   3.694   1.971
 1560SOL     OW 5578   3.722   1.244   6.971
 1560SOL    HW1 5579   3.812   1.227   7.013
 1560SOL    HW2 5580   3.679   1.322   7.018
 1561SOL     OW 5581   5.297   6.120   2.673
 1561SOL    HW1 5582   5.289   6.032   2.627
 1561SOL    HW2 5583   5.367   6.175   2.627
 1562SOL     OW 5584   2.904   6.251   2.221
 1562SOL    HW1 5585   3.000   6.248   2.250
 1562SOL    HW2 5586   2.900   6.273   2.124
 1563SOL     OW 5587   2.886   2.195   4.974
 1563SOL    HW1 5588   2.840   2.189   5.062
 1563SOL    HW2 5589   2.976   2.237   4.986
 1564SOL     OW 5590   1.059   1.177   2.444
 1564SOL    HW1 5591   1.114   1.259   2.458
 1564SOL    HW2 5592   1.081   1.137   2.355
 1565SOL     OW 5593   4.268   5.714   4.782
 1565SOL    HW1 5594   4.289   5.796   4.729
 1565SOL    HW2 5595   4.170   5.693   4.774
 1566SOL     OW 5596   5.923   4.613   3.937
 1566SOL    HW1 5597   5.936   4.689   4.001
 1566SOL    HW2 5598   5.852   4.551   3.972
 1567SOL     OW 5599   5.889   5.504   6.467
 1567SOL    HW1 5600   5.928   5.494   6.559
 1567SOL    HW2 5601   5.791   5.522   6.474
 1568SOL     OW 5602   2.352   6.075   3.541
 1568SOL    HW1 5603   2.259   6.051   3.514
 1568SOL    HW2 5604   2.406   6.096   3.459
 1569SOL     OW 5605   4.040   0.465   3.213
 1569SOL    HW1 5606   4.080   0.504   3.296
 1569SOL    HW2 5607   4.113   0.439   3.150
 1570SOL     OW 5608   2.746   6.770   6.564
 1570SOL    HW1 5609   2.817   6.832   6.530
 1570SOL    HW2 5610   2.710   6.806   6.650
 1571SOL     OW 5611   0.845   2.790   3.287
 1571SOL    HW1 5612   0.896   2.704   3.286
 1571SOL    HW2 5613   0.750   2.773   3.259
 1572SOL     OW 5614   1.695   5.456   1.636
 1572SOL    HW1 5615   1.782   5.441   1.683
 1572SOL    HW2 5616   1.623   5.475   1.702
 1573SOL     OW 5617   5.074   5.475   1.725
 1573SOL    HW1 5618   5.091   5.562   1.770
 1573SOL    HW2 5619   5.013   5.490   1.647
 1574SOL     OW 5620   5.841   3.193   2.276
 1574SOL    HW1 5621   5.894   3.123   2.227
 1574SOL    HW2 5622   5.822   3.161   2.368
 1575SOL     OW 5623   2.186   0.730   1.691
 1575SOL    HW1 5624   2.107   0.682   1.653
 1575SOL    HW2 5625   2.176   0.828   1.673
 1576SOL     OW 5626   0.816   6.362   2.335
 1576SOL    HW1 5627   0.810   6.275   2.384
 1576SOL    HW2 5628   0.725   6.388   2.303
 1577SOL     OW 5629   2.979   0.596   6.551
 1577SOL    HW1 5630   2.927   0.527   6.500
 1577SOL    HW2 5631   2.942   0.603   6.643
 1578SOL     OW 5632   4.816   1.182   6.668
 1578SOL    HW1 5633   4.775   1.184   6.759
 1578SOL    HW2 5634   4.754   1.227   6.603
 1579SOL     OW 5635   0.463   3.024   1.312
 1579SOL    HW1 5636   0.446   3.025   1.410
 1579SOL    HW2 5637   0.451   2.931   1.277
 1580SOL     OW 5638   3.553   4.159   3.396
 1580SOL    HW1 5639   3.542   4.253   3.427
 1580SOL    HW2 5640   3.557   4.156   3.296
 1581SOL     OW 5641   0.098   4.582   5.341
 1581SOL    HW1 5642   0.024   4.554   5.281
 1581SOL    HW2 5643   0.063   4.593   5.434
 1582SOL     OW 5644   4.121   5.620   5.036
 1582SOL    HW1 5645   4.062   5.568   4.975
 1582SOL    HW2 5646   4.171   5.558   5.097
 1583SOL     OW 5647   0.692   6.199   4.822
 1583SOL    HW1 5648   0.606   6.153   4.803
 1583SOL    HW2 5649   0.768   6.144   4.785
 1584SOL     OW 5650   1.799   4.472   6.800
 1584SOL    HW1 5651   1.759   4.420   6.725
 1584SOL    HW2 5652   1.841   4.556   6.764
 1585SOL     OW 5653   4.209   1.682   2.991
 1585SOL    HW1 5654   4.159   1.765   3.013
 1585SOL    HW2 5655   4.287   1.704   2.932
 1586SOL     OW 5656   3.336   4.929   3.257
 1586SOL    HW1 5657   3.344   4.914   3.356
 1586SOL    HW2 5658   3.428   4.938   3.218
 1587SOL     OW 5659   1.586   5.380   5.292
 1587SOL    HW1 5660   1.521   5.408   5.362
 1587SOL    HW2 5661   1.589   5.280   5.288
 1588SOL     OW 5662   4.450   0.393   2.047
 1588SOL    HW1 5663   4.458   0.492   2.054
 1588SOL    HW2 5664   4.537   0.354   2.018
 1589SOL     OW 5665   6.719   2.836   2.976
 1589SOL    HW1 5666   6.782   2.904   2.939
 1589SOL    HW2 5667   6.664   2.876   3.049
 1590SOL     OW 5668   5.638   1.635   3.652
 1590SOL    HW1 5669   5.738   1.631   3.650
 1590SOL    HW2 5670   5.602   1.549   3.688
 1591SOL     OW 5671   6.567   5.611   1.691
 1591SOL    HW1 5672   6.545   5.531   1.746
 1591SOL    HW2 5673   6.595   5.686   1.751
 1592SOL     OW 5674   1.660   4.517   7.020
 1592SOL    HW1 5675   1.649   4.422   0.025
 1592SOL    HW2 5676   1.721   4.520   6.941
 1593SOL     OW 5677   0.897   6.798   6.130
 1593SOL    HW1 5678   0.813   6.778   6.080
 1593SOL    HW2 5679   0.894   6.755   6.220
 1594SOL     OW 5680   6.651   6.727   1.285
 1594SOL    HW1 5681   6.719   6.794   1.317
 1594SOL    HW2 5682   6.677   6.636   1.317
 1595SOL     OW 5683   1.200   4.342   0.751
 1595SOL    HW1 5684   1.239   4.414   0.809
 1595SOL    HW2 5685   1.270   4.274   0.731
 1596SOL     OW 5686   6.245   3.443   2.767
 1596SOL    HW1 5687   6.288   3.352   2.772
 1596SOL    HW2 5688   6.307   3.507   2.722
 1597SOL     OW 5689   3.155   6.001   1.236
 1597SOL    HW1 5690   3.084   6.066   1.264
 1597SOL    HW2 5691   3.122   5.948   1.158
 1598SOL     OW 5692   1.173   5.528   6.506
 1598SOL    HW1 5693   1.188   5.434   6.538
 1598SOL    HW2 5694   1.081   5.535   6.467
 1599SOL     OW 5695   4.392   4.785   4.955
 1599SOL    HW1 5696   4.464   4.815   4.892
 1599SOL    HW2 5697   4.391   4.685   4.958
 1600SOL     OW 5698   3.034   0.308   2.077
 1600SOL    HW1 5699   3.016   0.404   2.054
 1600SOL    HW2 5700   3.105   0.272   2.017
 1601SOL     OW 5701   0.378   6.623   3.992
 1601SOL    HW1 5702   0.357   6.612   3.895
 1601SOL    HW2 5703   0.463   6.675   4.003
 1602SOL     OW 5704   5.153   5.595   3.926
 1602SOL    HW1 5705   5.086   5.659   3.964
 1602SOL    HW2 5706   5.197   5.545   4.001
 1603SOL     OW 5707   2.980   5.438   4.394
 1603SOL    HW1 5708   2.904   5.375   4.378
 1603SOL    HW2 5709   2.953   5.531   4.368
 1604SOL     OW 5710   4.030   5.162   1.701
 1604SOL    HW1 5711   3.987   5.112   1.776
 1604SOL    HW2 5712   3.968   5.233   1.668
 1605SOL     OW 5713   6.042   5.555   1.215
 1605SOL    HW1 5714   6.084   5.555   1.124
 1605SOL    HW2 5715   6.057   5.644   1.259
 1606SOL     OW 5716   4.180   5.369   5.428
 1606SOL    HW1 5717   4.210   5.455   5.387
 1606SOL    HW2 5718   4.158   5.303   5.356
 1607SOL     OW 5719   4.388   0.184   1.304
 1607SOL    HW1 5720   4.345   0.094   1.297
 1607SOL    HW2 5721   4.406   0.205   1.400
 1608SOL     OW 5722   6.909   0.498   3.217
 1608SOL    HW1 5723   6.927   0.559   3.140
 1608SOL    HW2 5724   6.889   0.552   3.298
 1609SOL     OW 5725   3.346   6.664   0.718
 1609SOL    HW1 5726   3.252   6.633   0.703
 1609SOL    HW2 5727   3.395   6.595   0.770
 1610SOL     OW 5728   4.804   6.671   0.758
 1610SOL    HW1 5729   4.809   6.656   0.857
 1610SOL    HW2 5730   4.820   6.584   0.710
 1611SOL     OW 5731   1.918   3.260   1.099
 1611SOL    HW1 5732   1.956   3.312   1.022
 1611SOL    HW2 5733   1.867   3.182   1.064
 1612SOL     OW 5734   3.040   6.458   1.202
 1612SOL    HW1 5735   3.057   6.388   1.133
 1612SOL    HW2 5736   2.976   6.526   1.166
 1613SOL     OW 5737   0.546   5.930   2.249
 1613SOL    HW1 5738   0.483   5.996   2.291
 1613SOL    HW2 5739   0.512   5.905   2.159
 1614SOL     OW 5740   5.588   1.855   6.065
 1614SOL    HW1 5741   5.656   1.920   6.030
 1614SOL    HW2 5742   5.634   1.769   6.090
 1615SOL     OW 5743   6.871   5.241   5.794
 1615SOL    HW1 5744   6.950   5.266   5.851
 1615SOL    HW2 5745   6.877   5.289   5.707
 1616SOL     OW 5746   3.711   1.184   4.113
 1616SOL    HW1 5747   3.714   1.275   4.154
 1616SOL    HW2 5748   3.790   1.172   4.053
 1617SOL     OW 5749   4.815   7.006   3.079
 1617SOL    HW1 5750   4.827   0.010   3.174
 1617SOL    HW2 5751   4.846   6.911   3.069
 1618SOL     OW 5752   1.189   5.975   2.325
 1618SOL    HW1 5753   1.223   6.026   2.405
 1618SOL    HW2 5754   1.189   6.034   2.245
 1619SOL     OW 5755   0.552   5.359   0.191
 1619SOL    HW1 5756   0.463   5.393   0.161
 1619SOL    HW2 5757   0.600   5.318   0.113
 1620SOL     OW 5758   3.062   5.107   1.405
 1620SOL    HW1 5759   3.157   5.124   1.378
 1620SOL    HW2 5760   3.055   5.106   1.504
 1621SOL     OW 5761   6.109   0.254   1.000
 1621SOL    HW1 5762   6.159   0.266   0.914
 1621SOL    HW2 5763   6.048   0.176   0.993
 1622SOL     OW 5764   0.210   3.855   5.845
 1622SOL    HW1 5765   0.302   3.882   5.818
 1622SOL    HW2 5766   0.190   3.891   5.936
 1623SOL     OW 5767   0.140   1.680   4.510
 1623SOL    HW1 5768   0.067   1.654   4.446
 1623SOL    HW2 5769   0.229   1.665   4.468
 1624SOL     OW 5770   4.371   1.654   6.836
 1624SOL    HW1 5771   4.318   1.681   6.916
 1624SOL    HW2 5772   4.446   1.718   6.821
 1625SOL     OW 5773   1.431   5.031   6.533
 1625SOL    HW1 5774   1.399   5.062   6.623
 1625SOL    HW2 5775   1.361   5.051   6.464
 1626SOL     OW 5776   3.009   1.446   1.929
 1626SOL    HW1 5777   2.968   1.534   1.902
 1626SOL    HW2 5778   3.021   1.389   1.848
 1627SOL     OW 5779   5.999   2.491   3.463
 1627SOL    HW1 5780   6.039   2.479   3.372
 1627SOL    HW2 5781   5.899   2.499   3.454
 1628SOL     OW 5782   4.385   5.682   6.312
 1628SOL    HW1 5783   4.408   5.779   6.317
 1628SOL    HW2 5784   4.333   5.664   6.229
 1629SOL     OW 5785   2.692   1.462   3.365
 1629SOL    HW1 5786   2.657   1.427   3.451
 1629SOL    HW2 5787   2.766   1.403   3.333
 1630SOL     OW 5788   6.852   4.458   5.680
 1630SOL    HW1 5789   6.855   4.371   5.631
 1630SOL    HW2 5790   6.775   4.456   5.745
 1631SOL     OW 5791   0.028   3.332   0.912
 1631SOL    HW1 5792   6.985   3.374   0.851
 1631SOL    HW2 5793   0.113   3.315   0.861
 1632SOL     OW 5794   4.773   4.273   2.476
 1632SOL    HW1 5795   4.762   4.203   2.406
 1632SOL    HW2 5796   4.711   4.349   2.457
 1633SOL     OW 5797   5.235   4.570   4.565
 1633SOL    HW1 5798   5.193   4.643   4.510
 1633SOL    HW2 5799   5.175   4.490   4.566
 1634SOL     OW 5800   4.489   1.258   4.361
 1634SOL    HW1 5801   4.530   1.298   4.442
 1634SOL    HW2 5802   4.561   1.220   4.303
 1635SOL     OW 5803   2.198   5.874   6.575
 1635SOL    HW1 5804   2.102   5.883   6.598
 1635SOL    HW2 5805   2.217   5.781   6.544
 1636SOL     OW 5806   3.717   5.325   1.172
 1636SOL    HW1 5807   3.645   5.378   1.215
 1636SOL    HW2 5808   3.806   5.360   1.201
 1637SOL     OW 5809   6.554   6.659   3.900
 1637SOL    HW1 5810   6.646   6.684   3.869
 1637SOL    HW2 5811   6.509   6.739   3.940
 1638SOL     OW 5812   0.232   3.236   1.644
 1638SOL    HW1 5813   0.154   3.184   1.610
 1638SOL    HW2 5814   0.210   3.334   1.641
 1639SOL     OW 5815   6.671   4.645   2.251
 1639SOL    HW1 5816   6.585   4.634   2.300
 1639SOL    HW2 5817   6.694   4.742   2.245
 1640SOL     OW 5818   6.875   0.445   0.561
 1640SOL    HW1 5819   6.882   0.543   0.543
 1640SOL    HW2 5820   6.904   0.394   0.479
 1641SOL     OW 5821   6.758   2.557   4.090
 1641SOL    HW1 5822   6.690   2.561   4.016
 1641SOL    HW2 5823   6.822   2.633   4.080
 1642SOL     OW 5824   6.914   3.078   6.666
 1642SOL    HW1 5825   6.846   3.005   6.673
 1642SOL    HW2 5826   7.003   3.038   6.645
 1643SOL     OW 5827   3.273   4.874   2.782
 1643SOL    HW1 5828   3.213   4.816   2.838
 1643SOL    HW2 5829   3.242   4.969   2.788
 1644SOL     OW 5830   5.860   3.051   6.682
 1644SOL    HW1 5831   5.851   2.952   6.671
 1644SOL    HW2 5832   5.805   3.081   6.760
 1645SOL     OW 5833   3.003   6.565   6.344
 1645SOL    HW1 5834   3.092   6.584   6.386
 1645SOL    HW2 5835   2.956   6.651   6.324
 1646SOL     OW 5836   1.816   6.065   0.352
 1646SOL    HW1 5837   1.853   6.152   0.319
 1646SOL    HW2 5838   1.797   6.071   0.450
 1647SOL     OW 5839   5.460   2.574   4.319
 1647SOL    HW1 5840   5.465   2.476   4.334
 1647SOL    HW2 5841   5.436   2.619   4.405
 1648SOL     OW 5842   5.533   6.230   0.131
 1648SOL    HW1 5843   5.563   6.172   0.056
 1648SOL    HW2 5844   5.607   6.293   0.157
 1649SOL     OW 5845   3.520   1.352   3.765
 1649SOL    HW1 5846   3.556   1.428   3.819
 1649SOL    HW2 5847   3.530   1.267   3.816
 1650SOL     OW 5848   1.229   5.277   5.456
 1650SOL    HW1 5849   1.249   5.201   5.393
 1650SOL    HW2 5850   1.306   5.288   5.520
 1651SOL     OW 5851   0.423   2.141   2.421
 1651SOL    HW1 5852   0.437   2.173   2.515
 1651SOL    HW2 5853   0.441   2.043   2.416
 1652SOL     OW 5854   0.951   3.481   2.417
 1652SOL    HW1 5855   1.039   3.449   2.453
 1652SOL    HW2 5856   0.966   3.564   2.363
 1653SOL     OW 5857   6.891   5.494   1.379
 1653SOL    HW1 5858   6.968   5.470   1.438
 1653SOL    HW2 5859   6.807   5.453   1.415
 1654SOL     OW 5860   6.817   3.205   1.232
 1654SOL    HW1 5861   6.793   3.219   1.136
 1654SOL    HW2 5862   6.911   3.234   1.248
 1655SOL     OW 5863   6.352   1.148   4.510
 1655SOL    HW1 5864   6.395   1.190   4.431
 1655SOL    HW2 5865   6.409   1.073   4.543
 1656SOL     OW 5866   2.275   5.675   3.481
 1656SOL    HW1 5867   2.204   5.604   3.483
 1656SOL    HW2 5868   2.313   5.682   3.389
 1657SOL     OW 5869   6.581   0.379   5.044
 1657SOL    HW1 5870   6.646   0.373   5.119
 1657SOL    HW2 5871   6.539   0.470   5.042
 1658SOL     OW 5872   7.020   0.674   0.554
 1658SOL    HW1 5873   0.068   0.605   0.543
 1658SOL    HW2 5874   0.037   0.762   0.575
 1659SOL     OW 5875   3.825   0.481   6.893
 1659SOL    HW1 5876   3.830   0.575   6.928
 1659SOL    HW2 5877   3.771   0.425   6.955
 1660SOL     OW 5878   1.696   0.290   2.643
 1660SOL    HW1 5879   1.642   0.361   2.688
 1660SOL    HW2 5880   1.659   0.200   2.667
 1661SOL     OW 5881   2.978   5.915   2.165
 1661SOL    HW1 5882   2.882   5.898   2.141
 1661SOL    HW2 5883   2.983   5.953   2.257
 1662SOL     OW 5884   6.196   0.227   5.412
 1662SOL    HW1 5885   6.161   0.161   5.345
 1662SOL    HW2 5886   6.296   0.232   5.404
 1663SOL     OW 5887   5.102   4.964   2.786
 1663SOL    HW1 5888   5.013   4.950   2.744
 1663SOL    HW2 5889   5.106   5.055   2.827
 1664SOL     OW 5890   2.297   6.524   5.697
 1664SOL    HW1 5891   2.370   6.580   5.657
 1664SOL    HW2 5892   2.286   6.441   5.644
 1665SOL     OW 5893   0.035   3.837   1.718
 1665SOL    HW1 5894   0.120   3.884   1.693
 1665SOL    HW2 5895   0.050   3.783   1.801
 1666SOL     OW 5896   5.861   0.377   0.408
 1666SOL    HW1 5897   5.897   0.300   0.461
 1666SOL    HW2 5898   5.765   0.360   0.385
 1667SOL     OW 5899   6.765   6.268   1.549
 1667SOL    HW1 5900   6.668   6.252   1.565
 1667SOL    HW2 5901   6.806   6.186   1.509
 1668SOL     OW 5902   4.996   4.579   3.237
 1668SOL    HW1 5903   5.075   4.611   3.186
 1668SOL    HW2 5904   4.912   4.602   3.187
 1669SOL     OW 5905   6.994   4.255   5.225
 1669SOL    HW1 5906   6.997   4.210   5.135
 1669SOL    HW2 5907   0.062   4.263   5.261
 1670SOL     OW 5908   0.458   4.221   4.859
 1670SOL    HW1 5909   0.462   4.219   4.959
 1670SOL    HW2 5910   0.495   4.136   4.823
 1671SOL     OW 5911   5.682   1.341   3.132
 1671SOL    HW1 5912   5.777   1.326   3.105
 1671SOL    HW2 5913   5.661   1.439   3.129
 1672SOL     OW 5914   1.867   4.170   6.474
 1672SOL    HW1 5915   1.833   4.116   6.397
 1672SOL    HW2 5916   1.948   4.222   6.445
 1673SOL     OW 5917   1.624   1.486   5.016
 1673SOL    HW1 5918   1.607   1.533   5.103
 1673SOL    HW2 5919   1.669   1.399   5.034
 1674SOL     OW 5920   6.721   2.534   2.415
 1674SOL    HW1 5921   6.802   2.588   2.390
 1674SOL    HW2 5922   6.647   2.553   2.350
 1675SOL     OW 5923   5.101   0.676   0.366
 1675SOL    HW1 5924   5.147   0.630   0.442
 1675SOL    HW2 5925   5.119   0.626   0.281
 1676SOL     OW 5926   2.568   2.447   2.213
 1676SOL    HW1 5927   2.512   2.364   2.217
 1676SOL    HW2 5928   2.664   2.422   2.196
 1677SOL     OW 5929   4.058   3.705   3.447
 1677SOL    HW1 5930   4.035   3.777   3.512
 1677SOL    HW2 5931   4.081   3.745   3.359
 1678SOL     OW 5932   0.360   5.855   1.443
 1678SOL    HW1 5933   0.329   5.939   1.397
 1678SOL    HW2 5934   0.415   5.879   1.523
 1679SOL     OW 5935   1.690   1.126   4.596
 1679SOL    HW1 5936   1.717   1.141   4.691
 1679SOL    HW2 5937   1.769   1.094   4.544
 1680SOL     OW 5938   6.001   3.667   5.597
 1680SOL    HW1 5939   5.965   3.634   5.509
 1680SOL    HW2 5940   6.038   3.590   5.649
 1681SOL     OW 5941   1.918   6.257   5.571
 1681SOL    HW1 5942   1.916   6.284   5.475
 1681SOL    HW2 5943   1.879   6.165   5.580
 1682SOL     OW 5944   2.140   0.913   6.088
 1682SOL    HW1 5945   2.224   0.964   6.071
 1682SOL    HW2 5946   2.139   0.881   6.183
 1683SOL     OW 5947   5.867   5.874   2.787
 1683SOL    HW1 5948   5.846   5.870   2.885
 1683SOL    HW2 5949   5.962   5.845   2.773
 1684SOL     OW 5950   0.539   5.446   2.022
 1684SOL    HW1 5951   0.453   5.420   2.067
 1684SOL    HW2 5952   0.614   5.442   2.089
 1685SOL     OW 5953   1.823   1.827   5.721
 1685SOL    HW1 5954   1.868   1.881   5.793
 1685SOL    HW2 5955   1.775   1.750   5.763
 1686SOL     OW 5956   3.431   6.162   4.071
 1686SOL    HW1 5957   3.420   6.151   4.169
 1686SOL    HW2 5958   3.407   6.256   4.045
 1687SOL     OW 5959   0.259   4.003   1.882
 1687SOL    HW1 5960   0.180   4.047   1.838
 1687SOL    HW2 5961   0.296   4.063   1.953
 1688SOL     OW 5962   1.789   1.968   3.847
 1688SOL    HW1 5963   1.728   2.028   3.899
 1688SOL    HW2 5964   1.771   1.979   3.750
 1689SOL     OW 5965   6.392   0.894   2.272
 1689SOL    HW1 5966   6.343   0.897   2.360
 1689SOL    HW2 5967   6.391   0.800   2.237
 1690SOL     OW 5968   0.486   3.212   4.286
 1690SOL    HW1 5969   0.565   3.254   4.331
 1690SOL    HW2 5970   0.476   3.118   4.317
 1691SOL     OW 5971   5.197   2.992   3.866
 1691SOL    HW1 5972   5.296   2.982   3.871
 1691SOL    HW2 5973   5.158   2.983   3.958
 1692SOL     OW 5974   5.253   5.594   1.410
 1692SOL    HW1 5975   5.323   5.573   1.479
 1692SOL    HW2 5976   5.192   5.515   1.400
 1693SOL     OW 5977   6.843   1.740   4.472
 1693SOL    HW1 5978   6.866   1.719   4.567
 1693SOL    HW2 5979   6.888   1.825   4.444
 1694SOL     OW 5980   6.270   0.584   4.386
 1694SOL    HW1 5981   6.173   0.576   4.364
 1694SOL    HW2 5982   6.317   0.498   4.365
 1695SOL     OW 5983   3.430   0.682   6.775
 1695SOL    HW1 5984   3.505   0.733   6.819
 1695SOL    HW2 5985   3.440   0.689   6.676
 1696SOL     OW 5986   3.708   5.866   0.847
 1696SOL    HW1 5987   3.790   5.852   0.902
 1696SOL    HW2 5988   3.677   5.961   0.855
 1697SOL     OW 5989   6.437   2.327   1.102
 1697SOL    HW1 5990   6.470   2.234   1.085
 1697SOL    HW2 5991   6.338   2.324   1.117
 1698SOL     OW 5992   3.707   1.099   1.390
 1698SOL    HW1 5993   3.675   1.005   1.401
 1698SOL    HW2 5994   3.793   1.110   1.441
 1699SOL     OW 5995   1.966   1.945   5.899
 1699SOL    HW1 5996   1.990   1.933   5.995
 1699SOL    HW2 5997   2.041   1.991   5.852
 1700SOL     OW 5998   5.995   3.665   3.462
 1700SOL    HW1 5999   5.964   3.574   3.487
 1700SOL    HW2 6000   6.084   3.683   3.504
 1701SOL     OW 6001   6.082   5.016   5.250
 1701SOL    HW1 6002   6.113   4.966   5.331
 1701SOL    HW2 6003   6.030   5.097   5.278
 1702SOL     OW 6004   1.325   1.118   0.405
 1702SOL    HW1 6005   1.417   1.085   0.384
 1702SOL    HW2 6006   1.267   1.106   0.325
 1703SOL     OW 6007   4.383   1.830   6.340
 1703SOL    HW1 6008   4.384   1.782   6.252
 1703SOL    HW2 6009   4.352   1.767   6.411
 1704SOL     OW 6010   1.476   2.037   6.872
 1704SOL    HW1 6011   1.547   1.969   6.886
 1704SOL    HW2 6012   1.419   2.045   6.954
 1705SOL     OW 6013   3.479   2.157   1.481
 1705SOL    HW1 6014   3.561   2.203   1.515
 1705SOL    HW2 6015   3.497   2.059   1.472
 1706SOL     OW 6016   4.389   2.038   1.473
 1706SOL    HW1 6017   4.446   2.043   1.555
 1706SOL    HW2 6018   4.320   1.967   1.484
 1707SOL     OW 6019   4.750   2.763   2.714
 1707SOL    HW1 6020   4.815   2.687   2.705
 1707SOL    HW2 6021   4.750   2.816   2.630
 1708SOL     OW 6022   4.280   5.332   1.779
 1708SOL    HW1 6023   4.352   5.277   1.822
 1708SOL    HW2 6024   4.194   5.281   1.782
 1709SOL     OW 6025   3.821   6.985   1.100
 1709SOL    HW1 6026   3.764   6.998   1.181
 1709SOL    HW2 6027   3.788   0.017   1.025
 1710SOL     OW 6028   3.959   4.958   3.725
 1710SOL    HW1 6029   3.958   4.963   3.625
 1710SOL    HW2 6030   4.014   4.880   3.754
 1711SOL     OW 6031   2.318   5.022   5.250
 1711SOL    HW1 6032   2.412   5.014   5.215
 1711SOL    HW2 6033   2.313   4.981   5.341
 1712SOL     OW 6034   0.109   1.951   4.615
 1712SOL    HW1 6035   0.166   1.924   4.693
 1712SOL    HW2 6036   0.121   1.885   4.541
 1713SOL     OW 6037   3.713   1.548   3.051
 1713SOL    HW1 6038   3.745   1.539   2.956
 1713SOL    HW2 6039   3.734   1.464   3.101
 1714SOL     OW 6040   4.181   1.770   6.997
 1714SOL    HW1 6041   4.118   1.768   0.050
 1714SOL    HW2 6042   4.129   1.774   6.911
 1715SOL     OW 6043   2.672   5.730   3.078
 1715SOL    HW1 6044   2.734   5.691   3.010
 1715SOL    HW2 6045   2.664   5.668   3.156
 1716SOL     OW 6046   4.534   0.359   3.447
 1716SOL    HW1 6047   4.461   0.291   3.449
 1716SOL    HW2 6048   4.537   0.407   3.534
 1717SOL     OW 6049   3.675   5.214   5.370
 1717SOL    HW1 6050   3.592   5.208   5.314
 1717SOL    HW2 6051   3.739   5.277   5.327
 1718SOL     OW 6052   2.808   2.016   2.694
 1718SOL    HW1 6053   2.865   2.094   2.670
 1718SOL    HW2 6054   2.863   1.950   2.745
 1719SOL     OW 6055   2.244   4.117   1.123
 1719SOL    HW1 6056   2.182   4.196   1.125
 1719SOL    HW2 6057   2.305   4.120   1.202
 1720SOL     OW 6058   0.022   2.479   5.198
 1720SOL    HW1 6059   0.054   2.493   5.291
 1720SOL    HW2 6060   6.971   2.414   5.198
 1721SOL     OW 6061   1.195   0.385   1.803
 1721SOL    HW1 6062   1.285   0.390   1.846
 1721SOL    HW2 6063   1.125   0.375   1.874
 1722SOL     OW 6064   4.242   1.438   3.110
 1722SOL    HW1 6065   4.218   1.443   3.207
 1722SOL    HW2 6066   4.223   1.525   3.066
 1723SOL     OW 6067   4.325   2.173   6.687
 1723SOL    HW1 6068   4.376   2.243   6.637
 1723SOL    HW2 6069   4.342   2.183   6.785
 1724SOL     OW 6070   6.450   2.113   2.014
 1724SOL    HW1 6071   6.467   2.034   2.073
 1724SOL    HW2 6072   6.509   2.189   2.043
 1725SOL     OW 6073   2.151   5.224   6.733
 1725SOL    HW1 6074   2.212   5.174   6.795
 1725SOL    HW2 6075   2.061   5.179   6.732
 1726SOL     OW 6076   5.498   4.083   4.207
 1726SOL    HW1 6077   5.517   4.136   4.124
 1726SOL    HW2 6078   5.400   4.085   4.226
 1727SOL     OW 6079   4.079   3.555   2.928
 1727SOL    HW1 6080   4.072   3.621   2.853
 1727SOL    HW2 6081   4.107   3.466   2.891
 1728SOL     OW 6082   5.084   4.573   5.303
 1728SOL    HW1 6083   5.145   4.588   5.381
 1728SOL    HW2 6084   5.115   4.630   5.226
 1729SOL     OW 6085   1.060   4.084   2.974
 1729SOL    HW1 6086   1.073   4.107   2.878
 1729SOL    HW2 6087   1.025   3.990   2.982
 1730SOL     OW 6088   2.733   6.722   5.404
 1730SOL    HW1 6089   2.740   6.626   5.375
 1730SOL    HW2 6090   2.667   6.769   5.345
 1731SOL     OW 6091   6.123   4.911   3.639
 1731SOL    HW1 6092   6.124   4.979   3.712
 1731SOL    HW2 6093   6.120   4.957   3.551
 1732SOL     OW 6094   1.598   3.974   6.525
 1732SOL    HW1 6095   1.672   3.912   6.550
 1732SOL    HW2 6096   1.628   4.035   6.452
 1733SOL     OW 6097   2.501   3.886   1.679
 1733SOL    HW1 6098   2.433   3.918   1.614
 1733SOL    HW2 6099   2.539   3.964   1.729
 1734SOL     OW 6100   5.923   2.960   1.340
 1734SOL    HW1 6101   5.937   2.874   1.293
 1734SOL    HW2 6102   6.012   2.997   1.369
 1735SOL     OW 6103   4.637   5.436   5.651
 1735SOL    HW1 6104   4.657   5.528   5.685
 1735SOL    HW2 6105   4.666   5.429   5.555
 1736SOL     OW 6106   3.583   4.079   0.520
 1736SOL    HW1 6107   3.603   4.108   0.426
 1736SOL    HW2 6108   3.521   4.000   0.517
 1737SOL     OW 6109   5.262   0.104   4.620
 1737SOL    HW1 6110   5.240   0.024   4.564
 1737SOL    HW2 6111   5.225   0.091   4.712
 1738SOL     OW 6112   1.584   3.856   4.098
 1738SOL    HW1 6113   1.525   3.793   4.149
 1738SOL    HW2 6114   1.677   3.849   4.132
 1739SOL     OW 6115   6.356   0.073   4.317
 1739SOL    HW1 6116   6.446   0.045   4.352
 1739SOL    HW2 6117   6.345   0.040   4.224
 1740SOL     OW 6118   6.853   1.573   5.147
 1740SOL    HW1 6119   6.811   1.573   5.238
 1740SOL    HW2 6120   6.785   1.604   5.080
 1741SOL     OW 6121   2.548   1.637   4.257
 1741SOL    HW1 6122   2.603   1.589   4.324
 1741SOL    HW2 6123   2.550   1.588   4.170
 1742SOL     OW 6124   5.764   1.088   6.101
 1742SOL    HW1 6125   5.800   0.998   6.075
 1742SOL    HW2 6126   5.836   1.157   6.091
 1743SOL     OW 6127   1.246   0.982   2.555
 1743SOL    HW1 6128   1.188   1.056   2.521
 1743SOL    HW2 6129   1.337   0.988   2.514
 1744SOL     OW 6130   5.334   2.356   2.789
 1744SOL    HW1 6131   5.281   2.368   2.872
 1744SOL    HW2 6132   5.353   2.446   2.748
 1745SOL     OW 6133   6.113   6.398   1.715
 1745SOL    HW1 6134   6.149   6.309   1.742
 1745SOL    HW2 6135   6.015   6.402   1.736
 1746SOL     OW 6136   2.183   3.969   4.117
 1746SOL    HW1 6137   2.218   3.876   4.105
 1746SOL    HW2 6138   2.137   3.976   4.206
 1747SOL     OW 6139   3.846   1.379   1.761
 1747SOL    HW1 6140   3.901   1.320   1.821
 1747SOL    HW2 6141   3.805   1.452   1.815
 1748SOL     OW 6142   6.358   1.627   4.245
 1748SOL    HW1 6143   6.309   1.540   4.240
 1748SOL    HW2 6144   6.421   1.625   4.322
 1749SOL     OW 6145   3.131   6.659   7.000
 1749SOL    HW1 6146   3.045   6.656   0.026
 1749SOL    HW2 6147   3.113   6.681   6.904
 1750SOL     OW 6148   4.634   0.532   4.311
 1750SOL    HW1 6149   4.573   0.523   4.390
 1750SOL    HW2 6150   4.613   0.616   4.261
 1751SOL     OW 6151   5.788   2.291   4.955
 1751SOL    HW1 6152   5.803   2.343   5.039
 1751SOL    HW2 6153   5.859   2.314   4.889
 1752SOL     OW 6154   6.332   0.734   1.236
 1752SOL    HW1 6155   6.339   0.635   1.240
 1752SOL    HW2 6156   6.418   0.772   1.202
 1753SOL     OW 6157   6.767   1.613   1.749
 1753SOL    HW1 6158   6.812   1.534   1.706
 1753SOL    HW2 6159   6.682   1.633   1.700
 1754SOL     OW 6160   1.719   5.953   6.055
 1754SOL    HW1 6161   1.809   5.911   6.066
 1754SOL    HW2 6162   1.671   5.956   6.143
 1755SOL     OW 6163   6.621   6.183   5.914
 1755SOL    HW1 6164   6.573   6.268   5.891
 1755SOL    HW2 6165   6.625   6.173   6.013
 1756SOL     OW 6166   3.701   6.514   6.154
 1756SOL    HW1 6167   3.617   6.561   6.181
 1756SOL    HW2 6168   3.772   6.530   6.223
 1757SOL     OW 6169   3.382   5.374   4.716
 1757SOL    HW1 6170   3.464   5.317   4.708
 1757SOL    HW2 6171   3.382   5.442   4.643
 1758SOL     OW 6172   1.558   0.050   4.792
 1758SOL    HW1 6173   1.588   0.008   4.707
 1758SOL    HW2 6174   1.458   0.055   4.793
 1759SOL     OW 6175   1.145   6.847   5.343
 1759SOL    HW1 6176   1.210   6.837   5.268
 1759SOL    HW2 6177   1.106   6.758   5.366
 1760SOL     OW 6178   6.184   0.720   4.944
 1760SOL    HW1 6179   6.145   0.746   5.031
 1760SOL    HW2 6180   6.138   0.769   4.870
 1761SOL     OW 6181   0.276   0.731   0.884
 1761SOL    HW1 6182   0.226   0.817   0.877
 1761SOL    HW2 6183   0.252   0.687   0.971
 1762SOL     OW 6184   0.322   1.324   5.117
 1762SOL    HW1 6185   0.270   1.400   5.079
 1762SOL    HW2 6186   0.399   1.301   5.057
 1763SOL     OW 6187   0.987   4.566   5.150
 1763SOL    HW1 6188   0.925   4.600   5.221
 1763SOL    HW2 6189   1.081   4.570   5.183
 1764SOL     OW 6190   1.049   3.628   1.956
 1764SOL    HW1 6191   1.004   3.713   1.929
 1764SOL    HW2 6192   0.998   3.551   1.917
 1765SOL     OW 6193   3.957   2.611   1.702
 1765SOL    HW1 6194   3.986   2.686   1.762
 1765SOL    HW2 6195   3.858   2.602   1.706
 1766SOL     OW 6196   5.340   4.790   4.147
 1766SOL    HW1 6197   5.379   4.864   4.092
 1766SOL    HW2 6198   5.403   4.766   4.220
 1767SOL     OW 6199   0.862   4.659   2.662
 1767SOL    HW1 6200   0.910   4.576   2.688
 1767SOL    HW2 6201   0.796   4.637   2.589
 1768SOL     OW 6202   4.537   0.599   0.351
 1768SOL    HW1 6203   4.580   0.684   0.381
 1768SOL    HW2 6204   4.605   0.541   0.305
 1769SOL     OW 6205   6.069   1.085   7.018
 1769SOL    HW1 6206   6.066   0.986   7.005
 1769SOL    HW2 6207   6.136   1.108   0.064
 1770SOL     OW 6208   0.414   3.865   5.451
 1770SOL    HW1 6209   0.403   3.879   5.549
 1770SOL    HW2 6210   0.343   3.914   5.402
 1771SOL     OW 6211   1.554   4.858   6.817
 1771SOL    HW1 6212   1.652   4.867   6.798
 1771SOL    HW2 6213   1.516   4.781   6.764
 1772SOL     OW 6214   4.019   5.198   4.429
 1772SOL    HW1 6215   4.086   5.272   4.428
 1772SOL    HW2 6216   4.062   5.115   4.465
 1773SOL     OW 6217   0.906   1.369   5.292
 1773SOL    HW1 6218   0.985   1.362   5.231
 1773SOL    HW2 6219   0.822   1.372   5.237
 1774SOL     OW 6220   5.508   6.603   2.553
 1774SOL    HW1 6221   5.531   6.561   2.465
 1774SOL    HW2 6222   5.508   6.702   2.543
 1775SOL     OW 6223   1.649   5.373   6.466
 1775SOL    HW1 6224   1.719   5.435   6.431
 1775SOL    HW2 6225   1.619   5.405   6.556
 1776SOL     OW 6226   4.831   0.514   5.479
 1776SOL    HW1 6227   4.781   0.456   5.413
 1776SOL    HW2 6228   4.768   0.582   5.517
 1777SOL     OW 6229   4.023   6.851   6.385
 1777SOL    HW1 6230   4.069   6.803   6.309
 1777SOL    HW2 6231   4.076   6.932   6.409
 1778SOL     OW 6232   4.947   1.302   4.532
 1778SOL    HW1 6233   5.000   1.218   4.541
 1778SOL    HW2 6234   4.980   1.354   4.453
 1779SOL     OW 6235   5.300   6.791   5.482
 1779SOL    HW1 6236   5.268   6.881   5.510
 1779SOL    HW2 6237   5.306   6.786   5.382
 1780SOL     OW 6238   1.529   4.685   4.595
 1780SOL    HW1 6239   1.555   4.607   4.653
 1780SOL    HW2 6240   1.496   4.651   4.507
 1781SOL     OW 6241   5.305   6.788   4.739
 1781SOL    HW1 6242   5.250   6.808   4.820
 1781SOL    HW2 6243   5.391   6.840   4.743
 1782SOL     OW 6244   2.095   1.770   2.582
 1782SOL    HW1 6245   2.023   1.751   2.649
 1782SOL    HW2 6246   2.182   1.736   2.617
 1783SOL     OW 6247   2.238   3.385   5.919
 1783SOL    HW1 6248   2.325   3.384   5.870
 1783SOL    HW2 6249   2.185   3.303   5.895
 1784SOL     OW 6250   2.571   1.044   1.697
 1784SOL    HW1 6251   2.482   1.031   1.740
 1784SOL    HW2 6252   2.560   1.094   1.611
 1785SOL     OW 6253   0.043   6.330   4.155
 1785SOL    HW1 6254   0.034   6.361   4.060
 1785SOL    HW2 6255   0.050   6.410   4.215
 1786SOL     OW 6256   1.798   5.333   0.726
 1786SOL    HW1 6257   1.739   5.293   0.655
 1786SOL    HW2 6258   1.791   5.279   0.809
 1787SOL     OW 6259   1.609   2.596   4.941
 1787SOL    HW1 6260   1.650   2.566   5.027
 1787SOL    HW2 6261   1.616   2.696   4.935
 1788SOL     OW 6262   4.847   3.717   0.339
 1788SOL    HW1 6263   4.751   3.695   0.359
 1788SOL    HW2 6264   4.904   3.638   0.359
 1789SOL     OW 6265   6.392   3.226   2.274
 1789SOL    HW1 6266   6.302   3.195   2.308
 1789SOL    HW2 6267   6.387   3.323   2.251
 1790SOL     OW 6268   3.162   1.406   4.605
 1790SOL    HW1 6269   3.261   1.409   4.618
 1790SOL    HW2 6270   3.119   1.358   4.682
 1791SOL     OW 6271   6.159   0.767   3.701
 1791SOL    HW1 6272   6.185   0.836   3.768
 1791SOL    HW2 6273   6.157   0.807   3.610
 1792SOL     OW 6274   6.129   1.377   4.832
 1792SOL    HW1 6275   6.054   1.342   4.775
 1792SOL    HW2 6276   6.172   1.455   4.787
 1793SOL     OW 6277   6.685   1.263   4.961
 1793SOL    HW1 6278   6.761   1.278   5.025
 1793SOL    HW2 6279   6.660   1.166   4.961
 1794SOL     OW 6280   6.219   0.196   6.547
 1794SOL    HW1 6281   6.257   0.162   6.633
 1794SOL    HW2 6282   6.127   0.158   6.534
 1795SOL     OW 6283   5.742   4.769   0.673
 1795SOL    HW1 6284   5.682   4.726   0.739
 1795SOL    HW2 6285   5.707   4.860   0.650
 1796SOL     OW 6286   1.934   0.898   5.896
 1796SOL    HW1 6287   1.853   0.873   5.950
 1796SOL    HW2 6288   2.014   0.898   5.956
 1797SOL     OW 6289   1.486   6.803   4.910
 1797SOL    HW1 6290   1.545   6.879   4.882
 1797SOL    HW2 6291   1.502   6.724   4.850
 1798SOL     OW 6292   3.629   2.963   4.271
 1798SOL    HW1 6293   3.591   2.925   4.186
 1798SOL    HW2 6294   3.638   3.062   4.262
 1799SOL     OW 6295   4.250   1.714   6.576
 1799SOL    HW1 6296   4.288   1.681   6.663
 1799SOL    HW2 6297   4.186   1.646   6.540
 1800SOL     OW 6298   5.241   4.307   3.656
 1800SOL    HW1 6299   5.219   4.340   3.747
 1800SOL    HW2 6300   5.222   4.379   3.589
 1801SOL     OW 6301   0.801   1.993   1.794
 1801SOL    HW1 6302   0.812   1.994   1.695
 1801SOL    HW2 6303   0.839   1.907   1.830
 1802SOL     OW 6304   6.232   5.662   3.697
 1802SOL    HW1 6305   6.254   5.586   3.759
 1802SOL    HW2 6306   6.284   5.652   3.612
 1803SOL     OW 6307   0.281   6.127   2.437
 1803SOL    HW1 6308   0.301   6.221   2.466
 1803SOL    HW2 6309   0.262   6.071   2.517
 1804SOL     OW 6310   3.297   3.707   5.994
 1804SOL    HW1 6311   3.282   3.639   6.066
 1804SOL    HW2 6312   3.330   3.660   5.912
 1805SOL     OW 6313   1.156   6.363   6.045
 1805SOL    HW1 6314   1.162   6.356   5.945
 1805SOL    HW2 6315   1.203   6.446   6.075
 1806SOL     OW 6316   6.667   2.057   2.221
 1806SOL    HW1 6317   6.663   1.970   2.171
 1806SOL    HW2 6318   6.704   2.041   2.312
 1807SOL     OW 6319   5.941   3.724   0.661
 1807SOL    HW1 6320   5.947   3.639   0.713
 1807SOL    HW2 6321   5.962   3.707   0.565
 1808SOL     OW 6322   5.246   2.784   5.080
 1808SOL    HW1 6323   5.246   2.703   5.139
 1808SOL    HW2 6324   5.243   2.866   5.137
 1809SOL     OW 6325   2.649   1.967   5.403
 1809SOL    HW1 6326   2.551   1.978   5.387
 1809SOL    HW2 6327   2.700   2.003   5.325
 1810SOL     OW 6328   0.245   0.461   4.571
 1810SOL    HW1 6329   0.340   0.439   4.593
 1810SOL    HW2 6330   0.234   0.462   4.471
 1811SOL     OW 6331   4.634   4.655   1.543
 1811SOL    HW1 6332   4.556   4.602   1.508
 1811SOL    HW2 6333   4.681   4.601   1.613
 1812SOL     OW 6334   4.533   0.162   6.015
 1812SOL    HW1 6335   4.445   0.190   5.975
 1812SOL    HW2 6336   4.518   0.132   6.109
 1813SOL     OW 6337   4.583   4.507   2.083
 1813SOL    HW1 6338   4.504   4.567   2.087
 1813SOL    HW2 6339   4.562   4.428   2.025
 1814SOL     OW 6340   6.664   0.061   0.777
 1814SOL    HW1 6341   6.748   0.024   0.817
 1814SOL    HW2 6342   6.687   0.133   0.712
 1815SOL     OW 6343   5.492   5.590   2.627
 1815SOL    HW1 6344   5.519   5.679   2.590
 1815SOL    HW2 6345   5.418   5.603   2.693
 1816SOL     OW 6346   4.112   5.848   5.388
 1816SOL    HW1 6347   4.162   5.920   5.340
 1816SOL    HW2 6348   4.151   5.835   5.479
 1817SOL     OW 6349   3.138   1.676   2.577
 1817SOL    HW1 6350   3.213   1.708   2.635
 1817SOL    HW2 6351   3.122   1.579   2.593
 1818SOL     OW 6352   2.028   6.590   0.294
 1818SOL    HW1 6353   2.072   6.649   0.361
 1818SOL    HW2 6354   1.939   6.560   0.329
 1819SOL     OW 6355   1.087   5.053   2.491
 1819SOL    HW1 6356   1.045   5.031   2.579
 1819SOL    HW2 6357   1.127   5.144   2.495
 1820SOL     OW 6358   4.002   0.272   2.519
 1820SOL    HW1 6359   3.922   0.321   2.485
 1820SOL    HW2 6360   4.085   0.325   2.498
 1821SOL     OW 6361   3.310   1.017   1.907
 1821SOL    HW1 6362   3.269   1.025   1.816
 1821SOL    HW2 6363   3.292   1.101   1.958
 1822SOL     OW 6364   1.123   3.478   1.628
 1822SOL    HW1 6365   1.212   3.486   1.582
 1822SOL    HW2 6366   1.117   3.546   1.701
 1823SOL     OW 6367   3.469   6.180   2.550
 1823SOL    HW1 6368   3.431   6.215   2.464
 1823SOL    HW2 6369   3.549   6.123   2.531
 1824SOL     OW 6370   3.982   4.067   0.616
 1824SOL    HW1 6371   4.022   4.158   0.613
 1824SOL    HW2 6372   3.916   4.062   0.692
 1825SOL     OW 6373   0.657   2.610   5.084
 1825SOL    HW1 6374   0.629   2.696   5.040
 1825SOL    HW2 6375   0.749   2.622   5.123
 1826SOL     OW 6376   3.923   1.934   1.076
 1826SOL    HW1 6377   3.873   2.019   1.089
 1826SOL    HW2 6378   3.993   1.925   1.147
 1827SOL     OW 6379   5.240   5.052   1.068
 1827SOL    HW1 6380   5.255   5.119   1.141
 1827SOL    HW2 6381   5.149   5.012   1.078
 1828SOL     OW 6382   1.245   3.659   6.483
 1828SOL    HW1 6383   1.333   3.616   6.504
 1828SOL    HW2 6384   1.183   3.647   6.560
 1829SOL     OW 6385   3.912   0.743   3.358
 1829SOL    HW1 6386   3.966   0.747   3.274
 1829SOL    HW2 6387   3.815   0.749   3.335
 1830SOL     OW 6388   5.936   6.638   5.426
 1830SOL    HW1 6389   5.909   6.712   5.487
 1830SOL    HW2 6390   6.029   6.609   5.447
 1831SOL     OW 6391   5.141   5.839   2.893
 1831SOL    HW1 6392   5.090   5.908   2.842
 1831SOL    HW2 6393   5.139   5.861   2.991
 1832SOL     OW 6394   2.752   4.080   0.325
 1832SOL    HW1 6395   2.663   4.036   0.328
 1832SOL    HW2 6396   2.819   4.023   0.372
 1833SOL     OW 6397   4.748   6.817   1.477
 1833SOL    HW1 6398   4.775   6.913   1.482
 1833SOL    HW2 6399   4.726   6.793   1.383
 1834SOL     OW 6400   2.859   2.895   0.997
 1834SOL    HW1 6401   2.837   2.798   0.996
 1834SOL    HW2 6402   2.777   2.948   0.975
 1835SOL     OW 6403   1.359   5.369   1.114
 1835SOL    HW1 6404   1.269   5.363   1.071
 1835SOL    HW2 6405   1.415   5.291   1.086
 1836SOL     OW 6406   4.990   1.332   2.467
 1836SOL    HW1 6407   5.076   1.281   2.476
 1836SOL    HW2 6408   4.917   1.283   2.515
 1837SOL     OW 6409   1.931   1.224   5.276
 1837SOL    HW1 6410   1.977   1.304   5.237
 1837SOL    HW2 6411   1.941   1.226   5.376
 1838SOL     OW 6412   6.647   0.760   6.770
 1838SOL    HW1 6413   6.564   0.793   6.726
 1838SOL    HW2 6414   6.727   0.793   6.719
 1839SOL     OW 6415   6.377   1.364   6.341
 1839SOL    HW1 6416   6.347   1.425   6.415
 1839SOL    HW2 6417   6.375   1.269   6.373
 1840SOL     OW 6418   3.854   0.131   3.207
 1840SOL    HW1 6419   3.830   0.169   3.117
 1840SOL    HW2 6420   3.850   0.203   3.276
 1841SOL     OW 6421   2.313   0.180   2.297
 1841SOL    HW1 6422   2.341   0.197   2.392
 1841SOL    HW2 6423   2.376   0.226   2.235
 1842SOL     OW 6424   1.653   4.980   0.719
 1842SOL    HW1 6425   1.730   5.027   0.676
 1842SOL    HW2 6426   1.676   4.884   0.732
 1843SOL     OW 6427   3.879   1.115   4.464
 1843SOL    HW1 6428   3.932   1.193   4.495
 1843SOL    HW2 6429   3.939   1.050   4.417
 1844SOL     OW 6430   4.835   1.854   5.675
 1844SOL    HW1 6431   4.912   1.891   5.728
 1844SOL    HW2 6432   4.780   1.795   5.733
 1845SOL     OW 6433   3.267   0.769   3.426
 1845SOL    HW1 6434   3.302   0.758   3.333
 1845SOL    HW2 6435   3.197   0.700   3.444
 1846SOL     OW 6436   4.367   1.055   2.866
 1846SOL    HW1 6437   4.401   1.077   2.957
 1846SOL    HW2 6438   4.442   1.022   2.809
 1847SOL     OW 6439   1.999   0.569   4.603
 1847SOL    HW1 6440   1.924   0.554   4.539
 1847SOL    HW2 6441   2.086   0.552   4.557
 1848SOL     OW 6442   2.530   5.984   4.078
 1848SOL    HW1 6443   2.488   5.920   4.014
 1848SOL    HW2 6444   2.537   6.074   4.036
 1849SOL     OW 6445   4.869   3.124   2.523
 1849SOL    HW1 6446   4.926   3.144   2.443
 1849SOL    HW2 6447   4.812   3.203   2.544
 1850SOL     OW 6448   4.917   1.778   2.295
 1850SOL    HW1 6449   4.971   1.829   2.362
 1850SOL    HW2 6450   4.925   1.822   2.205
 1851SOL     OW 6451   0.330   2.948   6.413
 1851SOL    HW1 6452   0.339   2.865   6.358
 1851SOL    HW2 6453   0.273   3.014   6.364
 1852SOL     OW 6454   0.428   4.447   1.873
 1852SOL    HW1 6455   0.444   4.369   1.933
 1852SOL    HW2 6456   0.463   4.427   1.782
 1853SOL     OW 6457   6.963   2.582   4.503
 1853SOL    HW1 6458   6.962   2.513   4.431
 1853SOL    HW2 6459   0.020   2.570   4.560
 1854SOL     OW 6460   0.999   5.613   3.254
 1854SOL    HW1 6461   1.094   5.627   3.225
 1854SOL    HW2 6462   0.940   5.610   3.173
 1855SOL     OW 6463   5.647   3.021   4.361
 1855SOL    HW1 6464   5.694   3.097   4.316
 1855SOL    HW2 6465   5.675   3.016   4.457
 1856SOL     OW 6466   3.854   3.117   6.906
 1856SOL    HW1 6467   3.769   3.065   6.916
 1856SOL    HW2 6468   3.912   3.073   6.837
 1857SOL     OW 6469   5.655   1.024   0.501
 1857SOL    HW1 6470   5.667   1.050   0.596
 1857SOL    HW2 6471   5.704   0.938   0.483
 1858SOL     OW 6472   4.786   2.292   4.204
 1858SOL    HW1 6473   4.721   2.219   4.228
 1858SOL    HW2 6474   4.747   2.380   4.229
 1859SOL     OW 6475   5.280   1.951   4.834
 1859SOL    HW1 6476   5.249   1.959   4.739
 1859SOL    HW2 6477   5.301   2.042   4.870
 1860SOL     OW 6478   0.815   1.717   4.765
 1860SOL    HW1 6479   0.839   1.721   4.668
 1860SOL    HW2 6480   0.773   1.804   4.792
 1861SOL     OW 6481   5.601   0.288   2.948
 1861SOL    HW1 6482   5.617   0.384   2.923
 1861SOL    HW2 6483   5.678   0.255   3.003
 1862SOL     OW 6484   2.025   6.854   6.812
 1862SOL    HW1 6485   2.076   6.779   6.854
 1862SOL    HW2 6486   2.006   6.833   6.717
 1863SOL     OW 6487   0.266   3.197   1.219
 1863SOL    HW1 6488   0.326   3.146   1.280
 1863SOL    HW2 6489   0.318   3.230   1.140
 1864SOL     OW 6490   2.920   6.179   4.475
 1864SOL    HW1 6491   2.830   6.213   4.504
 1864SOL    HW2 6492   2.961   6.126   4.549
 1865SOL     OW 6493   4.260   1.519   1.211
 1865SOL    HW1 6494   4.164   1.545   1.221
 1865SOL    HW2 6495   4.297   1.559   1.127
 1866SOL     OW 6496   6.487   3.971   4.351
 1866SOL    HW1 6497   6.424   3.916   4.297
 1866SOL    HW2 6498   6.580   3.959   4.316
 1867SOL     OW 6499   2.602   2.686   1.550
 1867SOL    HW1 6500   2.616   2.726   1.459
 1867SOL    HW2 6501   2.560   2.596   1.540
 1868SOL     OW 6502   4.772   4.109   5.050
 1868SOL    HW1 6503   4.798   4.022   5.092
 1868SOL    HW2 6504   4.775   4.101   4.951
 1869SOL     OW 6505   4.887   2.579   4.075
 1869SOL    HW1 6506   4.936   2.500   4.112
 1869SOL    HW2 6507   4.939   2.619   3.999
 1870SOL     OW 6508   0.892   3.262   4.327
 1870SOL    HW1 6509   0.844   3.175   4.315
 1870SOL    HW2 6510   0.912   3.301   4.237
 1871SOL     OW 6511   6.958   6.729   6.935
 1871SOL    HW1 6512   0.001   6.683   6.877
 1871SOL    HW2 6513   6.917   6.663   6.997
 1872SOL     OW 6514   3.200   2.621   0.771
 1872SOL    HW1 6515   3.266   2.564   0.723
 1872SOL    HW2 6516   3.107   2.594   0.747
 1873SOL     OW 6517   6.114   1.177   6.666
 1873SOL    HW1 6518   6.056   1.099   6.688
 1873SOL    HW2 6519   6.072   1.262   6.699
 1874SOL     OW 6520   1.027   0.607   6.263
 1874SOL    HW1 6521   0.960   0.681   6.261
 1874SOL    HW2 6522   1.105   0.634   6.320
 1875SOL     OW 6523   6.098   6.561   0.480
 1875SOL    HW1 6524   6.171   6.495   0.497
 1875SOL    HW2 6525   6.113   6.642   0.536
 1876SOL     OW 6526   5.737   6.363   6.068
 1876SOL    HW1 6527   5.724   6.459   6.045
 1876SOL    HW2 6528   5.763   6.312   5.986
 1877SOL     OW 6529   0.343   0.675   2.180
 1877SOL    HW1 6530   0.393   0.588   2.181
 1877SOL    HW2 6531   0.387   0.738   2.244
 1878SOL     OW 6532   0.395   3.940   3.493
 1878SOL    HW1 6533   0.350   3.876   3.555
 1878SOL    HW2 6534   0.338   3.953   3.412
 1879SOL     OW 6535   2.435   5.112   4.952
 1879SOL    HW1 6536   2.467   5.204   4.974
 1879SOL    HW2 6537   2.340   5.102   4.982
 1880SOL     OW 6538   6.940   2.442   3.360
 1880SOL    HW1 6539   6.876   2.450   3.284
 1880SOL    HW2 6540   0.003   2.407   3.326
 1881SOL     OW 6541   0.867   2.098   3.096
 1881SOL    HW1 6542   0.962   2.129   3.108
 1881SOL    HW2 6543   0.860   2.047   3.010
 1882SOL     OW 6544   1.119   5.821   0.304
 1882SOL    HW1 6545   1.125   5.816   0.404
 1882SOL    HW2 6546   1.195   5.770   0.264
 1883SOL     OW 6547   1.648   3.901   2.975
 1883SOL    HW1 6548   1.557   3.942   2.965
 1883SOL    HW2 6549   1.664   3.876   3.070
 1884SOL     OW 6550   4.431   1.210   1.051
 1884SOL    HW1 6551   4.493   1.264   0.994
 1884SOL    HW2 6552   4.368   1.159   0.993
 1885SOL     OW 6553   6.790   2.308   0.896
 1885SOL    HW1 6554   6.702   2.287   0.854
 1885SOL    HW2 6555   6.814   2.236   0.961
 1886SOL     OW 6556   1.521   1.726   6.978
 1886SOL    HW1 6557   1.451   1.701   0.020
 1886SOL    HW2 6558   1.594   1.777   7.024
 1887SOL     OW 6559   0.435   4.844   5.778
 1887SOL    HW1 6560   0.452   4.890   5.691
 1887SOL    HW2 6561   0.383   4.760   5.762
 1888SOL     OW 6562   1.666   1.637   5.255
 1888SOL    HW1 6563   1.751   1.652   5.305
 1888SOL    HW2 6564   1.633   1.723   5.217
 1889SOL     OW 6565   4.347   3.543   0.329
 1889SOL    HW1 6566   4.378   3.451   0.350
 1889SOL    HW2 6567   4.315   3.547   0.234
 1890SOL     OW 6568   1.062   5.659   5.824
 1890SOL    HW1 6569   1.013   5.747   5.817
 1890SOL    HW2 6570   1.022   5.595   5.758
 1891SOL     OW 6571   6.099   3.412   5.728
 1891SOL    HW1 6572   6.029   3.391   5.796
 1891SOL    HW2 6573   6.112   3.333   5.668
 1892SOL     OW 6574   3.891   6.331   1.295
 1892SOL    HW1 6575   3.821   6.380   1.347
 1892SOL    HW2 6576   3.877   6.232   1.304
 1893SOL     OW 6577   3.299   2.077   4.907
 1893SOL    HW1 6578   3.398   2.088   4.919
 1893SOL    HW2 6579   3.253   2.162   4.932
 1894SOL     OW 6580   4.035   3.703   1.503
 1894SOL    HW1 6581   3.952   3.759   1.498
 1894SOL    HW2 6582   4.057   3.684   1.598
 1895SOL     OW 6583   6.119   1.029   2.025
 1895SOL    HW1 6584   6.208   1.018   1.982
 1895SOL    HW2 6585   6.064   1.093   1.972
 1896SOL     OW 6586   6.489   1.257   4.282
 1896SOL    HW1 6587   6.497   1.297   4.191
 1896SOL    HW2 6588   6.576   1.267   4.331
 1897SOL     OW 6589   6.340   5.597   3.306
 1897SOL    HW1 6590   6.330   5.498   3.301
 1897SOL    HW2 6591   6.253   5.641   3.287
 1898SOL     OW 6592   4.928   6.063   1.349
 1898SOL    HW1 6593   4.992   6.133   1.316
 1898SOL    HW2 6594   4.979   5.983   1.379
 1899SOL     OW 6595   0.391   3.778   2.598
 1899SOL    HW1 6596   0.365   3.833   2.678
 1899SOL    HW2 6597   0.342   3.691   2.601
 1900SOL     OW 6598   0.865   0.127   6.482
 1900SOL    HW1 6599   0.912   0.215   6.475
 1900SOL    HW2 6600   0.766   0.143   6.488
 1901SOL     OW 6601   2.484   1.334   0.242
 1901SOL    HW1 6602   2.409   1.401   0.243
 1901SOL    HW2 6603   2.537   1.344   0.326
 1902SOL     OW 6604   1.203   2.186   4.905
 1902SOL    HW1 6605   1.216   2.280   4.936
 1902SOL    HW2 6606   1.190   2.185   4.806
 1903SOL     OW 6607   6.445   4.488   3.320
 1903SOL    HW1 6608   6.358   4.475   3.272
 1903SOL    HW2 6609   6.468   4.585   3.321
 1904SOL     OW 6610   0.466   6.788   4.464
 1904SOL    HW1 6611   0.455   6.736   4.548
 1904SOL    HW2 6612   0.461   6.886   4.484
 1905SOL     OW 6613   0.035   2.307   4.010
 1905SOL    HW1 6614   0.078   2.393   3.982
 1905SOL    HW2 6615   6.977   2.292   3.956
 1906SOL     OW 6616   2.717   0.053   5.903
 1906SOL    HW1 6617   2.655   0.117   5.950
 1906SOL    HW2 6618   2.795   0.103   5.867
 1907SOL     OW 6619   2.890   0.287   3.437
 1907SOL    HW1 6620   2.893   0.341   3.521
 1907SOL    HW2 6621   2.906   0.191   3.458
 1908SOL     OW 6622   4.674   1.606   5.814
 1908SOL    HW1 6623   4.716   1.516   5.820
 1908SOL    HW2 6624   4.618   1.612   5.732
 1909SOL     OW 6625   2.273   4.482   4.662
 1909SOL    HW1 6626   2.218   4.505   4.743
 1909SOL    HW2 6627   2.218   4.428   4.599
 1910SOL     OW 6628   5.330   2.628   6.614
 1910SOL    HW1 6629   5.411   2.572   6.594
 1910SOL    HW2 6630   5.274   2.636   6.532
 1911SOL     OW 6631   6.587   2.063   5.166
 1911SOL    HW1 6632   6.638   2.039   5.248
 1911SOL    HW2 6633   6.490   2.040   5.179
 1912SOL     OW 6634   3.455   6.560   2.646
 1912SOL    HW1 6635   3.364   6.597   2.666
 1912SOL    HW2 6636   3.524   6.627   2.674
 1913SOL     OW 6637   1.827   6.614   5.256
 1913SOL    HW1 6638   1.812   6.710   5.282
 1913SOL    HW2 6639   1.886   6.570   5.324
 1914SOL     OW 6640   2.363   2.678   6.608
 1914SOL    HW1 6641   2.271   2.709   6.583
 1914SOL    HW2 6642   2.404   2.630   6.531
 1915SOL     OW 6643   4.005   1.256   6.113
 1915SOL    HW1 6644   4.018   1.326   6.042
 1915SOL    HW2 6645   4.075   1.185   6.103
 1916SOL     OW 6646   4.273   5.678   0.885
 1916SOL    HW1 6647   4.244   5.614   0.814
 1916SOL    HW2 6648   4.301   5.764   0.842
 1917SOL     OW 6649   3.812   3.393   4.504
 1917SOL    HW1 6650   3.753   3.460   4.458
 1917SOL    HW2 6651   3.760   3.311   4.524
 1918SOL     OW 6652   6.368   6.679   5.826
 1918SOL    HW1 6653   6.444   6.696   5.763
 1918SOL    HW2 6654   6.316   6.600   5.794
 1919SOL     OW 6655   1.206   6.158   2.107
 1919SOL    HW1 6656   1.272   6.159   2.032
 1919SOL    HW2 6657   1.199   6.249   2.147
 1920SOL     OW 6658   0.603   4.367   3.793
 1920SOL    HW1 6659   0.616   4.297   3.863
 1920SOL    HW2 6660   0.573   4.325   3.708
 1921SOL     OW 6661   0.462   5.431   6.807
 1921SOL    HW1 6662   0.415   5.459   6.724
 1921SOL    HW2 6663   0.404   5.369   6.859
 1922SOL     OW 6664   4.295   3.490   1.324
 1922SOL    HW1 6665   4.290   3.582   1.363
 1922SOL    HW2 6666   4.236   3.428   1.377
 1923SOL     OW 6667   3.216   1.243   0.599
 1923SOL    HW1 6668   3.158   1.306   0.547
 1923SOL    HW2 6669   3.184   1.149   0.584
 1924SOL     OW 6670   6.397   4.576   1.896
 1924SOL    HW1 6671   6.486   4.531   1.892
 1924SOL    HW2 6672   6.397   4.644   1.970
 1925SOL     OW 6673   3.000   3.693   1.902
 1925SOL    HW1 6674   3.007   3.792   1.915
 1925SOL    HW2 6675   2.997   3.648   1.991
 1926SOL     OW 6676   1.837   0.724   4.785
 1926SOL    HW1 6677   1.746   0.697   4.752
 1926SOL    HW2 6678   1.907   0.681   4.728
 1927SOL     OW 6679   3.603   4.155   6.443
 1927SOL    HW1 6680   3.560   4.243   6.422
 1927SOL    HW2 6681   3.680   4.139   6.381
 1928SOL     OW 6682   6.476   2.952   6.025
 1928SOL    HW1 6683   6.484   2.935   5.927
 1928SOL    HW2 6684   6.531   2.885   6.075
 1929SOL     OW 6685   1.471   5.549   1.776
 1929SOL    HW1 6686   1.399   5.487   1.743
 1929SOL    HW2 6687   1.494   5.527   1.871
 1930SOL     OW 6688   5.977   4.691   0.349
 1930SOL    HW1 6689   5.924   4.652   0.425
 1930SOL    HW2 6690   6.013   4.780   0.376
 1931SOL     OW 6691   0.062   3.659   3.025
 1931SOL    HW1 6692   0.047   3.561   3.042
 1931SOL    HW2 6693   7.004   3.700   2.987
 1932SOL     OW 6694   5.212   3.581   2.894
 1932SOL    HW1 6695   5.168   3.550   2.809
 1932SOL    HW2 6696   5.161   3.546   2.972
 1933SOL     OW 6697   2.699   5.400   0.897
 1933SOL    HW1 6698   2.703   5.369   0.991
 1933SOL    HW2 6699   2.723   5.497   0.893
 1934SOL     OW 6700   1.563   0.032   5.204
 1934SOL    HW1 6701   1.631   0.066   5.139
 1934SOL    HW2 6702   1.586   6.963   5.231
 1935SOL     OW 6703   2.982   0.075   4.864
 1935SOL    HW1 6704   3.005   0.170   4.842
 1935SOL    HW2 6705   2.883   0.063   4.856
 1936SOL     OW 6706   5.715   5.452   4.711
 1936SOL    HW1 6707   5.783   5.510   4.756
 1936SOL    HW2 6708   5.630   5.504   4.701
 1937SOL     OW 6709   4.107   6.817   1.797
 1937SOL    HW1 6710   4.028   6.774   1.752
 1937SOL    HW2 6711   4.077   6.900   1.844
 1938SOL     OW 6712   3.961   1.872   3.233
 1938SOL    HW1 6713   3.868   1.884   3.199
 1938SOL    HW2 6714   4.022   1.938   3.189
 1939SOL     OW 6715   1.400   0.356   4.114
 1939SOL    HW1 6716   1.477   0.419   4.124
 1939SOL    HW2 6717   1.425   0.282   4.052
 1940SOL     OW 6718   5.366   5.422   6.583
 1940SOL    HW1 6719   5.414   5.501   6.620
 1940SOL    HW2 6720   5.379   5.418   6.484
 1941SOL     OW 6721   6.589   4.062   2.928
 1941SOL    HW1 6722   6.496   4.098   2.931
 1941SOL    HW2 6723   6.637   4.084   3.013
 1942SOL     OW 6724   6.030   6.575   2.901
 1942SOL    HW1 6725   5.961   6.502   2.902
 1942SOL    HW2 6726   6.057   6.593   2.807
 1943SOL     OW 6727   3.103   6.011   1.937
 1943SOL    HW1 6728   3.069   5.978   2.025
 1943SOL    HW2 6729   3.162   6.091   1.953
 1944SOL     OW 6730   5.275   2.034   6.499
 1944SOL    HW1 6731   5.326   1.950   6.511
 1944SOL    HW2 6732   5.296   2.074   6.409
 1945SOL     OW 6733   4.504   5.503   3.239
 1945SOL    HW1 6734   4.488   5.515   3.141
 1945SOL    HW2 6735   4.563   5.576   3.272
 1946SOL     OW 6736   0.500   1.272   0.786
 1946SOL    HW1 6737   0.480   1.175   0.802
 1946SOL    HW2 6738   0.540   1.312   0.868
 1947SOL     OW 6739   5.386   6.393   4.423
 1947SOL    HW1 6740   5.294   6.417   4.456
 1947SOL    HW2 6741   5.389   6.295   4.403
 1948SOL     OW 6742   6.502   5.537   3.991
 1948SOL    HW1 6743   6.444   5.590   4.053
 1948SOL    HW2 6744   6.472   5.442   3.990
 1949SOL     OW 6745   3.950   4.150   5.925
 1949SOL    HW1 6746   3.892   4.074   5.953
 1949SOL    HW2 6747   3.903   4.236   5.944
 1950SOL     OW 6748   3.804   3.525   0.823
 1950SOL    HW1 6749   3.897   3.519   0.788
 1950SOL    HW2 6750   3.806   3.562   0.916
 1951SOL     OW 6751   6.633   2.888   0.221
 1951SOL    HW1 6752   6.604   2.828   0.147
 1951SOL    HW2 6753   6.649   2.980   0.185
 1952SOL     OW 6754   3.470   2.584   0.123
 1952SOL    HW1 6755   3.480   2.508   0.058
 1952SOL    HW2 6756   3.381   2.579   0.166
 1953SOL     OW 6757   6.338   2.134   6.775
 1953SOL    HW1 6758   6.341   2.234   6.778
 1953SOL    HW2 6759   6.267   2.104   6.711
 1954SOL     OW 6760   5.767   1.141   4.177
 1954SOL    HW1 6761   5.708   1.175   4.103
 1954SOL    HW2 6762   5.733   1.173   4.265
 1955SOL     OW 6763   1.742   6.762   2.093
 1955SOL    HW1 6764   1.701   6.753   2.002
 1955SOL    HW2 6765   1.749   6.671   2.134
 1956SOL     OW 6766   5.839   6.377   2.907
 1956SOL    HW1 6767   5.747   6.387   2.869
 1956SOL    HW2 6768   5.887   6.305   2.858
 1957SOL     OW 6769   6.390   5.400   4.960
 1957SOL    HW1 6770   6.390   5.311   5.004
 1957SOL    HW2 6771   6.318   5.457   5.000
 1958SOL     OW 6772   6.235   3.268   3.996
 1958SOL    HW1 6773   6.323   3.299   4.030
 1958SOL    HW2 6774   6.238   3.169   3.981
 1959SOL     OW 6775   0.632   2.332   6.310
 1959SOL    HW1 6776   0.569   2.338   6.388
 1959SOL    HW2 6777   0.720   2.373   6.335
 1960SOL     OW 6778   6.449   4.429   1.165
 1960SOL    HW1 6779   6.443   4.345   1.112
 1960SOL    HW2 6780   6.537   4.433   1.212
 1961SOL     OW 6781   5.619   4.537   4.572
 1961SOL    HW1 6782   5.572   4.622   4.595
 1961SOL    HW2 6783   5.563   4.483   4.509
 1962SOL     OW 6784   1.471   5.853   3.287
 1962SOL    HW1 6785   1.502   5.893   3.373
 1962SOL    HW2 6786   1.393   5.905   3.253
 1963SOL     OW 6787   0.499   0.524   1.808
 1963SOL    HW1 6788   0.478   0.500   1.713
 1963SOL    HW2 6789   0.415   0.549   1.855
 1964SOL     OW 6790   4.329   2.907   1.407
 1964SOL    HW1 6791   4.383   2.835   1.363
 1964SOL    HW2 6792   4.238   2.872   1.429
 1965SOL     OW 6793   0.666   3.121   2.805
 1965SOL    HW1 6794   0.594   3.117   2.736
 1965SOL    HW2 6795   0.654   3.046   2.871
 1966SOL     OW 6796   0.115   5.384   5.014
 1966SOL    HW1 6797   0.210   5.353   5.016
 1966SOL    HW2 6798   0.054   5.307   5.031
 1967SOL     OW 6799   4.480   1.949   5.891
 1967SOL    HW1 6800   4.430   2.035   5.890
 1967SOL    HW2 6801   4.556   1.955   5.955
 1968SOL     OW 6802   3.279   6.396   7.020
 1968SOL    HW1 6803   3.198   6.451   7.002
 1968SOL    HW2 6804   3.295   6.392   0.095
 1969SOL     OW 6805   0.132   1.477   1.730
 1969SOL    HW1 6806   0.124   1.510   1.824
 1969SOL    HW2 6807   0.041   1.462   1.692
 1970SOL     OW 6808   2.394   1.054   6.051
 1970SOL    HW1 6809   2.387   1.133   6.112
 1970SOL    HW2 6810   2.477   1.002   6.073
 1971SOL     OW 6811   6.448   6.869   6.077
 1971SOL    HW1 6812   6.472   6.934   6.149
 1971SOL    HW2 6813   6.423   6.781   6.119
 1972SOL     OW 6814   0.153   2.699   3.200
 1972SOL    HW1 6815   0.055   2.713   3.196
 1972SOL    HW2 6816   0.178   2.657   3.287
 1973SOL     OW 6817   2.883   3.723   1.619
 1973SOL    HW1 6818   2.929   3.674   1.692
 1973SOL    HW2 6819   2.784   3.714   1.629
 1974SOL     OW 6820   6.145   6.226   4.009
 1974SOL    HW1 6821   6.074   6.228   3.938
 1974SOL    HW2 6822   6.108   6.185   4.092
 1975SOL     OW 6823   2.585   1.330   3.080
 1975SOL    HW1 6824   2.577   1.411   3.138
 1975SOL    HW2 6825   2.667   1.337   3.023
 1976SOL     OW 6826   0.843   5.810   6.856
 1976SOL    HW1 6827   0.763   5.775   6.905
 1976SOL    HW2 6828   0.813   5.866   6.779
 1977SOL     OW 6829   1.028   2.438   3.534
 1977SOL    HW1 6830   1.100   2.380   3.572
 1977SOL    HW2 6831   1.017   2.419   3.437
 1978SOL     OW 6832   1.710   0.596   4.191
 1978SOL    HW1 6833   1.667   0.614   4.103
 1978SOL    HW2 6834   1.806   0.573   4.177
 1979SOL     OW 6835   6.497   3.837   4.812
 1979SOL    HW1 6836   6.433   3.912   4.823
 1979SOL    HW2 6837   6.498   3.807   4.717
 1980SOL     OW 6838   3.261   0.974   0.549
 1980SOL    HW1 6839   3.191   0.910   0.519
 1980SOL    HW2 6840   3.281   1.039   0.476
 1981SOL     OW 6841   5.458   1.849   2.346
 1981SOL    HW1 6842   5.433   1.842   2.442
 1981SOL    HW2 6843   5.429   1.938   2.310
 1982SOL     OW 6844   6.197   4.161   5.529
 1982SOL    HW1 6845   6.182   4.063   5.540
 1982SOL    HW2 6846   6.166   4.209   5.611
 1983SOL     OW 6847   1.040   2.585   2.574
 1983SOL    HW1 6848   1.139   2.578   2.562
 1983SOL    HW2 6849   0.993   2.541   2.498
 1984SOL     OW 6850   5.430   0.992   5.526
 1984SOL    HW1 6851   5.376   0.995   5.609
 1984SOL    HW2 6852   5.376   0.953   5.451
 1985SOL     OW 6853   1.518   0.654   2.276
 1985SOL    HW1 6854   1.597   0.634   2.335
 1985SOL    HW2 6855   1.492   0.572   2.227
 1986SOL     OW 6856   1.242   1.068   0.124
 1986SOL    HW1 6857   1.336   1.060   0.158
 1986SOL    HW2 6858   1.232   1.016   0.040
 1987SOL     OW 6859   1.680   3.237   1.718
 1987SOL    HW1 6860   1.743   3.313   1.701
 1987SOL    HW2 6861   1.724   3.171   1.780
 1988SOL     OW 6862   4.674   4.449   0.649
 1988SOL    HW1 6863   4.747   4.382   0.637
 1988SOL    HW2 6864   4.585   4.404   0.641
 1989SOL     OW 6865   2.561   0.184   4.889
 1989SOL    HW1 6866   2.472   0.165   4.932
 1989SOL    HW2 6867   2.562   0.278   4.855
 1990SOL     OW 6868   3.335   0.096   1.009
 1990SOL    HW1 6869   3.275   0.160   1.056
 1990SOL    HW2 6870   3.380   0.037   1.076
 1991SOL     OW 6871   3.825   5.000   6.328
 1991SOL    HW1 6872   3.896   4.931   6.313
 1991SOL    HW2 6873   3.848   5.082   6.276
 1992SOL     OW 6874   2.326   6.712   6.853
 1992SOL    HW1 6875   2.369   6.633   6.810
 1992SOL    HW2 6876   2.390   6.755   6.916
 1993SOL     OW 6877   4.093   3.348   5.466
 1993SOL    HW1 6878   4.120   3.303   5.551
 1993SOL    HW2 6879   4.003   3.389   5.477
 1994SOL     OW 6880   1.421   2.574   1.499
 1994SOL    HW1 6881   1.491   2.564   1.569
 1994SOL    HW2 6882   1.351   2.638   1.530
 1995SOL     OW 6883   6.460   2.402   2.092
 1995SOL    HW1 6884   6.467   2.450   2.004
 1995SOL    HW2 6885   6.501   2.459   2.164
 1996SOL     OW 6886   2.539   3.819   0.796
 1996SOL    HW1 6887   2.500   3.813   0.704
 1996SOL    HW2 6888   2.594   3.738   0.814
 1997SOL     OW 6889   4.733   0.255   5.811
 1997SOL    HW1 6890   4.726   0.215   5.903
 1997SOL    HW2 6891   4.727   0.355   5.818
 1998SOL     OW 6892   3.175   3.668   5.649
 1998SOL    HW1 6893   3.182   3.659   5.550
 1998SOL    HW2 6894   3.123   3.751   5.672
 1999SOL     OW 6895   3.005   6.875   2.211
 1999SOL    HW1 6896   3.050   6.925   2.285
 1999SOL    HW2 6897   2.939   6.935   2.165
 2000SOL     OW 6898   4.081   1.862   5.615
 2000SOL    HW1 6899   4.093   1.859   5.516
 2000SOL    HW2 6900   4.129   1.941   5.652
 2001SOL     OW 6901   3.468   2.250   1.747
 2001SOL    HW1 6902   3.553   2.284   1.786
 2001SOL    HW2 6903   3.399   2.322   1.749
 2002SOL     OW 6904   0.745   5.590   5.893
 2002SOL    HW1 6905   0.723   5.662   5.959
 2002SOL    HW2 6906   0.813   5.528   5.933
 2003SOL     OW 6907   4.774   6.821   3.410
 2003SOL    HW1 6908   4.826   6.891   3.360
 2003SOL    HW2 6909   4.739   6.860   3.495
 2004SOL     OW 6910   4.956   0.929   4.823
 2004SOL    HW1 6911   4.907   0.886   4.747
 2004SOL    HW2 6912   5.054   0.915   4.812
 2005SOL     OW 6913   1.371   5.419   0.138
 2005SOL    HW1 6914   1.334   5.500   0.091
 2005SOL    HW2 6915   1.464   5.438   0.169
 2006SOL     OW 6916   5.014   3.904   3.712
 2006SOL    HW1 6917   5.011   3.833   3.783
 2006SOL    HW2 6918   4.932   3.899   3.656
 2007SOL     OW 6919   4.704   5.847   0.653
 2007SOL    HW1 6920   4.757   5.915   0.602
 2007SOL    HW2 6921   4.757   5.816   0.732
 2008SOL     OW 6922   0.865   5.146   3.693
 2008SOL    HW1 6923   0.836   5.090   3.615
 2008SOL    HW2 6924   0.862   5.242   3.667
 2009SOL     OW 6925   6.771   0.192   1.359
 2009SOL    HW1 6926   6.857   0.233   1.387
 2009SOL    HW2 6927   6.760   0.200   1.260
 2010SOL     OW 6928   1.627   1.576   0.977
 2010SOL    HW1 6929   1.648   1.521   0.896
 2010SOL    HW2 6930   1.529   1.571   0.996
 2011SOL     OW 6931   6.576   1.745   4.700
 2011SOL    HW1 6932   6.548   1.816   4.636
 2011SOL    HW2 6933   6.673   1.724   4.686
 2012SOL     OW 6934   0.819   3.572   1.255
 2012SOL    HW1 6935   0.875   3.506   1.304
 2012SOL    HW2 6936   0.874   3.615   1.183
 2013SOL     OW 6937   5.408   0.688   2.985
 2013SOL    HW1 6938   5.437   0.750   3.057
 2013SOL    HW2 6939   5.309   0.672   2.992
 2014SOL     OW 6940   1.308   5.224   3.192
 2014SOL    HW1 6941   1.375   5.264   3.128
 2014SOL    HW2 6942   1.332   5.129   3.209
 2015SOL     OW 6943   2.836   1.507   6.683
 2015SOL    HW1 6944   2.880   1.557   6.608
 2015SOL    HW2 6945   2.895   1.509   6.763
 2016SOL     OW 6946   0.719   5.906   5.520
 2016SOL    HW1 6947   0.783   5.979   5.543
 2016SOL    HW2 6948   0.661   5.886   5.599
 2017SOL     OW 6949   3.533   6.421   4.386
 2017SOL    HW1 6950   3.593   6.397   4.310
 2017SOL    HW2 6951   3.452   6.363   4.385
 2018SOL     OW 6952   6.539   5.912   6.230
 2018SOL    HW1 6953   6.558   6.007   6.254
 2018SOL    HW2 6954   6.622   5.857   6.243
 2019SOL     OW 6955   4.732   2.782   2.151
 2019SOL    HW1 6956   4.723   2.849   2.076
 2019SOL    HW2 6957   4.683   2.698   2.127
 2020SOL     OW 6958   1.295   4.716   4.791
 2020SOL    HW1 6959   1.345   4.693   4.707
 2020SOL    HW2 6960   1.314   4.647   4.861
 2021SOL     OW 6961   2.314   6.859   3.161
 2021SOL    HW1 6962   2.262   6.789   3.211
 2021SOL    HW2 6963   2.408   6.827   3.148
 2022SOL     OW 6964   2.021   3.707   2.431
 2022SOL    HW1 6965   2.085   3.660   2.492
 2022SOL    HW2 6966   2.039   3.679   2.337
 2023SOL     OW 6967   0.141   1.582   0.429
 2023SOL    HW1 6968   0.049   1.620   0.420
 2023SOL    HW2 6969   0.145   1.493   0.385
 2024SOL     OW 6970   0.231   0.569   3.201
 2024SOL    HW1 6971   0.276   0.657   3.192
 2024SOL    HW2 6972   0.133   0.580   3.187
 2025SOL     OW 6973   1.539   2.481   2.185
 2025SOL    HW1 6974   1.622   2.450   2.232
 2025SOL    HW2 6975   1.563   2.550   2.117
 2026SOL     OW 6976   1.436   2.124   5.977
 2026SOL    HW1 6977   1.377   2.047   6.004
 2026SOL    HW2 6978   1.381   2.207   5.973
 2027SOL     OW 6979   1.674   1.335   1.694
 2027SOL    HW1 6980   1.741   1.409   1.701
 2027SOL    HW2 6981   1.675   1.298   1.601
 2028SOL     OW 6982   3.338   1.444   6.162
 2028SOL    HW1 6983   3.428   1.476   6.190
 2028SOL    HW2 6984   3.311   1.365   6.217
 2029SOL     OW 6985   0.517   0.679   0.376
 2029SOL    HW1 6986   0.520   0.579   0.381
 2029SOL    HW2 6987   0.473   0.715   0.458
 2030SOL     OW 6988   1.970   1.134   3.991
 2030SOL    HW1 6989   2.003   1.213   4.043
 2030SOL    HW2 6990   1.951   1.163   3.897
 2031SOL     OW 6991   4.837   6.176   2.184
 2031SOL    HW1 6992   4.838   6.249   2.115
 2031SOL    HW2 6993   4.900   6.200   2.258
 2032SOL     OW 6994   5.112   6.240   1.290
 2032SOL    HW1 6995   5.140   6.286   1.205
 2032SOL    HW2 6996   5.186   6.247   1.357
 2033SOL     OW 6997   3.481   4.923   6.873
 2033SOL    HW1 6998   3.401   4.943   6.930
 2033SOL    HW2 6999   3.455   4.860   6.800
 2034SOL     OW 7000   2.703   0.069   4.349
 2034SOL    HW1 7001   2.778   0.104   4.405
 2034SOL    HW2 7002   2.681   0.135   4.277
 2035SOL     OW 7003   0.526   0.644   2.453
 2035SOL    HW1 7004   0.445   0.701   2.451
 2035SOL    HW2 7005   0.606   0.698   2.424
 2036SOL     OW 7006   0.695   6.053   2.975
 2036SOL    HW1 7007   0.728   6.112   3.048
 2036SOL    HW2 7008   0.665   6.110   2.897
 2037SOL     OW 7009   6.933   2.068   5.869
 2037SOL    HW1 7010   6.984   2.030   5.947
 2037SOL    HW2 7011   6.837   2.077   5.894
 2038SOL     OW 7012   1.182   1.436   6.761
 2038SOL    HW1 7013   1.215   1.396   6.846
 2038SOL    HW2 7014   1.154   1.364   6.698
 2039SOL     OW 7015   0.570   4.847   2.609
 2039SOL    HW1 7016   0.597   4.810   2.697
 2039SOL    HW2 7017   0.511   4.927   2.622
 2040SOL     OW 7018   3.100   3.137   5.164
 2040SOL    HW1 7019   3.101   3.221   5.218
 2040SOL    HW2 7020   3.171   3.075   5.198
 2041SOL     OW 7021   6.702   6.182   6.254
 2041SOL    HW1 7022   6.721   6.138   6.342
 2041SOL    HW2 7023   6.760   6.262   6.243
 2042SOL     OW 7024   6.153   5.396   0.064
 2042SOL    HW1 7025   6.186   5.460   7.019
 2042SOL    HW2 7026   6.092   5.444   0.127
 2043SOL     OW 7027   6.803   4.201   2.281
 2043SOL    HW1 7028   6.704   4.203   2.291
 2043SOL    HW2 7029   6.841   4.128   2.337
 2044SOL     OW 7030   5.181   0.219   2.272
 2044SOL    HW1 7031   5.133   0.203   2.358
 2044SOL    HW2 7032   5.202   0.317   2.263
 2045SOL     OW 7033   2.127   4.589   4.886
 2045SOL    HW1 7034   2.050   4.644   4.853
 2045SOL    HW2 7035   2.101   4.544   4.972
 2046SOL     OW 7036   6.804   0.369   4.606
 2046SOL    HW1 7037   6.801   0.312   4.524
 2046SOL    HW2 7038   6.809   0.311   4.687
 2047SOL     OW 7039   4.375   2.186   6.942
 2047SOL    HW1 7040   4.359   2.285   6.943
 2047SOL    HW2 7041   4.331   2.145   7.022
 2048SOL     OW 7042   3.094   6.120   0.080
 2048SOL    HW1 7043   3.176   6.070   0.052
 2048SOL    HW2 7044   3.099   6.214   0.046
 2049SOL     OW 7045   4.112   2.286   6.383
 2049SOL    HW1 7046   4.109   2.361   6.449
 2049SOL    HW2 7047   4.022   2.244   6.375
 2050SOL     OW 7048   6.181   2.764   3.828
 2050SOL    HW1 7049   6.272   2.744   3.864
 2050SOL    HW2 7050   6.129   2.680   3.819
 2051SOL     OW 7051   0.066   4.811   6.934
 2051SOL    HW1 7052   0.035   4.799   0.004
 2051SOL    HW2 7053   0.119   4.731   6.905
 2052SOL     OW 7054   0.352   4.180   0.306
 2052SOL    HW1 7055   0.400   4.189   0.219
 2052SOL    HW2 7056   0.255   4.199   0.293
 2053SOL     OW 7057   6.150   0.700   0.699
 2053SOL    HW1 7058   6.114   0.641   0.627
 2053SOL    HW2 7059   6.233   0.659   0.738
 2054SOL     OW 7060   4.562   2.551   2.094
 2054SOL    HW1 7061   4.533   2.575   2.186
 2054SOL    HW2 7062   4.502   2.479   2.058
 2055SOL     OW 7063   5.993   2.871   2.612
 2055SOL    HW1 7064   6.033   2.859   2.703
 2055SOL    HW2 7065   5.934   2.794   2.591
 2056SOL     OW 7066   2.328   1.223   2.977
 2056SOL    HW1 7067   2.421   1.258   2.985
 2056SOL    HW2 7068   2.295   1.234   2.884
 2057SOL     OW 7069   5.715   2.464   3.761
 2057SOL    HW1 7070   5.743   2.388   3.820
 2057SOL    HW2 7071   5.634   2.509   3.800
 2058SOL     OW 7072   1.190   1.859   3.338
 2058SOL    HW1 7073   1.092   1.874   3.355
 2058SOL    HW2 7074   1.219   1.774   3.382
 2059SOL     OW 7075   2.787   6.355   6.322
 2059SOL    HW1 7076   2.690   6.376   6.315
 2059SOL    HW2 7077   2.841   6.437   6.308
 2060SOL     OW 7078   6.960   4.221   0.862
 2060SOL    HW1 7079   7.007   4.221   0.950
 2060SOL    HW2 7080   6.915   4.309   0.849
 2061SOL     OW 7081   0.933   1.907   2.876
 2061SOL    HW1 7082   0.920   1.814   2.909
 2061SOL    HW2 7083   0.904   1.914   2.781
 2062SOL     OW 7084   5.509   0.158   3.189
 2062SOL    HW1 7085   5.590   0.107   3.220
 2062SOL    HW2 7086   5.538   0.230   3.126
 2063SOL     OW 7087   1.202   0.895   6.331
 2063SOL    HW1 7088   1.258   0.837   6.390
 2063SOL    HW2 7089   1.229   0.881   6.235
 2064SOL     OW 7090   0.974   1.436   5.537
 2064SOL    HW1 7091   0.920   1.405   5.459
 2064SOL    HW2 7092   1.040   1.505   5.506
 2065SOL     OW 7093   6.536   3.817   2.859
 2065SOL    HW1 7094   6.499   3.774   2.941
 2065SOL    HW2 7095   6.560   3.912   2.879
 2066SOL     OW 7096   0.479   6.046   3.942
 2066SOL    HW1 7097   0.518   6.106   3.872
 2066SOL    HW2 7098   0.478   6.094   4.030
 2067SOL     OW 7099   6.724   6.523   0.667
 2067SOL    HW1 7100   6.737   6.556   0.760
 2067SOL    HW2 7101   6.627   6.502   0.652
 2068SOL     OW 7102   1.029   1.167   5.633
 2068SOL    HW1 7103   1.013   1.265   5.621
 2068SOL    HW2 7104   0.990   1.117   5.556
 2069SOL     OW 7105   0.503   2.550   3.596
 2069SOL    HW1 7106   0.435   2.494   3.643
 2069SOL    HW2 7107   0.459   2.600   3.521
 2070SOL     OW 7108   1.990   0.543   2.678
 2070SOL    HW1 7109   1.972   0.477   2.751
 2070SOL    HW2 7110   2.057   0.504   2.614
 2071SOL     OW 7111   6.838   5.841   5.389
 2071SOL    HW1 7112   6.781   5.786   5.328
 2071SOL    HW2 7113   6.934   5.836   5.360
 2072SOL     OW 7114   4.575   6.465   1.458
 2072SOL    HW1 7115   4.640   6.486   1.385
 2072SOL    HW2 7116   4.553   6.549   1.507
 2073SOL     OW 7117   3.611   0.267   4.785
 2073SOL    HW1 7118   3.567   0.336   4.843
 2073SOL    HW2 7119   3.649   0.312   4.704
 2074SOL     OW 7120   0.578   3.402   0.478
 2074SOL    HW1 7121   0.527   3.329   0.525
 2074SOL    HW2 7122   0.576   3.386   0.380
 2075SOL     OW 7123   5.299   3.072   1.753
 2075SOL    HW1 7124   5.331   2.978   1.762
 2075SOL    HW2 7125   5.258   3.085   1.662
 2076SOL     OW 7126   5.070   6.868   6.798
 2076SOL    HW1 7127   5.030   6.881   6.889
 2076SOL    HW2 7128   5.102   6.956   6.763
 2077SOL     OW 7129   4.739   2.357   2.391
 2077SOL    HW1 7130   4.824   2.306   2.377
 2077SOL    HW2 7131   4.661   2.296   2.378
 2078SOL     OW 7132   1.616   6.714   6.494
 2078SOL    HW1 7133   1.517   6.710   6.480
 2078SOL    HW2 7134   1.636   6.708   6.592
 2079SOL     OW 7135   5.578   1.122   3.694
 2079SOL    HW1 7136   5.611   1.095   3.604
 2079SOL    HW2 7137   5.493   1.075   3.715
 2080SOL     OW 7138   1.658   0.969   4.931
 2080SOL    HW1 7139   1.586   0.909   4.897
 2080SOL    HW2 7140   1.635   1.000   5.023
 2081SOL     OW 7141   1.740   5.744   5.032
 2081SOL    HW1 7142   1.685   5.815   5.074
 2081SOL    HW2 7143   1.738   5.661   5.088
 2082SOL     OW 7144   6.980   0.652   3.013
 2082SOL    HW1 7145   6.975   0.619   2.919
 2082SOL    HW2 7146   7.008   0.748   3.013
 2083SOL     OW 7147   4.408   4.535   6.902
 2083SOL    HW1 7148   4.478   4.521   6.832
 2083SOL    HW2 7149   4.318   4.534   6.860
 2084SOL     OW 7150   6.827   3.937   3.400
 2084SOL    HW1 7151   6.813   3.887   3.485
 2084SOL    HW2 7152   6.872   3.878   3.333
 2085SOL     OW 7153   4.947   1.334   0.073
 2085SOL    HW1 7154   4.946   1.234   0.065
 2085SOL    HW2 7155   4.892   1.362   0.152
 2086SOL     OW 7156   3.091   6.785   5.417
 2086SOL    HW1 7157   3.025   6.857   5.397
 2086SOL    HW2 7158   3.181   6.825   5.430
 2087SOL     OW 7159   5.283   6.992   2.163
 2087SOL    HW1 7160   5.295   6.951   2.253
 2087SOL    HW2 7161   5.245   0.060   2.173
 2088SOL     OW 7162   2.858   6.238   0.569
 2088SOL    HW1 7163   2.759   6.245   0.563
 2088SOL    HW2 7164   2.885   6.142   0.575
 2089SOL     OW 7165   5.060   1.866   6.710
 2089SOL    HW1 7166   5.038   1.903   6.801
 2089SOL    HW2 7167   5.099   1.775   6.721
 2090SOL     OW 7168   4.025   3.754   5.477
 2090SOL    HW1 7169   4.122   3.748   5.503
 2090SOL    HW2 7170   4.015   3.823   5.405
 2091SOL     OW 7171   6.714   5.493   6.858
 2091SOL    HW1 7172   6.755   5.460   6.773
 2091SOL    HW2 7173   6.777   5.476   6.934
 2092SOL     OW 7174   4.350   5.213   6.546
 2092SOL    HW1 7175   4.412   5.173   6.613
 2092SOL    HW2 7176   4.398   5.284   6.495
 2093SOL     OW 7177   1.751   2.629   1.514
 2093SOL    HW1 7178   1.843   2.619   1.477
 2093SOL    HW2 7179   1.756   2.649   1.612
 2094SOL     OW 7180   5.763   2.038   1.490
 2094SOL    HW1 7181   5.860   2.054   1.472
 2094SOL    HW2 7182   5.750   1.943   1.520
 2095SOL     OW 7183   5.432   0.224   4.861
 2095SOL    HW1 7184   5.512   0.284   4.853
 2095SOL    HW2 7185   5.460   0.130   4.841
 2096SOL     OW 7186   4.412   4.595   2.565
 2096SOL    HW1 7187   4.428   4.671   2.502
 2096SOL    HW2 7188   4.349   4.624   2.637
 2097SOL     OW 7189   1.636   3.032   0.018
 2097SOL    HW1 7190   1.665   2.987   6.957
 2097SOL    HW2 7191   1.561   2.980   0.058
 2098SOL     OW 7192   4.516   5.306   3.527
 2098SOL    HW1 7193   4.517   5.207   3.518
 2098SOL    HW2 7194   4.610   5.340   3.533
 2099SOL     OW 7195   2.909   2.971   5.306
 2099SOL    HW1 7196   2.999   2.999   5.272
 2099SOL    HW2 7197   2.841   3.038   5.278
 2100SOL     OW 7198   3.883   3.513   5.509
 2100SOL    HW1 7199   3.924   3.586   5.454
 2100SOL    HW2 7200   3.865   3.547   5.601
 2101SOL     OW 7201   1.585   6.524   3.116
 2101SOL    HW1 7202   1.512   6.587   3.091
 2101SOL    HW2 7203   1.666   6.542   3.060
 2102SOL     OW 7204   6.428   5.216   2.328
 2102SOL    HW1 7205   6.402   5.239   2.422
 2102SOL    HW2 7206   6.416   5.117   2.314
 2103SOL     OW 7207   2.833   3.286   6.437
 2103SOL    HW1 7208   2.891   3.253   6.364
 2103SOL    HW2 7209   2.815   3.212   6.502
 2104SOL     OW 7210   0.989   3.641   6.953
 2104SOL    HW1 7211   1.055   3.600   7.015
 2104SOL    HW2 7212   0.966   3.733   6.985
 2105SOL     OW 7213   5.211   5.715   4.512
 2105SOL    HW1 7214   5.212   5.754   4.604
 2105SOL    HW2 7215   5.305   5.705   4.480
 2106SOL     OW 7216   4.848   3.990   0.542
 2106SOL    HW1 7217   4.768   3.934   0.566
 2106SOL    HW2 7218   4.931   3.939   0.562
 2107SOL     OW 7219   4.808   3.033   5.486
 2107SOL    HW1 7220   4.794   3.079   5.574
 2107SOL    HW2 7221   4.729   2.976   5.465
 2108SOL     OW 7222   6.914   6.180   5.687
 2108SOL    HW1 7223   6.885   6.274   5.705
 2108SOL    HW2 7224   6.957   6.174   5.597
 2109SOL     OW 7225   4.726   6.430   3.350
 2109SOL    HW1 7226   4.824   6.446   3.342
 2109SOL    HW2 7227   4.678   6.518   3.345
 2110SOL     OW 7228   2.534   2.401   5.822
 2110SOL    HW1 7229   2.590   2.353   5.754
 2110SOL    HW2 7230   2.468   2.460   5.775
 2111SOL     OW 7231   1.412   1.974   6.575
 2111SOL    HW1 7232   1.408   1.987   6.674
 2111SOL    HW2 7233   1.320   1.988   6.536
 2112SOL     OW 7234   5.350   2.316   0.773
 2112SOL    HW1 7235   5.372   2.326   0.871
 2112SOL    HW2 7236   5.263   2.362   0.754
 2113SOL     OW 7237   1.408   0.389   5.005
 2113SOL    HW1 7238   1.318   0.433   5.006
 2113SOL    HW2 7239   1.398   0.293   5.033
 2114SOL     OW 7240   1.815   3.046   0.966
 2114SOL    HW1 7241   1.882   2.980   0.998
 2114SOL    HW2 7242   1.726   3.000   0.954
 2115SOL     OW 7243   2.099   3.700   3.061
 2115SOL    HW1 7244   2.122   3.775   3.123
 2115SOL    HW2 7245   2.108   3.732   2.966
 2116SOL     OW 7246   0.348   5.067   3.597
 2116SOL    HW1 7247   0.295   5.130   3.655
 2116SOL    HW2 7248   0.288   5.028   3.528
 2117SOL     OW 7249   6.989   4.154   1.483
 2117SOL    HW1 7250   6.936   4.109   1.555
 2117SOL    HW2 7251   0.028   4.087   1.443
 2118SOL     OW 7252   6.602   3.521   1.736
 2118SOL    HW1 7253   6.699   3.527   1.711
 2118SOL    HW2 7254   6.587   3.440   1.793
 2119SOL     OW 7255   2.535   5.683   1.295
 2119SOL    HW1 7256   2.522   5.710   1.200
 2119SOL    HW2 7257   2.589   5.751   1.342
 2120SOL     OW 7258   0.270   4.806   4.322
 2120SOL    HW1 7259   0.345   4.769   4.377
 2120SOL    HW2 7260   0.213   4.732   4.287
 2121SOL     OW 7261   0.418   4.220   5.150
 2121SOL    HW1 7262   0.355   4.278   5.202
 2121SOL    HW2 7263   0.365   4.154   5.097
 2122SOL     OW 7264   5.421   4.294   6.345
 2122SOL    HW1 7265   5.511   4.274   6.307
 2122SOL    HW2 7266   5.350   4.249   6.290
 2123SOL     OW 7267   6.984   5.128   2.148
 2123SOL    HW1 7268   6.946   5.061   2.084
 2123SOL    HW2 7269   0.002   5.202   2.096
 2124SOL     OW 7270   2.927   1.775   2.072
 2124SOL    HW1 7271   2.884   1.796   2.159
 2124SOL    HW2 7272   2.996   1.704   2.084
 2125SOL     OW 7273   1.817   0.088   1.038
 2125SOL    HW1 7274   1.911   0.064   1.064
 2125SOL    HW2 7275   1.756   0.075   1.117
 2126SOL     OW 7276   3.905   0.878   0.296
 2126SOL    HW1 7277   3.839   0.950   0.276
 2126SOL    HW2 7278   3.942   0.892   0.387
 2127SOL     OW 7279   6.639   3.114   4.205
 2127SOL    HW1 7280   6.627   3.018   4.228
 2127SOL    HW2 7281   6.585   3.136   4.124
 2128SOL     OW 7282   6.628   3.589   4.119
 2128SOL    HW1 7283   6.659   3.637   4.037
 2128SOL    HW2 7284   6.706   3.547   4.165
 2129SOL     OW 7285   4.508   3.413   5.679
 2129SOL    HW1 7286   4.480   3.503   5.643
 2129SOL    HW2 7287   4.569   3.369   5.613
 2130SOL     OW 7288   3.407   0.638   1.995
 2130SOL    HW1 7289   3.466   0.608   2.070
 2130SOL    HW2 7290   3.321   0.673   2.033
 2131SOL     OW 7291   6.488   0.305   0.460
 2131SOL    HW1 7292   6.485   0.369   0.383
 2131SOL    HW2 7293   6.481   0.356   0.546
 2132SOL     OW 7294   4.287   2.233   1.313
 2132SOL    HW1 7295   4.360   2.264   1.251
 2132SOL    HW2 7296   4.328   2.194   1.395
 2133SOL     OW 7297   2.749   2.571   6.363
 2133SOL    HW1 7298   2.694   2.650   6.335
 2133SOL    HW2 7299   2.706   2.488   6.328
 2134SOL     OW 7300   0.659   2.797   7.007
 2134SOL    HW1 7301   0.673   2.844   6.919
 2134SOL    HW2 7302   0.582   2.734   6.999
 2135SOL     OW 7303   0.206   3.622   4.632
 2135SOL    HW1 7304   0.284   3.635   4.570
 2135SOL    HW2 7305   0.153   3.707   4.635
 2136SOL     OW 7306   1.999   4.415   2.922
 2136SOL    HW1 7307   1.945   4.484   2.969
 2136SOL    HW2 7308   2.095   4.422   2.951
 2137SOL     OW 7309   2.667   5.481   5.332
 2137SOL    HW1 7310   2.671   5.500   5.430
 2137SOL    HW2 7311   2.581   5.517   5.295
 2138SOL     OW 7312   6.088   6.403   3.289
 2138SOL    HW1 7313   6.110   6.489   3.243
 2138SOL    HW2 7314   6.164   6.339   3.278
 2139SOL     OW 7315   4.307   1.271   3.798
 2139SOL    HW1 7316   4.251   1.246   3.878
 2139SOL    HW2 7317   4.382   1.330   3.828
 2140SOL     OW 7318   2.828   0.276   4.192
 2140SOL    HW1 7319   2.805   0.250   4.098
 2140SOL    HW2 7320   2.928   0.284   4.201
 2141SOL     OW 7321   6.448   2.804   2.515
 2141SOL    HW1 7322   6.473   2.759   2.600
 2141SOL    HW2 7323   6.462   2.903   2.524
 2142SOL     OW 7324   1.623   1.330   2.877
 2142SOL    HW1 7325   1.611   1.317   2.975
 2142SOL    HW2 7326   1.648   1.425   2.859
 2143SOL     OW 7327   3.103   4.930   1.108
 2143SOL    HW1 7328   3.199   4.921   1.132
 2143SOL    HW2 7329   3.088   4.896   1.016
 2144SOL     OW 7330   0.590   5.426   4.512
 2144SOL    HW1 7331   0.536   5.507   4.488
 2144SOL    HW2 7332   0.630   5.387   4.430
 2145SOL     OW 7333   3.949   6.506   4.505
 2145SOL    HW1 7334   3.924   6.572   4.575
 2145SOL    HW2 7335   3.996   6.428   4.548
 2146SOL     OW 7336   2.356   3.385   0.960
 2146SOL    HW1 7337   2.453   3.379   0.982
 2146SOL    HW2 7338   2.318   3.470   0.998
 2147SOL     OW 7339   6.033   1.498   6.671
 2147SOL    HW1 7340   6.038   1.461   6.763
 2147SOL    HW2 7341   6.125   1.515   6.636
 2148SOL     OW 7342   5.931   3.355   6.000
 2148SOL    HW1 7343   5.996   3.285   6.029
 2148SOL    HW2 7344   5.954   3.442   6.045
 2149SOL     OW 7345   2.372   1.672   1.199
 2149SOL    HW1 7346   2.322   1.752   1.166
 2149SOL    HW2 7347   2.318   1.589   1.183
 2150SOL     OW 7348   2.467   2.505   2.462
 2150SOL    HW1 7349   2.494   2.516   2.366
 2150SOL    HW2 7350   2.426   2.590   2.495
 2151SOL     OW 7351   1.853   6.546   6.536
 2151SOL    HW1 7352   1.901   6.537   6.449
 2151SOL    HW2 7353   1.773   6.605   6.524
 2152SOL     OW 7354   4.110   4.726   2.193
 2152SOL    HW1 7355   4.081   4.635   2.222
 2152SOL    HW2 7356   4.045   4.762   2.126
 2153SOL     OW 7357   4.128   1.808   2.649
 2153SOL    HW1 7358   4.114   1.864   2.732
 2153SOL    HW2 7359   4.044   1.758   2.630
 2154SOL     OW 7360   4.203   0.023   4.398
 2154SOL    HW1 7361   4.191   0.073   4.484
 2154SOL    HW2 7362   4.300   0.016   4.377
 2155SOL     OW 7363   4.100   0.135   0.694
 2155SOL    HW1 7364   4.076   0.038   0.689
 2155SOL    HW2 7365   4.018   0.190   0.686
 2156SOL     OW 7366   0.249   0.388   5.038
 2156SOL    HW1 7367   0.211   0.416   4.950
 2156SOL    HW2 7368   0.220   0.452   5.109
 2157SOL     OW 7369   5.542   6.302   3.348
 2157SOL    HW1 7370   5.450   6.267   3.361
 2157SOL    HW2 7371   5.561   6.375   3.414
 2158SOL     OW 7372   3.682   6.119   0.500
 2158SOL    HW1 7373   3.647   6.159   0.585
 2158SOL    HW2 7374   3.660   6.178   0.423
 2159SOL     OW 7375   1.372   0.975   5.053
 2159SOL    HW1 7376   1.380   0.887   5.006
 2159SOL    HW2 7377   1.288   1.021   5.023
 2160SOL     OW 7378   4.975   4.348   6.994
 2160SOL    HW1 7379   4.928   4.435   6.976
 2160SOL    HW2 7380   4.993   4.302   6.907
 2161SOL     OW 7381   6.051   4.769   2.122
 2161SOL    HW1 7382   6.029   4.816   2.208
 2161SOL    HW2 7383   6.138   4.720   2.132
 2162SOL     OW 7384   3.330   6.967   1.930
 2162SOL    HW1 7385   3.331   0.017   1.997
 2162SOL    HW2 7386   3.278   6.890   1.966
 2163SOL     OW 7387   1.710   4.704   0.699
 2163SOL    HW1 7388   1.802   4.738   0.677
 2163SOL    HW2 7389   1.678   4.644   0.625
 2164SOL     OW 7390   2.210   2.041   6.467
 2164SOL    HW1 7391   2.233   2.082   6.379
 2164SOL    HW2 7392   2.192   1.943   6.454
 2165SOL     OW 7393   0.109   2.326   3.217
 2165SOL    HW1 7394   0.143   2.288   3.132
 2165SOL    HW2 7395   0.181   2.381   3.260
 2166SOL     OW 7396   1.145   3.591   4.250
 2166SOL    HW1 7397   1.099   3.511   4.212
 2166SOL    HW2 7398   1.097   3.674   4.219
 2167SOL     OW 7399   1.313   2.765   3.880
 2167SOL    HW1 7400   1.360   2.685   3.843
 2167SOL    HW2 7401   1.372   2.845   3.872
 2168SOL     OW 7402   1.164   1.734   2.772
 2168SOL    HW1 7403   1.258   1.745   2.741
 2168SOL    HW2 7404   1.148   1.790   2.852
 2169SOL     OW 7405   5.639   1.528   0.404
 2169SOL    HW1 7406   5.579   1.608   0.392
 2169SOL    HW2 7407   5.603   1.471   0.478
 2170SOL     OW 7408   6.770   4.008   5.025
 2170SOL    HW1 7409   6.679   3.993   4.985
 2170SOL    HW2 7410   6.816   3.920   5.036
 2171SOL     OW 7411   0.472   5.714   1.212
 2171SOL    HW1 7412   0.480   5.751   1.120
 2171SOL    HW2 7413   0.383   5.739   1.250
 2172SOL     OW 7414   2.023   1.750   6.671
 2172SOL    HW1 7415   2.030   1.779   6.576
 2172SOL    HW2 7416   2.075   1.665   6.684
 2173SOL     OW 7417   4.362   0.588   5.362
 2173SOL    HW1 7418   4.339   0.601   5.265
 2173SOL    HW2 7419   4.290   0.629   5.419
 2174SOL     OW 7420   6.655   5.867   4.947
 2174SOL    HW1 7421   6.668   5.824   5.036
 2174SOL    HW2 7422   6.596   5.810   4.891
 2175SOL     OW 7423   1.939   3.391   3.834
 2175SOL    HW1 7424   2.029   3.367   3.872
 2175SOL    HW2 7425   1.901   3.311   3.787
 2176SOL     OW 7426   6.017   2.213   0.742
 2176SOL    HW1 7427   5.958   2.229   0.663
 2176SOL    HW2 7428   6.099   2.269   0.733
 2177SOL     OW 7429   0.259   0.929   2.729
 2177SOL    HW1 7430   0.353   0.963   2.739
 2177SOL    HW2 7431   0.212   0.935   2.817
 2178SOL     OW 7432   1.547   1.431   2.208
 2178SOL    HW1 7433   1.527   1.407   2.303
 2178SOL    HW2 7434   1.642   1.405   2.187
 2179SOL     OW 7435   1.605   4.313   5.860
 2179SOL    HW1 7436   1.647   4.272   5.940
 2179SOL    HW2 7437   1.506   4.298   5.863
 2180SOL     OW 7438   1.456   3.266   2.428
 2180SOL    HW1 7439   1.450   3.306   2.336
 2180SOL    HW2 7440   1.367   3.226   2.452
 2181SOL     OW 7441   4.602   4.983   4.234
 2181SOL    HW1 7442   4.600   5.008   4.137
 2181SOL    HW2 7443   4.510   4.955   4.263
 2182SOL     OW 7444   1.858   4.679   3.515
 2182SOL    HW1 7445   1.803   4.596   3.529
 2182SOL    HW2 7446   1.953   4.659   3.539
 2183SOL     OW 7447   2.237   4.280   0.190
 2183SOL    HW1 7448   2.188   4.197   0.163
 2183SOL    HW2 7449   2.335   4.266   0.179
 2184SOL     OW 7450   4.362   0.646   5.981
 2184SOL    HW1 7451   4.309   0.721   5.941
 2184SOL    HW2 7452   4.384   0.579   5.910
 2185SOL     OW 7453   0.964   0.721   0.203
 2185SOL    HW1 7454   1.060   0.694   0.192
 2185SOL    HW2 7455   0.942   0.726   0.301
 2186SOL     OW 7456   6.831   5.235   0.161
 2186SOL    HW1 7457   6.876   5.321   0.139
 2186SOL    HW2 7458   6.746   5.227   0.107
 2187SOL     OW 7459   0.029   5.876   2.047
 2187SOL    HW1 7460   0.090   5.944   2.088
 2187SOL    HW2 7461   0.054   5.785   2.079
 2188SOL     OW 7462   1.019   5.586   5.220
 2188SOL    HW1 7463   1.041   5.675   5.179
 2188SOL    HW2 7464   0.968   5.531   5.153
 2189SOL     OW 7465   2.029   6.855   1.409
 2189SOL    HW1 7466   2.087   6.850   1.491
 2189SOL    HW2 7467   2.031   6.948   1.373
 2190SOL     OW 7468   6.495   3.291   1.850
 2190SOL    HW1 7469   6.512   3.273   1.947
 2190SOL    HW2 7470   6.397   3.307   1.837
 2191SOL     OW 7471   2.211   2.045   5.782
 2191SOL    HW1 7472   2.288   2.006   5.731
 2191SOL    HW2 7473   2.204   2.142   5.762
 2192SOL     OW 7474   5.367   0.886   2.482
 2192SOL    HW1 7475   5.339   0.982   2.475
 2192SOL    HW2 7476   5.388   0.864   2.577
 2193SOL     OW 7477   6.303   6.982   6.769
 2193SOL    HW1 7478   6.222   6.960   6.715
 2193SOL    HW2 7479   6.373   6.912   6.754
 2194SOL     OW 7480   1.962   3.924   6.553
 2194SOL    HW1 7481   2.010   3.903   6.467
 2194SOL    HW2 7482   1.917   4.014   6.544
 2195SOL     OW 7483   6.835   6.651   5.465
 2195SOL    HW1 7484   6.832   6.741   5.423
 2195SOL    HW2 7485   6.829   6.581   5.393
 2196SOL     OW 7486   3.014   0.324   4.767
 2196SOL    HW1 7487   2.988   0.377   4.848
 2196SOL    HW2 7488   3.102   0.357   4.733
 2197SOL     OW 7489   2.158   3.549   6.598
 2197SOL    HW1 7490   2.235   3.600   6.561
 2197SOL    HW2 7491   2.079   3.559   6.537
 2198SOL     OW 7492   5.554   0.056   1.358
 2198SOL    HW1 7493   5.501   0.131   1.318
 2198SOL    HW2 7494   5.592   0.084   1.446
 2199SOL     OW 7495   5.287   6.838   3.889
 2199SOL    HW1 7496   5.251   6.910   3.829
 2199SOL    HW2 7497   5.304   6.756   3.836
 2200SOL     OW 7498   1.893   1.671   4.253
 2200SOL    HW1 7499   1.798   1.684   4.224
 2200SOL    HW2 7500   1.923   1.749   4.307
 2201SOL     OW 7501   6.177   3.025   3.431
 2201SOL    HW1 7502   6.253   3.024   3.367
 2201SOL    HW2 7503   6.157   2.932   3.462
 2202SOL     OW 7504   3.849   5.857   2.145
 2202SOL    HW1 7505   3.825   5.954   2.152
 2202SOL    HW2 7506   3.941   5.847   2.107
 2203SOL     OW 7507   2.151   3.550   1.316
 2203SOL    HW1 7508   2.204   3.478   1.361
 2203SOL    HW2 7509   2.189   3.570   1.226
 2204SOL     OW 7510   5.021   2.068   1.016
 2204SOL    HW1 7511   4.942   2.129   1.013
 2204SOL    HW2 7512   5.082   2.088   0.939
 2205SOL     OW 7513   0.648   6.645   6.519
 2205SOL    HW1 7514   0.636   6.738   6.554
 2205SOL    HW2 7515   0.620   6.580   6.590
 2206SOL     OW 7516   3.213   5.084   5.771
 2206SOL    HW1 7517   3.139   5.074   5.838
 2206SOL    HW2 7518   3.177   5.070   5.679
 2207SOL     OW 7519   2.688   5.216   6.140
 2207SOL    HW1 7520   2.771   5.272   6.149
 2207SOL    HW2 7521   2.607   5.274   6.149
 2208SOL     OW 7522   1.637   5.271   3.305
 2208SOL    HW1 7523   1.648   5.171   3.309
 2208SOL    HW2 7524   1.540   5.294   3.296
 2209SOL     OW 7525   1.747   0.251   5.323
 2209SOL    HW1 7526   1.846   0.264   5.312
 2209SOL    HW2 7527   1.706   0.231   5.234
 2210SOL     OW 7528   0.469   4.344   4.286
 2210SOL    HW1 7529   0.382   4.392   4.273
 2210SOL    HW2 7530   0.465   4.255   4.242
 2211SOL     OW 7531   6.688   0.715   0.278
 2211SOL    HW1 7532   6.617   0.783   0.294
 2211SOL    HW2 7533   6.698   0.699   0.180
 2212SOL     OW 7534   2.645   5.866   0.843
 2212SOL    HW1 7535   2.608   5.959   0.832
 2212SOL    HW2 7536   2.607   5.807   0.772
 2213SOL     OW 7537   3.229   1.687   5.115
 2213SOL    HW1 7538   3.190   1.755   5.053
 2213SOL    HW2 7539   3.278   1.618   5.062
 2214SOL     OW 7540   3.194   3.875   4.884
 2214SOL    HW1 7541   3.287   3.855   4.917
 2214SOL    HW2 7542   3.154   3.793   4.843
 2215SOL     OW 7543   5.512   1.133   0.268
 2215SOL    HW1 7544   5.537   1.228   0.253
 2215SOL    HW2 7545   5.576   1.090   0.331
 2216SOL     OW 7546   1.443   1.077   6.856
 2216SOL    HW1 7547   1.358   1.038   6.822
 2216SOL    HW2 7548   1.474   1.025   6.936
 2217SOL     OW 7549   3.843   6.823   2.335
 2217SOL    HW1 7550   3.935   6.829   2.296
 2217SOL    HW2 7551   3.783   6.776   2.270
 2218SOL     OW 7552   0.120   5.300   0.019
 2218SOL    HW1 7553   0.198   5.359   0.036
 2218SOL    HW2 7554   0.135   5.211   0.063
 2219SOL     OW 7555   5.829   1.683   0.601
 2219SOL    HW1 7556   5.834   1.772   0.646
 2219SOL    HW2 7557   5.758   1.685   0.531
 2220SOL     OW 7558   2.038   5.755   5.303
 2220SOL    HW1 7559   2.018   5.768   5.206
 2220SOL    HW2 7560   2.096   5.675   5.315
 2221SOL     OW 7561   6.098   1.516   5.571
 2221SOL    HW1 7562   6.135   1.490   5.482
 2221SOL    HW2 7563   6.011   1.564   5.559
 2222SOL     OW 7564   5.492   0.359   1.250
 2222SOL    HW1 7565   5.547   0.373   1.332
 2222SOL    HW2 7566   5.469   0.448   1.209
 2223SOL     OW 7567   5.940   1.255   5.758
 2223SOL    HW1 7568   5.889   1.335   5.724
 2223SOL    HW2 7569   5.883   1.173   5.748
 2224SOL     OW 7570   6.475   4.021   0.577
 2224SOL    HW1 7571   6.415   3.941   0.581
 2224SOL    HW2 7572   6.479   4.065   0.667
 2225SOL     OW 7573   6.005   6.768   4.320
 2225SOL    HW1 7574   6.008   6.684   4.374
 2225SOL    HW2 7575   6.096   6.811   4.320
 2226SOL     OW 7576   3.757   5.496   0.688
 2226SOL    HW1 7577   3.832   5.541   0.639
 2226SOL    HW2 7578   3.673   5.549   0.677
 2227SOL     OW 7579   5.722   2.558   0.149
 2227SOL    HW1 7580   5.810   2.599   0.174
 2227SOL    HW2 7581   5.650   2.592   0.209
 2228SOL     OW 7582   4.511   5.292   1.104
 2228SOL    HW1 7583   4.454   5.311   1.184
 2228SOL    HW2 7584   4.516   5.373   1.046
 2229SOL     OW 7585   4.293   2.935   5.458
 2229SOL    HW1 7586   4.304   2.986   5.543
 2229SOL    HW2 7587   4.197   2.907   5.448
 2230SOL     OW 7588   6.028   6.132   0.527
 2230SOL    HW1 7589   6.109   6.084   0.493
 2230SOL    HW2 7590   6.046   6.166   0.619
 2231SOL     OW 7591   0.282   1.026   1.462
 2231SOL    HW1 7592   0.285   1.111   1.514
 2231SOL    HW2 7593   0.353   1.028   1.391
 2232SOL     OW 7594   0.835   1.792   4.488
 2232SOL    HW1 7595   0.760   1.785   4.422
 2232SOL    HW2 7596   0.876   1.883   4.482
 2233SOL     OW 7597   2.050   3.225   0.616
 2233SOL    HW1 7598   2.040   3.304   0.677
 2233SOL    HW2 7599   2.029   3.142   0.667
 2234SOL     OW 7600   4.267   1.709   0.969
 2234SOL    HW1 7601   4.364   1.732   0.971
 2234SOL    HW2 7602   4.218   1.774   0.911
 2235SOL     OW 7603   3.186   0.255   1.586
 2235SOL    HW1 7604   3.284   0.272   1.596
 2235SOL    HW2 7605   3.135   0.310   1.652
 2236SOL     OW 7606   2.092   3.933   6.074
 2236SOL    HW1 7607   2.147   3.957   5.994
 2236SOL    HW2 7608   1.996   3.950   6.054
 2237SOL     OW 7609   5.626   4.257   4.001
 2237SOL    HW1 7610   5.649   4.346   4.041
 2237SOL    HW2 7611   5.700   4.193   4.020
 2238SOL     OW 7612   4.530   5.272   1.557
 2238SOL    HW1 7613   4.459   5.273   1.627
 2238SOL    HW2 7614   4.513   5.198   1.493
 2239SOL     OW 7615   3.659   5.007   4.060
 2239SOL    HW1 7616   3.570   4.983   4.098
 2239SOL    HW2 7617   3.724   5.023   4.134
 2240SOL     OW 7618   3.496   5.529   3.469
 2240SOL    HW1 7619   3.412   5.521   3.522
 2240SOL    HW2 7620   3.516   5.441   3.425
 2241SOL     OW 7621   0.270   5.699   3.189
 2241SOL    HW1 7622   0.350   5.729   3.241
 2241SOL    HW2 7623   0.223   5.778   3.152
 2242SOL     OW 7624   5.211   3.134   2.679
 2242SOL    HW1 7625   5.165   3.081   2.609
 2242SOL    HW2 7626   5.287   3.185   2.638
 2243SOL     OW 7627   1.532   6.615   5.755
 2243SOL    HW1 7628   1.508   6.564   5.838
 2243SOL    HW2 7629   1.610   6.571   5.710
 2244SOL     OW 7630   2.246   6.663   1.252
 2244SOL    HW1 7631   2.306   6.725   1.201
 2244SOL    HW2 7632   2.153   6.698   1.249
 2245SOL     OW 7633   0.539   1.516   1.807
 2245SOL    HW1 7634   0.493   1.566   1.733
 2245SOL    HW2 7635   0.638   1.513   1.789
 2246SOL     OW 7636   1.823   0.929   4.139
 2246SOL    HW1 7637   1.883   0.991   4.089
 2246SOL    HW2 7638   1.751   0.896   4.078
 2247SOL     OW 7639   3.398   2.970   3.440
 2247SOL    HW1 7640   3.455   3.042   3.479
 2247SOL    HW2 7641   3.450   2.923   3.368
 2248SOL     OW 7642   6.423   3.970   5.335
 2248SOL    HW1 7643   6.412   3.936   5.241
 2248SOL    HW2 7644   6.349   3.934   5.392
 2249SOL     OW 7645   5.768   6.622   3.961
 2249SOL    HW1 7646   5.736   6.533   3.993
 2249SOL    HW2 7647   5.695   6.669   3.911
 2250SOL     OW 7648   3.435   3.595   5.138
 2250SOL    HW1 7649   3.453   3.518   5.199
 2250SOL    HW2 7650   3.412   3.561   5.047
 2251SOL     OW 7651   5.211   0.312   6.871
 2251SOL    HW1 7652   5.258   0.396   6.842
 2251SOL    HW2 7653   5.115   0.333   6.891
 2252SOL     OW 7654   4.194   2.251   2.518
 2252SOL    HW1 7655   4.108   2.236   2.566
 2252SOL    HW2 7656   4.223   2.166   2.474
 2253SOL     OW 7657   0.156   3.710   6.927
 2253SOL    HW1 7658   0.071   3.744   6.886
 2253SOL    HW2 7659   0.223   3.692   6.855
 2254SOL     OW 7660   3.576   2.903   4.879
 2254SOL    HW1 7661   3.591   2.805   4.872
 2254SOL    HW2 7662   3.664   2.950   4.886
 2255SOL     OW 7663   4.293   3.483   6.055
 2255SOL    HW1 7664   4.305   3.385   6.036
 2255SOL    HW2 7665   4.200   3.499   6.086
 2256SOL     OW 7666   4.701   6.336   2.479
 2256SOL    HW1 7667   4.682   6.395   2.401
 2256SOL    HW2 7668   4.694   6.388   2.564
 2257SOL     OW 7669   6.945   1.688   4.195
 2257SOL    HW1 7670   7.021   1.624   4.209
 2257SOL    HW2 7671   6.863   1.654   4.241
 2258SOL     OW 7672   1.649   5.092   3.971
 2258SOL    HW1 7673   1.615   5.083   4.065
 2258SOL    HW2 7674   1.700   5.178   3.962
 2259SOL     OW 7675   5.113   3.532   5.796
 2259SOL    HW1 7676   5.105   3.631   5.806
 2259SOL    HW2 7677   5.206   3.509   5.766
 2260SOL     OW 7678   0.546   4.617   1.354
 2260SOL    HW1 7679   0.505   4.531   1.323
 2260SOL    HW2 7680   0.509   4.641   1.444
 2261SOL     OW 7681   5.250   4.837   0.137
 2261SOL    HW1 7682   5.190   4.879   0.069
 2261SOL    HW2 7683   5.216   4.858   0.228
 2262SOL     OW 7684   5.938   0.627   3.767
 2262SOL    HW1 7685   5.956   0.609   3.863
 2262SOL    HW2 7686   6.015   0.678   3.728
 2263SOL     OW 7687   3.337   5.938   0.046
 2263SOL    HW1 7688   3.363   5.852   0.003
 2263SOL    HW2 7689   3.379   5.944   0.137
 2264SOL     OW 7690   2.945   5.425   6.769
 2264SOL    HW1 7691   2.963   5.454   6.863
 2264SOL    HW2 7692   2.937   5.505   6.710
 2265SOL     OW 7693   1.598   1.168   3.800
 2265SOL    HW1 7694   1.533   1.129   3.865
 2265SOL    HW2 7695   1.658   1.233   3.847
 2266SOL     OW 7696   5.291   1.910   0.155
 2266SOL    HW1 7697   5.300   1.848   0.077
 2266SOL    HW2 7698   5.222   1.874   0.219
 2267SOL     OW 7699   4.791   2.737   4.455
 2267SOL    HW1 7700   4.704   2.713   4.498
 2267SOL    HW2 7701   4.827   2.821   4.495
 2268SOL     OW 7702   6.057   4.674   6.432
 2268SOL    HW1 7703   6.086   4.581   6.410
 2268SOL    HW2 7704   6.057   4.730   6.350
 2269SOL     OW 7705   6.854   4.983   5.450
 2269SOL    HW1 7706   6.929   5.027   5.501
 2269SOL    HW2 7707   6.777   5.046   5.445
 2270SOL     OW 7708   2.882   2.472   5.590
 2270SOL    HW1 7709   2.918   2.537   5.523
 2270SOL    HW2 7710   2.789   2.499   5.616
 2271SOL     OW 7711   5.444   4.472   0.263
 2271SOL    HW1 7712   5.499   4.527   0.200
 2271SOL    HW2 7713   5.503   4.436   0.335
 2272SOL     OW 7714   6.231   2.325   6.153
 2272SOL    HW1 7715   6.192   2.309   6.062
 2272SOL    HW2 7716   6.330   2.308   6.149
 2273SOL     OW 7717   1.593   1.597   1.987
 2273SOL    HW1 7718   1.690   1.580   1.966
 2273SOL    HW2 7719   1.558   1.524   2.046
 2274SOL     OW 7720   1.127   2.118   6.120
 2274SOL    HW1 7721   1.072   2.055   6.176
 2274SOL    HW2 7722   1.200   2.158   6.176
 2275SOL     OW 7723   6.491   6.146   4.555
 2275SOL    HW1 7724   6.423   6.073   4.565
 2275SOL    HW2 7725   6.478   6.193   4.468
 2276SOL     OW 7726   2.478   5.507   1.986
 2276SOL    HW1 7727   2.496   5.576   1.916
 2276SOL    HW2 7728   2.382   5.480   1.981
 2277SOL     OW 7729   4.031   3.562   4.395
 2277SOL    HW1 7730   4.026   3.587   4.492
 2277SOL    HW2 7731   3.947   3.517   4.367
 2278SOL     OW 7732   6.257   4.419   4.605
 2278SOL    HW1 7733   6.272   4.485   4.678
 2278SOL    HW2 7734   6.344   4.400   4.559
 2279SOL     OW 7735   5.832   6.665   5.938
 2279SOL    HW1 7736   5.739   6.629   5.942
 2279SOL    HW2 7737   5.833   6.749   5.884
 2280SOL     OW 7738   7.019   6.977   4.438
 2280SOL    HW1 7739   7.015   6.920   4.356
 2280SOL    HW2 7740   6.934   6.968   4.489
 2281SOL     OW 7741   3.134   1.225   2.042
 2281SOL    HW1 7742   3.172   1.229   2.134
 2281SOL    HW2 7743   3.084   1.309   2.022
 2282SOL     OW 7744   5.862   0.049   5.364
 2282SOL    HW1 7745   5.883   0.140   5.400
 2282SOL    HW2 7746   5.790   0.056   5.295
 2283SOL     OW 7747   1.123   5.533   1.411
 2283SOL    HW1 7748   1.114   5.588   1.494
 2283SOL    HW2 7749   1.159   5.590   1.337
 2284SOL     OW 7750   1.716   2.782   0.259
 2284SOL    HW1 7751   1.705   2.757   0.355
 2284SOL    HW2 7752   1.804   2.827   0.246
 2285SOL     OW 7753   2.093   2.477   1.302
 2285SOL    HW1 7754   2.084   2.410   1.228
 2285SOL    HW2 7755   2.025   2.459   1.372
 2286SOL     OW 7756   5.848   0.151   3.685
 2286SOL    HW1 7757   5.930   0.173   3.632
 2286SOL    HW2 7758   5.863   0.066   3.735
 2287SOL     OW 7759   2.377   0.241   3.324
 2287SOL    HW1 7760   2.322   0.172   3.372
 2287SOL    HW2 7761   2.470   0.206   3.310
 2288SOL     OW 7762   5.928   4.859   4.080
 2288SOL    HW1 7763   5.882   4.815   4.157
 2288SOL    HW2 7764   6.001   4.919   4.114
 2289SOL     OW 7765   0.573   4.738   1.074
 2289SOL    HW1 7766   0.510   4.705   1.145
 2289SOL    HW2 7767   0.569   4.677   0.995
 2290SOL     OW 7768   0.912   3.985   0.838
 2290SOL    HW1 7769   0.954   4.022   0.755
 2290SOL    HW2 7770   0.941   4.038   0.917
 2291SOL     OW 7771   2.125   2.301   5.714
 2291SOL    HW1 7772   2.097   2.392   5.745
 2291SOL    HW2 7773   2.099   2.288   5.618
 2292SOL     OW 7774   0.539   1.967   4.629
 2292SOL    HW1 7775   0.632   1.987   4.598
 2292SOL    HW2 7776   0.486   2.052   4.630
 2293SOL     OW 7777   4.730   5.844   1.672
 2293SOL    HW1 7778   4.660   5.848   1.743
 2293SOL    HW2 7779   4.757   5.749   1.657
 2294SOL     OW 7780   3.294   0.473   6.911
 2294SOL    HW1 7781   3.214   0.493   6.969
 2294SOL    HW2 7782   3.332   0.559   6.876
 2295SOL     OW 7783   0.580   1.958   3.130
 2295SOL    HW1 7784   0.665   1.909   3.143
 2295SOL    HW2 7785   0.528   1.917   3.056
 2296SOL     OW 7786   4.839   5.198   0.834
 2296SOL    HW1 7787   4.931   5.165   0.810
 2296SOL    HW2 7788   4.801   5.249   0.757
 2297SOL     OW 7789   4.143   4.375   5.366
 2297SOL    HW1 7790   4.178   4.340   5.453
 2297SOL    HW2 7791   4.217   4.382   5.300
 2298SOL     OW 7792   4.042   3.046   1.434
 2298SOL    HW1 7793   4.044   2.947   1.417
 2298SOL    HW2 7794   3.951   3.072   1.465
 2299SOL     OW 7795   5.022   6.140   5.365
 2299SOL    HW1 7796   4.979   6.230   5.376
 2299SOL    HW2 7797   4.958   6.078   5.321
 2300SOL     OW 7798   2.259   5.698   2.560
 2300SOL    HW1 7799   2.296   5.607   2.543
 2300SOL    HW2 7800   2.289   5.761   2.488
 2301SOL     OW 7801   3.296   3.055   3.065
 2301SOL    HW1 7802   3.375   3.115   3.052
 2301SOL    HW2 7803   3.328   2.965   3.096
 2302SOL     OW 7804   3.618   0.378   0.395
 2302SOL    HW1 7805   3.718   0.372   0.396
 2302SOL    HW2 7806   3.588   0.443   0.464
 2303SOL     OW 7807   2.412   2.792   6.019
 2303SOL    HW1 7808   2.418   2.693   6.013
 2303SOL    HW2 7809   2.329   2.818   6.069
 2304SOL     OW 7810   4.595   6.776   3.847
 2304SOL    HW1 7811   4.621   6.848   3.783
 2304SOL    HW2 7812   4.496   6.782   3.865
 2305SOL     OW 7813   2.966   6.700   2.769
 2305SOL    HW1 7814   3.009   6.728   2.855
 2305SOL    HW2 7815   3.036   6.685   2.700
 2306SOL     OW 7816   2.867   5.046   2.320
 2306SOL    HW1 7817   2.878   4.964   2.375
 2306SOL    HW2 7818   2.775   5.049   2.282
 2307SOL     OW 7819   0.458   4.440   2.554
 2307SOL    HW1 7820   0.413   4.482   2.475
 2307SOL    HW2 7821   0.438   4.343   2.556
 2308SOL     OW 7822   1.368   6.254   0.663
 2308SOL    HW1 7823   1.312   6.244   0.581
 2308SOL    HW2 7824   1.460   6.282   0.637
 2309SOL     OW 7825   1.850   0.069   6.632
 2309SOL    HW1 7826   1.918   7.020   6.624
 2309SOL    HW2 7827   1.829   0.105   6.541
 2310SOL     OW 7828   5.213   6.550   1.170
 2310SOL    HW1 7829   5.194   6.553   1.072
 2310SOL    HW2 7830   5.134   6.585   1.221
 2311SOL     OW 7831   1.859   5.713   1.906
 2311SOL    HW1 7832   1.797   5.785   1.937
 2311SOL    HW2 7833   1.899   5.739   1.819
 2312SOL     OW 7834   3.652   6.766   4.152
 2312SOL    HW1 7835   3.680   6.716   4.234
 2312SOL    HW2 7836   3.702   6.731   4.073
 2313SOL     OW 7837   4.863   5.558   1.536
 2313SOL    HW1 7838   4.850   5.572   1.438
 2313SOL    HW2 7839   4.775   5.540   1.579
 2314SOL     OW 7840   5.421   0.263   5.172
 2314SOL    HW1 7841   5.385   0.356   5.163
 2314SOL    HW2 7842   5.444   0.227   5.082
 2315SOL     OW 7843   4.612   3.232   5.341
 2315SOL    HW1 7844   4.572   3.142   5.326
 2315SOL    HW2 7845   4.699   3.239   5.292
 2316SOL     OW 7846   3.107   0.603   4.711
 2316SOL    HW1 7847   3.170   0.543   4.761
 2316SOL    HW2 7848   3.146   0.626   4.622
 2317SOL     OW 7849   0.144   6.352   3.314
 2317SOL    HW1 7850   0.091   6.374   3.232
 2317SOL    HW2 7851   0.197   6.269   3.299
 2318SOL     OW 7852   2.243   2.966   4.567
 2318SOL    HW1 7853   2.287   2.896   4.510
 2318SOL    HW2 7854   2.267   2.952   4.662
 2319SOL     OW 7855   2.350   5.190   4.229
 2319SOL    HW1 7856   2.415   5.263   4.248
 2319SOL    HW2 7857   2.399   5.105   4.209
 2320SOL     OW 7858   0.637   2.864   4.955
 2320SOL    HW1 7859   0.720   2.919   4.943
 2320SOL    HW2 7860   0.576   2.879   4.877
 2321SOL     OW 7861   2.119   6.441   0.095
 2321SOL    HW1 7862   2.069   6.409   0.015
 2321SOL    HW2 7863   2.064   6.508   0.145
 2322SOL     OW 7864   1.425   3.285   3.783
 2322SOL    HW1 7865   1.498   3.254   3.721
 2322SOL    HW2 7866   1.434   3.384   3.797
 2323SOL     OW 7867   3.592   5.352   1.629
 2323SOL    HW1 7868   3.596   5.314   1.721
 2323SOL    HW2 7869   3.589   5.278   1.562
 2324SOL     OW 7870   6.958   5.744   0.874
 2324SOL    HW1 7871   6.900   5.713   0.800
 2324SOL    HW2 7872   6.908   5.808   0.933
 2325SOL     OW 7873   0.960   4.865   1.402
 2325SOL    HW1 7874   0.888   4.876   1.470
 2325SOL    HW2 7875   0.953   4.937   1.333
 2326SOL     OW 7876   3.867   5.217   6.181
 2326SOL    HW1 7877   3.941   5.277   6.211
 2326SOL    HW2 7878   3.866   5.212   6.081
 2327SOL     OW 7879   6.554   1.862   3.909
 2327SOL    HW1 7880   6.607   1.926   3.965
 2327SOL    HW2 7881   6.514   1.911   3.832
 2328SOL     OW 7882   1.891   1.824   2.823
 2328SOL    HW1 7883   1.850   1.852   2.910
 2328SOL    HW2 7884   1.944   1.740   2.836
 2329SOL     OW 7885   1.262   4.520   4.525
 2329SOL    HW1 7886   1.290   4.586   4.455
 2329SOL    HW2 7887   1.339   4.460   4.546
 2330SOL     OW 7888   1.096   3.928   1.364
 2330SOL    HW1 7889   1.131   3.873   1.288
 2330SOL    HW2 7890   1.154   3.913   1.444
 2331SOL     OW 7891   4.208   5.510   6.530
 2331SOL    HW1 7892   4.231   5.607   6.526
 2331SOL    HW2 7893   4.205   5.481   6.626
 2332SOL     OW 7894   5.408   1.623   5.666
 2332SOL    HW1 7895   5.426   1.700   5.727
 2332SOL    HW2 7896   5.314   1.592   5.679
 2333SOL     OW 7897   0.189   4.976   3.391
 2333SOL    HW1 7898   0.118   5.041   3.364
 2333SOL    HW2 7899   0.272   4.992   3.338
 2334SOL     OW 7900   2.052   0.443   0.053
 2334SOL    HW1 7901   2.140   0.455   0.007
 2334SOL    HW2 7902   2.016   0.532   0.080
 2335SOL     OW 7903   6.409   0.805   3.072
 2335SOL    HW1 7904   6.479   0.844   3.132
 2335SOL    HW2 7905   6.443   0.803   2.978
 2336SOL     OW 7906   4.494   2.602   5.071
 2336SOL    HW1 7907   4.399   2.572   5.059
 2336SOL    HW2 7908   4.525   2.577   5.162
 2337SOL     OW 7909   4.853   1.125   2.049
 2337SOL    HW1 7910   4.823   1.205   2.101
 2337SOL    HW2 7911   4.901   1.061   2.110
 2338SOL     OW 7912   1.096   2.343   5.665
 2338SOL    HW1 7913   1.185   2.338   5.621
 2338SOL    HW2 7914   1.107   2.334   5.764
 2339SOL     OW 7915   3.218   3.664   4.504
 2339SOL    HW1 7916   3.121   3.653   4.483
 2339SOL    HW2 7917   3.255   3.742   4.454
 2340SOL     OW 7918   6.148   4.255   0.613
 2340SOL    HW1 7919   6.200   4.234   0.529
 2340SOL    HW2 7920   6.086   4.179   0.633
 2341SOL     OW 7921   4.283   4.701   1.675
 2341SOL    HW1 7922   4.362   4.654   1.714
 2341SOL    HW2 7923   4.308   4.796   1.655
 2342SOL     OW 7924   0.406   0.260   5.208
 2342SOL    HW1 7925   0.484   0.235   5.150
 2342SOL    HW2 7926   0.335   0.303   5.152
 2343SOL     OW 7927   2.209   5.849   3.003
 2343SOL    HW1 7928   2.190   5.796   2.920
 2343SOL    HW2 7929   2.144   5.925   3.009
 2344SOL     OW 7930   1.796   6.649   6.987
 2344SOL    HW1 7931   1.743   6.618   0.042
 2344SOL    HW2 7932   1.846   6.732   7.011
 2345SOL     OW 7933   3.451   5.704   4.739
 2345SOL    HW1 7934   3.454   5.732   4.643
 2345SOL    HW2 7935   3.372   5.645   4.754
 2346SOL     OW 7936   4.247   3.014   5.742
 2346SOL    HW1 7937   4.343   2.987   5.751
 2346SOL    HW2 7938   4.194   2.934   5.713
 2347SOL     OW 7939   2.515   2.902   1.716
 2347SOL    HW1 7940   2.572   2.983   1.731
 2347SOL    HW2 7941   2.561   2.840   1.653
 2348SOL     OW 7942   2.659   0.411   3.682
 2348SOL    HW1 7943   2.654   0.372   3.774
 2348SOL    HW2 7944   2.590   0.368   3.624
 2349SOL     OW 7945   0.637   4.308   6.502
 2349SOL    HW1 7946   0.613   4.310   6.405
 2349SOL    HW2 7947   0.614   4.396   6.544
 2350SOL     OW 7948   4.124   6.806   6.140
 2350SOL    HW1 7949   4.086   6.891   6.103
 2350SOL    HW2 7950   4.080   6.728   6.095
 2351SOL     OW 7951   2.762   5.213   3.783
 2351SOL    HW1 7952   2.829   5.147   3.819
 2351SOL    HW2 7953   2.687   5.163   3.739
 2352SOL     OW 7954   0.718   5.493   2.219
 2352SOL    HW1 7955   0.768   5.450   2.294
 2352SOL    HW2 7956   0.729   5.592   2.224
 2353SOL     OW 7957   3.188   4.553   5.845
 2353SOL    HW1 7958   3.190   4.522   5.940
 2353SOL    HW2 7959   3.164   4.476   5.786
 2354SOL     OW 7960   3.275   1.267   5.617
 2354SOL    HW1 7961   3.269   1.289   5.520
 2354SOL    HW2 7962   3.338   1.190   5.630
 2355SOL     OW 7963   2.532   5.485   0.374
 2355SOL    HW1 7964   2.612   5.426   0.364
 2355SOL    HW2 7965   2.453   5.442   0.330
 2356SOL     OW 7966   1.389   3.686   6.978
 2356SOL    HW1 7967   1.439   3.604   6.952
 2356SOL    HW2 7968   1.452   3.753   7.018
 2357SOL     OW 7969   4.597   6.722   2.938
 2357SOL    HW1 7970   4.571   6.776   3.018
 2357SOL    HW2 7971   4.650   6.779   2.875
 2358SOL     OW 7972   4.176   5.228   5.192
 2358SOL    HW1 7973   4.134   5.140   5.213
 2358SOL    HW2 7974   4.119   5.277   5.127
 2359SOL     OW 7975   6.000   0.865   5.911
 2359SOL    HW1 7976   5.976   0.865   6.008
 2359SOL    HW2 7977   5.999   0.771   5.876
 2360SOL     OW 7978   5.722   4.787   0.230
 2360SOL    HW1 7979   5.743   4.701   0.278
 2360SOL    HW2 7980   5.762   4.863   0.280
 2361SOL     OW 7981   2.423   0.939   4.801
 2361SOL    HW1 7982   2.478   0.930   4.718
 2361SOL    HW2 7983   2.421   1.035   4.829
 2362SOL     OW 7984   2.283   0.182   5.024
 2362SOL    HW1 7985   2.212   0.176   4.954
 2362SOL    HW2 7986   2.273   0.269   5.074
 2363SOL     OW 7987   4.465   2.306   5.299
 2363SOL    HW1 7988   4.437   2.214   5.326
 2363SOL    HW2 7989   4.565   2.313   5.302
 2364SOL     OW 7990   0.962   1.777   2.176
 2364SOL    HW1 7991   1.059   1.792   2.193
 2364SOL    HW2 7992   0.909   1.849   2.222
 2365SOL     OW 7993   6.539   2.888   6.478
 2365SOL    HW1 7994   6.505   2.979   6.501
 2365SOL    HW2 7995   6.609   2.895   6.407
 2366SOL     OW 7996   1.247   5.722   6.309
 2366SOL    HW1 7997   1.298   5.659   6.250
 2366SOL    HW2 7998   1.214   5.673   6.389
 2367SOL     OW 7999   2.926   4.690   0.617
 2367SOL    HW1 8000   2.989   4.663   0.690
 2367SOL    HW2 8001   2.968   4.672   0.528
 2368SOL     OW 8002   4.808   0.286   3.206
 2368SOL    HW1 8003   4.879   0.345   3.245
 2368SOL    HW2 8004   4.823   0.192   3.235
 2369SOL     OW 8005   0.973   2.601   5.948
 2369SOL    HW1 8006   1.058   2.604   6.000
 2369SOL    HW2 8007   0.925   2.516   5.968
 2370SOL     OW 8008   5.265   3.495   0.090
 2370SOL    HW1 8009   5.267   3.562   0.164
 2370SOL    HW2 8010   5.178   3.447   0.090
 2371SOL     OW 8011   0.494   0.112   2.018
 2371SOL    HW1 8012   0.476   0.185   1.952
 2371SOL    HW2 8013   0.548   0.041   1.975
 2372SOL     OW 8014   6.806   2.281   2.126
 2372SOL    HW1 8015   6.836   2.326   2.210
 2372SOL    HW2 8016   6.745   2.205   2.148
 2373SOL     OW 8017   0.479   1.309   0.502
 2373SOL    HW1 8018   0.479   1.294   0.600
 2373SOL    HW2 8019   0.532   1.391   0.480
 2374SOL     OW 8020   6.361   1.201   3.830
 2374SOL    HW1 8021   6.282   1.256   3.858
 2374SOL    HW2 8022   6.334   1.104   3.825
 2375SOL     OW 8023   2.711   6.947   4.578
 2375SOL    HW1 8024   2.718   6.991   4.488
 2375SOL    HW2 8025   2.654   6.865   4.570
 2376SOL     OW 8026   6.533   2.483   3.925
 2376SOL    HW1 8027   6.558   2.396   3.966
 2376SOL    HW2 8028   6.477   2.467   3.844
 2377SOL     OW 8029   3.564   4.144   3.122
 2377SOL    HW1 8030   3.524   4.154   3.031
 2377SOL    HW2 8031   3.570   4.047   3.145
 2378SOL     OW 8032   5.022   2.558   7.000
 2378SOL    HW1 8033   5.004   2.562   6.902
 2378SOL    HW2 8034   5.091   2.627   7.024
 2379SOL     OW 8035   5.403   2.614   6.910
 2379SOL    HW1 8036   5.380   2.618   6.813
 2379SOL    HW2 8037   5.343   2.675   6.961
 2380SOL     OW 8038   0.792   0.190   5.484
 2380SOL    HW1 8039   0.815   0.093   5.493
 2380SOL    HW2 8040   0.877   0.243   5.482
 2381SOL     OW 8041   1.875   3.827   4.196
 2381SOL    HW1 8042   1.896   3.793   4.287
 2381SOL    HW2 8043   1.942   3.792   4.131
 2382SOL     OW 8044   2.389   4.349   3.808
 2382SOL    HW1 8045   2.404   4.270   3.749
 2382SOL    HW2 8046   2.291   4.358   3.828
 2383SOL     OW 8047   6.025   6.540   1.134
 2383SOL    HW1 8048   6.021   6.464   1.070
 2383SOL    HW2 8049   5.936   6.550   1.179
 2384SOL     OW 8050   6.591   6.708   2.408
 2384SOL    HW1 8051   6.532   6.667   2.339
 2384SOL    HW2 8052   6.645   6.781   2.366
 2385SOL     OW 8053   0.796   6.449   0.857
 2385SOL    HW1 8054   0.845   6.419   0.775
 2385SOL    HW2 8055   0.721   6.386   0.876
 2386SOL     OW 8056   5.243   5.162   4.095
 2386SOL    HW1 8057   5.274   5.253   4.124
 2386SOL    HW2 8058   5.320   5.111   4.057
 2387SOL     OW 8059   1.201   1.442   3.665
 2387SOL    HW1 8060   1.207   1.382   3.745
 2387SOL    HW2 8061   1.217   1.537   3.693
 2388SOL     OW 8062   1.461   2.156   3.726
 2388SOL    HW1 8063   1.507   2.222   3.786
 2388SOL    HW2 8064   1.406   2.205   3.659
 2389SOL     OW 8065   4.916   3.656   2.715
 2389SOL    HW1 8066   4.907   3.700   2.804
 2389SOL    HW2 8067   4.914   3.725   2.643
 2390SOL     OW 8068   3.942   3.902   3.058
 2390SOL    HW1 8069   4.009   3.831   3.080
 2390SOL    HW2 8070   3.901   3.936   3.143
 2391SOL     OW 8071   4.896   4.699   5.948
 2391SOL    HW1 8072   4.912   4.797   5.937
 2391SOL    HW2 8073   4.920   4.671   6.041
 2392SOL     OW 8074   3.601   6.813   5.349
 2392SOL    HW1 8075   3.658   6.748   5.399
 2392SOL    HW2 8076   3.631   6.817   5.254
 2393SOL     OW 8077   4.879   4.115   6.177
 2393SOL    HW1 8078   4.876   4.128   6.276
 2393SOL    HW2 8079   4.896   4.019   6.156
 2394SOL     OW 8080   1.880   3.110   4.157
 2394SOL    HW1 8081   1.831   3.024   4.147
 2394SOL    HW2 8082   1.977   3.092   4.169
 2395SOL     OW 8083   6.280   2.862   6.705
 2395SOL    HW1 8084   6.358   2.916   6.672
 2395SOL    HW2 8085   6.208   2.862   6.636
 2396SOL     OW 8086   4.310   5.079   1.205
 2396SOL    HW1 8087   4.234   5.015   1.219
 2396SOL    HW2 8088   4.326   5.090   1.107
 2397SOL     OW 8089   0.458   3.880   0.093
 2397SOL    HW1 8090   0.483   3.817   0.020
 2397SOL    HW2 8091   0.509   3.857   0.176
 2398SOL     OW 8092   2.994   3.843   6.575
 2398SOL    HW1 8093   2.989   3.869   6.671
 2398SOL    HW2 8094   2.939   3.761   6.560
 2399SOL     OW 8095   4.651   1.590   2.590
 2399SOL    HW1 8096   4.683   1.616   2.499
 2399SOL    HW2 8097   4.557   1.558   2.584
 2400SOL     OW 8098   3.350   5.011   0.109
 2400SOL    HW1 8099   3.412   5.087   0.093
 2400SOL    HW2 8100   3.281   5.008   0.036
 2401SOL     OW 8101   3.833   6.375   6.561
 2401SOL    HW1 8102   3.735   6.385   6.580
 2401SOL    HW2 8103   3.886   6.418   6.634
 2402SOL     OW 8104   0.381   0.744   4.020
 2402SOL    HW1 8105   0.420   0.719   3.931
 2402SOL    HW2 8106   0.333   0.831   4.012
 2403SOL     OW 8107   2.349   2.484   0.989
 2403SOL    HW1 8108   2.326   2.559   0.927
 2403SOL    HW2 8109   2.437   2.503   1.032
 2404SOL     OW 8110   4.949   1.100   1.069
 2404SOL    HW1 8111   4.955   1.010   1.111
 2404SOL    HW2 8112   4.858   1.138   1.085
 2405SOL     OW 8113   3.784   3.349   2.799
 2405SOL    HW1 8114   3.838   3.372   2.880
 2405SOL    HW2 8115   3.732   3.430   2.770
 2406SOL     OW 8116   2.790   6.379   3.344
 2406SOL    HW1 8117   2.702   6.332   3.336
 2406SOL    HW2 8118   2.862   6.325   3.300
 2407SOL     OW 8119   5.334   2.094   2.343
 2407SOL    HW1 8120   5.295   2.171   2.291
 2407SOL    HW2 8121   5.351   2.123   2.437
 2408SOL     OW 8122   4.470   4.873   3.681
 2408SOL    HW1 8123   4.434   4.896   3.771
 2408SOL    HW2 8124   4.409   4.808   3.636
 2409SOL     OW 8125   1.321   3.584   1.888
 2409SOL    HW1 8126   1.238   3.602   1.940
 2409SOL    HW2 8127   1.331   3.486   1.873
 2410SOL     OW 8128   5.074   2.714   5.910
 2410SOL    HW1 8129   5.029   2.705   5.999
 2410SOL    HW2 8130   5.169   2.742   5.924
 2411SOL     OW 8131   4.388   5.262   5.599
 2411SOL    HW1 8132   4.450   5.340   5.608
 2411SOL    HW2 8133   4.321   5.280   5.527
 2412SOL     OW 8134   4.220   4.793   1.103
 2412SOL    HW1 8135   4.314   4.782   1.069
 2412SOL    HW2 8136   4.214   4.757   1.196
 2413SOL     OW 8137   6.509   2.509   0.661
 2413SOL    HW1 8138   6.469   2.548   0.744
 2413SOL    HW2 8139   6.527   2.411   0.676
 2414SOL     OW 8140   4.774   4.095   2.277
 2414SOL    HW1 8141   4.814   4.004   2.266
 2414SOL    HW2 8142   4.775   4.144   2.190
 2415SOL     OW 8143   6.851   6.873   1.610
 2415SOL    HW1 8144   6.926   6.814   1.584
 2415SOL    HW2 8145   6.816   6.846   1.700
 2416SOL     OW 8146   4.185   2.241   5.348
 2416SOL    HW1 8147   4.211   2.147   5.329
 2416SOL    HW2 8148   4.093   2.258   5.314
 2417SOL     OW 8149   3.853   3.707   6.177
 2417SOL    HW1 8150   3.854   3.798   6.134
 2417SOL    HW2 8151   3.834   3.718   6.275
 2418SOL     OW 8152   3.332   4.148   3.842
 2418SOL    HW1 8153   3.324   4.247   3.832
 2418SOL    HW2 8154   3.340   4.124   3.938
 2419SOL     OW 8155   0.904   6.061   4.682
 2419SOL    HW1 8156   0.926   6.028   4.590
 2419SOL    HW2 8157   0.989   6.083   4.730
 2420SOL     OW 8158   3.115   1.311   1.714
 2420SOL    HW1 8159   3.200   1.329   1.764
 2420SOL    HW2 8160   3.127   1.338   1.618
 2421SOL     OW 8161   2.752   1.484   4.902
 2421SOL    HW1 8162   2.747   1.518   4.996
 2421SOL    HW2 8163   2.795   1.394   4.902
 2422SOL     OW 8164   5.850   0.276   1.614
 2422SOL    HW1 8165   5.943   0.312   1.606
 2422SOL    HW2 8166   5.825   0.269   1.710
 2423SOL     OW 8167   1.074   6.361   3.455
 2423SOL    HW1 8168   1.162   6.331   3.417
 2423SOL    HW2 8169   1.000   6.308   3.414
 2424SOL     OW 8170   6.233   6.447   6.632
 2424SOL    HW1 8171   6.237   6.418   6.537
 2424SOL    HW2 8172   6.325   6.461   6.667
 2425SOL     OW 8173   6.520   0.161   3.972
 2425SOL    HW1 8174   6.461   0.094   4.019
 2425SOL    HW2 8175   6.612   0.123   3.962
 2426SOL     OW 8176   1.295   5.463   4.202
 2426SOL    HW1 8177   1.337   5.418   4.124
 2426SOL    HW2 8178   1.266   5.395   4.269
 2427SOL     OW 8179   5.827   5.177   5.668
 2427SOL    HW1 8180   5.817   5.230   5.583
 2427SOL    HW2 8181   5.854   5.238   5.742
 2428SOL     OW 8182   6.026   0.232   3.494
 2428SOL    HW1 8183   6.079   0.199   3.416
 2428SOL    HW2 8184   6.082   0.230   3.576
 2429SOL     OW 8185   5.831   5.018   3.853
 2429SOL    HW1 8186   5.882   5.102   3.871
 2429SOL    HW2 8187   5.885   4.939   3.883
 2430SOL     OW 8188   6.292   1.626   1.261
 2430SOL    HW1 8189   6.198   1.596   1.277
 2430SOL    HW2 8190   6.295   1.726   1.263
 2431SOL     OW 8191   4.307   0.841   2.573
 2431SOL    HW1 8192   4.343   0.750   2.552
 2431SOL    HW2 8193   4.255   0.838   2.658
 2432SOL     OW 8194   3.475   6.561   3.439
 2432SOL    HW1 8195   3.574   6.557   3.453
 2432SOL    HW2 8196   3.455   6.594   3.347
 2433SOL     OW 8197   3.420   0.682   1.414
 2433SOL    HW1 8198   3.392   0.769   1.373
 2433SOL    HW2 8199   3.341   0.622   1.422
 2434SOL     OW 8200   4.372   0.646   4.991
 2434SOL    HW1 8201   4.316   0.573   5.029
 2434SOL    HW2 8202   4.359   0.651   4.892
 2435SOL     OW 8203   4.175   4.387   6.551
 2435SOL    HW1 8204   4.201   4.366   6.457
 2435SOL    HW2 8205   4.157   4.485   6.560
 2436SOL     OW 8206   1.665   5.751   1.595
 2436SOL    HW1 8207   1.665   5.652   1.609
 2436SOL    HW2 8208   1.592   5.793   1.650
 2437SOL     OW 8209   4.936   6.053   0.243
 2437SOL    HW1 8210   4.946   5.954   0.254
 2437SOL    HW2 8211   5.011   6.100   0.291
 2438SOL     OW 8212   3.735   1.260   6.106
 2438SOL    HW1 8213   3.833   1.247   6.095
 2438SOL    HW2 8214   3.717   1.351   6.142
 2439SOL     OW 8215   0.891   4.453   6.296
 2439SOL    HW1 8216   0.853   4.458   6.203
 2439SOL    HW2 8217   0.828   4.497   6.360
 2440SOL     OW 8218   5.307   5.976   5.795
 2440SOL    HW1 8219   5.248   6.054   5.772
 2440SOL    HW2 8220   5.400   5.995   5.764
 2441SOL     OW 8221   0.476   0.394   0.314
 2441SOL    HW1 8222   0.535   0.396   0.233
 2441SOL    HW2 8223   0.381   0.405   0.285
 2442SOL     OW 8224   6.564   4.684   4.732
 2442SOL    HW1 8225   6.568   4.783   4.745
 2442SOL    HW2 8226   6.478   4.649   4.770
 2443SOL     OW 8227   4.269   6.085   5.360
 2443SOL    HW1 8228   4.281   6.184   5.367
 2443SOL    HW2 8229   4.358   6.043   5.339
 2444SOL     OW 8230   3.128   4.436   6.088
 2444SOL    HW1 8231   3.124   4.517   6.147
 2444SOL    HW2 8232   3.202   4.376   6.120
 2445SOL     OW 8233   0.111   0.307   2.243
 2445SOL    HW1 8234   0.125   0.218   2.201
 2445SOL    HW2 8235   0.014   0.328   2.245
 2446SOL     OW 8236   0.329   4.620   4.062
 2446SOL    HW1 8237   0.424   4.607   4.033
 2446SOL    HW2 8238   0.276   4.659   3.987
 2447SOL     OW 8239   2.714   2.238   0.847
 2447SOL    HW1 8240   2.708   2.242   0.946
 2447SOL    HW2 8241   2.805   2.268   0.818
 2448SOL     OW 8242   0.597   0.358   4.886
 2448SOL    HW1 8243   0.680   0.381   4.836
 2448SOL    HW2 8244   0.563   0.269   4.855
 2449SOL     OW 8245   0.253   5.058   1.130
 2449SOL    HW1 8246   0.206   5.080   1.215
 2449SOL    HW2 8247   0.351   5.052   1.146
 2450SOL     OW 8248   2.497   4.868   3.225
 2450SOL    HW1 8249   2.578   4.863   3.166
 2450SOL    HW2 8250   2.418   4.835   3.174
 2451SOL     OW 8251   0.596   0.079   3.511
 2451SOL    HW1 8252   0.584   0.152   3.443
 2451SOL    HW2 8253   0.579   0.115   3.602
 2452SOL     OW 8254   1.635   3.184   2.922
 2452SOL    HW1 8255   1.637   3.283   2.938
 2452SOL    HW2 8256   1.545   3.148   2.947
 2453SOL     OW 8257   5.714   4.026   0.979
 2453SOL    HW1 8258   5.693   3.979   1.065
 2453SOL    HW2 8259   5.685   3.969   0.902
 2454SOL     OW 8260   3.255   1.318   0.880
 2454SOL    HW1 8261   3.258   1.282   0.787
 2454SOL    HW2 8262   3.160   1.335   0.906
 2455SOL     OW 8263   5.624   6.325   0.601
 2455SOL    HW1 8264   5.679   6.278   0.532
 2455SOL    HW2 8265   5.681   6.391   0.649
 2456SOL     OW 8266   5.897   6.739   0.860
 2456SOL    HW1 8267   5.821   6.675   0.846
 2456SOL    HW2 8268   5.894   6.776   0.953
 2457SOL     OW 8269   6.824   6.272   0.694
 2457SOL    HW1 8270   6.750   6.222   0.740
 2457SOL    HW2 8271   6.796   6.367   0.681
 2458SOL     OW 8272   2.854   6.064   3.674
 2458SOL    HW1 8273   2.953   6.061   3.687
 2458SOL    HW2 8274   2.808   6.014   3.747
 2459SOL     OW 8275   2.471   6.839   0.681
 2459SOL    HW1 8276   2.535   6.786   0.738
 2459SOL    HW2 8277   2.519   6.918   0.642
 2460SOL     OW 8278   1.772   0.609   1.189
 2460SOL    HW1 8279   1.869   0.630   1.173
 2460SOL    HW2 8280   1.763   0.560   1.276
 2461SOL     OW 8281   4.750   0.785   2.775
 2461SOL    HW1 8282   4.819   0.760   2.707
 2461SOL    HW2 8283   4.689   0.855   2.737
 2462SOL     OW 8284   2.306   5.581   6.811
 2462SOL    HW1 8285   2.222   5.551   6.855
 2462SOL    HW2 8286   2.359   5.637   6.875
 2463SOL     OW 8287   5.965   2.614   4.070
 2463SOL    HW1 8288   5.907   2.691   4.099
 2463SOL    HW2 8289   6.058   2.628   4.104
 2464SOL     OW 8290   1.162   5.043   1.457
 2464SOL    HW1 8291   1.095   4.970   1.442
 2464SOL    HW2 8292   1.244   5.024   1.402
 2465SOL     OW 8293   6.989   5.300   1.205
 2465SOL    HW1 8294   6.934   5.380   1.228
 2465SOL    HW2 8295   0.055   5.310   1.247
 2466SOL     OW 8296   3.267   0.574   1.756
 2466SOL    HW1 8297   3.174   0.572   1.795
 2466SOL    HW2 8298   3.327   0.625   1.817
 2467SOL     OW 8299   5.795   1.025   5.756
 2467SOL    HW1 8300   5.861   1.005   5.828
 2467SOL    HW2 8301   5.777   0.942   5.703
 2468SOL     OW 8302   6.441   6.308   1.790
 2468SOL    HW1 8303   6.485   6.363   1.719
 2468SOL    HW2 8304   6.467   6.342   1.880
 2469SOL     OW 8305   3.814   4.535   5.351
 2469SOL    HW1 8306   3.737   4.474   5.367
 2469SOL    HW2 8307   3.880   4.490   5.291
 2470SOL     OW 8308   2.723   3.727   6.589
 2470SOL    HW1 8309   2.677   3.729   6.501
 2470SOL    HW2 8310   2.685   3.654   6.645
 2471SOL     OW 8311   2.007   6.815   1.149
 2471SOL    HW1 8312   2.019   6.816   1.248
 2471SOL    HW2 8313   2.039   6.902   1.111
 2472SOL     OW 8314   5.588   1.501   4.752
 2472SOL    HW1 8315   5.592   1.432   4.680
 2472SOL    HW2 8316   5.680   1.533   4.773
 2473SOL     OW 8317   2.247   4.082   4.734
 2473SOL    HW1 8318   2.344   4.061   4.726
 2473SOL    HW2 8319   2.205   4.022   4.802
 2474SOL     OW 8320   0.004   5.096   0.259
 2474SOL    HW1 8321   0.049   5.155   0.326
 2474SOL    HW2 8322   6.946   5.141   0.225
 2475SOL     OW 8323   4.540   1.953   0.856
 2475SOL    HW1 8324   4.542   1.853   0.861
 2475SOL    HW2 8325   4.510   1.990   0.943
 2476SOL     OW 8326   0.139   2.575   3.451
 2476SOL    HW1 8327   0.166   2.488   3.493
 2476SOL    HW2 8328   0.064   2.616   3.504
 2477SOL     OW 8329   6.247   0.052   2.233
 2477SOL    HW1 8330   6.160   0.089   2.200
 2477SOL    HW2 8331   6.241   0.039   2.332
 2478SOL     OW 8332   5.065   6.788   3.006
 2478SOL    HW1 8333   5.098   6.877   3.038
 2478SOL    HW2 8334   4.989   6.759   3.064
 2479SOL     OW 8335   0.636   3.241   1.366
 2479SOL    HW1 8336   0.575   3.168   1.336
 2479SOL    HW2 8337   0.708   3.202   1.423
 2480SOL     OW 8338   6.712   2.875   0.915
 2480SOL    HW1 8339   6.788   2.890   0.978
 2480SOL    HW2 8340   6.705   2.778   0.894
 2481SOL     OW 8341   3.367   6.142   0.295
 2481SOL    HW1 8342   3.449   6.116   0.245
 2481SOL    HW2 8343   3.322   6.059   0.329
 2482SOL     OW 8344   4.519   3.108   6.022
 2482SOL    HW1 8345   4.587   3.055   6.072
 2482SOL    HW2 8346   4.480   3.051   5.949
 2483SOL     OW 8347   2.231   1.300   0.660
 2483SOL    HW1 8348   2.165   1.360   0.614
 2483SOL    HW2 8349   2.312   1.353   0.686
 2484SOL     OW 8350   1.919   0.567   0.899
 2484SOL    HW1 8351   1.919   0.484   0.954
 2484SOL    HW2 8352   1.955   0.547   0.808
 2485SOL     OW 8353   5.076   5.213   2.929
 2485SOL    HW1 8354   5.135   5.272   2.983
 2485SOL    HW2 8355   4.983   5.249   2.930
 2486SOL     OW 8356   2.162   6.017   2.623
 2486SOL    HW1 8357   2.133   6.045   2.715
 2486SOL    HW2 8358   2.150   6.093   2.559
 2487SOL     OW 8359   3.952   6.091   0.547
 2487SOL    HW1 8360   3.967   6.005   0.595
 2487SOL    HW2 8361   3.857   6.094   0.514
 2488SOL     OW 8362   2.774   4.159   1.700
 2488SOL    HW1 8363   2.866   4.130   1.724
 2488SOL    HW2 8364   2.773   4.257   1.680
 2489SOL     OW 8365   2.552   5.000   4.119
 2489SOL    HW1 8366   2.530   5.045   4.032
 2489SOL    HW2 8367   2.647   4.968   4.117
 2490SOL     OW 8368   6.677   4.737   0.783
 2490SOL    HW1 8369   6.760   4.682   0.793
 2490SOL    HW2 8370   6.648   4.769   0.874
 2491SOL     OW 8371   3.045   5.834   2.939
 2491SOL    HW1 8372   3.115   5.807   2.873
 2491SOL    HW2 8373   3.003   5.751   2.977
 2492SOL     OW 8374   3.759   3.050   6.390
 2492SOL    HW1 8375   3.706   3.116   6.337
 2492SOL    HW2 8376   3.833   3.098   6.437
 2493SOL     OW 8377   6.182   7.023   2.780
 2493SOL    HW1 8378   6.252   0.065   2.807
 2493SOL    HW2 8379   6.182   6.947   2.845
 2494SOL     OW 8380   4.912   3.083   2.790
 2494SOL    HW1 8381   4.952   2.992   2.802
 2494SOL    HW2 8382   4.879   3.093   2.696
 2495SOL     OW 8383   5.166   1.075   5.263
 2495SOL    HW1 8384   5.228   1.000   5.289
 2495SOL    HW2 8385   5.211   1.162   5.280
 2496SOL     OW 8386   0.817   5.072   0.293
 2496SOL    HW1 8387   0.801   5.095   0.389
 2496SOL    HW2 8388   0.856   4.980   0.287
 2497SOL     OW 8389   0.367   1.719   0.270
 2497SOL    HW1 8390   0.393   1.631   0.229
 2497SOL    HW2 8391   0.342   1.705   0.366
 2498SOL     OW 8392   2.257   2.927   3.558
 2498SOL    HW1 8393   2.256   2.883   3.468
 2498SOL    HW2 8394   2.315   2.874   3.620
 2499SOL     OW 8395   5.392   0.827   4.526
 2499SOL    HW1 8396   5.424   0.736   4.551
 2499SOL    HW2 8397   5.458   0.870   4.464
 2500SOL     OW 8398   4.402   3.902   5.919
 2500SOL    HW1 8399   4.439   3.810   5.925
 2500SOL    HW2 8400   4.306   3.902   5.948
 2501SOL     OW 8401   6.199   4.583   6.800
 2501SOL    HW1 8402   6.256   4.607   6.879
 2501SOL    HW2 8403   6.258   4.548   6.727
 2502SOL     OW 8404   2.586   6.912   3.655
 2502SOL    HW1 8405   2.530   6.912   3.573
 2502SOL    HW2 8406   2.608   6.818   3.681
 2503SOL     OW 8407   3.969   5.816   5.747
 2503SOL    HW1 8408   3.891   5.756   5.735
 2503SOL    HW2 8409   3.950   5.905   5.706
 2504SOL     OW 8410   2.579   5.064   5.210
 2504SOL    HW1 8411   2.634   4.984   5.188
 2504SOL    HW2 8412   2.601   5.138   5.147
 2505SOL     OW 8413   3.680   5.795   4.844
 2505SOL    HW1 8414   3.596   5.766   4.798
 2505SOL    HW2 8415   3.708   5.885   4.811
 2506SOL     OW 8416   6.672   3.133   6.303
 2506SOL    HW1 8417   6.716   3.045   6.282
 2506SOL    HW2 8418   6.579   3.117   6.336
 2507SOL     OW 8419   5.626   5.030   0.638
 2507SOL    HW1 8420   5.559   4.975   0.588
 2507SOL    HW2 8421   5.580   5.107   0.681
 2508SOL     OW 8422   2.661   1.937   1.864
 2508SOL    HW1 8423   2.742   1.881   1.848
 2508SOL    HW2 8424   2.626   1.970   1.777
 2509SOL     OW 8425   5.683   1.704   2.375
 2509SOL    HW1 8426   5.757   1.727   2.312
 2509SOL    HW2 8427   5.605   1.764   2.358
 2510SOL     OW 8428   3.022   4.669   0.314
 2510SOL    HW1 8429   2.975   4.689   0.229
 2510SOL    HW2 8430   3.119   4.695   0.306
 2511SOL     OW 8431   1.335   1.262   4.756
 2511SOL    HW1 8432   1.421   1.313   4.765
 2511SOL    HW2 8433   1.329   1.223   4.664
 2512SOL     OW 8434   5.728   4.470   4.163
 2512SOL    HW1 8435   5.636   4.472   4.201
 2512SOL    HW2 8436   5.782   4.545   4.201
 2513SOL     OW 8437   0.859   2.451   6.299
 2513SOL    HW1 8438   0.821   2.543   6.289
 2513SOL    HW2 8439   0.901   2.423   6.212
 2514SOL     OW 8440   0.340   1.880   4.127
 2514SOL    HW1 8441   0.309   1.975   4.133
 2514SOL    HW2 8442   0.417   1.874   4.063
 2515SOL     OW 8443   1.375   6.591   0.938
 2515SOL    HW1 8444   1.338   6.671   0.891
 2515SOL    HW2 8445   1.304   6.550   0.995
 2516SOL     OW 8446   6.078   5.254   2.909
 2516SOL    HW1 8447   6.143   5.313   2.861
 2516SOL    HW2 8448   5.997   5.239   2.851
 2517SOL     OW 8449   2.424   4.428   6.248
 2517SOL    HW1 8450   2.388   4.425   6.341
 2517SOL    HW2 8451   2.499   4.362   6.239
 2518SOL     OW 8452   1.911   2.880   0.108
 2518SOL    HW1 8453   1.827   2.888   0.054
 2518SOL    HW2 8454   1.980   2.943   0.074
 2519SOL     OW 8455   4.484   5.278   4.328
 2519SOL    HW1 8456   4.465   5.344   4.255
 2519SOL    HW2 8457   4.575   5.294   4.364
 2520SOL     OW 8458   1.507   3.045   0.604
 2520SOL    HW1 8459   1.436   3.009   0.664
 2520SOL    HW2 8460   1.595   3.004   0.628
 2521SOL     OW 8461   0.936   6.896   5.741
 2521SOL    HW1 8462   1.030   6.895   5.774
 2521SOL    HW2 8463   0.911   6.988   5.710
 2522SOL     OW 8464   1.306   2.985   4.408
 2522SOL    HW1 8465   1.264   2.902   4.372
 2522SOL    HW2 8466   1.381   2.961   4.470
 2523SOL     OW 8467   6.656   3.398   0.972
 2523SOL    HW1 8468   6.748   3.434   0.959
 2523SOL    HW2 8469   6.657   3.299   0.957
 2524SOL     OW 8470   0.443   6.170   4.177
 2524SOL    HW1 8471   0.474   6.153   4.270
 2524SOL    HW2 8472   0.432   6.268   4.163
 2525SOL     OW 8473   0.790   4.109   4.198
 2525SOL    HW1 8474   0.848   4.094   4.278
 2525SOL    HW2 8475   0.695   4.089   4.222
 2526SOL     OW 8476   0.676   2.899   5.239
 2526SOL    HW1 8477   0.726   2.950   5.310
 2526SOL    HW2 8478   0.718   2.916   5.150
 2527SOL     OW 8479   6.128   6.834   5.646
 2527SOL    HW1 8480   6.038   6.860   5.611
 2527SOL    HW2 8481   6.126   6.832   5.746
 2528SOL     OW 8482   5.439   5.180   0.740
 2528SOL    HW1 8483   5.432   5.218   0.832
 2528SOL    HW2 8484   5.352   5.138   0.715
 2529SOL     OW 8485   4.559   4.958   5.765
 2529SOL    HW1 8486   4.537   4.953   5.863
 2529SOL    HW2 8487   4.573   5.053   5.739
 2530SOL     OW 8488   0.978   6.238   3.879
 2530SOL    HW1 8489   1.006   6.284   3.795
 2530SOL    HW2 8490   0.922   6.300   3.934
 2531SOL     OW 8491   5.749   6.609   5.097
 2531SOL    HW1 8492   5.674   6.580   5.038
 2531SOL    HW2 8493   5.724   6.596   5.193
 2532SOL     OW 8494   0.478   5.702   0.753
 2532SOL    HW1 8495   0.563   5.750   0.730
 2532SOL    HW2 8496   0.497   5.631   0.821
 2533SOL     OW 8497   5.319   6.532   4.768
 2533SOL    HW1 8498   5.366   6.520   4.855
 2533SOL    HW2 8499   5.311   6.630   4.748
 2534SOL     OW 8500   2.596   0.498   3.015
 2534SOL    HW1 8501   2.691   0.517   3.042
 2534SOL    HW2 8502   2.595   0.459   2.924
 2535SOL     OW 8503   1.837   1.888   5.465
 2535SOL    HW1 8504   1.840   1.861   5.561
 2535SOL    HW2 8505   1.754   1.942   5.448
 2536SOL     OW 8506   6.623   1.611   4.057
 2536SOL    HW1 8507   6.663   1.596   4.148
 2536SOL    HW2 8508   6.599   1.707   4.047
 2537SOL     OW 8509   4.872   6.927   0.691
 2537SOL    HW1 8510   4.904   6.917   0.597
 2537SOL    HW2 8511   4.854   6.836   0.730
 2538SOL     OW 8512   1.667   4.789   4.884
 2538SOL    HW1 8513   1.607   4.760   4.809
 2538SOL    HW2 8514   1.625   4.763   4.971
 2539SOL     OW 8515   4.412   6.979   5.440
 2539SOL    HW1 8516   4.445   6.890   5.409
 2539SOL    HW2 8517   4.481   7.022   5.499
 2540SOL     OW 8518   5.669   0.711   1.467
 2540SOL    HW1 8519   5.705   0.630   1.513
 2540SOL    HW2 8520   5.585   0.741   1.512
 2541SOL     OW 8521   1.811   0.573   5.375
 2541SOL    HW1 8522   1.842   0.635   5.303
 2541SOL    HW2 8523   1.889   0.545   5.431
 2542SOL     OW 8524   4.298   1.969   4.730
 2542SOL    HW1 8525   4.292   1.919   4.816
 2542SOL    HW2 8526   4.394   1.979   4.703
 2543SOL     OW 8527   1.166   0.355   3.023
 2543SOL    HW1 8528   1.085   0.404   2.991
 2543SOL    HW2 8529   1.246   0.415   3.019
 2544SOL     OW 8530   0.278   4.831   1.678
 2544SOL    HW1 8531   0.283   4.929   1.698
 2544SOL    HW2 8532   0.366   4.800   1.642
 2545SOL     OW 8533   1.939   2.009   1.357
 2545SOL    HW1 8534   1.857   1.952   1.346
 2545SOL    HW2 8535   1.978   2.029   1.267
 2546SOL     OW 8536   6.874   3.449   1.731
 2546SOL    HW1 8537   6.953   3.508   1.713
 2546SOL    HW2 8538   6.888   3.360   1.687
 2547SOL     OW 8539   5.463   5.263   1.045
 2547SOL    HW1 8540   5.471   5.250   1.144
 2547SOL    HW2 8541   5.400   5.338   1.027
 2548SOL     OW 8542   1.894   7.005   4.692
 2548SOL    HW1 8543   1.967   7.010   4.761
 2548SOL    HW2 8544   1.878   0.072   4.654
 2549SOL     OW 8545   1.881   2.627   1.791
 2549SOL    HW1 8546   1.967   2.663   1.756
 2549SOL    HW2 8547   1.889   2.614   1.890
 2550SOL     OW 8548   5.762   0.033   7.007
 2550SOL    HW1 8549   5.751   0.022   0.082
 2550SOL    HW2 8550   5.727   6.976   6.960
 2551SOL     OW 8551   3.703   4.551   0.145
 2551SOL    HW1 8552   3.734   4.457   0.133
 2551SOL    HW2 8553   3.704   4.599   0.057
 2552SOL     OW 8554   2.209   5.324   6.277
 2552SOL    HW1 8555   2.172   5.345   6.367
 2552SOL    HW2 8556   2.140   5.275   6.223
 2553SOL     OW 8557   3.776   2.145   6.242
 2553SOL    HW1 8558   3.829   2.100   6.314
 2553SOL    HW2 8559   3.779   2.244   6.254
 2554SOL     OW 8560   2.130   5.908   7.004
 2554SOL    HW1 8561   2.172   5.961   6.930
 2554SOL    HW2 8562   2.031   5.910   6.993
 2555SOL     OW 8563   6.521   6.359   6.648
 2555SOL    HW1 8564   6.506   6.269   6.687
 2555SOL    HW2 8565   6.600   6.357   6.587
 2556SOL     OW 8566   3.926   0.355   0.702
 2556SOL    HW1 8567   3.839   0.384   0.742
 2556SOL    HW2 8568   3.919   0.355   0.602
 2557SOL     OW 8569   3.119   1.204   0.080
 2557SOL    HW1 8570   3.104   1.106   0.069
 2557SOL    HW2 8571   3.216   1.221   0.094
 2558SOL     OW 8572   5.111   4.068   5.987
 2558SOL    HW1 8573   5.058   3.984   6.003
 2558SOL    HW2 8574   5.048   4.142   5.963
 2559SOL     OW 8575   6.795   3.544   3.346
 2559SOL    HW1 8576   6.735   3.516   3.272
 2559SOL    HW2 8577   6.844   3.464   3.381
 2560SOL     OW 8578   4.858   3.588   3.609
 2560SOL    HW1 8579   4.877   3.491   3.627
 2560SOL    HW2 8580   4.810   3.628   3.687
 2561SOL     OW 8581   4.110   1.110   3.413
 2561SOL    HW1 8582   4.039   1.070   3.470
 2561SOL    HW2 8583   4.175   1.160   3.471
 2562SOL     OW 8584   3.311   6.315   3.208
 2562SOL    HW1 8585   3.309   6.289   3.304
 2562SOL    HW2 8586   3.401   6.354   3.185
 2563SOL     OW 8587   3.357   1.815   6.585
 2563SOL    HW1 8588   3.344   1.907   6.623
 2563SOL    HW2 8589   3.333   1.816   6.488
 2564SOL     OW 8590   2.082   0.107   0.565
 2564SOL    HW1 8591   1.998   0.076   0.520
 2564SOL    HW2 8592   2.161   0.068   0.518
 2565SOL     OW 8593   0.550   1.403   6.608
 2565SOL    HW1 8594   0.564   1.314   6.566
 2565SOL    HW2 8595   0.453   1.427   6.605
 2566SOL     OW 8596   2.671   6.460   1.297
 2566SOL    HW1 8597   2.661   6.419   1.207
 2566SOL    HW2 8598   2.608   6.416   1.361
 2567SOL     OW 8599   1.975   1.466   0.622
 2567SOL    HW1 8600   1.891   1.506   0.585
 2567SOL    HW2 8601   2.019   1.533   0.682
 2568SOL     OW 8602   2.380   6.851   1.078
 2568SOL    HW1 8603   2.457   6.914   1.076
 2568SOL    HW2 8604   2.319   6.869   1.001
 2569SOL     OW 8605   3.264   1.715   1.399
 2569SOL    HW1 8606   3.223   1.644   1.342
 2569SOL    HW2 8607   3.310   1.673   1.477
 2570SOL     OW 8608   5.768   5.568   6.003
 2570SOL    HW1 8609   5.822   5.541   6.084
 2570SOL    HW2 8610   5.803   5.656   5.968
 2571SOL     OW 8611   3.843   2.963   4.882
 2571SOL    HW1 8612   3.872   3.014   4.963
 2571SOL    HW2 8613   3.896   2.993   4.803
 2572SOL     OW 8614   2.986   5.900   1.444
 2572SOL    HW1 8615   2.967   5.993   1.415
 2572SOL    HW2 8616   3.062   5.863   1.391
 2573SOL     OW 8617   6.288   2.378   3.803
 2573SOL    HW1 8618   6.322   2.331   3.721
 2573SOL    HW2 8619   6.210   2.436   3.778
 2574SOL     OW 8620   6.117   3.370   0.943
 2574SOL    HW1 8621   6.209   3.409   0.939
 2574SOL    HW2 8622   6.098   3.339   1.036
 2575SOL     OW 8623   5.092   3.952   1.306
 2575SOL    HW1 8624   5.012   3.950   1.367
 2575SOL    HW2 8625   5.119   3.859   1.283
 2576SOL     OW 8626   3.358   6.926   3.301
 2576SOL    HW1 8627   3.407   6.839   3.306
 2576SOL    HW2 8628   3.417   6.996   3.260
 2577SOL     OW 8629   3.887   0.663   3.942
 2577SOL    HW1 8630   3.791   0.640   3.924
 2577SOL    HW2 8631   3.937   0.581   3.968
 2578SOL     OW 8632   5.255   3.015   5.260
 2578SOL    HW1 8633   5.162   3.043   5.283
 2578SOL    HW2 8634   5.311   3.010   5.343
 2579SOL     OW 8635   0.944   1.802   5.590
 2579SOL    HW1 8636   0.967   1.825   5.684
 2579SOL    HW2 8637   0.991   1.719   5.562
 2580SOL     OW 8638   1.708   3.088   5.530
 2580SOL    HW1 8639   1.645   3.126   5.597
 2580SOL    HW2 8640   1.720   3.153   5.455
 2581SOL     OW 8641   5.443   4.570   1.640
 2581SOL    HW1 8642   5.523   4.592   1.696
 2581SOL    HW2 8643   5.390   4.498   1.685
 2582SOL     OW 8644   2.237   4.906   3.083
 2582SOL    HW1 8645   2.220   4.929   3.179
 2582SOL    HW2 8646   2.149   4.892   3.036
 2583SOL     OW 8647   1.096   0.909   1.660
 2583SOL    HW1 8648   1.009   0.942   1.623
 2583SOL    HW2 8649   1.095   0.809   1.663
 2584SOL     OW 8650   3.730   6.576   1.050
 2584SOL    HW1 8651   3.749   6.644   0.980
 2584SOL    HW2 8652   3.693   6.622   1.131
 2585SOL     OW 8653   3.043   0.416   0.946
 2585SOL    HW1 8654   3.115   0.485   0.940
 2585SOL    HW2 8655   3.045   0.374   1.036
 2586SOL     OW 8656   5.604   1.694   5.366
 2586SOL    HW1 8657   5.652   1.772   5.406
 2586SOL    HW2 8658   5.592   1.623   5.436
 2587SOL     OW 8659   6.772   0.256   4.314
 2587SOL    HW1 8660   6.840   0.218   4.251
 2587SOL    HW2 8661   6.716   0.323   4.265
 2588SOL     OW 8662   5.091   0.124   1.066
 2588SOL    HW1 8663   5.181   0.168   1.071
 2588SOL    HW2 8664   5.066   0.110   0.970
 2589SOL     OW 8665   0.034   7.022   5.257
 2589SOL    HW1 8666   0.086   6.949   5.302
 2589SOL    HW2 8667   0.071   0.014   5.166
 2590SOL     OW 8668   3.916   0.130   2.757
 2590SOL    HW1 8669   3.960   0.040   2.756
 2590SOL    HW2 8670   3.961   0.191   2.692
 2591SOL     OW 8671   5.691   6.185   0.869
 2591SOL    HW1 8672   5.790   6.179   0.857
 2591SOL    HW2 8673   5.647   6.194   0.779
 2592SOL     OW 8674   2.971   6.015   1.703
 2592SOL    HW1 8675   3.002   5.937   1.648
 2592SOL    HW2 8676   3.013   6.010   1.793
 2593SOL     OW 8677   4.139   6.773   2.261
 2593SOL    HW1 8678   4.209   6.725   2.208
 2593SOL    HW2 8679   4.147   6.871   2.246
 2594SOL     OW 8680   0.420   6.824   6.057
 2594SOL    HW1 8681   0.354   6.756   6.088
 2594SOL    HW2 8682   0.389   6.864   5.970
 2595SOL     OW 8683   0.115   2.111   5.355
 2595SOL    HW1 8684   0.031   2.142   5.311
 2595SOL    HW2 8685   0.143   2.177   5.425
 2596SOL     OW 8686   3.708   2.546   1.740
 2596SOL    HW1 8687   3.734   2.467   1.795
 2596SOL    HW2 8688   3.646   2.605   1.793
 2597SOL     OW 8689   1.849   4.079   0.956
 2597SOL    HW1 8690   1.928   4.139   0.972
 2597SOL    HW2 8691   1.837   4.066   0.857
 2598SOL     OW 8692   6.013   2.785   4.321
 2598SOL    HW1 8693   6.074   2.730   4.264
 2598SOL    HW2 8694   5.928   2.735   4.338
 2599SOL     OW 8695   3.845   5.774   6.476
 2599SOL    HW1 8696   3.931   5.771   6.426
 2599SOL    HW2 8697   3.769   5.775   6.411
 2600SOL     OW 8698   4.885   3.838   4.511
 2600SOL    HW1 8699   4.918   3.760   4.458
 2600SOL    HW2 8700   4.885   3.816   4.608
 2601SOL     OW 8701   3.328   2.636   6.731
 2601SOL    HW1 8702   3.359   2.557   6.679
 2601SOL    HW2 8703   3.314   2.714   6.670
 2602SOL     OW 8704   6.809   4.364   3.574
 2602SOL    HW1 8705   6.840   4.410   3.657
 2602SOL    HW2 8706   6.888   4.341   3.517
 2603SOL     OW 8707   2.616   2.369   1.303
 2603SOL    HW1 8708   2.530   2.417   1.283
 2603SOL    HW2 8709   2.602   2.308   1.381
 2604SOL     OW 8710   5.065   0.827   1.060
 2604SOL    HW1 8711   5.002   0.757   1.092
 2604SOL    HW2 8712   5.074   0.821   0.961
 2605SOL     OW 8713   4.209   5.082   3.080
 2605SOL    HW1 8714   4.284   5.102   3.143
 2605SOL    HW2 8715   4.153   5.009   3.117
 2606SOL     OW 8716   0.255   4.911   0.268
 2606SOL    HW1 8717   0.291   4.845   0.333
 2606SOL    HW2 8718   0.155   4.901   0.261
 2607SOL     OW 8719   0.627   1.638   4.970
 2607SOL    HW1 8720   0.684   1.662   4.892
 2607SOL    HW2 8721   0.581   1.550   4.952
 2608SOL     OW 8722   4.734   6.425   2.730
 2608SOL    HW1 8723   4.651   6.378   2.761
 2608SOL    HW2 8724   4.783   6.460   2.810
 2609SOL     OW 8725   0.895   2.391   1.860
 2609SOL    HW1 8726   0.892   2.330   1.939
 2609SOL    HW2 8727   0.988   2.398   1.826
 2610SOL     OW 8728   6.719   5.302   4.576
 2610SOL    HW1 8729   6.781   5.363   4.626
 2610SOL    HW2 8730   6.772   5.248   4.510
 2611SOL     OW 8731   6.000   6.877   1.523
 2611SOL    HW1 8732   5.935   6.802   1.513
 2611SOL    HW2 8733   6.078   6.861   1.462
 2612SOL     OW 8734   6.214   6.144   5.169
 2612SOL    HW1 8735   6.295   6.188   5.208
 2612SOL    HW2 8736   6.226   6.045   5.171
 2613SOL     OW 8737   2.991   5.896   2.631
 2613SOL    HW1 8738   2.923   5.964   2.604
 2613SOL    HW2 8739   3.041   5.929   2.711
 2614SOL     OW 8740   6.358   5.939   6.048
 2614SOL    HW1 8741   6.274   5.884   6.051
 2614SOL    HW2 8742   6.400   5.939   6.139
 2615SOL     OW 8743   5.809   5.327   3.302
 2615SOL    HW1 8744   5.873   5.354   3.230
 2615SOL    HW2 8745   5.737   5.270   3.262
 2616SOL     OW 8746   4.086   3.195   3.936
 2616SOL    HW1 8747   4.122   3.204   4.029
 2616SOL    HW2 8748   4.009   3.131   3.936
 2617SOL     OW 8749   2.890   5.760   1.151
 2617SOL    HW1 8750   2.955   5.813   1.096
 2617SOL    HW2 8751   2.852   5.819   1.223
 2618SOL     OW 8752   0.502   6.488   3.567
 2618SOL    HW1 8753   0.596   6.523   3.577
 2618SOL    HW2 8754   0.486   6.462   3.472
 2619SOL     OW 8755   4.042   1.272   2.206
 2619SOL    HW1 8756   4.005   1.208   2.138
 2619SOL    HW2 8757   3.996   1.259   2.293
 2620SOL     OW 8758   1.518   5.815   3.668
 2620SOL    HW1 8759   1.459   5.896   3.676
 2620SOL    HW2 8760   1.470   5.744   3.617
 2621SOL     OW 8761   1.661   6.003   3.400
 2621SOL    HW1 8762   1.653   6.054   3.486
 2621SOL    HW2 8763   1.724   5.926   3.414
 2622SOL     OW 8764   1.944   2.823   6.364
 2622SOL    HW1 8765   1.885   2.743   6.351
 2622SOL    HW2 8766   1.890   2.906   6.350
 2623SOL     OW 8767   4.202   1.284   4.809
 2623SOL    HW1 8768   4.198   1.197   4.760
 2623SOL    HW2 8769   4.280   1.283   4.872
 2624SOL     OW 8770   6.570   2.837   3.447
 2624SOL    HW1 8771   6.530   2.919   3.487
 2624SOL    HW2 8772   6.669   2.838   3.462
 2625SOL     OW 8773   1.829   3.233   5.339
 2625SOL    HW1 8774   1.841   3.222   5.240
 2625SOL    HW2 8775   1.919   3.228   5.384
 2626SOL     OW 8776   0.327   6.160   3.570
 2626SOL    HW1 8777   0.304   6.201   3.658
 2626SOL    HW2 8778   0.345   6.062   3.583
 2627SOL     OW 8779   0.525   0.720   4.608
 2627SOL    HW1 8780   0.597   0.780   4.642
 2627SOL    HW2 8781   0.501   0.654   4.678
 2628SOL     OW 8782   3.554   5.512   6.465
 2628SOL    HW1 8783   3.639   5.489   6.417
 2628SOL    HW2 8784   3.574   5.551   6.554
 2629SOL     OW 8785   3.811   3.807   1.881
 2629SOL    HW1 8786   3.848   3.739   1.819
 2629SOL    HW2 8787   3.757   3.761   1.952
 2630SOL     OW 8788   3.712   1.986   2.400
 2630SOL    HW1 8789   3.643   2.037   2.349
 2630SOL    HW2 8790   3.774   1.940   2.336
 2631SOL     OW 8791   4.477   6.414   3.543
 2631SOL    HW1 8792   4.545   6.488   3.541
 2631SOL    HW2 8793   4.407   6.430   3.473
 2632SOL     OW 8794   2.821   1.982   5.624
 2632SOL    HW1 8795   2.869   2.066   5.599
 2632SOL    HW2 8796   2.750   1.963   5.557
 2633SOL     OW 8797   6.556   2.488   6.145
 2633SOL    HW1 8798   6.513   2.434   6.217
 2633SOL    HW2 8799   6.622   2.431   6.095
 2634SOL     OW 8800   1.960   4.406   3.474
 2634SOL    HW1 8801   1.944   4.316   3.515
 2634SOL    HW2 8802   1.964   4.397   3.375
 2635SOL     OW 8803   5.352   5.930   3.920
 2635SOL    HW1 8804   5.337   5.832   3.929
 2635SOL    HW2 8805   5.446   5.946   3.890
 2636SOL     OW 8806   5.403   0.345   6.247
 2636SOL    HW1 8807   5.484   0.397   6.273
 2636SOL    HW2 8808   5.327   0.368   6.307
 2637SOL     OW 8809   6.511   0.629   3.528
 2637SOL    HW1 8810   6.601   0.629   3.485
 2637SOL    HW2 8811   6.445   0.586   3.466
 2638SOL     OW 8812   6.551   6.688   2.683
 2638SOL    HW1 8813   6.635   6.653   2.724
 2638SOL    HW2 8814   6.557   6.680   2.583
 2639SOL     OW 8815   6.695   6.581   1.845
 2639SOL    HW1 8816   6.613   6.555   1.793
 2639SOL    HW2 8817   6.707   6.680   1.838
 2640SOL     OW 8818   6.832   6.474   5.682
 2640SOL    HW1 8819   6.793   6.523   5.760
 2640SOL    HW2 8820   6.824   6.530   5.600
 2641SOL     OW 8821   6.146   3.086   1.452
 2641SOL    HW1 8822   6.105   3.177   1.452
 2641SOL    HW2 8823   6.237   3.091   1.495
 2642SOL     OW 8824   5.181   0.375   4.635
 2642SOL    HW1 8825   5.266   0.417   4.602
 2642SOL    HW2 8826   5.189   0.276   4.628
 2643SOL     OW 8827   0.789   4.986   3.298
 2643SOL    HW1 8828   0.740   4.990   3.211
 2643SOL    HW2 8829   0.741   5.041   3.366
 2644SOL     OW 8830   0.239   4.309   5.335
 2644SOL    HW1 8831   0.192   4.274   5.416
 2644SOL    HW2 8832   0.248   4.408   5.342
 2645SOL     OW 8833   4.764   6.671   5.294
 2645SOL    HW1 8834   4.664   6.667   5.307
 2645SOL    HW2 8835   4.784   6.695   5.199
 2646SOL     OW 8836   6.442   6.758   6.511
 2646SOL    HW1 8837   6.457   6.773   6.609
 2646SOL    HW2 8838   6.347   6.731   6.496
 2647SOL     OW 8839   5.500   0.973   1.018
 2647SOL    HW1 8840   5.449   1.044   1.068
 2647SOL    HW2 8841   5.546   0.913   1.083
 2648SOL     OW 8842   6.514   6.532   3.565
 2648SOL    HW1 8843   6.443   6.589   3.607
 2648SOL    HW2 8844   6.602   6.579   3.571
 2649SOL     OW 8845   4.168   2.004   6.283
 2649SOL    HW1 8846   4.246   1.944   6.300
 2649SOL    HW2 8847   4.184   2.092   6.327
 2650SOL     OW 8848   0.648   4.173   3.963
 2650SOL    HW1 8849   0.684   4.139   3.877
 2650SOL    HW2 8850   0.715   4.156   4.036
 2651SOL     OW 8851   1.745   1.619   0.646
 2651SOL    HW1 8852   1.655   1.662   0.635
 2651SOL    HW2 8853   1.793   1.662   0.723
 2652SOL     OW 8854   2.935   3.793   3.782
 2652SOL    HW1 8855   2.930   3.734   3.701
 2652SOL    HW2 8856   2.994   3.871   3.763
 2653SOL     OW 8857   5.158   6.871   4.947
 2653SOL    HW1 8858   5.164   6.970   4.931
 2653SOL    HW2 8859   5.124   6.855   5.040
 2654SOL     OW 8860   4.576   3.316   0.283
 2654SOL    HW1 8861   4.596   3.350   0.375
 2654SOL    HW2 8862   4.565   3.217   0.286
 2655SOL     OW 8863   4.727   4.770   4.387
 2655SOL    HW1 8864   4.689   4.734   4.302
 2655SOL    HW2 8865   4.742   4.869   4.378
 2656SOL     OW 8866   4.542   4.669   4.186
 2656SOL    HW1 8867   4.590   4.661   4.098
 2656SOL    HW2 8868   4.466   4.604   4.188
 2657SOL     OW 8869   2.719   4.451   6.318
 2657SOL    HW1 8870   2.699   4.517   6.246
 2657SOL    HW2 8871   2.818   4.438   6.326
 2658SOL     OW 8872   5.786   4.722   6.929
 2658SOL    HW1 8873   5.819   4.720   6.834
 2658SOL    HW2 8874   5.816   4.807   6.972
 2659SOL     OW 8875   6.202   2.636   4.180
 2659SOL    HW1 8876   6.243   2.545   4.186
 2659SOL    HW2 8877   6.268   2.705   4.210
 2660SOL     OW 8878   1.276   1.758   0.838
 2660SOL    HW1 8879   1.221   1.805   0.768
 2660SOL    HW2 8880   1.297   1.665   0.807
 2661SOL     OW 8881   2.052   6.217   1.878
 2661SOL    HW1 8882   2.015   6.226   1.785
 2661SOL    HW2 8883   2.086   6.124   1.891
 2662SOL     OW 8884   4.438   0.091   4.759
 2662SOL    HW1 8885   4.490   0.134   4.685
 2662SOL    HW2 8886   4.467   7.020   4.768
 2663SOL     OW 8887   2.301   5.287   0.993
 2663SOL    HW1 8888   2.378   5.319   0.937
 2663SOL    HW2 8889   2.331   5.278   1.088
 2664SOL     OW 8890   3.766   3.738   3.358
 2664SOL    HW1 8891   3.708   3.732   3.440
 2664SOL    HW2 8892   3.795   3.832   3.344
 2665SOL     OW 8893   3.485   1.859   5.131
 2665SOL    HW1 8894   3.483   1.957   5.112
 2665SOL    HW2 8895   3.409   1.814   5.085
 2666SOL     OW 8896   4.623   3.369   1.022
 2666SOL    HW1 8897   4.561   3.297   1.052
 2666SOL    HW2 8898   4.640   3.432   1.097
 2667SOL     OW 8899   1.409   5.928   4.776
 2667SOL    HW1 8900   1.368   5.861   4.714
 2667SOL    HW2 8901   1.503   5.901   4.797
 2668SOL     OW 8902   6.510   3.461   3.557
 2668SOL    HW1 8903   6.440   3.432   3.492
 2668SOL    HW2 8904   6.520   3.560   3.553
 2669SOL     OW 8905   3.137   4.756   5.560
 2669SOL    HW1 8906   3.137   4.672   5.506
 2669SOL    HW2 8907   3.114   4.734   5.655
 2670SOL     OW 8908   6.004   1.203   6.318
 2670SOL    HW1 8909   5.997   1.112   6.359
 2670SOL    HW2 8910   5.984   1.197   6.220
 2671SOL     OW 8911   2.732   4.538   6.903
 2671SOL    HW1 8912   2.717   4.632   6.874
 2671SOL    HW2 8913   2.644   4.489   6.904
 2672SOL     OW 8914   0.680   5.598   6.571
 2672SOL    HW1 8915   0.688   5.511   6.620
 2672SOL    HW2 8916   0.590   5.638   6.588
 2673SOL     OW 8917   5.465   2.596   3.801
 2673SOL    HW1 8918   5.446   2.511   3.849
 2673SOL    HW2 8919   5.451   2.673   3.864
 2674SOL     OW 8920   2.429   4.364   4.231
 2674SOL    HW1 8921   2.489   4.401   4.160
 2674SOL    HW2 8922   2.458   4.398   4.320
 2675SOL     OW 8923   0.852   4.395   5.415
 2675SOL    HW1 8924   0.893   4.486   5.428
 2675SOL    HW2 8925   0.919   4.335   5.371
 2676SOL     OW 8926   4.127   0.979   2.783
 2676SOL    HW1 8927   4.078   1.060   2.749
 2676SOL    HW2 8928   4.223   1.003   2.799
 2677SOL     OW 8929   3.623   5.122   1.478
 2677SOL    HW1 8930   3.592   5.028   1.466
 2677SOL    HW2 8931   3.657   5.158   1.391
 2678SOL     OW 8932   0.375   4.590   0.679
 2678SOL    HW1 8933   0.283   4.580   0.640
 2678SOL    HW2 8934   0.415   4.677   0.647
 2679SOL     OW 8935   4.482   5.483   0.907
 2679SOL    HW1 8936   4.432   5.410   0.859
 2679SOL    HW2 8937   4.430   5.568   0.902
 2680SOL     OW 8938   1.725   1.408   1.314
 2680SOL    HW1 8939   1.764   1.416   1.222
 2680SOL    HW2 8940   1.716   1.312   1.338
 2681SOL     OW 8941   1.234   2.732   4.341
 2681SOL    HW1 8942   1.196   2.691   4.423
 2681SOL    HW2 8943   1.176   2.710   4.262
 2682SOL     OW 8944   5.129   2.946   2.442
 2682SOL    HW1 8945   5.111   2.849   2.424
 2682SOL    HW2 8946   5.086   3.002   2.372
 2683SOL     OW 8947   1.648   3.707   1.005
 2683SOL    HW1 8948   1.571   3.738   0.950
 2683SOL    HW2 8949   1.615   3.647   1.077
 2684SOL     OW 8950   3.952   5.191   2.433
 2684SOL    HW1 8951   3.948   5.280   2.478
 2684SOL    HW2 8952   3.895   5.126   2.482
 2685SOL     OW 8953   6.825   6.464   5.282
 2685SOL    HW1 8954   6.861   6.371   5.294
 2685SOL    HW2 8955   6.804   6.479   5.185
 2686SOL     OW 8956   1.452   2.394   4.850
 2686SOL    HW1 8957   1.365   2.387   4.898
 2686SOL    HW2 8958   1.515   2.451   4.903
 2687SOL     OW 8959   4.573   4.381   2.701
 2687SOL    HW1 8960   4.651   4.364   2.641
 2687SOL    HW2 8961   4.516   4.453   2.662
 2688SOL     OW 8962   4.469   5.955   6.331
 2688SOL    HW1 8963   4.510   5.982   6.419
 2688SOL    HW2 8964   4.373   5.983   6.328
 2689SOL     OW 8965   2.094   1.850   3.610
 2689SOL    HW1 8966   2.192   1.837   3.620
 2689SOL    HW2 8967   2.045   1.779   3.661
 2690SOL     OW 8968   3.294   3.064   3.887
 2690SOL    HW1 8969   3.243   3.128   3.829
 2690SOL    HW2 8970   3.239   3.040   3.967
 2691SOL     OW 8971   1.776   5.352   2.579
 2691SOL    HW1 8972   1.692   5.405   2.567
 2691SOL    HW2 8973   1.850   5.412   2.609
 2692SOL     OW 8974   5.638   6.169   4.328
 2692SOL    HW1 8975   5.541   6.164   4.304
 2692SOL    HW2 8976   5.657   6.258   4.370
 2693SOL     OW 8977   2.295   4.263   3.002
 2693SOL    HW1 8978   2.310   4.355   3.037
 2693SOL    HW2 8979   2.383   4.222   2.976
 2694SOL     OW 8980   3.522   0.604   2.993
 2694SOL    HW1 8981   3.450   0.539   2.968
 2694SOL    HW2 8982   3.595   0.556   3.042
 2695SOL     OW 8983   5.219   1.673   2.600
 2695SOL    HW1 8984   5.306   1.723   2.602
 2695SOL    HW2 8985   5.171   1.693   2.515
 2696SOL     OW 8986   3.190   2.607   5.335
 2696SOL    HW1 8987   3.271   2.575   5.384
 2696SOL    HW2 8988   3.173   2.548   5.256
 2697SOL     OW 8989   4.874   2.028   4.027
 2697SOL    HW1 8990   4.883   2.037   3.927
 2697SOL    HW2 8991   4.785   2.064   4.055
 2698SOL     OW 8992   2.093   5.162   0.620
 2698SOL    HW1 8993   2.149   5.120   0.549
 2698SOL    HW2 8994   2.133   5.143   0.709
 2699SOL     OW 8995   3.749   5.410   0.077
 2699SOL    HW1 8996   3.713   5.413   7.008
 2699SOL    HW2 8997   3.735   5.498   0.121
 2700SOL     OW 8998   2.089   3.434   2.269
 2700SOL    HW1 8999   2.161   3.424   2.201
 2700SOL    HW2 9000   2.125   3.413   2.360
 2701SOL     OW 9001   4.008   0.406   6.473
 2701SOL    HW1 9002   3.974   0.430   6.382
 2701SOL    HW2 9003   3.931   0.393   6.535
 2702SOL     OW 9004   6.938   1.445   3.540
 2702SOL    HW1 9005   7.016   1.440   3.603
 2702SOL    HW2 9006   6.883   1.526   3.562
 2703SOL     OW 9007   2.083   0.798   2.763
 2703SOL    HW1 9008   2.036   0.711   2.756
 2703SOL    HW2 9009   2.172   0.785   2.807
 2704SOL     OW 9010   0.797   5.242   0.772
 2704SOL    HW1 9011   0.712   5.295   0.766
 2704SOL    HW2 9012   0.873   5.303   0.793
 2705SOL     OW 9013   1.004   5.277   4.066
 2705SOL    HW1 9014   0.949   5.355   4.096
 2705SOL    HW2 9015   1.073   5.308   4.000
 2706SOL     OW 9016   0.223   0.738   1.492
 2706SOL    HW1 9017   0.249   0.820   1.544
 2706SOL    HW2 9018   0.128   0.745   1.463
 2707SOL     OW 9019   2.222   0.669   5.709
 2707SOL    HW1 9020   2.289   0.744   5.704
 2707SOL    HW2 9021   2.226   0.627   5.799
 2708SOL     OW 9022   1.584   2.921   1.919
 2708SOL    HW1 9023   1.673   2.949   1.883
 2708SOL    HW2 9024   1.597   2.849   1.987
 2709SOL     OW 9025   5.560   6.447   0.958
 2709SOL    HW1 9026   5.609   6.362   0.978
 2709SOL    HW2 9027   5.499   6.468   1.035
 2710SOL     OW 9028   6.643   3.310   2.801
 2710SOL    HW1 9029   6.711   3.270   2.739
 2710SOL    HW2 9030   6.551   3.281   2.773
 2711SOL     OW 9031   2.903   0.147   2.736
 2711SOL    HW1 9032   2.886   0.233   2.688
 2711SOL    HW2 9033   2.846   0.074   2.696
 2712SOL     OW 9034   4.118   5.167   0.369
 2712SOL    HW1 9035   4.080   5.163   0.277
 2712SOL    HW2 9036   4.208   5.212   0.366
 2713SOL     OW 9037   1.677   2.729   4.540
 2713SOL    HW1 9038   1.695   2.828   4.546
 2713SOL    HW2 9039   1.661   2.704   4.445
 2714SOL     OW 9040   4.852   2.293   0.115
 2714SOL    HW1 9041   4.951   2.282   0.120
 2714SOL    HW2 9042   4.829   2.341   0.030
 2715SOL     OW 9043   6.025   0.391   0.154
 2715SOL    HW1 9044   5.968   0.361   0.231
 2715SOL    HW2 9045   6.042   0.490   0.163
 2716SOL     OW 9046   6.118   5.277   1.903
 2716SOL    HW1 9047   6.140   5.362   1.855
 2716SOL    HW2 9048   6.019   5.261   1.899
 2717SOL     OW 9049   1.290   5.630   2.165
 2717SOL    HW1 9050   1.247   5.636   2.075
 2717SOL    HW2 9051   1.220   5.640   2.236
 2718SOL     OW 9052   2.150   3.675   4.118
 2718SOL    HW1 9053   2.165   3.693   4.215
 2718SOL    HW2 9054   2.143   3.576   4.103
 2719SOL     OW 9055   4.864   4.965   1.496
 2719SOL    HW1 9056   4.803   5.005   1.428
 2719SOL    HW2 9057   4.931   4.906   1.450
 2720SOL     OW 9058   2.096   6.040   3.469
 2720SOL    HW1 9059   2.018   6.101   3.458
 2720SOL    HW2 9060   2.066   5.955   3.513
 2721SOL     OW 9061   3.033   0.057   5.592
 2721SOL    HW1 9062   3.026   7.000   5.649
 2721SOL    HW2 9063   2.981   0.043   5.507
 2722SOL     OW 9064   6.287   5.185   2.596
 2722SOL    HW1 9065   6.216   5.245   2.558
 2722SOL    HW2 9066   6.310   5.216   2.688
 2723SOL     OW 9067   1.752   0.533   6.337
 2723SOL    HW1 9068   1.807   0.474   6.277
 2723SOL    HW2 9069   1.705   0.477   6.405
 2724SOL     OW 9070   3.358   6.529   6.023
 2724SOL    HW1 9071   3.308   6.605   5.982
 2724SOL    HW2 9072   3.422   6.564   6.091
 2725SOL     OW 9073   6.188   5.083   3.160
 2725SOL    HW1 9074   6.175   5.140   3.079
 2725SOL    HW2 9075   6.194   4.987   3.132
 2726SOL     OW 9076   6.297   4.304   1.403
 2726SOL    HW1 9077   6.349   4.219   1.411
 2726SOL    HW2 9078   6.319   4.348   1.316
 2727SOL     OW 9079   0.253   4.761   2.647
 2727SOL    HW1 9080   0.193   4.682   2.656
 2727SOL    HW2 9081   0.293   4.784   2.736
 2728SOL     OW 9082   3.384   0.681   5.379
 2728SOL    HW1 9083   3.339   0.770   5.389
 2728SOL    HW2 9084   3.408   0.646   5.470
 2729SOL     OW 9085   6.948   5.686   1.811
 2729SOL    HW1 9086   6.893   5.768   1.796
 2729SOL    HW2 9087   0.017   5.712   1.836
 2730SOL     OW 9088   1.554   6.499   1.159
 2730SOL    HW1 9089   1.562   6.406   1.123
 2730SOL    HW2 9090   1.507   6.556   1.091
 2731SOL     OW 9091   3.464   3.652   1.483
 2731SOL    HW1 9092   3.407   3.620   1.559
 2731SOL    HW2 9093   3.516   3.732   1.512
 2732SOL     OW 9094   5.746   3.445   2.536
 2732SOL    HW1 9095   5.717   3.407   2.448
 2732SOL    HW2 9096   5.796   3.530   2.521
 2733SOL     OW 9097   0.381   6.886   4.907
 2733SOL    HW1 9098   0.338   6.823   4.843
 2733SOL    HW2 9099   0.369   6.852   5.000
 2734SOL     OW 9100   2.286   5.328   2.944
 2734SOL    HW1 9101   2.271   5.395   2.871
 2734SOL    HW2 9102   2.200   5.311   2.992
 2735SOL     OW 9103   0.903   3.273   2.808
 2735SOL    HW1 9104   0.818   3.224   2.825
 2735SOL    HW2 9105   0.889   3.339   2.734
 2736SOL     OW 9106   5.195   0.680   4.159
 2736SOL    HW1 9107   5.282   0.635   4.180
 2736SOL    HW2 9108   5.172   0.744   4.232
 2737SOL     OW 9109   3.268   3.332   5.649
 2737SOL    HW1 9110   3.273   3.373   5.558
 2737SOL    HW2 9111   3.345   3.269   5.662
 2738SOL     OW 9112   5.478   5.603   4.763
 2738SOL    HW1 9113   5.384   5.635   4.769
 2738SOL    HW2 9114   5.539   5.682   4.752
 2739SOL     OW 9115   6.098   4.383   0.043
 2739SOL    HW1 9116   6.053   4.354   6.982
 2739SOL    HW2 9117   6.092   4.482   0.052
 2740SOL     OW 9118   5.500   2.396   2.039
 2740SOL    HW1 9119   5.518   2.301   2.063
 2740SOL    HW2 9120   5.436   2.435   2.105
 2741SOL     OW 9121   0.278   1.376   6.579
 2741SOL    HW1 9122   0.208   1.311   6.607
 2741SOL    HW2 9123   0.248   1.422   6.495
 2742SOL     OW 9124   1.329   5.510   6.173
 2742SOL    HW1 9125   1.403   5.448   6.199
 2742SOL    HW2 9126   1.284   5.476   6.091
 2743SOL     OW 9127   5.857   5.391   1.847
 2743SOL    HW1 9128   5.772   5.444   1.855
 2743SOL    HW2 9129   5.870   5.363   1.752
 2744SOL     OW 9130   3.494   2.847   0.162
 2744SOL    HW1 9131   3.508   2.748   0.165
 2744SOL    HW2 9132   3.453   2.878   0.248
 2745SOL     OW 9133   2.149   6.886   0.102
 2745SOL    HW1 9134   2.163   6.828   0.183
 2745SOL    HW2 9135   2.052   6.902   0.088
 2746SOL     OW 9136   1.981   2.949   4.629
 2746SOL    HW1 9137   1.949   3.031   4.580
 2746SOL    HW2 9138   2.076   2.931   4.603
 2747SOL     OW 9139   5.730   3.916   5.270
 2747SOL    HW1 9140   5.755   3.862   5.190
 2747SOL    HW2 9141   5.803   3.981   5.291
 2748SOL     OW 9142   3.352   1.393   1.827
 2748SOL    HW1 9143   3.423   1.358   1.767
 2748SOL    HW2 9144   3.389   1.407   1.919
 2749SOL     OW 9145   5.482   5.006   4.042
 2749SOL    HW1 9146   5.523   5.091   4.075
 2749SOL    HW2 9147   5.537   4.969   3.966
 2750SOL     OW 9148   0.498   5.561   1.443
 2750SOL    HW1 9149   0.471   5.617   1.365
 2750SOL    HW2 9150   0.442   5.586   1.522
 2751SOL     OW 9151   1.868   0.044   0.442
 2751SOL    HW1 9152   1.830   6.989   0.394
 2751SOL    HW2 9153   1.839   0.128   0.396
 2752SOL     OW 9154   5.342   5.513   5.346
 2752SOL    HW1 9155   5.286   5.578   5.295
 2752SOL    HW2 9156   5.316   5.420   5.321
 2753SOL     OW 9157   1.957   0.132   5.980
 2753SOL    HW1 9158   1.967   0.187   6.062
 2753SOL    HW2 9159   1.867   0.088   5.980
 2754SOL     OW 9160   6.554   0.471   4.540
 2754SOL    HW1 9161   6.653   0.470   4.552
 2754SOL    HW2 9162   6.529   0.420   4.457
 2755SOL     OW 9163   2.996   6.233   3.257
 2755SOL    HW1 9164   3.091   6.266   3.254
 2755SOL    HW2 9165   2.995   6.136   3.233
 2756SOL     OW 9166   5.774   4.012   4.043
 2756SOL    HW1 9167   5.844   3.999   3.973
 2756SOL    HW2 9168   5.815   4.053   4.124
 2757SOL     OW 9169   3.015   1.733   6.549
 2757SOL    HW1 9170   3.013   1.656   6.485
 2757SOL    HW2 9171   3.104   1.779   6.544
 2758SOL     OW 9172   5.056   6.109   3.532
 2758SOL    HW1 9173   4.990   6.035   3.541
 2758SOL    HW2 9174   5.114   6.113   3.614
 2759SOL     OW 9175   3.674   4.790   5.314
 2759SOL    HW1 9176   3.598   4.781   5.378
 2759SOL    HW2 9177   3.726   4.705   5.311
 2760SOL     OW 9178   6.228   5.453   2.765
 2760SOL    HW1 9179   6.307   5.392   2.775
 2760SOL    HW2 9180   6.256   5.547   2.784
 2761SOL     OW 9181   1.552   3.839   3.773
 2761SOL    HW1 9182   1.527   3.810   3.866
 2761SOL    HW2 9183   1.589   3.761   3.723
 2762SOL     OW 9184   1.408   2.422   6.637
 2762SOL    HW1 9185   1.395   2.520   6.624
 2762SOL    HW2 9186   1.320   2.375   6.628
 2763SOL     OW 9187   5.436   1.841   5.823
 2763SOL    HW1 9188   5.436   1.929   5.776
 2763SOL    HW2 9189   5.508   1.840   5.893
 2764SOL     OW 9190   0.360   4.897   2.880
 2764SOL    HW1 9191   0.409   4.975   2.842
 2764SOL    HW2 9192   0.409   4.864   2.961
 2765SOL     OW 9193   0.487   0.553   1.099
 2765SOL    HW1 9194   0.580   0.563   1.065
 2765SOL    HW2 9195   0.472   0.615   1.176
 2766SOL     OW 9196   4.292   1.093   0.037
 2766SOL    HW1 9197   4.328   1.179   0.002
 2766SOL    HW2 9198   4.367   1.028   0.050
 2767SOL     OW 9199   5.840   6.009   6.897
 2767SOL    HW1 9200   5.906   5.948   6.855
 2767SOL    HW2 9201   5.881   6.100   6.910
 2768SOL     OW 9202   4.399   1.168   0.304
 2768SOL    HW1 9203   4.350   1.135   0.224
 2768SOL    HW2 9204   4.494   1.188   0.280
 2769SOL     OW 9205   2.151   4.625   6.169
 2769SOL    HW1 9206   2.227   4.646   6.109
 2769SOL    HW2 9207   2.178   4.641   6.264
 2770SOL     OW 9208   3.662   6.051   6.373
 2770SOL    HW1 9209   3.732   6.015   6.313
 2770SOL    HW2 9210   3.617   6.129   6.330
 2771SOL     OW 9211   5.568   6.886   4.765
 2771SOL    HW1 9212   5.642   6.920   4.708
 2771SOL    HW2 9213   5.600   6.874   4.859
 2772SOL     OW 9214   3.469   0.736   2.372
 2772SOL    HW1 9215   3.444   0.791   2.452
 2772SOL    HW2 9216   3.504   0.796   2.300
 2773SOL     OW 9217   0.162   2.513   3.855
 2773SOL    HW1 9218   0.086   2.576   3.835
 2773SOL    HW2 9219   0.177   2.454   3.776
 2774SOL     OW 9220   5.100   2.851   2.786
 2774SOL    HW1 9221   5.178   2.826   2.842
 2774SOL    HW2 9222   5.131   2.898   2.703
 2775SOL     OW 9223   6.870   3.738   3.639
 2775SOL    HW1 9224   6.908   3.670   3.577
 2775SOL    HW2 9225   6.941   3.770   3.701
 2776SOL     OW 9226   5.182   5.537   6.164
 2776SOL    HW1 9227   5.224   5.447   6.154
 2776SOL    HW2 9228   5.155   5.552   6.259
 2777SOL     OW 9229   2.312   1.783   6.066
 2777SOL    HW1 9230   2.348   1.719   6.133
 2777SOL    HW2 9231   2.284   1.867   6.112
 2778SOL     OW 9232   2.090   6.219   6.379
 2778SOL    HW1 9233   2.025   6.204   6.304
 2778SOL    HW2 9234   2.176   6.171   6.358
 2779SOL     OW 9235   5.615   6.249   2.257
 2779SOL    HW1 9236   5.574   6.336   2.228
 2779SOL    HW2 9237   5.605   6.182   2.184
 2780SOL     OW 9238   6.732   0.212   5.883
 2780SOL    HW1 9239   6.814   0.241   5.834
 2780SOL    HW2 9240   6.718   0.114   5.870
 2781SOL     OW 9241   5.932   0.423   2.776
 2781SOL    HW1 9242   5.939   0.328   2.806
 2781SOL    HW2 9243   5.846   0.462   2.808
 2782SOL     OW 9244   4.613   1.295   5.493
 2782SOL    HW1 9245   4.675   1.264   5.420
 2782SOL    HW2 9246   4.603   1.222   5.561
 2783SOL     OW 9247   5.999   3.534   1.624
 2783SOL    HW1 9248   5.992   3.540   1.723
 2783SOL    HW2 9249   6.030   3.622   1.588
 2784SOL     OW 9250   2.931   1.642   2.343
 2784SOL    HW1 9251   3.010   1.628   2.403
 2784SOL    HW2 9252   2.865   1.568   2.356
 2785SOL     OW 9253   5.087   2.205   1.264
 2785SOL    HW1 9254   5.079   2.178   1.168
 2785SOL    HW2 9255   5.079   2.124   1.322
 2786SOL     OW 9256   6.327   5.849   1.069
 2786SOL    HW1 9257   6.365   5.814   1.155
 2786SOL    HW2 9258   6.278   5.935   1.087
 2787SOL     OW 9259   6.376   5.869   5.737
 2787SOL    HW1 9260   6.463   5.869   5.787
 2787SOL    HW2 9261   6.382   5.931   5.660
 2788SOL     OW 9262   3.189   6.034   6.282
 2788SOL    HW1 9263   3.244   6.040   6.366
 2788SOL    HW2 9264   3.102   6.082   6.296
 2789SOL     OW 9265   1.089   2.677   3.678
 2789SOL    HW1 9266   1.186   2.698   3.684
 2789SOL    HW2 9267   1.077   2.592   3.627
 2790SOL     OW 9268   3.106   4.963   0.549
 2790SOL    HW1 9269   3.069   4.906   0.476
 2790SOL    HW2 9270   3.194   5.002   0.521
 2791SOL     OW 9271   0.226   4.347   2.284
 2791SOL    HW1 9272   0.254   4.443   2.274
 2791SOL    HW2 9273   0.243   4.317   2.378
 2792SOL     OW 9274   3.260   0.686   4.490
 2792SOL    HW1 9275   3.246   0.658   4.395
 2792SOL    HW2 9276   3.286   0.783   4.492
 2793SOL     OW 9277   5.062   4.081   1.858
 2793SOL    HW1 9278   5.068   3.990   1.818
 2793SOL    HW2 9279   5.104   4.081   1.949
 2794SOL     OW 9280   0.271   1.361   6.247
 2794SOL    HW1 9281   0.257   1.385   6.151
 2794SOL    HW2 9282   0.264   1.443   6.304
 2795SOL     OW 9283   0.867   5.429   1.095
 2795SOL    HW1 9284   0.788   5.490   1.106
 2795SOL    HW2 9285   0.874   5.370   1.175
 2796SOL     OW 9286   0.763   5.273   4.799
 2796SOL    HW1 9287   0.719   5.227   4.721
 2796SOL    HW2 9288   0.697   5.331   4.845
 2797SOL     OW 9289   5.335   5.266   5.629
 2797SOL    HW1 9290   5.303   5.360   5.619
 2797SOL    HW2 9291   5.431   5.260   5.601
 2798SOL     OW 9292   6.773   6.126   2.409
 2798SOL    HW1 9293   6.789   6.064   2.332
 2798SOL    HW2 9294   6.856   6.180   2.426
 2799SOL     OW 9295   5.025   5.610   5.527
 2799SOL    HW1 9296   5.079   5.544   5.579
 2799SOL    HW2 9297   4.934   5.573   5.510
 2800SOL     OW 9298   5.742   0.605   6.682
 2800SOL    HW1 9299   5.707   0.592   6.775
 2800SOL    HW2 9300   5.773   0.699   6.671
 2801SOL     OW 9301   1.528   5.399   5.934
 2801SOL    HW1 9302   1.459   5.466   5.907
 2801SOL    HW2 9303   1.595   5.442   5.994
 2802SOL     OW 9304   6.941   6.232   5.271
 2802SOL    HW1 9305   6.973   6.169   5.200
 2802SOL    HW2 9306   6.973   6.200   5.360
 2803SOL     OW 9307   3.228   3.970   5.930
 2803SOL    HW1 9308   3.233   3.903   6.004
 2803SOL    HW2 9309   3.153   3.948   5.869
 2804SOL     OW 9310   0.320   3.188   4.011
 2804SOL    HW1 9311   0.371   3.185   4.097
 2804SOL    HW2 9312   0.268   3.104   3.999
 2805SOL     OW 9313   5.638   3.735   2.209
 2805SOL    HW1 9314   5.684   3.821   2.185
 2805SOL    HW2 9315   5.598   3.742   2.300
 2806SOL     OW 9316   2.285   4.538   6.509
 2806SOL    HW1 9317   2.316   4.628   6.540
 2806SOL    HW2 9318   2.188   4.528   6.529
 2807SOL     OW 9319   3.098   0.189   2.900
 2807SOL    HW1 9320   3.063   0.196   2.993
 2807SOL    HW2 9321   3.023   0.173   2.836
 2808SOL     OW 9322   5.583   5.869   0.761
 2808SOL    HW1 9323   5.632   5.917   0.688
 2808SOL    HW2 9324   5.551   5.935   0.828
 2809SOL     OW 9325   5.503   3.266   1.731
 2809SOL    HW1 9326   5.433   3.202   1.763
 2809SOL    HW2 9327   5.593   3.232   1.757
 2810SOL     OW 9328   2.298   5.612   3.177
 2810SOL    HW1 9329   2.363   5.552   3.131
 2810SOL    HW2 9330   2.264   5.681   3.113
 2811SOL     OW 9331   1.034   0.905   2.740
 2811SOL    HW1 9332   1.104   0.910   2.668
 2811SOL    HW2 9333   1.009   0.809   2.755
 2812SOL     OW 9334   6.802   3.206   0.521
 2812SOL    HW1 9335   6.890   3.171   0.554
 2812SOL    HW2 9336   6.818   3.270   0.446
 2813SOL     OW 9337   0.986   1.385   1.241
 2813SOL    HW1 9338   0.999   1.484   1.249
 2813SOL    HW2 9339   0.888   1.364   1.249
 2814SOL     OW 9340   3.121   3.861   6.334
 2814SOL    HW1 9341   3.075   3.786   6.288
 2814SOL    HW2 9342   3.065   3.891   6.412
 2815SOL     OW 9343   0.204   6.366   5.847
 2815SOL    HW1 9344   0.175   6.361   5.752
 2815SOL    HW2 9345   0.248   6.454   5.864
 2816SOL     OW 9346   0.109   5.868   4.843
 2816SOL    HW1 9347   0.079   5.780   4.806
 2816SOL    HW2 9348   0.101   5.866   4.943
 2817SOL     OW 9349   3.833   0.978   1.824
 2817SOL    HW1 9350   3.734   0.991   1.817
 2817SOL    HW2 9351   3.863   1.005   1.916
 2818SOL     OW 9352   0.594   1.395   1.036
 2818SOL    HW1 9353   0.499   1.384   1.066
 2818SOL    HW2 9354   0.601   1.478   0.980
 2819SOL     OW 9355   0.977   0.544   1.263
 2819SOL    HW1 9356   0.947   0.451   1.282
 2819SOL    HW2 9357   1.021   0.547   1.174
 2820SOL     OW 9358   1.269   1.709   2.172
 2820SOL    HW1 9359   1.258   1.612   2.192
 2820SOL    HW2 9360   1.335   1.720   2.097
 2821SOL     OW 9361   3.380   5.368   6.086
 2821SOL    HW1 9362   3.405   5.303   6.158
 2821SOL    HW2 9363   3.438   5.449   6.092
 2822SOL     OW 9364   3.781   2.961   0.422
 2822SOL    HW1 9365   3.723   3.023   0.370
 2822SOL    HW2 9366   3.749   2.958   0.517
 2823SOL     OW 9367   5.353   1.008   0.617
 2823SOL    HW1 9368   5.343   1.090   0.673
 2823SOL    HW2 9369   5.440   1.012   0.567
 2824SOL     OW 9370   1.542   3.772   5.486
 2824SOL    HW1 9371   1.475   3.819   5.430
 2824SOL    HW2 9372   1.592   3.706   5.429
 2825SOL     OW 9373   5.306   0.645   6.624
 2825SOL    HW1 9374   5.391   0.636   6.573
 2825SOL    HW2 9375   5.231   0.604   6.572
 2826SOL     OW 9376   1.750   3.403   6.385
 2826SOL    HW1 9377   1.842   3.363   6.387
 2826SOL    HW2 9378   1.749   3.478   6.319
 2827SOL     OW 9379   0.602   0.518   6.235
 2827SOL    HW1 9380   0.664   0.521   6.156
 2827SOL    HW2 9381   0.508   0.530   6.203
 2828SOL     OW 9382   1.425   3.411   1.039
 2828SOL    HW1 9383   1.509   3.436   1.086
 2828SOL    HW2 9384   1.381   3.335   1.087
 2829SOL     OW 9385   3.805   3.667   2.996
 2829SOL    HW1 9386   3.834   3.762   3.011
 2829SOL    HW2 9387   3.886   3.609   2.985
 2830SOL     OW 9388   3.726   4.179   5.114
 2830SOL    HW1 9389   3.813   4.212   5.151
 2830SOL    HW2 9390   3.695   4.100   5.166
 2831SOL     OW 9391   0.139   1.820   2.607
 2831SOL    HW1 9392   0.219   1.776   2.647
 2831SOL    HW2 9393   0.104   1.762   2.533
 2832SOL     OW 9394   0.845   3.106   1.479
 2832SOL    HW1 9395   0.917   3.068   1.421
 2832SOL    HW2 9396   0.865   3.084   1.574
 2833SOL     OW 9397   2.449   0.727   2.151
 2833SOL    HW1 9398   2.481   0.686   2.067
 2833SOL    HW2 9399   2.354   0.758   2.139
 2834SOL     OW 9400   4.809   6.034   4.958
 2834SOL    HW1 9401   4.726   5.993   4.921
 2834SOL    HW2 9402   4.878   6.040   4.886
 2835SOL     OW 9403   1.167   6.350   0.186
 2835SOL    HW1 9404   1.262   6.363   0.160
 2835SOL    HW2 9405   1.153   6.383   0.280
 2836SOL     OW 9406   3.964   6.195   3.355
 2836SOL    HW1 9407   3.904   6.239   3.422
 2836SOL    HW2 9408   4.045   6.251   3.341
 2837SOL     OW 9409   5.746   3.963   2.135
 2837SOL    HW1 9410   5.825   4.020   2.159
 2837SOL    HW2 9411   5.666   4.021   2.119
 2838SOL     OW 9412   4.945   4.077   6.720
 2838SOL    HW1 9413   5.017   4.097   6.654
 2838SOL    HW2 9414   4.984   4.030   6.800
 2839SOL     OW 9415   6.568   2.358   3.418
 2839SOL    HW1 9416   6.512   2.401   3.347
 2839SOL    HW2 9417   6.639   2.423   3.446
 2840SOL     OW 9418   1.489   5.634   3.012
 2840SOL    HW1 9419   1.520   5.576   2.937
 2840SOL    HW2 9420   1.564   5.651   3.075
 2841SOL     OW 9421   6.223   2.680   0.873
 2841SOL    HW1 9422   6.188   2.773   0.863
 2841SOL    HW2 9423   6.147   2.616   0.876
 2842SOL     OW 9424   1.436   5.549   4.799
 2842SOL    HW1 9425   1.406   5.546   4.895
 2842SOL    HW2 9426   1.383   5.483   4.746
 2843SOL     OW 9427   2.411   2.449   2.815
 2843SOL    HW1 9428   2.509   2.433   2.807
 2843SOL    HW2 9429   2.370   2.378   2.873
 2844SOL     OW 9430   4.692   4.236   1.450
 2844SOL    HW1 9431   4.600   4.230   1.490
 2844SOL    HW2 9432   4.758   4.254   1.523
 2845SOL     OW 9433   5.120   2.695   3.864
 2845SOL    HW1 9434   5.135   2.793   3.852
 2845SOL    HW2 9435   5.072   2.659   3.784
 2846SOL     OW 9436   3.861   0.850   0.003
 2846SOL    HW1 9437   3.957   0.870   7.011
 2846SOL    HW2 9438   3.844   0.838   0.101
 2847SOL     OW 9439   4.801   4.244   2.042
 2847SOL    HW1 9440   4.714   4.243   1.992
 2847SOL    HW2 9441   4.854   4.324   2.015
 2848SOL     OW 9442   1.293   2.300   5.376
 2848SOL    HW1 9443   1.312   2.285   5.473
 2848SOL    HW2 9444   1.338   2.384   5.346
 2849SOL     OW 9445   3.804   0.728   1.727
 2849SOL    HW1 9446   3.711   0.742   1.693
 2849SOL    HW2 9447   3.841   0.816   1.758
 2850SOL     OW 9448   1.875   7.000   3.712
 2850SOL    HW1 9449   1.855   0.010   3.620
 2850SOL    HW2 9450   1.965   6.955   3.711
 2851SOL     OW 9451   3.853   3.393   6.857
 2851SOL    HW1 9452   3.866   3.449   6.938
 2851SOL    HW2 9453   3.862   3.296   6.881
 2852SOL     OW 9454   6.470   4.295   7.019
 2852SOL    HW1 9455   6.418   4.372   0.031
 2852SOL    HW2 9456   6.453   4.214   0.050
 2853SOL     OW 9457   0.344   3.242   6.792
 2853SOL    HW1 9458   0.378   3.332   6.763
 2853SOL    HW2 9459   0.362   3.230   6.890
 2854SOL     OW 9460   3.365   1.093   6.279
 2854SOL    HW1 9461   3.420   1.029   6.333
 2854SOL    HW2 9462   3.377   1.185   6.316
 2855SOL     OW 9463   1.038   2.353   4.342
 2855SOL    HW1 9464   1.019   2.451   4.343
 2855SOL    HW2 9465   1.009   2.314   4.254
 2856SOL     OW 9466   1.825   2.977   2.904
 2856SOL    HW1 9467   1.742   3.016   2.865
 2856SOL    HW2 9468   1.870   2.920   2.835
 2857SOL     OW 9469   0.384   3.597   0.586
 2857SOL    HW1 9470   0.423   3.513   0.546
 2857SOL    HW2 9471   0.448   3.633   0.654
 2858SOL     OW 9472   5.633   6.171   2.765
 2858SOL    HW1 9473   5.593   6.208   2.849
 2858SOL    HW2 9474   5.732   6.175   2.770
 2859SOL     OW 9475   5.379   5.806   0.369
 2859SOL    HW1 9476   5.359   5.848   0.281
 2859SOL    HW2 9477   5.301   5.816   0.430
 2860SOL     OW 9478   1.712   6.246   1.591
 2860SOL    HW1 9479   1.756   6.318   1.537
 2860SOL    HW2 9480   1.743   6.157   1.560
 2861SOL     OW 9481   2.947   5.040   5.800
 2861SOL    HW1 9482   2.963   5.025   5.703
 2861SOL    HW2 9483   2.853   5.012   5.823
 2862SOL     OW 9484   4.342   2.752   1.696
 2862SOL    HW1 9485   4.348   2.786   1.602
 2862SOL    HW2 9486   4.434   2.731   1.729
 2863SOL     OW 9487   5.290   0.862   6.040
 2863SOL    HW1 9488   5.365   0.928   6.040
 2863SOL    HW2 9489   5.323   0.776   6.000
 2864SOL     OW 9490   4.290   2.963   1.124
 2864SOL    HW1 9491   4.295   2.930   1.218
 2864SOL    HW2 9492   4.323   2.891   1.062
 2865SOL     OW 9493   4.267   6.371   4.177
 2865SOL    HW1 9494   4.285   6.458   4.130
 2865SOL    HW2 9495   4.170   6.366   4.200
 2866SOL     OW 9496   5.824   4.426   6.917
 2866SOL    HW1 9497   5.810   4.391   7.010
 2866SOL    HW2 9498   5.884   4.507   6.921
 2867SOL     OW 9499   6.453   6.320   2.382
 2867SOL    HW1 9500   6.499   6.302   2.469
 2867SOL    HW2 9501   6.357   6.341   2.399
 2868SOL     OW 9502   1.200   1.068   5.826
 2868SOL    HW1 9503   1.213   0.969   5.824
 2868SOL    HW2 9504   1.130   1.093   5.759
 2869SOL     OW 9505   6.327   7.014   4.065
 2869SOL    HW1 9506   6.255   0.053   4.035
 2869SOL    HW2 9507   6.308   6.922   4.029
 2870SOL     OW 9508   0.985   2.116   6.947
 2870SOL    HW1 9509   1.024   2.203   6.975
 2870SOL    HW2 9510   0.993   2.050   7.022
 2871SOL     OW 9511   6.732   0.792   0.598
 2871SOL    HW1 9512   6.804   0.728   0.569
 2871SOL    HW2 9513   6.740   0.877   0.546
 2872SOL     OW 9514   2.740   1.432   1.486
 2872SOL    HW1 9515   2.659   1.491   1.484
 2872SOL    HW2 9516   2.822   1.488   1.497
 2873SOL     OW 9517   0.354   5.609   1.662
 2873SOL    HW1 9518   0.315   5.601   1.753
 2873SOL    HW2 9519   0.295   5.665   1.605
 2874SOL     OW 9520   3.757   0.209   2.972
 2874SOL    HW1 9521   3.818   0.171   2.902
 2874SOL    HW2 9522   3.674   0.245   2.929
 2875SOL     OW 9523   3.442   6.954   2.734
 2875SOL    HW1 9524   3.348   6.945   2.702
 2875SOL    HW2 9525   3.449   0.009   2.795
 2876SOL     OW 9526   1.209   6.478   1.929
 2876SOL    HW1 9527   1.132   6.505   1.985
 2876SOL    HW2 9528   1.176   6.435   1.845
 2877SOL     OW 9529   2.202   1.712   6.405
 2877SOL    HW1 9530   2.126   1.659   6.368
 2877SOL    HW2 9531   2.288   1.678   6.367
 2878SOL     OW 9532   2.984   3.400   4.678
 2878SOL    HW1 9533   2.963   3.428   4.772
 2878SOL    HW2 9534   3.066   3.344   4.678
 2879SOL     OW 9535   4.574   5.237   5.846
 2879SOL    HW1 9536   4.497   5.223   5.909
 2879SOL    HW2 9537   4.559   5.320   5.793
 2880SOL     OW 9538   0.897   1.794   3.812
 2880SOL    HW1 9539   0.971   1.756   3.756
 2880SOL    HW2 9540   0.860   1.723   3.873
 2881SOL     OW 9541   3.131   5.206   0.148
 2881SOL    HW1 9542   3.090   5.289   0.110
 2881SOL    HW2 9543   3.229   5.204   0.125
 2882SOL     OW 9544   5.724   6.553   0.742
 2882SOL    HW1 9545   5.670   6.595   0.669
 2882SOL    HW2 9546   5.664   6.523   0.816
 2883SOL     OW 9547   6.531   6.573   3.245
 2883SOL    HW1 9548   6.465   6.576   3.320
 2883SOL    HW2 9549   6.604   6.508   3.266
 2884SOL     OW 9550   6.750   4.889   2.217
 2884SOL    HW1 9551   6.745   4.982   2.254
 2884SOL    HW2 9552   6.788   4.892   2.124
 2885SOL     OW 9553   1.320   2.294   4.376
 2885SOL    HW1 9554   1.221   2.289   4.366
 2885SOL    HW2 9555   1.348   2.389   4.388
 2886SOL     OW 9556   2.844   4.442   0.240
 2886SOL    HW1 9557   2.910   4.505   0.282
 2886SOL    HW2 9558   2.778   4.495   0.186
 2887SOL     OW 9559   0.240   6.168   3.846
 2887SOL    HW1 9560   0.304   6.100   3.882
 2887SOL    HW2 9561   0.290   6.252   3.825
 2888SOL     OW 9562   0.188   5.574   6.639
 2888SOL    HW1 9563   0.153   5.646   6.699
 2888SOL    HW2 9564   0.116   5.509   6.619
 2889SOL     OW 9565   3.355   6.046   2.964
 2889SOL    HW1 9566   3.279   6.059   3.029
 2889SOL    HW2 9567   3.369   6.131   2.913
 2890SOL     OW 9568   2.270   6.168   0.873
 2890SOL    HW1 9569   2.260   6.071   0.851
 2890SOL    HW2 9570   2.185   6.204   0.910
 2891SOL     OW 9571   1.126   3.303   2.997
 2891SOL    HW1 9572   1.068   3.287   2.918
 2891SOL    HW2 9573   1.212   3.253   2.986
 2892SOL     OW 9574   6.385   3.454   0.955
 2892SOL    HW1 9575   6.483   3.444   0.940
 2892SOL    HW2 9576   6.369   3.535   1.013
 2893SOL     OW 9577   1.511   5.763   4.528
 2893SOL    HW1 9578   1.413   5.751   4.536
 2893SOL    HW2 9579   1.554   5.748   4.617
 2894SOL     OW 9580   2.341   4.452   2.069
 2894SOL    HW1 9581   2.408   4.458   1.995
 2894SOL    HW2 9582   2.248   4.448   2.031
 2895SOL     OW 9583   3.445   0.917   6.065
 2895SOL    HW1 9584   3.383   0.902   5.988
 2895SOL    HW2 9585   3.403   0.980   6.130
 2896SOL     OW 9586   6.109   0.263   5.886
 2896SOL    HW1 9587   6.093   0.340   5.948
 2896SOL    HW2 9588   6.093   0.292   5.792
 2897SOL     OW 9589   3.829   4.905   2.847
 2897SOL    HW1 9590   3.849   4.971   2.919
 2897SOL    HW2 9591   3.732   4.881   2.849
 2898SOL     OW 9592   5.689   4.062   3.485
 2898SOL    HW1 9593   5.671   4.062   3.584
 2898SOL    HW2 9594   5.774   4.014   3.467
 2899SOL     OW 9595   6.724   2.290   1.852
 2899SOL    HW1 9596   6.669   2.221   1.805
 2899SOL    HW2 9597   6.673   2.376   1.858
 2900SOL     OW 9598   3.790   4.605   6.903
 2900SOL    HW1 9599   3.887   4.630   6.897
 2900SOL    HW2 9600   3.777   4.514   6.864
 2901SOL     OW 9601   1.381   4.811   3.995
 2901SOL    HW1 9602   1.332   4.727   3.973
 2901SOL    HW2 9603   1.315   4.884   4.013
 2902SOL     OW 9604   0.003   5.976   3.613
 2902SOL    HW1 9605   6.967   5.984   3.692
 2902SOL    HW2 9606   0.044   5.885   3.612
 2903SOL     OW 9607   4.321   5.921   0.809
 2903SOL    HW1 9608   4.309   5.975   0.892
 2903SOL    HW2 9609   4.384   5.968   0.747
 2904SOL     OW 9610   2.995   4.798   5.310
 2904SOL    HW1 9611   3.009   4.717   5.254
 2904SOL    HW2 9612   3.024   4.779   5.404
 2905SOL     OW 9613   1.183   3.989   3.397
 2905SOL    HW1 9614   1.092   3.992   3.437
 2905SOL    HW2 9615   1.193   4.063   3.331
 2906SOL     OW 9616   5.193   6.467   2.865
 2906SOL    HW1 9617   5.229   6.559   2.878
 2906SOL    HW2 9618   5.123   6.449   2.934
 2907SOL     OW 9619   0.973   1.042   3.929
 2907SOL    HW1 9620   0.954   0.948   3.957
 2907SOL    HW2 9621   0.944   1.105   4.001
 2908SOL     OW 9622   5.404   0.270   3.655
 2908SOL    HW1 9623   5.468   0.327   3.602
 2908SOL    HW2 9624   5.440   0.258   3.747
 2909SOL     OW 9625   1.408   6.711   2.996
 2909SOL    HW1 9626   1.418   6.801   2.952
 2909SOL    HW2 9627   1.325   6.667   2.963
 2910SOL     OW 9628   6.699   1.235   3.762
 2910SOL    HW1 9629   6.662   1.153   3.806
 2910SOL    HW2 9630   6.781   1.211   3.709
 2911SOL     OW 9631   1.306   4.536   3.910
 2911SOL    HW1 9632   1.360   4.470   3.963
 2911SOL    HW2 9633   1.211   4.534   3.942
 2912SOL     OW 9634   0.159   6.524   0.409
 2912SOL    HW1 9635   0.062   6.521   0.432
 2912SOL    HW2 9636   0.175   6.595   0.341
 2913SOL     OW 9637   2.326   4.581   2.309
 2913SOL    HW1 9638   2.402   4.639   2.340
 2913SOL    HW2 9639   2.350   4.537   2.223
 2914SOL     OW 9640   5.011   5.307   1.401
 2914SOL    HW1 9641   5.000   5.253   1.485
 2914SOL    HW2 9642   4.923   5.344   1.373
 2915SOL     OW 9643   3.127   2.147   3.148
 2915SOL    HW1 9644   3.186   2.179   3.223
 2915SOL    HW2 9645   3.052   2.212   3.136
 2916SOL     OW 9646   2.066   5.267   0.190
 2916SOL    HW1 9647   2.003   5.300   0.259
 2916SOL    HW2 9648   2.024   5.276   0.099
 2917SOL     OW 9649   2.937   0.527   3.629
 2917SOL    HW1 9650   2.844   0.491   3.635
 2917SOL    HW2 9651   2.999   0.471   3.684
 2918SOL     OW 9652   6.113   3.346   0.437
 2918SOL    HW1 9653   6.041   3.313   0.375
 2918SOL    HW2 9654   6.171   3.269   0.465
 2919SOL     OW 9655   6.443   6.260   3.544
 2919SOL    HW1 9656   6.479   6.353   3.543
 2919SOL    HW2 9657   6.519   6.195   3.543
 2920SOL     OW 9658   2.388   0.552   1.695
 2920SOL    HW1 9659   2.317   0.622   1.699
 2920SOL    HW2 9660   2.449   0.562   1.774
 2921SOL     OW 9661   0.004   0.285   5.251
 2921SOL    HW1 9662   6.994   0.192   5.269
 2921SOL    HW2 9663   7.015   0.307   5.155
 2922SOL     OW 9664   4.007   0.278   1.975
 2922SOL    HW1 9665   4.084   0.248   2.031
 2922SOL    HW2 9666   4.039   0.346   1.909
 2923SOL     OW 9667   6.543   5.087   4.230
 2923SOL    HW1 9668   6.631   5.097   4.183
 2923SOL    HW2 9669   6.542   5.146   4.311
 2924SOL     OW 9670   6.776   1.497   4.731
 2924SOL    HW1 9671   6.774   1.548   4.818
 2924SOL    HW2 9672   6.689   1.450   4.719
 2925SOL     OW 9673   5.631   1.129   6.837
 2925SOL    HW1 9674   5.679   1.210   6.805
 2925SOL    HW2 9675   5.540   1.125   6.793
 2926SOL     OW 9676   6.516   2.341   5.270
 2926SOL    HW1 9677   6.592   2.404   5.253
 2926SOL    HW2 9678   6.536   2.253   5.226
 2927SOL     OW 9679   2.024   3.423   0.809
 2927SOL    HW1 9680   2.093   3.495   0.808
 2927SOL    HW2 9681   1.932   3.464   0.808
 2928SOL     OW 9682   6.322   1.546   0.256
 2928SOL    HW1 9683   6.408   1.592   0.278
 2928SOL    HW2 9684   6.264   1.543   0.338
 2929SOL     OW 9685   1.297   2.773   4.964
 2929SOL    HW1 9686   1.199   2.774   4.982
 2929SOL    HW2 9687   1.337   2.691   5.004
 2930SOL     OW 9688   6.091   5.877   5.484
 2930SOL    HW1 9689   6.167   5.930   5.522
 2930SOL    HW2 9690   6.118   5.781   5.479
 2931SOL     OW 9691   4.475   5.220   0.756
 2931SOL    HW1 9692   4.568   5.221   0.791
 2931SOL    HW2 9693   4.471   5.269   0.669
 2932SOL     OW 9694   6.756   5.465   2.535
 2932SOL    HW1 9695   6.729   5.399   2.606
 2932SOL    HW2 9696   6.850   5.493   2.550
 2933SOL     OW 9697   0.194   0.021   1.600
 2933SOL    HW1 9698   0.281   6.998   1.610
 2933SOL    HW2 9699   0.175   0.075   1.681
 2934SOL     OW 9700   4.497   3.139   1.408
 2934SOL    HW1 9701   4.440   3.057   1.400
 2934SOL    HW2 9702   4.506   3.183   1.319
 2935SOL     OW 9703   1.087   2.555   6.465
 2935SOL    HW1 9704   1.126   2.636   6.423
 2935SOL    HW2 9705   1.007   2.525   6.414
 2936SOL     OW 9706   4.533   0.203   0.713
 2936SOL    HW1 9707   4.448   0.235   0.671
 2936SOL    HW2 9708   4.608   0.216   0.649
 2937SOL     OW 9709   4.743   4.704   1.274
 2937SOL    HW1 9710   4.730   4.716   1.373
 2937SOL    HW2 9711   4.833   4.737   1.248
 2938SOL     OW 9712   6.220   5.434   0.417
 2938SOL    HW1 9713   6.201   5.365   0.487
 2938SOL    HW2 9714   6.312   5.419   0.380
 2939SOL     OW 9715   0.360   6.679   1.580
 2939SOL    HW1 9716   0.323   6.745   1.514
 2939SOL    HW2 9717   0.322   6.589   1.561
 2940SOL     OW 9718   5.904   5.914   4.485
 2940SOL    HW1 9719   6.003   5.913   4.469
 2940SOL    HW2 9720   5.875   5.824   4.519
 2941SOL     OW 9721   2.419   2.719   2.880
 2941SOL    HW1 9722   2.478   2.729   2.961
 2941SOL    HW2 9723   2.398   2.623   2.866
 2942SOL     OW 9724   3.274   2.584   0.383
 2942SOL    HW1 9725   3.309   2.490   0.373
 2942SOL    HW2 9726   3.175   2.582   0.386
 2943SOL     OW 9727   6.163   4.501   3.809
 2943SOL    HW1 9728   6.087   4.560   3.834
 2943SOL    HW2 9729   6.220   4.483   3.889
 2944SOL     OW 9730   2.896   6.289   3.889
 2944SOL    HW1 9731   2.900   6.388   3.907
 2944SOL    HW2 9732   2.918   6.272   3.793
 2945SOL     OW 9733   5.070   3.802   1.776
 2945SOL    HW1 9734   5.013   3.772   1.853
 2945SOL    HW2 9735   5.163   3.768   1.788
 2946SOL     OW 9736   2.062   4.235   5.780
 2946SOL    HW1 9737   2.101   4.317   5.820
 2946SOL    HW2 9738   2.133   4.186   5.728
 2947SOL     OW 9739   0.160   5.985   0.274
 2947SOL    HW1 9740   0.108   5.922   0.216
 2947SOL    HW2 9741   0.215   6.045   0.216
 2948SOL     OW 9742   6.133   4.738   3.288
 2948SOL    HW1 9743   6.088   4.670   3.346
 2948SOL    HW2 9744   6.080   4.751   3.204
 2949SOL     OW 9745   0.853   6.338   6.849
 2949SOL    HW1 9746   0.879   6.434   6.840
 2949SOL    HW2 9747   0.926   6.288   6.896
 2950SOL     OW 9748   5.843   4.956   2.836
 2950SOL    HW1 9749   5.755   4.910   2.825
 2950SOL    HW2 9750   5.917   4.891   2.819
 2951SOL     OW 9751   5.643   1.016   1.683
 2951SOL    HW1 9752   5.545   0.999   1.698
 2951SOL    HW2 9753   5.668   0.981   1.593
 2952SOL     OW 9754   6.043   0.145   5.003
 2952SOL    HW1 9755   5.987   0.094   4.939
 2952SOL    HW2 9756   6.133   0.163   4.962
 2953SOL     OW 9757   6.817   4.956   3.145
 2953SOL    HW1 9758   6.857   5.025   3.084
 2953SOL    HW2 9759   6.797   4.873   3.093
 2954SOL     OW 9760   6.952   4.555   6.554
 2954SOL    HW1 9761   0.014   4.602   6.571
 2954SOL    HW2 9762   6.902   4.545   6.640
 2955SOL     OW 9763   1.075   4.292   0.003
 2955SOL    HW1 9764   1.041   4.235   6.953
 2955SOL    HW2 9765   1.111   4.378   6.991
 2956SOL     OW 9766   0.020   5.390   3.934
 2956SOL    HW1 9767   6.944   5.392   3.938
 2956SOL    HW2 9768   0.055   5.317   3.992
 2957SOL     OW 9769   4.086   5.013   1.472
 2957SOL    HW1 9770   4.017   5.047   1.408
 2957SOL    HW2 9771   4.105   5.083   1.541
 2958SOL     OW 9772   2.033   5.051   3.285
 2958SOL    HW1 9773   1.970   4.981   3.252
 2958SOL    HW2 9774   2.019   5.065   3.383
 2959SOL     OW 9775   5.385   2.589   2.655
 2959SOL    HW1 9776   5.308   2.585   2.591
 2959SOL    HW2 9777   5.380   2.673   2.709
 2960SOL     OW 9778   3.103   0.928   0.147
 2960SOL    HW1 9779   3.031   0.873   0.189
 2960SOL    HW2 9780   3.118   0.896   0.053
 2961SOL     OW 9781   6.217   4.818   2.977
 2961SOL    HW1 9782   6.132   4.765   2.978
 2961SOL    HW2 9783   6.218   4.878   2.898
 2962SOL     OW 9784   4.969   6.627   3.405
 2962SOL    HW1 9785   5.042   6.687   3.437
 2962SOL    HW2 9786   4.888   6.682   3.382
 2963SOL     OW 9787   1.639   1.129   6.683
 2963SOL    HW1 9788   1.551   1.120   6.729
 2963SOL    HW2 9789   1.661   1.043   6.637
 2964SOL     OW 9790   0.464   2.776   6.614
 2964SOL    HW1 9791   0.557   2.760   6.647
 2964SOL    HW2 9792   0.416   2.837   6.677
 2965SOL     OW 9793   1.605   0.649   4.653
 2965SOL    HW1 9794   1.580   0.741   4.624
 2965SOL    HW2 9795   1.523   0.593   4.663
 2966SOL     OW 9796   4.882   5.447   4.150
 2966SOL    HW1 9797   4.870   5.437   4.249
 2966SOL    HW2 9798   4.914   5.539   4.129
 2967SOL     OW 9799   6.847   1.475   5.965
 2967SOL    HW1 9800   6.816   1.395   5.913
 2967SOL    HW2 9801   6.826   1.558   5.913
 2968SOL     OW 9802   2.059   2.932   1.057
 2968SOL    HW1 9803   2.055   2.880   1.142
 2968SOL    HW2 9804   2.121   3.010   1.068
 2969SOL     OW 9805   4.817   4.062   4.762
 2969SOL    HW1 9806   4.866   4.096   4.682
 2969SOL    HW2 9807   4.803   3.964   4.753
 2970SOL     OW 9808   2.944   2.683   5.415
 2970SOL    HW1 9809   2.947   2.776   5.452
 2970SOL    HW2 9810   3.037   2.650   5.400
 2971SOL     OW 9811   6.031   4.057   0.288
 2971SOL    HW1 9812   6.025   3.997   0.368
 2971SOL    HW2 9813   6.045   4.152   0.318
 2972SOL     OW 9814   5.553   5.186   0.121
 2972SOL    HW1 9815   5.542   5.097   0.078
 2972SOL    HW2 9816   5.464   5.222   0.150
 2973SOL     OW 9817   4.718   6.852   2.692
 2973SOL    HW1 9818   4.768   6.906   2.624
 2973SOL    HW2 9819   4.648   6.798   2.646
 2974SOL     OW 9820   5.821   4.336   3.422
 2974SOL    HW1 9821   5.782   4.349   3.514
 2974SOL    HW2 9822   5.808   4.241   3.394
 2975SOL     OW 9823   4.850   4.409   3.556
 2975SOL    HW1 9824   4.882   4.362   3.638
 2975SOL    HW2 9825   4.892   4.500   3.550
 2976SOL     OW 9826   4.762   1.787   3.095
 2976SOL    HW1 9827   4.708   1.703   3.092
 2976SOL    HW2 9828   4.713   1.860   3.047
 2977SOL     OW 9829   1.081   0.468   2.323
 2977SOL    HW1 9830   1.121   0.505   2.407
 2977SOL    HW2 9831   0.991   0.508   2.308
 2978SOL     OW 9832   4.020   4.070   7.019
 2978SOL    HW1 9833   3.965   3.996   0.033
 2978SOL    HW2 9834   4.035   4.053   6.922
 2979SOL     OW 9835   3.248   1.701   4.627
 2979SOL    HW1 9836   3.172   1.761   4.602
 2979SOL    HW2 9837   3.211   1.612   4.657
 2980SOL     OW 9838   2.425   4.635   6.078
 2980SOL    HW1 9839   2.422   4.559   6.143
 2980SOL    HW2 9840   2.483   4.610   6.000
 2981SOL     OW 9841   2.270   1.955   0.066
 2981SOL    HW1 9842   2.247   2.033   0.007
 2981SOL    HW2 9843   2.326   1.890   0.014
 2982SOL     OW 9844   2.291   6.365   2.241
 2982SOL    HW1 9845   2.304   6.381   2.144
 2982SOL    HW2 9846   2.336   6.438   2.293
 2983SOL     OW 9847   0.040   2.520   0.352
 2983SOL    HW1 9848   0.008   2.428   0.329
 2983SOL    HW2 9849   0.017   2.540   0.447
 2984SOL     OW 9850   6.401   4.790   6.543
 2984SOL    HW1 9851   6.347   4.742   6.473
 2984SOL    HW2 9852   6.489   4.745   6.554
 2985SOL     OW 9853   0.973   0.814   4.219
 2985SOL    HW1 9854   1.004   0.768   4.136
 2985SOL    HW2 9855   1.049   0.865   4.259
 2986SOL     OW 9856   3.182   3.952   2.408
 2986SOL    HW1 9857   3.198   3.981   2.502
 2986SOL    HW2 9858   3.269   3.931   2.365
 2987SOL     OW 9859   1.653   2.062   4.463
 2987SOL    HW1 9860   1.718   2.069   4.387
 2987SOL    HW2 9861   1.609   2.151   4.477
 2988SOL     OW 9862   1.532   0.261   1.576
 2988SOL    HW1 9863   1.610   0.214   1.616
 2988SOL    HW2 9864   1.564   0.337   1.519
 2989SOL     OW 9865   5.512   3.778   5.332
 2989SOL    HW1 9866   5.599   3.826   5.317
 2989SOL    HW2 9867   5.445   3.840   5.372
 2990SOL     OW 9868   5.446   2.259   4.341
 2990SOL    HW1 9869   5.460   2.222   4.433
 2990SOL    HW2 9870   5.349   2.252   4.317
 2991SOL     OW 9871   6.004   3.617   0.435
 2991SOL    HW1 9872   6.050   3.528   0.428
 2991SOL    HW2 9873   5.992   3.654   0.343
 2992SOL     OW 9874   0.872   4.890   4.530
 2992SOL    HW1 9875   0.946   4.835   4.570
 2992SOL    HW2 9876   0.909   4.949   4.459
 2993SOL     OW 9877   0.136   5.277   0.402
 2993SOL    HW1 9878   0.180   5.244   0.486
 2993SOL    HW2 9879   0.171   5.367   0.379
 2994SOL     OW 9880   4.537   6.431   0.088
 2994SOL    HW1 9881   4.573   6.355   0.142
 2994SOL    HW2 9882   4.508   6.505   0.148
 2995SOL     OW 9883   4.852   0.459   0.263
 2995SOL    HW1 9884   4.863   0.364   0.235
 2995SOL    HW2 9885   4.884   0.520   0.190
 2996SOL     OW 9886   1.446   1.795   4.668
 2996SOL    HW1 9887   1.476   1.705   4.634
 2996SOL    HW2 9888   1.350   1.809   4.644
 2997SOL     OW 9889   4.361   0.695   3.316
 2997SOL    HW1 9890   4.344   0.792   3.302
 2997SOL    HW2 9891   4.460   0.678   3.311
 2998SOL     OW 9892   3.131   0.384   3.784
 2998SOL    HW1 9893   3.101   0.329   3.862
 2998SOL    HW2 9894   3.225   0.359   3.759
 2999SOL     OW 9895   2.629   4.743   6.404
 2999SOL    HW1 9896   2.715   4.786   6.428
 2999SOL    HW2 9897   2.645   4.649   6.374
 3000SOL     OW 9898   2.673   3.754   6.179
 3000SOL    HW1 9899   2.579   3.741   6.148
 3000SOL    HW2 9900   2.711   3.667   6.209
 3001SOL     OW 9901   6.030   2.224   0.208
 3001SOL    HW1 9902   5.938   2.261   0.197
 3001SOL    HW2 9903   6.036   2.136   0.161
 3002SOL     OW 9904   3.215   1.470   1.146
 3002SOL    HW1 9905   3.121   1.494   1.169
 3002SOL    HW2 9906   3.215   1.396   1.079
 3003SOL     OW 9907   1.117   6.514   1.065
 3003SOL    HW1 9908   1.098   6.441   1.132
 3003SOL    HW2 9909   1.065   6.596   1.091
 3004SOL     OW 9910   1.983   4.567   4.166
 3004SOL    HW1 9911   2.003   4.649   4.221
 3004SOL    HW2 9912   1.953   4.595   4.075
 3005SOL     OW 9913   0.902   3.335   5.681
 3005SOL    HW1 9914   0.925   3.281   5.600
 3005SOL    HW2 9915   0.966   3.313   5.754
 3006SOL     OW 9916   5.562   1.177   5.659
 3006SOL    HW1 9917   5.652   1.155   5.697
 3006SOL    HW2 9918   5.528   1.099   5.607
 3007SOL     OW 9919   4.649   5.707   0.130
 3007SOL    HW1 9920   4.608   5.626   0.088
 3007SOL    HW2 9921   4.676   5.772   0.059
 3008SOL     OW 9922   3.871   2.423   6.280
 3008SOL    HW1 9923   3.883   2.425   6.379
 3008SOL    HW2 9924   3.958   2.402   6.235
 3009SOL     OW 9925   6.792   2.451   2.904
 3009SOL    HW1 9926   6.798   2.531   2.844
 3009SOL    HW2 9927   6.814   2.369   2.852
 3010SOL     OW 9928   3.543   5.965   5.295
 3010SOL    HW1 9929   3.614   5.915   5.344
 3010SOL    HW2 9930   3.582   6.012   5.216
 3011SOL     OW 9931   6.603   0.234   1.838
 3011SOL    HW1 9932   6.615   0.258   1.742
 3011SOL    HW2 9933   6.657   0.152   1.859
 3012SOL     OW 9934   2.849   3.490   6.809
 3012SOL    HW1 9935   2.900   3.514   6.726
 3012SOL    HW2 9936   2.754   3.520   6.799
 3013SOL     OW 9937   6.284   5.348   3.292
 3013SOL    HW1 9938   6.317   5.273   3.349
 3013SOL    HW2 9939   6.223   5.311   3.221
 3014SOL     OW 9940   5.207   1.295   6.438
 3014SOL    HW1 9941   5.120   1.310   6.391
 3014SOL    HW2 9942   5.195   1.309   6.536
 3015SOL     OW 9943   2.692   1.235   0.673
 3015SOL    HW1 9944   2.779   1.190   0.693
 3015SOL    HW2 9945   2.702   1.290   0.590
 3016SOL     OW 9946   3.108   0.328   4.249
 3016SOL    HW1 9947   3.108   0.267   4.170
 3016SOL    HW2 9948   3.117   0.275   4.333
 3017SOL     OW 9949   5.963   4.588   2.378
 3017SOL    HW1 9950   6.040   4.524   2.390
 3017SOL    HW2 9951   5.997   4.673   2.338
 3018SOL     OW 9952   4.102   0.061   6.503
 3018SOL    HW1 9953   4.065   0.047   6.595
 3018SOL    HW2 9954   4.157   0.144   6.502
 3019SOL     OW 9955   1.036   6.874   0.437
 3019SOL    HW1 9956   1.089   6.943   0.486
 3019SOL    HW2 9957   0.969   6.918   0.378
 3020SOL     OW 9958   4.538   3.341   0.011
 3020SOL    HW1 9959   4.604   3.280   6.991
 3020SOL    HW2 9960   4.554   3.342   0.109
 3021SOL     OW 9961   2.373   6.893   4.349
 3021SOL    HW1 9962   2.448   6.831   4.373
 3021SOL    HW2 9963   2.286   6.848   4.369
 3022SOL     OW 9964   3.668   6.009   4.030
 3022SOL    HW1 9965   3.581   6.054   4.048
 3022SOL    HW2 9966   3.686   6.010   3.931
 3023SOL     OW 9967   4.021   6.897   2.718
 3023SOL    HW1 9968   4.117   6.867   2.726
 3023SOL    HW2 9969   3.978   6.852   2.640
 3024SOL     OW 9970   6.111   5.586   5.377
 3024SOL    HW1 9971   6.104   5.510   5.441
 3024SOL    HW2 9972   6.020   5.608   5.342
 3025SOL     OW 9973   4.005   5.952   1.103
 3025SOL    HW1 9974   3.983   5.866   1.057
 3025SOL    HW2 9975   4.092   5.987   1.069
 3026SOL     OW 9976   6.945   0.853   6.621
 3026SOL    HW1 9977   6.950   0.945   6.660
 3026SOL    HW2 9978   6.990   0.852   6.532
 3027SOL     OW 9979   4.017   1.227   1.908
 3027SOL    HW1 9980   4.110   1.223   1.873
 3027SOL    HW2 9981   3.996   1.142   1.957
 3028SOL     OW 9982   1.761   4.004   6.269
 3028SOL    HW1 9983   1.678   4.047   6.234
 3028SOL    HW2 9984   1.805   3.952   6.196
 3029SOL     OW 9985   0.713   2.363   3.660
 3029SOL    HW1 9986   0.762   2.387   3.744
 3029SOL    HW2 9987   0.636   2.426   3.647
 3030SOL     OW 9988   1.416   3.889   0.896
 3030SOL    HW1 9989   1.456   3.943   0.969
 3030SOL    HW2 9990   1.321   3.865   0.919
 3031SOL     OW 9991   1.279   5.417   1.594
 3031SOL    HW1 9992   1.374   5.389   1.574
 3031SOL    HW2 9993   1.241   5.463   1.514
 3032SOL     OW 9994   1.707   5.967   3.052
 3032SOL    HW1 9995   1.703   5.897   3.123
 3032SOL    HW2 9996   1.694   6.057   3.093
 3033SOL     OW 9997   6.717   2.113   3.435
 3033SOL    HW1 9998   6.679   2.205   3.447
 3033SOL    HW2 9999   6.715   2.065   3.522
 3034SOL     OW10000   1.131   5.830   3.497
 3034SOL    HW110001   1.103   5.781   3.580
 3034SOL    HW210002   1.050   5.872   3.455
 3035SOL     OW10003   1.397   3.290   6.126
 3035SOL    HW110004   1.324   3.243   6.175
 3035SOL    HW210005   1.371   3.386   6.113
 3036SOL     OW10006   1.177   1.913   5.421
 3036SOL    HW110007   1.269   1.883   5.448
 3036SOL    HW210008   1.137   1.967   5.495
 3037SOL     OW10009   6.990   5.214   5.331
 3037SOL    HW110010   0.013   5.152   5.268
 3037SOL    HW210011   6.967   5.299   5.283
 3038SOL     OW10012   4.891   5.359   5.737
 3038SOL    HW110013   4.794   5.345   5.717
 3038SOL    HW210014   4.902   5.375   5.835
 3039SOL     OW10015   6.859   3.155   6.925
 3039SOL    HW110016   6.895   3.142   6.833
 3039SOL    HW210017   6.927   3.202   6.981
 3040SOL     OW10018   3.300   4.234   5.942
 3040SOL    HW110019   3.269   4.285   5.862
 3040SOL    HW210020   3.288   4.136   5.926
 3041SOL     OW10021   0.749   4.013   5.486
 3041SOL    HW110022   0.806   4.083   5.528
 3041SOL    HW210023   0.653   4.040   5.491
 3042SOL     OW10024   6.577   5.752   2.040
 3042SOL    HW110025   6.653   5.687   2.044
 3042SOL    HW210026   6.493   5.703   2.020
 3043SOL     OW10027   3.155   3.580   0.303
 3043SOL    HW110028   3.117   3.595   0.395
 3043SOL    HW210029   3.236   3.638   0.290
 3044SOL     OW10030   2.874   4.602   5.621
 3044SOL    HW110031   2.902   4.512   5.587
 3044SOL    HW210032   2.783   4.624   5.586
 3045SOL     OW10033   4.357   0.216   3.228
 3045SOL    HW110034   4.345   0.220   3.327
 3045SOL    HW210035   4.416   0.292   3.198
 3046SOL     OW10036   4.369   6.217   6.674
 3046SOL    HW110037   4.273   6.212   6.698
 3046SOL    HW210038   4.410   6.297   6.717
 3047SOL     OW10039   6.465   6.684   0.512
 3047SOL    HW110040   6.384   6.721   0.466
 3047SOL    HW210041   6.436   6.623   0.586
 3048SOL     OW10042   4.256   2.469   1.108
 3048SOL    HW110043   4.352   2.472   1.078
 3048SOL    HW210044   4.200   2.427   1.037
 3049SOL     OW10045   1.235   0.824   3.938
 3049SOL    HW110046   1.145   0.863   3.916
 3049SOL    HW210047   1.228   0.773   4.024
 3050SOL     OW10048   2.247   2.331   1.563
 3050SOL    HW110049   2.312   2.361   1.633
 3050SOL    HW210050   2.170   2.395   1.560
 3051SOL     OW10051   2.866   7.008   6.489
 3051SOL    HW110052   2.930   0.058   6.506
 3051SOL    HW210053   2.776   0.009   6.523
 3052SOL     OW10054   5.499   6.242   2.546
 3052SOL    HW110055   5.566   6.230   2.619
 3052SOL    HW210056   5.546   6.261   2.460
 3053SOL     OW10057   0.969   4.174   1.044
 3053SOL    HW110058   0.871   4.159   1.059
 3053SOL    HW210059   0.991   4.270   1.059
 3054SOL     OW10060   5.713   1.031   3.435
 3054SOL    HW110061   5.799   0.987   3.459
 3054SOL    HW210062   5.657   0.968   3.381
 3055SOL     OW10063   5.819   6.775   6.236
 3055SOL    HW110064   5.873   6.695   6.266
 3055SOL    HW210065   5.802   6.769   6.138
 3056SOL     OW10066   5.985   1.529   6.126
 3056SOL    HW110067   6.053   1.473   6.078
 3056SOL    HW210068   5.974   1.496   6.219
 3057SOL     OW10069   5.633   6.409   3.824
 3057SOL    HW110070   5.559   6.477   3.823
 3057SOL    HW210071   5.654   6.384   3.918
 3058SOL     OW10072   6.406   4.055   1.395
 3058SOL    HW110073   6.486   4.038   1.338
 3058SOL    HW210074   6.324   4.020   1.349
 3059SOL     OW10075   2.194   2.039   4.419
 3059SOL    HW110076   2.147   2.121   4.451
 3059SOL    HW210077   2.192   2.037   4.319
 3060SOL     OW10078   2.848   5.171   6.447
 3060SOL    HW110079   2.877   5.224   6.368
 3060SOL    HW210080   2.790   5.228   6.505
 3061SOL     OW10081   6.039   5.063   6.045
 3061SOL    HW110082   6.101   5.034   5.972
 3061SOL    HW210083   5.968   5.122   6.007
 3062SOL     OW10084   3.754   5.517   0.980
 3062SOL    HW110085   3.732   5.506   0.883
 3062SOL    HW210086   3.738   5.430   1.027
 3063SOL     OW10087   1.111   4.720   0.459
 3063SOL    HW110088   1.117   4.628   0.421
 3063SOL    HW210089   1.181   4.732   0.530
 3064SOL     OW10090   4.590   3.022   0.265
 3064SOL    HW110091   4.582   2.979   0.175
 3064SOL    HW210092   4.584   2.951   0.336
 3065SOL     OW10093   1.188   1.590   6.490
 3065SOL    HW110094   1.166   1.494   6.504
 3065SOL    HW210095   1.140   1.645   6.558
 3066SOL     OW10096   4.715   5.085   6.040
 3066SOL    HW110097   4.666   4.997   6.042
 3066SOL    HW210098   4.673   5.144   5.971
 3067SOL     OW10099   2.079   1.851   0.444
 3067SOL    HW110100   1.996   1.874   0.494
 3067SOL    HW210101   2.156   1.846   0.507
 3068SOL     OW10102   0.729   1.325   1.252
 3068SOL    HW110103   0.707   1.348   1.157
 3068SOL    HW210104   0.688   1.393   1.313
 3069SOL     OW10105   6.179   6.722   3.410
 3069SOL    HW110106   6.209   6.781   3.335
 3069SOL    HW210107   6.120   6.650   3.375
 3070SOL     OW10108   2.981   1.131   6.726
 3070SOL    HW110109   2.898   1.181   6.751
 3070SOL    HW210110   2.998   1.142   6.628
 3071SOL     OW10111   6.862   4.430   3.842
 3071SOL    HW110112   6.777   4.409   3.891
 3071SOL    HW210113   6.923   4.351   3.847
 3072SOL     OW10114   1.861   5.878   0.029
 3072SOL    HW110115   1.878   5.836   0.119
 3072SOL    HW210116   1.783   5.941   0.036
 3073SOL     OW10117   0.188   4.488   1.372
 3073SOL    HW110118   0.144   4.519   1.457
 3073SOL    HW210119   0.251   4.413   1.392
 3074SOL     OW10120   1.237   4.312   1.542
 3074SOL    HW110121   1.254   4.319   1.641
 3074SOL    HW210122   1.306   4.363   1.492
 3075SOL     OW10123   2.149   5.100   3.862
 3075SOL    HW110124   2.091   5.021   3.883
 3075SOL    HW210125   2.135   5.170   3.932
 3076SOL     OW10126   6.989   1.127   4.885
 3076SOL    HW110127   7.015   1.174   4.801
 3076SOL    HW210128   6.928   1.185   4.938
 3077SOL     OW10129   6.298   3.472   2.194
 3077SOL    HW110130   6.369   3.527   2.151
 3077SOL    HW210131   6.239   3.433   2.124
 3078SOL     OW10132   6.519   2.624   2.272
 3078SOL    HW110133   6.473   2.636   2.184
 3078SOL    HW210134   6.457   2.651   2.346
 3079SOL     OW10135   2.764   2.332   4.261
 3079SOL    HW110136   2.863   2.317   4.266
 3079SOL    HW210137   2.729   2.300   4.173
 3080SOL     OW10138   4.708   4.142   1.760
 3080SOL    HW110139   4.782   4.203   1.786
 3080SOL    HW210140   4.624   4.169   1.807
 3081SOL     OW10141   0.827   4.700   6.797
 3081SOL    HW110142   0.855   4.750   6.715
 3081SOL    HW210143   0.864   4.607   6.794
 3082SOL     OW10144   2.990   5.571   4.645
 3082SOL    HW110145   2.998   5.481   4.688
 3082SOL    HW210146   3.070   5.587   4.587
 3083SOL     OW10147   2.993   5.374   2.311
 3083SOL    HW110148   3.034   5.349   2.399
 3083SOL    HW210149   2.929   5.303   2.283
 3084SOL     OW10150   0.485   3.910   2.383
 3084SOL    HW110151   0.444   3.862   2.461
 3084SOL    HW210152   0.420   3.910   2.307
 3085SOL     OW10153   5.061   4.637   0.713
 3085SOL    HW110154   4.967   4.666   0.733
 3085SOL    HW210155   5.110   4.713   0.669
 3086SOL     OW10156   4.771   1.483   0.265
 3086SOL    HW110157   4.787   1.464   0.362
 3086SOL    HW210158   4.774   1.582   0.250
 3087SOL     OW10159   2.360   6.319   1.959
 3087SOL    HW110160   2.292   6.392   1.962
 3087SOL    HW210161   2.418   6.331   1.878
 3088SOL     OW10162   1.159   3.070   5.713
 3088SOL    HW110163   1.175   3.160   5.753
 3088SOL    HW210164   1.172   2.999   5.783
 3089SOL     OW10165   4.705   1.232   5.211
 3089SOL    HW110166   4.800   1.247   5.182
 3089SOL    HW210167   4.663   1.320   5.233
 3090SOL     OW10168   1.781   1.306   2.116
 3090SOL    HW110169   1.870   1.318   2.073
 3090SOL    HW210170   1.718   1.260   2.053
 3091SOL     OW10171   1.637   1.351   0.789
 3091SOL    HW110172   1.703   1.300   0.735
 3091SOL    HW210173   1.605   1.295   0.865
 3092SOL     OW10174   4.929   6.818   2.151
 3092SOL    HW110175   4.947   6.885   2.079
 3092SOL    HW210176   4.955   6.727   2.118
 3093SOL     OW10177   5.751   6.009   5.733
 3093SOL    HW110178   5.664   6.051   5.759
 3093SOL    HW210179   5.747   5.980   5.638
 3094SOL     OW10180   2.950   0.579   3.940
 3094SOL    HW110181   3.049   0.564   3.947
 3094SOL    HW210182   2.906   0.495   3.907
 3095SOL     OW10183   2.642   3.069   5.373
 3095SOL    HW110184   2.635   2.973   5.402
 3095SOL    HW210185   2.578   3.085   5.298
 3096SOL     OW10186   0.534   3.587   4.589
 3096SOL    HW110187   0.502   3.500   4.626
 3096SOL    HW210188   0.483   3.610   4.507
 3097SOL     OW10189   5.889   2.760   0.210
 3097SOL    HW110190   5.928   2.820   0.141
 3097SOL    HW210191   5.931   2.780   0.299
 3098SOL     OW10192   1.658   2.917   2.255
 3098SOL    HW110193   1.691   3.010   2.237
 3098SOL    HW210194   1.628   2.910   2.350
 3099SOL     OW10195   0.752   5.968   3.530
 3099SOL    HW110196   0.809   5.898   3.487
 3099SOL    HW210197   0.709   5.931   3.612
 3100SOL     OW10198   0.020   6.484   2.913
 3100SOL    HW110199   0.098   6.421   2.911
 3100SOL    HW210200   0.026   6.547   2.835
 3101SOL     OW10201   4.649   6.876   5.706
 3101SOL    HW110202   4.584   6.943   5.671
 3101SOL    HW210203   4.730   6.874   5.647
 3102SOL     OW10204   6.885   5.973   0.131
 3102SOL    HW110205   6.860   5.965   0.035
 3102SOL    HW210206   6.810   6.014   0.182
 3103SOL     OW10207   4.714   0.911   1.130
 3103SOL    HW110208   4.771   0.871   1.202
 3103SOL    HW210209   4.735   0.867   1.043
 3104SOL     OW10210   4.497   0.071   6.539
 3104SOL    HW110211   4.468   7.000   6.534
 3104SOL    HW210212   4.446   0.125   6.472
 3105SOL     OW10213   5.066   3.209   0.641
 3105SOL    HW110214   5.014   3.172   0.718
 3105SOL    HW210215   5.036   3.164   0.556
 3106SOL     OW10216   5.163   0.021   5.495
 3106SOL    HW110217   5.145   0.091   5.426
 3106SOL    HW210218   5.104   0.036   5.574
 3107SOL     OW10219   4.135   1.884   4.533
 3107SOL    HW110220   4.198   1.934   4.592
 3107SOL    HW210221   4.179   1.866   4.445
 3108SOL     OW10222   2.205   4.894   4.657
 3108SOL    HW110223   2.290   4.845   4.673
 3108SOL    HW210224   2.129   4.843   4.697
 3109SOL     OW10225   6.343   0.233   4.995
 3109SOL    HW110226   6.435   0.272   5.003
 3109SOL    HW210227   6.346   0.135   5.013
 3110SOL     OW10228   2.437   4.431   3.447
 3110SOL    HW110229   2.466   4.463   3.537
 3110SOL    HW210230   2.394   4.341   3.455
 3111SOL     OW10231   6.401   4.817   3.616
 3111SOL    HW110232   6.302   4.809   3.630
 3111SOL    HW210233   6.445   4.730   3.638
 3112SOL     OW10234   3.148   3.144   6.583
 3112SOL    HW110235   3.226   3.084   6.566
 3112SOL    HW210236   3.152   3.223   6.521
 3113SOL     OW10237   3.045   5.710   2.459
 3113SOL    HW110238   3.144   5.709   2.443
 3113SOL    HW210239   3.024   5.772   2.535
 3114SOL     OW10240   4.103   1.224   0.340
 3114SOL    HW110241   4.070   1.140   0.384
 3114SOL    HW210242   4.202   1.217   0.325
 3115SOL     OW10243   4.191   4.658   5.360
 3115SOL    HW110244   4.107   4.688   5.405
 3115SOL    HW210245   4.183   4.563   5.333
 3116SOL     OW10246   1.089   1.875   0.640
 3116SOL    HW110247   1.091   1.806   0.568
 3116SOL    HW210248   1.033   1.952   0.611
 3117SOL     OW10249   4.926   2.513   5.284
 3117SOL    HW110250   4.996   2.530   5.354
 3117SOL    HW210251   4.952   2.558   5.199
 3118SOL     OW10252   1.333   0.200   2.570
 3118SOL    HW110253   1.356   0.182   2.475
 3118SOL    HW210254   1.376   0.286   2.600
 3119SOL     OW10255   2.868   2.441   5.300
 3119SOL    HW110256   2.950   2.412   5.250
 3119SOL    HW210257   2.873   2.539   5.318
 3120SOL     OW10258   3.259   0.630   5.736
 3120SOL    HW110259   3.340   0.572   5.730
 3120SOL    HW210260   3.284   0.718   5.777
 3121SOL     OW10261   5.150   1.889   4.316
 3121SOL    HW110262   5.162   1.802   4.364
 3121SOL    HW210263   5.191   1.883   4.225
 3122SOL     OW10264   4.516   4.493   4.737
 3122SOL    HW110265   4.437   4.499   4.676
 3122SOL    HW210266   4.486   4.506   4.831
 3123SOL     OW10267   1.972   0.391   3.517
 3123SOL    HW110268   2.066   0.394   3.553
 3123SOL    HW210269   1.908   0.377   3.593
 3124SOL     OW10270   5.410   6.659   4.327
 3124SOL    HW110271   5.331   6.648   4.266
 3124SOL    HW210272   5.429   6.572   4.373
 3125SOL     OW10273   0.851   2.803   5.612
 3125SOL    HW110274   0.926   2.760   5.661
 3125SOL    HW210275   0.784   2.734   5.586
 3126SOL     OW10276   5.932   4.814   6.129
 3126SOL    HW110277   5.969   4.904   6.109
 3126SOL    HW210278   5.847   4.800   6.078
 3127SOL     OW10279   1.523   2.667   5.296
 3127SOL    HW110280   1.583   2.747   5.300
 3127SOL    HW210281   1.572   2.589   5.260
 3128SOL     OW10282   3.803   0.803   0.595
 3128SOL    HW110283   3.882   0.746   0.574
 3128SOL    HW210284   3.799   0.819   0.694
 3129SOL     OW10285   5.199   3.216   0.877
 3129SOL    HW110286   5.162   3.207   0.784
 3129SOL    HW210287   5.131   3.260   0.936
 3130SOL     OW10288   1.612   4.231   1.240
 3130SOL    HW110289   1.527   4.241   1.292
 3130SOL    HW210290   1.674   4.169   1.288
 3131SOL     OW10291   6.948   3.496   2.390
 3131SOL    HW110292   7.019   3.555   2.351
 3131SOL    HW210293   6.950   3.503   2.490
 3132SOL     OW10294   4.296   4.933   6.836
 3132SOL    HW110295   4.362   4.877   6.887
 3132SOL    HW210296   4.337   5.021   6.815
 3133SOL     OW10297   3.796   1.683   3.465
 3133SOL    HW110298   3.860   1.624   3.416
 3133SOL    HW210299   3.820   1.685   3.562
 3134SOL     OW10300   3.642   4.990   1.803
 3134SOL    HW110301   3.722   4.962   1.751
 3134SOL    HW210302   3.626   4.926   1.878
 3135SOL     OW10303   5.498   6.502   6.462
 3135SOL    HW110304   5.557   6.435   6.415
 3135SOL    HW210305   5.529   6.514   6.556
 3136SOL     OW10306   5.575   0.595   2.111
 3136SOL    HW110307   5.543   0.658   2.181
 3136SOL    HW210308   5.672   0.611   2.094
 3137SOL     OW10309   6.653   6.855   2.166
 3137SOL    HW110310   6.627   6.947   2.139
 3137SOL    HW210311   6.615   6.789   2.101
 3138SOL     OW10312   5.984   5.269   3.798
 3138SOL    HW110313   5.964   5.297   3.704
 3138SOL    HW210314   6.042   5.187   3.796
 3139SOL     OW10315   3.557   4.854   1.419
 3139SOL    HW110316   3.493   4.802   1.476
 3139SOL    HW210317   3.614   4.790   1.368
 3140SOL     OW10318   0.114   5.894   5.103
 3140SOL    HW110319   0.071   5.812   5.141
 3140SOL    HW210320   0.105   5.970   5.167
 3141SOL     OW10321   6.807   1.518   0.072
 3141SOL    HW110322   6.753   1.492   0.152
 3141SOL    HW210323   6.782   1.459   7.019
 3142SOL     OW10324   4.051   1.225   2.685
 3142SOL    HW110325   4.009   1.244   2.774
 3142SOL    HW210326   4.144   1.262   2.684
 3143SOL     OW10327   6.362   1.914   0.005
 3143SOL    HW110328   6.396   1.991   6.976
 3143SOL    HW210329   6.438   1.868   0.051
 3144SOL     OW10330   4.230   3.587   0.081
 3144SOL    HW110331   4.178   3.668   0.055
 3144SOL    HW210332   4.314   3.582   0.025
 3145SOL     OW10333   1.861   6.517   2.251
 3145SOL    HW110334   1.869   6.418   2.245
 3145SOL    HW210335   1.947   6.555   2.286
 3146SOL     OW10336   0.984   0.874   4.998
 3146SOL    HW110337   1.039   0.928   5.062
 3146SOL    HW210338   0.928   0.808   5.049
 3147SOL     OW10339   3.230   5.220   6.641
 3147SOL    HW110340   3.328   5.236   6.632
 3147SOL    HW210341   3.210   5.181   6.731
 3148SOL     OW10342   0.241   0.373   3.795
 3148SOL    HW110343   0.321   0.386   3.736
 3148SOL    HW210344   0.164   0.427   3.760
 3149SOL     OW10345   3.274   1.318   6.401
 3149SOL    HW110346   3.277   1.382   6.479
 3149SOL    HW210347   3.194   1.259   6.409
 3150SOL     OW10348   6.566   5.526   5.760
 3150SOL    HW110349   6.651   5.576   5.741
 3150SOL    HW210350   6.574   5.433   5.724
 3151SOL     OW10351   0.328   2.115   5.972
 3151SOL    HW110352   0.289   2.029   5.941
 3151SOL    HW210353   0.339   2.113   6.071
 3152SOL     OW10354   0.969   4.504   6.628
 3152SOL    HW110355   1.060   4.521   6.667
 3152SOL    HW210356   0.940   4.411   6.650
 3153SOL     OW10357   6.001   5.208   0.367
 3153SOL    HW110358   6.042   5.240   0.281
 3153SOL    HW210359   6.007   5.281   0.436
 3154SOL     OW10360   5.975   0.995   1.194
 3154SOL    HW110361   6.056   0.970   1.142
 3154SOL    HW210362   5.940   1.083   1.162
 3155SOL     OW10363   6.496   4.464   0.439
 3155SOL    HW110364   6.567   4.432   0.376
 3155SOL    HW210365   6.529   4.544   0.489
 3156SOL     OW10366   3.598   3.812   2.064
 3156SOL    HW110367   3.607   3.867   2.147
 3156SOL    HW210368   3.508   3.768   2.063
 3157SOL     OW10369   1.519   1.859   5.193
 3157SOL    HW110370   1.517   1.904   5.282
 3157SOL    HW210371   1.493   1.925   5.122
 3158SOL     OW10372   2.685   1.683   5.387
 3158SOL    HW110373   2.611   1.632   5.429
 3158SOL    HW210374   2.676   1.780   5.409
 3159SOL     OW10375   5.403   0.618   6.892
 3159SOL    HW110376   5.383   0.605   6.795
 3159SOL    HW210377   5.388   0.714   6.917
 3160SOL     OW10378   2.062   6.892   5.248
 3160SOL    HW110379   2.083   6.830   5.324
 3160SOL    HW210380   2.147   6.933   5.215
 3161SOL     OW10381   2.123   2.527   2.741
 3161SOL    HW110382   2.143   2.496   2.649
 3161SOL    HW210383   2.204   2.516   2.799
 3162SOL     OW10384   2.058   5.693   0.421
 3162SOL    HW110385   2.060   5.751   0.502
 3162SOL    HW210386   2.016   5.605   0.443
 3163SOL     OW10387   3.580   3.280   0.511
 3163SOL    HW110388   3.680   3.284   0.522
 3163SOL    HW210389   3.542   3.224   0.584
 3164SOL     OW10390   3.399   5.818   2.169
 3164SOL    HW110391   3.458   5.787   2.095
 3164SOL    HW210392   3.303   5.799   2.145
 3165SOL     OW10393   1.052   5.668   1.028
 3165SOL    HW110394   0.981   5.607   1.063
 3165SOL    HW210395   1.037   5.760   1.063
 3166SOL     OW10396   4.441   1.480   3.978
 3166SOL    HW110397   4.347   1.509   3.960
 3166SOL    HW210398   4.485   1.455   3.892
 3167SOL     OW10399   5.543   4.648   0.801
 3167SOL    HW110400   5.478   4.659   0.726
 3167SOL    HW210401   5.517   4.570   0.857
 3168SOL     OW10402   5.794   2.445   0.923
 3168SOL    HW110403   5.732   2.479   0.994
 3168SOL    HW210404   5.828   2.355   0.948
 3169SOL     OW10405   1.956   4.274   3.167
 3169SOL    HW110406   1.925   4.193   3.117
 3169SOL    HW210407   1.997   4.339   3.104
 3170SOL     OW10408   4.075   5.894   2.770
 3170SOL    HW110409   4.035   5.808   2.801
 3170SOL    HW210410   4.002   5.959   2.747
 3171SOL     OW10411   5.531   2.318   1.770
 3171SOL    HW110412   5.510   2.341   1.866
 3171SOL    HW210413   5.570   2.226   1.766
 3172SOL     OW10414   0.606   5.680   6.929
 3172SOL    HW110415   0.659   5.631   6.998
 3172SOL    HW210416   0.566   5.615   6.864
 3173SOL     OW10417   2.960   2.501   6.722
 3173SOL    HW110418   3.016   2.488   6.640
 3173SOL    HW210419   3.009   2.465   6.801
 3174SOL     OW10420   2.540   2.766   6.312
 3174SOL    HW110421   2.488   2.734   6.234
 3174SOL    HW210422   2.531   2.865   6.321
 3175SOL     OW10423   5.607   1.049   2.131
 3175SOL    HW110424   5.610   0.981   2.058
 3175SOL    HW210425   5.679   1.031   2.197
 3176SOL     OW10426   0.441   2.804   5.593
 3176SOL    HW110427   0.481   2.738   5.657
 3176SOL    HW210428   0.439   2.764   5.501
 3177SOL     OW10429   5.159   4.098   3.924
 3177SOL    HW110430   5.154   4.017   3.981
 3177SOL    HW210431   5.137   4.179   3.979
 3178SOL     OW10432   6.319   2.309   0.164
 3178SOL    HW110433   6.223   2.289   0.185
 3178SOL    HW210434   6.344   2.396   0.205
 3179SOL     OW10435   1.219   1.729   1.817
 3179SOL    HW110436   1.235   1.631   1.821
 3179SOL    HW210437   1.305   1.776   1.798
 3180SOL     OW10438   5.583   6.671   0.550
 3180SOL    HW110439   5.492   6.643   0.519
 3180SOL    HW210440   5.595   6.769   0.536
 3181SOL     OW10441   6.729   1.560   4.311
 3181SOL    HW110442   6.768   1.474   4.342
 3181SOL    HW210443   6.757   1.634   4.373
 3182SOL     OW10444   2.722   0.809   6.564
 3182SOL    HW110445   2.806   0.783   6.515
 3182SOL    HW210446   2.694   0.901   6.535
 3183SOL     OW10447   4.479   4.818   2.393
 3183SOL    HW110448   4.550   4.812   2.323
 3183SOL    HW210449   4.404   4.875   2.361
 3184SOL     OW10450   0.377   1.731   2.720
 3184SOL    HW110451   0.449   1.794   2.749
 3184SOL    HW210452   0.340   1.683   2.800
 3185SOL     OW10453   5.945   6.550   6.377
 3185SOL    HW110454   5.946   6.453   6.354
 3185SOL    HW210455   5.912   6.561   6.471
 3186SOL     OW10456   2.843   1.646   0.539
 3186SOL    HW110457   2.896   1.666   0.621
 3186SOL    HW210458   2.798   1.729   0.507
 3187SOL     OW10459   3.314   5.350   1.912
 3187SOL    HW110460   3.283   5.328   2.004
 3187SOL    HW210461   3.395   5.296   1.890
 3188SOL     OW10462   2.110   5.983   4.725
 3188SOL    HW110463   2.134   6.065   4.777
 3188SOL    HW210464   2.157   5.985   4.637
 3189SOL     OW10465   2.050   1.585   0.300
 3189SOL    HW110466   2.107   1.655   0.342
 3189SOL    HW210467   1.979   1.557   0.364
 3190SOL     OW10468   6.525   5.684   6.685
 3190SOL    HW110469   6.514   5.745   6.764
 3190SOL    HW210470   6.550   5.593   6.717
 3191SOL     OW10471   4.476   5.165   1.884
 3191SOL    HW110472   4.575   5.152   1.886
 3191SOL    HW210473   4.436   5.131   1.970
 3192SOL     OW10474   6.988   2.724   0.880
 3192SOL    HW110475   7.001   2.712   0.979
 3192SOL    HW210476   6.894   2.697   0.856
 3193SOL     OW10477   3.948   1.322   4.941
 3193SOL    HW110478   4.039   1.313   4.901
 3193SOL    HW210479   3.953   1.385   5.019
 3194SOL     OW10480   0.455   1.415   5.335
 3194SOL    HW110481   0.389   1.366   5.279
 3194SOL    HW210482   0.497   1.489   5.282
 3195SOL     OW10483   0.555   1.405   1.458
 3195SOL    HW110484   0.565   1.364   1.548
 3195SOL    HW210485   0.496   1.347   1.401
 3196SOL     OW10486   6.657   0.499   6.442
 3196SOL    HW110487   6.733   0.459   6.493
 3196SOL    HW210488   6.570   0.473   6.485
 3197SOL     OW10489   2.446   6.793   5.346
 3197SOL    HW110490   2.400   6.764   5.430
 3197SOL    HW210491   2.389   6.860   5.299
 3198SOL     OW10492   6.171   2.399   3.206
 3198SOL    HW110493   6.092   2.393   3.145
 3198SOL    HW210494   6.207   2.492   3.205
 3199SOL     OW10495   5.388   4.544   2.940
 3199SOL    HW110496   5.434   4.485   3.007
 3199SOL    HW210497   5.342   4.618   2.989
 3200SOL     OW10498   6.098   2.853   2.864
 3200SOL    HW110499   6.171   2.912   2.899
 3200SOL    HW210500   6.067   2.792   2.937
 3201SOL     OW10501   6.484   5.097   3.217
 3201SOL    HW110502   6.540   5.032   3.165
 3201SOL    HW210503   6.392   5.060   3.230
 3202SOL     OW10504   0.826   5.067   0.572
 3202SOL    HW110505   0.823   5.139   0.642
 3202SOL    HW210506   0.861   4.983   0.612
 3203SOL     OW10507   5.618   1.916   1.249
 3203SOL    HW110508   5.665   1.901   1.336
 3203SOL    HW210509   5.520   1.914   1.264
 3204SOL     OW10510   3.334   0.809   3.157
 3204SOL    HW110511   3.321   0.882   3.090
 3204SOL    HW210512   3.376   0.730   3.112
 3205SOL     OW10513   5.016   3.092   5.308
 3205SOL    HW110514   5.006   3.178   5.258
 3205SOL    HW210515   4.930   3.069   5.352
 3206SOL     OW10516   2.116   3.889   1.212
 3206SOL    HW110517   2.166   3.955   1.156
 3206SOL    HW210518   2.039   3.852   1.160
 3207SOL     OW10519   1.444   0.753   6.844
 3207SOL    HW110520   1.541   0.762   6.867
 3207SOL    HW210521   1.395   0.834   6.875
 3208SOL     OW10522   5.791   5.826   6.252
 3208SOL    HW110523   5.746   5.908   6.289
 3208SOL    HW210524   5.722   5.755   6.237
 3209SOL     OW10525   3.004   5.119   4.632
 3209SOL    HW110526   2.905   5.103   4.627
 3209SOL    HW210527   3.028   5.148   4.725
 3210SOL     OW10528   1.352   5.014   1.237
 3210SOL    HW110529   1.386   5.069   1.161
 3210SOL    HW210530   1.301   4.936   1.203
 3211SOL     OW10531   2.158   4.497   0.681
 3211SOL    HW110532   2.181   4.402   0.703
 3211SOL    HW210533   2.113   4.500   0.591
 3212SOL     OW10534   3.483   6.969   2.450
 3212SOL    HW110535   3.530   0.032   2.432
 3212SOL    HW210536   3.495   6.944   2.546
 3213SOL     OW10537   1.781   0.463   6.725
 3213SOL    HW110538   1.806   0.376   6.768
 3213SOL    HW210539   1.731   0.445   6.640
 3214SOL     OW10540   4.516   6.142   2.421
 3214SOL    HW110541   4.573   6.218   2.452
 3214SOL    HW210542   4.557   6.056   2.450
 3215SOL     OW10543   0.710   4.087   1.044
 3215SOL    HW110544   0.701   3.995   1.005
 3215SOL    HW210545   0.657   4.092   1.128
 3216SOL     OW10546   5.680   5.435   0.888
 3216SOL    HW110547   5.624   5.388   0.955
 3216SOL    HW210548   5.777   5.412   0.903
 3217SOL     OW10549   0.317   5.461   2.513
 3217SOL    HW110550   0.385   5.452   2.586
 3217SOL    HW210551   0.350   5.525   2.444
 3218SOL     OW10552   5.906   2.469   2.790
 3218SOL    HW110553   5.991   2.513   2.763
 3218SOL    HW210554   5.828   2.522   2.754
 3219SOL     OW10555   6.960   0.580   4.685
 3219SOL    HW110556   7.011   0.618   4.608
 3219SOL    HW210557   6.902   0.505   4.653
 3220SOL     OW10558   0.282   5.684   6.237
 3220SOL    HW110559   0.250   5.749   6.168
 3220SOL    HW210560   0.331   5.734   6.309
 3221SOL     OW10561   3.175   6.979   2.665
 3221SOL    HW110562   3.173   6.981   2.565
 3221SOL    HW210563   3.125   0.034   2.701
 3222SOL     OW10564   3.074   0.968   2.250
 3222SOL    HW110565   3.005   0.986   2.180
 3222SOL    HW210566   3.127   1.050   2.267
 3223SOL     OW10567   2.869   7.016   0.408
 3223SOL    HW110568   2.944   6.968   0.362
 3223SOL    HW210569   2.897   0.085   0.429
 3224SOL     OW10570   4.729   2.589   4.897
 3224SOL    HW110571   4.640   2.592   4.942
 3224SOL    HW210572   4.717   2.600   4.798
 3225SOL     OW10573   4.650   1.582   5.532
 3225SOL    HW110574   4.676   1.486   5.521
 3225SOL    HW210575   4.727   1.641   5.508
 3226SOL     OW10576   2.244   0.825   2.017
 3226SOL    HW110577   2.158   0.866   2.048
 3226SOL    HW210578   2.240   0.811   1.918
 3227SOL     OW10579   3.470   3.275   6.720
 3227SOL    HW110580   3.554   3.326   6.739
 3227SOL    HW210581   3.470   3.244   6.625
 3228SOL     OW10582   6.821   3.787   0.818
 3228SOL    HW110583   6.826   3.751   0.911
 3228SOL    HW210584   6.773   3.722   0.760
 3229SOL     OW10585   3.740   0.578   5.475
 3229SOL    HW110586   3.750   0.656   5.412
 3229SOL    HW210587   3.678   0.604   5.549
 3230SOL     OW10588   1.765   5.561   6.036
 3230SOL    HW110589   1.798   5.578   6.129
 3230SOL    HW210590   1.791   5.637   5.977
 3231SOL     OW10591   2.558   0.726   2.871
 3231SOL    HW110592   2.622   0.682   2.808
 3231SOL    HW210593   2.553   0.672   2.956
 3232SOL     OW10594   4.127   5.867   3.999
 3232SOL    HW110595   4.074   5.875   3.914
 3232SOL    HW210596   4.192   5.791   3.991
 3233SOL     OW10597   7.016   2.654   0.588
 3233SOL    HW110598   6.922   2.648   0.553
 3233SOL    HW210599   7.015   2.692   0.680
 3234SOL     OW10600   0.844   2.995   0.187
 3234SOL    HW110601   0.749   2.973   0.167
 3234SOL    HW210602   0.901   2.964   0.111
 3235SOL     OW10603   6.444   0.063   2.074
 3235SOL    HW110604   6.359   0.071   2.126
 3235SOL    HW210605   6.423   0.043   1.978
 3236SOL     OW10606   0.924   4.412   0.823
 3236SOL    HW110607   0.911   4.490   0.762
 3236SOL    HW210608   1.002   4.357   0.791
 3237SOL     OW10609   6.127   1.274   2.461
 3237SOL    HW110610   6.035   1.312   2.466
 3237SOL    HW210611   6.141   1.232   2.371
 3238SOL     OW10612   5.747   5.319   0.224
 3238SOL    HW110613   5.831   5.269   0.202
 3238SOL    HW210614   5.668   5.268   0.190
 3239SOL     OW10615   0.416   0.952   3.373
 3239SOL    HW110616   0.318   0.969   3.383
 3239SOL    HW210617   0.467   1.031   3.405
 3240SOL     OW10618   0.495   0.401   5.829
 3240SOL    HW110619   0.482   0.486   5.879
 3240SOL    HW210620   0.449   0.327   5.877
 3241SOL     OW10621   5.151   1.508   5.745
 3241SOL    HW110622   5.119   1.413   5.747
 3241SOL    HW210623   5.094   1.563   5.805
 3242SOL     OW10624   4.583   3.732   6.211
 3242SOL    HW110625   4.539   3.703   6.127
 3242SOL    HW210626   4.682   3.739   6.196
 3243SOL     OW10627   4.569   5.271   0.192
 3243SOL    HW110628   4.577   5.182   0.148
 3243SOL    HW210629   4.660   5.306   0.214
 3244SOL     OW10630   5.881   6.256   6.960
 3244SOL    HW110631   5.808   6.300   6.907
 3244SOL    HW210632   5.960   6.317   6.964
 3245SOL     OW10633   4.861   1.885   4.619
 3245SOL    HW110634   4.866   1.800   4.567
 3245SOL    HW210635   4.887   1.869   4.714
 3246SOL     OW10636   6.743   6.852   2.916
 3246SOL    HW110637   6.715   6.908   2.838
 3246SOL    HW210638   6.749   6.757   2.888
 3247SOL     OW10639   6.292   4.623   2.153
 3247SOL    HW110640   6.325   4.533   2.123
 3247SOL    HW210641   6.333   4.645   2.242
 3248SOL     OW10642   5.399   2.169   2.611
 3248SOL    HW110643   5.499   2.177   2.604
 3248SOL    HW210644   5.365   2.240   2.673
 3249SOL     OW10645   3.473   3.829   3.742
 3249SOL    HW110646   3.410   3.785   3.678
 3249SOL    HW210647   3.466   3.785   3.831
 3250SOL     OW10648   5.285   0.296   2.813
 3250SOL    HW110649   5.283   0.370   2.746
 3250SOL    HW210650   5.380   0.274   2.836
 3251SOL     OW10651   3.226   0.946   4.178
 3251SOL    HW110652   3.183   0.905   4.097
 3251SOL    HW210653   3.271   1.032   4.152
 3252SOL     OW10654   3.110   0.421   2.475
 3252SOL    HW110655   3.049   0.492   2.440
 3252SOL    HW210656   3.192   0.463   2.513
 3253SOL     OW10657   4.562   3.707   0.405
 3253SOL    HW110658   4.562   3.727   0.307
 3253SOL    HW210659   4.468   3.694   0.437
 3254SOL     OW10660   5.043   6.606   6.886
 3254SOL    HW110661   5.115   6.658   6.838
 3254SOL    HW210662   4.963   6.598   6.827
 3255SOL     OW10663   4.733   6.762   1.223
 3255SOL    HW110664   4.651   6.705   1.234
 3255SOL    HW210665   4.744   6.788   1.127
 3256SOL     OW10666   3.464   1.975   1.090
 3256SOL    HW110667   3.461   1.891   1.036
 3256SOL    HW210668   3.542   1.972   1.152
 3257SOL     OW10669   1.963   1.744   1.855
 3257SOL    HW110670   1.954   1.786   1.946
 3257SOL    HW210671   1.930   1.807   1.785
 3258SOL     OW10672   4.180   5.539   3.375
 3258SOL    HW110673   4.098   5.593   3.360
 3258SOL    HW210674   4.211   5.498   3.289
 3259SOL     OW10675   4.782   5.307   4.409
 3259SOL    HW110676   4.814   5.235   4.348
 3259SOL    HW210677   4.844   5.315   4.487
 3260SOL     OW10678   1.590   3.574   1.244
 3260SOL    HW110679   1.541   3.528   1.318
 3260SOL    HW210680   1.687   3.554   1.251
 3261SOL     OW10681   5.165   0.575   1.258
 3261SOL    HW110682   5.096   0.592   1.188
 3261SOL    HW210683   5.150   0.636   1.335
 3262SOL     OW10684   3.974   2.190   1.808
 3262SOL    HW110685   4.025   2.250   1.747
 3262SOL    HW210686   3.898   2.240   1.849
 3263SOL     OW10687   3.401   1.165   2.617
 3263SOL    HW110688   3.492   1.161   2.659
 3263SOL    HW210689   3.357   1.251   2.642
 3264SOL     OW10690   2.109   5.551   0.810
 3264SOL    HW110691   2.126   5.532   0.906
 3264SOL    HW210692   2.171   5.495   0.754
 3265SOL     OW10693   5.438   7.014   6.565
 3265SOL    HW110694   5.436   0.019   6.470
 3265SOL    HW210695   5.528   0.009   6.604
 3266SOL     OW10696   2.899   4.771   6.462
 3266SOL    HW110697   2.904   4.817   6.373
 3266SOL    HW210698   2.954   4.822   6.528
 3267SOL     OW10699   2.866   6.666   2.457
 3267SOL    HW110700   2.818   6.599   2.514
 3267SOL    HW210701   2.960   6.635   2.441
 3268SOL     OW10702   1.827   4.657   1.300
 3268SOL    HW110703   1.742   4.707   1.316
 3268SOL    HW210704   1.809   4.579   1.240
 3269SOL     OW10705   6.783   5.577   2.009
 3269SOL    HW110706   6.784   5.482   2.037
 3269SOL    HW210707   6.845   5.590   1.932
 3270SOL     OW10708   1.527   3.445   6.895
 3270SOL    HW110709   1.589   3.507   6.848
 3270SOL    HW210710   1.575   3.400   6.971
 3271SOL     OW10711   6.959   3.184   1.686
 3271SOL    HW110712   6.895   3.199   1.611
 3271SOL    HW210713   6.950   3.090   1.719
 3272SOL     OW10714   2.991   4.444   6.424
 3272SOL    HW110715   2.988   4.509   6.500
 3272SOL    HW210716   3.086   4.423   6.402
 3273SOL     OW10717   6.945   5.268   6.823
 3273SOL    HW110718   7.021   5.276   6.888
 3273SOL    HW210719   6.960   5.330   6.746
 3274SOL     OW10720   5.891   0.366   0.768
 3274SOL    HW110721   5.885   0.425   0.848
 3274SOL    HW210722   5.814   0.302   0.769
 3275SOL     OW10723   4.761   0.919   6.912
 3275SOL    HW110724   4.856   0.917   6.882
 3275SOL    HW210725   4.700   0.916   6.833
 3276SOL     OW10726   4.179   6.600   6.958
 3276SOL    HW110727   4.167   6.548   0.018
 3276SOL    HW210728   4.111   6.572   6.891
 3277SOL     OW10729   3.755   1.237   1.133
 3277SOL    HW110730   3.747   1.160   1.197
 3277SOL    HW210731   3.712   1.318   1.173
 3278SOL     OW10732   1.247   0.782   5.816
 3278SOL    HW110733   1.193   0.740   5.889
 3278SOL    HW210734   1.262   0.715   5.743
 3279SOL     OW10735   5.338   0.127   0.552
 3279SOL    HW110736   5.285   0.190   0.495
 3279SOL    HW210737   5.325   0.034   0.519
 3280SOL     OW10738   4.846   4.704   4.925
 3280SOL    HW110739   4.938   4.742   4.927
 3280SOL    HW210740   4.831   4.658   4.837
 3281SOL     OW10741   1.120   5.324   0.977
 3281SOL    HW110742   1.092   5.412   0.937
 3281SOL    HW210743   1.069   5.308   1.061
 3282SOL     OW10744   6.546   4.818   5.090
 3282SOL    HW110745   6.493   4.778   5.164
 3282SOL    HW210746   6.638   4.840   5.123
 3283SOL     OW10747   3.143   1.098   1.393
 3283SOL    HW110748   3.056   1.116   1.348
 3283SOL    HW210749   3.206   1.056   1.327
 3284SOL     OW10750   1.177   6.015   5.707
 3284SOL    HW110751   1.154   6.108   5.676
 3284SOL    HW210752   1.099   5.977   5.757
 3285SOL     OW10753   4.613   2.249   4.818
 3285SOL    HW110754   4.545   2.225   4.887
 3285SOL    HW210755   4.681   2.311   4.858
 3286SOL     OW10756   3.323   2.704   1.754
 3286SOL    HW110757   3.310   2.605   1.749
 3286SOL    HW210758   3.420   2.726   1.746
 3287SOL     OW10759   0.572   0.216   0.514
 3287SOL    HW110760   0.526   0.259   0.437
 3287SOL    HW210761   0.670   0.231   0.507
 3288SOL     OW10762   1.853   6.820   0.338
 3288SOL    HW110763   1.880   6.800   0.432
 3288SOL    HW210764   1.921   6.782   0.275
 3289SOL     OW10765   2.457   1.475   5.998
 3289SOL    HW110766   2.550   1.497   5.967
 3289SOL    HW210767   2.398   1.460   5.918
 3290SOL     OW10768   6.488   5.074   0.643
 3290SOL    HW110769   6.444   5.021   0.571
 3290SOL    HW210770   6.490   5.021   0.728
 3291SOL     OW10771   2.348   1.069   5.773
 3291SOL    HW110772   2.398   0.997   5.725
 3291SOL    HW210773   2.364   1.061   5.871
 3292SOL     OW10774   0.089   0.919   0.552
 3292SOL    HW110775   0.071   0.952   0.645
 3292SOL    HW210776   0.154   0.980   0.507
 3293SOL     OW10777   6.461   4.794   1.659
 3293SOL    HW110778   6.530   4.730   1.627
 3293SOL    HW210779   6.395   4.746   1.717
 3294SOL     OW10780   4.968   2.633   6.165
 3294SOL    HW110781   4.974   2.726   6.202
 3294SOL    HW210782   5.040   2.576   6.205
 3295SOL     OW10783   1.142   3.161   1.833
 3295SOL    HW110784   1.179   3.095   1.899
 3295SOL    HW210785   1.205   3.239   1.826
 3296SOL     OW10786   1.064   0.675   3.219
 3296SOL    HW110787   1.023   0.713   3.301
 3296SOL    HW210788   1.072   0.575   3.228
 3297SOL     OW10789   2.700   1.200   5.436
 3297SOL    HW110790   2.657   1.244   5.357
 3297SOL    HW210791   2.638   1.203   5.514
 3298SOL     OW10792   6.686   2.286   5.817
 3298SOL    HW110793   6.717   2.340   5.895
 3298SOL    HW210794   6.608   2.229   5.844
 3299SOL     OW10795   3.563   5.948   3.164
 3299SOL    HW110796   3.505   5.958   3.083
 3299SOL    HW210797   3.645   5.896   3.141
 3300SOL     OW10798   1.537   0.445   6.109
 3300SOL    HW110799   1.543   0.356   6.063
 3300SOL    HW210800   1.449   0.452   6.157
 3301SOL     OW10801   1.916   3.193   3.622
 3301SOL    HW110802   1.920   3.223   3.527
 3301SOL    HW210803   2.009   3.172   3.654
 3302SOL     OW10804   0.565   4.756   5.236
 3302SOL    HW110805   0.597   4.829   5.296
 3302SOL    HW210806   0.601   4.770   5.144
 3303SOL     OW10807   2.901   3.579   0.041
 3303SOL    HW110808   2.869   3.674   0.041
 3303SOL    HW210809   2.880   3.536   6.977
 3304SOL     OW10810   1.484   5.313   6.259
 3304SOL    HW110811   1.522   5.231   6.215
 3304SOL    HW210812   1.543   5.340   6.335
 3305SOL     OW10813   2.849   1.137   1.707
 3305SOL    HW110814   2.825   1.092   1.621
 3305SOL    HW210815   2.921   1.205   1.691
 3306SOL     OW10816   1.330   5.016   4.412
 3306SOL    HW110817   1.375   5.054   4.493
 3306SOL    HW210818   1.253   5.074   4.385
 3307SOL     OW10819   0.952   6.981   5.472
 3307SOL    HW110820   0.983   6.936   5.388
 3307SOL    HW210821   0.936   6.913   5.543
 3308SOL     OW10822   3.281   5.537   1.076
 3308SOL    HW110823   3.224   5.553   1.158
 3308SOL    HW210824   3.374   5.567   1.094
 3309SOL     OW10825   6.469   4.876   4.025
 3309SOL    HW110826   6.498   4.786   3.992
 3309SOL    HW210827   6.484   4.883   4.123
 3310SOL     OW10828   6.764   4.079   4.710
 3310SOL    HW110829   6.802   4.039   4.627
 3310SOL    HW210830   6.668   4.104   4.693
 3311SOL     OW10831   2.993   4.024   0.504
 3311SOL    HW110832   2.993   3.962   0.581
 3311SOL    HW210833   2.969   4.116   0.535
 3312SOL     OW10834   3.991   3.424   5.769
 3312SOL    HW110835   4.002   3.519   5.799
 3312SOL    HW210836   4.081   3.384   5.753
 3313SOL     OW10837   1.242   6.986   3.671
 3313SOL    HW110838   1.342   6.982   3.669
 3313SOL    HW210839   1.210   0.039   3.615
 3314SOL     OW10840   2.569   0.582   1.932
 3314SOL    HW110841   2.635   0.514   1.965
 3314SOL    HW210842   2.617   0.648   1.875
 3315SOL     OW10843   0.376   3.798   4.943
 3315SOL    HW110844   0.329   3.876   4.985
 3315SOL    HW210845   0.411   3.824   4.853
 3316SOL     OW10846   4.519   0.865   5.051
 3316SOL    HW110847   4.607   0.822   5.072
 3316SOL    HW210848   4.453   0.795   5.024
 3317SOL     OW10849   4.932   2.526   2.567
 3317SOL    HW110850   4.969   2.440   2.602
 3317SOL    HW210851   4.882   2.509   2.482
 3318SOL     OW10852   1.777   1.488   0.367
 3318SOL    HW110853   1.721   1.566   0.395
 3318SOL    HW210854   1.786   1.424   0.444
 3319SOL     OW10855   5.632   1.177   3.964
 3319SOL    HW110856   5.534   1.180   3.943
 3319SOL    HW210857   5.684   1.166   3.880
 3320SOL     OW10858   5.854   1.101   0.207
 3320SOL    HW110859   5.932   1.116   0.146
 3320SOL    HW210860   5.794   1.181   0.204
 3321SOL     OW10861   5.805   1.915   0.769
 3321SOL    HW110862   5.734   1.891   0.836
 3321SOL    HW210863   5.778   1.997   0.720
 3322SOL     OW10864   7.007   2.706   1.166
 3322SOL    HW110865   0.006   2.694   1.263
 3322SOL    HW210866   6.916   2.748   1.159
 3323SOL     OW10867   2.210   2.677   0.771
 3323SOL    HW110868   2.177   2.618   0.698
 3323SOL    HW210869   2.216   2.771   0.738
 3324SOL     OW10870   4.374   4.943   6.228
 3324SOL    HW110871   4.302   4.999   6.269
 3324SOL    HW210872   4.337   4.853   6.202
 3325SOL     OW10873   0.227   3.683   0.151
 3325SOL    HW110874   0.184   3.692   0.062
 3325SOL    HW210875   0.256   3.773   0.184
 3326SOL     OW10876   4.482   1.637   1.688
 3326SOL    HW110877   4.387   1.668   1.693
 3326SOL    HW210878   4.512   1.637   1.592
 3327SOL     OW10879   3.180   5.583   1.342
 3327SOL    HW110880   3.225   5.531   1.415
 3327SOL    HW210881   3.166   5.677   1.372
 3328SOL     OW10882   3.866   1.990   0.666
 3328SOL    HW110883   3.881   1.964   0.571
 3328SOL    HW210884   3.773   1.963   0.694
 3329SOL     OW10885   5.576   0.229   5.737
 3329SOL    HW110886   5.548   0.180   5.820
 3329SOL    HW210887   5.527   0.190   5.659
 3330SOL     OW10888   6.233   3.229   1.725
 3330SOL    HW110889   6.174   3.247   1.646
 3330SOL    HW210890   6.277   3.139   1.714
 3331SOL     OW10891   2.331   3.406   1.464
 3331SOL    HW110892   2.284   3.381   1.549
 3331SOL    HW210893   2.359   3.323   1.416
 3332SOL     OW10894   5.839   5.454   0.448
 3332SOL    HW110895   5.754   5.466   0.500
 3332SOL    HW210896   5.820   5.402   0.365
 3333SOL     OW10897   3.594   5.724   6.245
 3333SOL    HW110898   3.531   5.674   6.306
 3333SOL    HW210899   3.642   5.659   6.187
 3334SOL     OW10900   3.142   3.558   1.230
 3334SOL    HW110901   3.211   3.627   1.247
 3334SOL    HW210902   3.088   3.544   1.313
 3335SOL     OW10903   4.617   5.076   5.485
 3335SOL    HW110904   4.523   5.108   5.482
 3335SOL    HW210905   4.635   5.031   5.573
 3336SOL     OW10906   2.983   5.081   4.997
 3336SOL    HW110907   3.048   5.130   5.055
 3336SOL    HW210908   3.009   4.985   4.991
 3337SOL     OW10909   3.238   2.818   2.011
 3337SOL    HW110910   3.232   2.752   1.936
 3337SOL    HW210911   3.278   2.774   2.091
 3338SOL     OW10912   6.076   3.346   1.209
 3338SOL    HW110913   6.014   3.424   1.196
 3338SOL    HW210914   6.104   3.342   1.305
 3339SOL     OW10915   6.840   0.188   6.720
 3339SOL    HW110916   6.881   0.202   6.629
 3339SOL    HW210917   6.745   0.220   6.718
 3340SOL     OW10918   3.988   0.413   1.333
 3340SOL    HW110919   4.083   0.401   1.363
 3340SOL    HW210920   3.934   0.335   1.362
 3341SOL     OW10921   1.582   5.920   4.028
 3341SOL    HW110922   1.492   5.931   3.987
 3341SOL    HW210923   1.624   6.010   4.042
 3342SOL     OW10924   2.292   6.560   4.045
 3342SOL    HW110925   2.240   6.567   4.130
 3342SOL    HW210926   2.338   6.647   4.026
 3343SOL     OW10927   4.837   2.930   0.564
 3343SOL    HW110928   4.763   2.974   0.614
 3343SOL    HW210929   4.891   2.874   0.626
 3344SOL     OW10930   6.010   3.635   4.419
 3344SOL    HW110931   6.064   3.565   4.465
 3344SOL    HW210932   5.934   3.592   4.371
 3345SOL     OW10933   1.907   3.756   5.473
 3345SOL    HW110934   1.870   3.826   5.412
 3345SOL    HW210935   1.845   3.742   5.550
 3346SOL     OW10936   1.546   0.966   1.828
 3346SOL    HW110937   1.633   0.970   1.778
 3346SOL    HW210938   1.473   0.934   1.768
 3347SOL     OW10939   0.522   4.836   3.759
 3347SOL    HW110940   0.482   4.908   3.703
 3347SOL    HW210941   0.565   4.877   3.840
 3348SOL     OW10942   3.126   3.204   3.276
 3348SOL    HW110943   3.187   3.147   3.219
 3348SOL    HW210944   3.143   3.184   3.372
 3349SOL     OW10945   0.677   4.707   4.460
 3349SOL    HW110946   0.770   4.740   4.474
 3349SOL    HW210947   0.669   4.613   4.495
 3350SOL     OW10948   1.170   2.275   6.630
 3350SOL    HW110949   1.155   2.180   6.604
 3350SOL    HW210950   1.176   2.282   6.730
 3351SOL     OW10951   5.147   0.164   2.557
 3351SOL    HW110952   5.150   0.096   2.630
 3351SOL    HW210953   5.173   0.253   2.595
 3352SOL     OW10954   0.125   3.582   0.672
 3352SOL    HW110955   0.050   3.648   0.668
 3352SOL    HW210956   0.207   3.623   0.632
 3353SOL     OW10957   1.255   6.370   2.323
 3353SOL    HW110958   1.315   6.444   2.295
 3353SOL    HW210959   1.182   6.406   2.382
 3354SOL     OW10960   5.443   2.736   4.044
 3354SOL    HW110961   5.360   2.762   4.093
 3354SOL    HW210962   5.493   2.666   4.095
 3355SOL     OW10963   1.447   1.434   0.136
 3355SOL    HW110964   1.429   1.419   0.233
 3355SOL    HW210965   1.545   1.423   0.118
 3356SOL     OW10966   2.052   3.319   0.073
 3356SOL    HW110967   2.053   3.335   6.999
 3356SOL    HW210968   2.145   3.323   0.109
 3357SOL     OW10969   2.488   4.972   1.960
 3357SOL    HW110970   2.516   5.052   2.013
 3357SOL    HW210971   2.485   4.892   2.019
 3358SOL     OW10972   4.552   0.298   1.521
 3358SOL    HW110973   4.567   0.371   1.453
 3358SOL    HW210974   4.614   0.311   1.598
 3359SOL     OW10975   6.729   7.009   4.007
 3359SOL    HW110976   6.794   0.056   4.033
 3359SOL    HW210977   6.722   6.941   4.080
 3360SOL     OW10978   6.956   1.214   0.541
 3360SOL    HW110979   6.963   1.206   0.640
 3360SOL    HW210980   6.860   1.206   0.514
 3361SOL     OW10981   0.747   5.209   2.482
 3361SOL    HW110982   0.719   5.138   2.417
 3361SOL    HW210983   0.834   5.248   2.454
 3362SOL     OW10984   3.760   1.489   4.702
 3362SOL    HW110985   3.680   1.549   4.702
 3362SOL    HW210986   3.842   1.542   4.680
 3363SOL     OW10987   0.863   0.403   6.955
 3363SOL    HW110988   0.775   0.359   6.937
 3363SOL    HW210989   0.934   0.333   6.960
 3364SOL     OW10990   1.056   4.399   4.214
 3364SOL    HW110991   0.976   4.383   4.272
 3364SOL    HW210992   1.076   4.316   4.162
 3365SOL     OW10993   0.375   2.184   5.175
 3365SOL    HW110994   0.292   2.198   5.229
 3365SOL    HW210995   0.359   2.112   5.107
 3366SOL     OW10996   6.366   0.168   5.665
 3366SOL    HW110997   6.267   0.154   5.657
 3366SOL    HW210998   6.411   0.080   5.673
 3367SOL     OW10999   1.966   2.674   2.105
 3367SOL    HW111000   2.006   2.583   2.120
 3367SOL    HW211001   2.023   2.743   2.149
 3368SOL     OW11002   0.855   5.933   6.530
 3368SOL    HW111003   0.947   5.922   6.567
 3368SOL    HW211004   0.847   5.883   6.444
 3369SOL     OW11005   3.507   2.292   5.899
 3369SOL    HW111006   3.454   2.259   5.821
 3369SOL    HW211007   3.574   2.359   5.868
 3370SOL     OW11008   6.616   5.995   5.433
 3370SOL    HW111009   6.693   5.931   5.439
 3370SOL    HW211010   6.595   6.012   5.337
 3371SOL     OW11011   0.445   4.529   2.209
 3371SOL    HW111012   0.447   4.579   2.123
 3371SOL    HW211013   0.448   4.594   2.286
 3372SOL     OW11014   1.002   1.356   2.021
 3372SOL    HW111015   0.970   1.432   2.077
 3372SOL    HW211016   1.035   1.282   2.081
 3373SOL     OW11017   6.295   1.162   3.571
 3373SOL    HW111018   6.272   1.239   3.513
 3373SOL    HW211019   6.303   1.193   3.666
 3374SOL     OW11020   2.618   5.569   4.477
 3374SOL    HW111021   2.600   5.603   4.385
 3374SOL    HW211022   2.540   5.591   4.536
 3375SOL     OW11023   4.896   5.001   5.418
 3375SOL    HW111024   4.811   5.046   5.389
 3375SOL    HW211025   4.932   4.945   5.344
 3376SOL     OW11026   4.100   3.308   2.841
 3376SOL    HW111027   4.033   3.282   2.911
 3376SOL    HW211028   4.133   3.225   2.795
 3377SOL     OW11029   0.280   5.934   4.378
 3377SOL    HW111030   0.255   6.013   4.435
 3377SOL    HW211031   0.241   5.946   4.286
 3378SOL     OW11032   6.409   0.471   0.759
 3378SOL    HW111033   6.410   0.537   0.684
 3378SOL    HW211034   6.342   0.400   0.741
 3379SOL     OW11035   6.833   5.105   6.196
 3379SOL    HW111036   6.803   5.060   6.280
 3379SOL    HW211037   6.900   5.176   6.218
 3380SOL     OW11038   6.027   5.924   6.141
 3380SOL    HW111039   6.030   5.916   6.042
 3380SOL    HW211040   5.937   5.894   6.174
 3381SOL     OW11041   1.335   2.271   0.619
 3381SOL    HW111042   1.353   2.249   0.715
 3381SOL    HW211043   1.386   2.353   0.593
 3382SOL     OW11044   0.930   1.079   0.417
 3382SOL    HW111045   0.952   0.986   0.446
 3382SOL    HW211046   0.955   1.092   0.321
 3383SOL     OW11047   4.819   5.282   2.968
 3383SOL    HW111048   4.795   5.319   3.057
 3383SOL    HW211049   4.771   5.332   2.896
 3384SOL     OW11050   3.025   3.139   4.903
 3384SOL    HW111051   2.937   3.092   4.904
 3384SOL    HW211052   3.059   3.149   4.996
 3385SOL     OW11053   0.254   3.748   3.617
 3385SOL    HW111054   0.330   3.692   3.584
 3385SOL    HW211055   0.238   3.729   3.714
 3386SOL     OW11056   6.394   3.141   5.586
 3386SOL    HW111057   6.451   3.212   5.544
 3386SOL    HW211058   6.332   3.183   5.653
 3387SOL     OW11059   2.708   0.529   2.739
 3387SOL    HW111060   2.769   0.523   2.818
 3387SOL    HW211061   2.751   0.585   2.668
 3388SOL     OW11062   6.171   3.338   1.958
 3388SOL    HW111063   6.073   3.326   1.976
 3388SOL    HW211064   6.190   3.320   1.861
 3389SOL     OW11065   4.602   5.118   4.956
 3389SOL    HW111066   4.502   5.123   4.964
 3389SOL    HW211067   4.634   5.194   4.899
 3390SOL     OW11068   5.679   4.815   5.977
 3390SOL    HW111069   5.623   4.872   6.037
 3390SOL    HW211070   5.683   4.856   5.886
 3391SOL     OW11071   6.002   2.151   4.585
 3391SOL    HW111072   6.052   2.166   4.500
 3391SOL    HW211073   5.960   2.237   4.615
 3392SOL     OW11074   2.508   1.056   3.179
 3392SOL    HW111075   2.516   1.088   3.274
 3392SOL    HW211076   2.489   1.134   3.119
 3393SOL     OW11077   0.297   6.604   0.645
 3393SOL    HW111078   0.276   6.702   0.643
 3393SOL    HW211079   0.253   6.559   0.568
 3394SOL     OW11080   5.936   3.478   0.791
 3394SOL    HW111081   6.018   3.452   0.843
 3394SOL    HW211082   5.857   3.427   0.825
 3395SOL     OW11083   6.538   3.548   3.791
 3395SOL    HW111084   6.539   3.489   3.710
 3395SOL    HW211085   6.444   3.567   3.817
 3396SOL     OW11086   6.982   1.962   3.510
 3396SOL    HW111087   6.910   1.951   3.442
 3396SOL    HW211088   0.042   1.990   3.465
 3397SOL     OW11089   2.823   1.243   5.991
 3397SOL    HW111090   2.739   1.269   5.944
 3397SOL    HW211091   2.895   1.310   5.971
 3398SOL     OW11092   1.275   6.881   4.125
 3398SOL    HW111093   1.290   6.929   4.038
 3398SOL    HW211094   1.329   6.797   4.126
 3399SOL     OW11095   5.461   4.469   4.262
 3399SOL    HW111096   5.455   4.562   4.299
 3399SOL    HW211097   5.371   4.441   4.228
 3400SOL     OW11098   4.441   1.746   5.651
 3400SOL    HW111099   4.497   1.813   5.699
 3400SOL    HW211100   4.472   1.739   5.556
 3401SOL     OW11101   6.621   3.456   1.245
 3401SOL    HW111102   6.713   3.426   1.271
 3401SOL    HW211103   6.600   3.423   1.153
 3402SOL     OW11104   4.270   6.451   0.578
 3402SOL    HW111105   4.193   6.418   0.633
 3402SOL    HW211106   4.307   6.375   0.524
 3403SOL     OW11107   3.706   0.453   4.603
 3403SOL    HW111108   3.784   0.490   4.552
 3403SOL    HW211109   3.638   0.525   4.615
 3404SOL     OW11110   5.472   1.688   6.673
 3404SOL    HW111111   5.523   1.605   6.647
 3404SOL    HW211112   5.423   1.723   6.594
 3405SOL     OW11113   6.429   3.825   4.046
 3405SOL    HW111114   6.426   3.923   4.065
 3405SOL    HW211115   6.413   3.774   4.131
 3406SOL     OW11116   1.086   4.384   2.152
 3406SOL    HW111117   1.148   4.321   2.105
 3406SOL    HW211118   1.059   4.345   2.240
 3407SOL     OW11119   1.657   5.138   0.195
 3407SOL    HW111120   1.603   5.145   0.279
 3407SOL    HW211121   1.704   5.049   0.193
 3408SOL     OW11122   5.267   4.031   4.820
 3408SOL    HW111123   5.208   4.112   4.815
 3408SOL    HW211124   5.335   4.044   4.893
 3409SOL     OW11125   3.082   6.453   6.115
 3409SOL    HW111126   3.181   6.459   6.130
 3409SOL    HW211127   3.034   6.486   6.196
 3410SOL     OW11128   6.104   5.943   0.249
 3410SOL    HW111129   6.009   5.955   0.277
 3410SOL    HW211130   6.111   5.948   0.150
 3411SOL     OW11131   0.172   2.710   2.118
 3411SOL    HW111132   0.210   2.803   2.115
 3411SOL    HW211133   0.127   2.690   2.032
 3412SOL     OW11134   4.431   3.050   6.542
 3412SOL    HW111135   4.443   3.023   6.637
 3412SOL    HW211136   4.356   2.998   6.502
 3413SOL     OW11137   4.935   0.756   2.605
 3413SOL    HW111138   4.955   0.829   2.540
 3413SOL    HW211139   4.968   0.669   2.568
 3414SOL     OW11140   1.868   1.588   5.910
 3414SOL    HW111141   1.952   1.562   5.957
 3414SOL    HW211142   1.800   1.516   5.921
 3415SOL     OW11143   1.751   4.583   4.390
 3415SOL    HW111144   1.695   4.659   4.356
 3415SOL    HW211145   1.823   4.562   4.324
 3416SOL     OW11146   6.552   5.505   0.082
 3416SOL    HW111147   6.582   5.541   7.018
 3416SOL    HW211148   6.596   5.556   0.156
 3417SOL     OW11149   0.158   5.757   3.565
 3417SOL    HW111150   0.174   5.663   3.595
 3417SOL    HW211151   0.125   5.756   3.470
 3418SOL     OW11152   3.999   0.381   4.910
 3418SOL    HW111153   3.940   0.452   4.874
 3418SOL    HW211154   4.017   0.313   4.839
 3419SOL     OW11155   3.733   5.523   4.935
 3419SOL    HW111156   3.722   5.612   4.890
 3419SOL    HW211157   3.644   5.485   4.956
 3420SOL     OW11158   5.361   2.521   3.161
 3420SOL    HW111159   5.262   2.510   3.150
 3420SOL    HW211160   5.406   2.436   3.136
 3421SOL     OW11161   6.049   0.536   6.294
 3421SOL    HW111162   6.093   0.622   6.267
 3421SOL    HW211163   6.078   0.512   6.387
 3422SOL     OW11164   1.986   6.309   1.164
 3422SOL    HW111165   1.968   6.292   1.067
 3422SOL    HW211166   1.964   6.226   1.217
 3423SOL     OW11167   2.262   6.645   0.588
 3423SOL    HW111168   2.319   6.723   0.614
 3423SOL    HW211169   2.202   6.620   0.664
 3424SOL     OW11170   3.218   6.694   2.638
 3424SOL    HW111171   3.203   6.670   2.542
 3424SOL    HW211172   3.199   6.791   2.651
 3425SOL     OW11173   5.365   3.755   2.071
 3425SOL    HW111174   5.298   3.693   2.030
 3425SOL    HW211175   5.454   3.709   2.077
 3426SOL     OW11176   2.703   3.012   6.903
 3426SOL    HW111177   2.637   3.081   6.872
 3426SOL    HW211178   2.682   2.925   6.859
 3427SOL     OW11179   6.970   6.939   6.339
 3427SOL    HW111180   6.963   6.987   6.251
 3427SOL    HW211181   6.970   7.005   6.413
 3428SOL     OW11182   3.707   4.889   1.127
 3428SOL    HW111183   3.710   4.814   1.193
 3428SOL    HW211184   3.650   4.863   1.049
 3429SOL     OW11185   1.176   0.886   6.916
 3429SOL    HW111186   1.086   0.857   6.949
 3429SOL    HW211187   1.172   0.902   6.818
 3430SOL     OW11188   0.357   6.574   5.124
 3430SOL    HW111189   0.284   6.507   5.118
 3430SOL    HW211190   0.321   6.659   5.162
 3431SOL     OW11191   1.670   0.099   1.283
 3431SOL    HW111192   1.579   0.081   1.319
 3431SOL    HW211193   1.730   0.128   1.358
 3432SOL     OW11194   2.569   2.332   6.610
 3432SOL    HW111195   2.602   2.414   6.657
 3432SOL    HW211196   2.612   2.326   6.520
 3433SOL     OW11197   0.957   6.880   6.496
 3433SOL    HW111198   0.903   6.807   6.456
 3433SOL    HW211199   0.903   6.964   6.500
 3434SOL     OW11200   3.789   2.424   1.030
 3434SOL    HW111201   3.713   2.463   0.977
 3434SOL    HW211202   3.764   2.422   1.126
 3435SOL     OW11203   1.202   1.900   1.288
 3435SOL    HW111204   1.174   1.935   1.198
 3435SOL    HW211205   1.193   1.801   1.290
 3436SOL     OW11206   3.769   6.605   5.508
 3436SOL    HW111207   3.767   6.577   5.412
 3436SOL    HW211208   3.719   6.539   5.563
 3437SOL     OW11209   3.368   0.659   6.462
 3437SOL    HW111210   3.447   0.636   6.406
 3437SOL    HW211211   3.296   0.592   6.447
 3438SOL     OW11212   1.379   2.551   0.339
 3438SOL    HW111213   1.454   2.511   0.287
 3438SOL    HW211214   1.350   2.636   0.297
 3439SOL     OW11215   2.029   6.897   5.951
 3439SOL    HW111216   2.120   6.878   5.915
 3439SOL    HW211217   2.019   6.995   5.965
 3440SOL     OW11218   4.157   3.310   1.481
 3440SOL    HW111219   4.149   3.216   1.447
 3440SOL    HW211220   4.148   3.310   1.580
 3441SOL     OW11221   4.942   0.349   3.655
 3441SOL    HW111222   5.008   0.417   3.622
 3441SOL    HW211223   4.890   0.388   3.731
 3442SOL     OW11224   3.235   4.886   2.464
 3442SOL    HW111225   3.135   4.890   2.468
 3442SOL    HW211226   3.272   4.868   2.555
 3443SOL     OW11227   5.636   0.249   2.179
 3443SOL    HW111228   5.553   0.295   2.146
 3443SOL    HW211229   5.647   0.265   2.277
 3444SOL     OW11230   4.768   5.306   6.829
 3444SOL    HW111231   4.867   5.303   6.829
 3444SOL    HW211232   4.734   5.297   6.735
 3445SOL     OW11233   6.003   5.519   3.970
 3445SOL    HW111234   5.990   5.546   4.065
 3445SOL    HW211235   6.099   5.496   3.953
 3446SOL     OW11236   6.060   0.860   2.876
 3446SOL    HW111237   6.136   0.801   2.901
 3446SOL    HW211238   6.072   0.950   2.918
 3447SOL     OW11239   5.433   4.482   1.007
 3447SOL    HW111240   5.484   4.397   0.996
 3447SOL    HW211241   5.340   4.470   0.971
 3448SOL     OW11242   2.918   0.014   1.031
 3448SOL    HW111243   2.974   6.994   1.102
 3448SOL    HW211244   2.847   0.070   1.075
 3449SOL     OW11245   6.287   6.499   4.152
 3449SOL    HW111246   6.351   6.447   4.096
 3449SOL    HW211247   6.193   6.470   4.131
 3450SOL     OW11248   0.711   2.878   6.748
 3450SOL    HW111249   0.677   2.961   6.705
 3450SOL    HW211250   0.811   2.880   6.751
 3451SOL     OW11251   1.082   5.344   3.081
 3451SOL    HW111252   1.024   5.371   3.158
 3451SOL    HW211253   1.164   5.299   3.116
 3452SOL     OW11254   5.683   2.021   6.943
 3452SOL    HW111255   5.645   1.962   6.871
 3452SOL    HW211256   5.622   2.098   6.958
 3453SOL     OW11257   6.812   6.393   6.121
 3453SOL    HW111258   6.787   6.450   6.043
 3453SOL    HW211259   6.901   6.350   6.104
 3454SOL     OW11260   1.854   0.923   6.953
 3454SOL    HW111261   1.801   0.840   6.937
 3454SOL    HW211262   1.801   1.002   6.923
 3455SOL     OW11263   2.142   3.326   4.328
 3455SOL    HW111264   2.153   3.236   4.285
 3455SOL    HW211265   2.138   3.315   4.428
 3456SOL     OW11266   5.246   6.456   2.584
 3456SOL    HW111267   5.343   6.475   2.596
 3456SOL    HW211268   5.207   6.425   2.671
 3457SOL     OW11269   2.416   5.575   4.041
 3457SOL    HW111270   2.420   5.488   3.992
 3457SOL    HW211271   2.347   5.570   4.114
 3458SOL     OW11272   5.047   6.885   0.469
 3458SOL    HW111273   5.131   6.924   0.432
 3458SOL    HW211274   4.998   6.836   0.397
 3459SOL     OW11275   6.386   3.576   2.583
 3459SOL    HW111276   6.409   3.667   2.547
 3459SOL    HW211277   6.458   3.511   2.558
 3460SOL     OW11278   2.716   3.757   0.262
 3460SOL    HW111279   2.710   3.696   0.183
 3460SOL    HW211280   2.681   3.711   0.343
 3461SOL     OW11281   4.625   5.885   4.366
 3461SOL    HW111282   4.640   5.795   4.324
 3461SOL    HW211283   4.671   5.888   4.455
 3462SOL     OW11284   0.073   3.726   2.338
 3462SOL    HW111285   0.152   3.788   2.332
 3462SOL    HW211286   0.049   3.712   2.434
 3463SOL     OW11287   1.091   2.937   3.294
 3463SOL    HW111288   0.997   2.914   3.272
 3463SOL    HW211289   1.105   2.932   3.393
 3464SOL     OW11290   6.417   2.290   6.523
 3464SOL    HW111291   6.321   2.315   6.538
 3464SOL    HW211292   6.475   2.368   6.546
 3465SOL     OW11293   0.160   3.115   1.886
 3465SOL    HW111294   0.229   3.172   1.841
 3465SOL    HW211295   0.094   3.082   1.818
 3466SOL     OW11296   6.935   4.319   6.160
 3466SOL    HW111297   6.997   4.241   6.168
 3466SOL    HW211298   6.870   4.318   6.236
 3467SOL     OW11299   2.265   1.854   0.655
 3467SOL    HW111300   2.362   1.832   0.665
 3467SOL    HW211301   2.250   1.951   0.669
 3468SOL     OW11302   5.602   0.827   3.305
 3468SOL    HW111303   5.556   0.888   3.240
 3468SOL    HW211304   5.616   0.738   3.262
 3469SOL     OW11305   4.588   0.797   4.234
 3469SOL    HW111306   4.633   0.863   4.294
 3469SOL    HW211307   4.492   0.787   4.262
 3470SOL     OW11308   0.628   2.440   1.408
 3470SOL    HW111309   0.697   2.407   1.473
 3470SOL    HW211310   0.656   2.415   1.315
 3471SOL     OW11311   4.647   4.322   4.203
 3471SOL    HW111312   4.642   4.342   4.301
 3471SOL    HW211313   4.556   4.331   4.163
 3472SOL     OW11314   2.846   0.783   1.953
 3472SOL    HW111315   2.902   0.865   1.955
 3472SOL    HW211316   2.772   0.795   1.886
 3473SOL     OW11317   6.716   2.697   2.666
 3473SOL    HW111318   6.725   2.649   2.579
 3473SOL    HW211319   6.622   2.692   2.697
 3474SOL     OW11320   0.186   4.703   2.326
 3474SOL    HW111321   0.151   4.652   2.404
 3474SOL    HW211322   0.284   4.721   2.339
 3475SOL     OW11323   0.919   4.511   3.935
 3475SOL    HW111324   0.886   4.605   3.947
 3475SOL    HW211325   0.883   4.454   4.009
 3476SOL     OW11326   2.493   1.962   2.491
 3476SOL    HW111327   2.449   1.901   2.557
 3476SOL    HW211328   2.481   2.057   2.520
 3477SOL     OW11329   2.201   5.100   0.841
 3477SOL    HW111330   2.243   5.165   0.905
 3477SOL    HW211331   2.186   5.013   0.887
 3478SOL     OW11332   2.039   5.987   5.874
 3478SOL    HW111333   2.042   5.949   5.967
 3478SOL    HW211334   2.105   5.938   5.816
 3479SOL     OW11335   1.205   0.890   3.047
 3479SOL    HW111336   1.156   0.817   3.095
 3479SOL    HW211337   1.141   0.965   3.027
 3480SOL     OW11338   0.094   5.522   4.372
 3480SOL    HW111339   0.130   5.431   4.354
 3480SOL    HW211340   0.159   5.573   4.428
 3481SOL     OW11341   5.103   0.879   0.526
 3481SOL    HW111342   5.103   0.799   0.466
 3481SOL    HW211343   5.190   0.926   0.519
 3482SOL     OW11344   6.598   0.960   1.988
 3482SOL    HW111345   6.505   0.997   1.983
 3482SOL    HW211346   6.663   1.034   2.007
 3483SOL     OW11347   5.309   1.961   1.642
 3483SOL    HW111348   5.344   2.049   1.611
 3483SOL    HW211349   5.241   1.974   1.714
 3484SOL     OW11350   0.846   2.925   0.466
 3484SOL    HW111351   0.935   2.944   0.507
 3484SOL    HW211352   0.844   2.957   0.372
 3485SOL     OW11353   1.753   1.513   4.531
 3485SOL    HW111354   1.725   1.426   4.490
 3485SOL    HW211355   1.694   1.586   4.497
 3486SOL     OW11356   2.377   0.490   3.210
 3486SOL    HW111357   2.365   0.401   3.253
 3486SOL    HW211358   2.444   0.483   3.136
 3487SOL     OW11359   6.862   2.030   0.575
 3487SOL    HW111360   6.810   1.949   0.601
 3487SOL    HW211361   6.826   2.066   0.489
 3488SOL     OW11362   5.879   0.582   5.029
 3488SOL    HW111363   5.881   0.486   5.057
 3488SOL    HW211364   5.929   0.638   5.095
 3489SOL     OW11365   3.648   0.443   1.770
 3489SOL    HW111366   3.626   0.509   1.841
 3489SOL    HW211367   3.748   0.430   1.767
 3490SOL     OW11368   4.416   4.102   1.083
 3490SOL    HW111369   4.502   4.126   1.129
 3490SOL    HW211370   4.388   4.178   1.025
 3491SOL     OW11371   4.365   2.189   5.914
 3491SOL    HW111372   4.389   2.202   5.818
 3491SOL    HW211373   4.430   2.238   5.972
 3492SOL     OW11374   6.728   4.032   1.005
 3492SOL    HW111375   6.815   4.049   1.051
 3492SOL    HW211376   6.745   3.985   0.918
 3493SOL     OW11377   4.887   4.221   4.467
 3493SOL    HW111378   4.862   4.297   4.407
 3493SOL    HW211379   4.921   4.145   4.411
 3494SOL     OW11380   2.899   0.934   1.494
 3494SOL    HW111381   2.971   0.869   1.516
 3494SOL    HW211382   2.810   0.888   1.500
 3495SOL     OW11383   6.097   4.878   1.889
 3495SOL    HW111384   6.137   4.808   1.829
 3495SOL    HW211385   6.072   4.836   1.976
 3496SOL     OW11386   6.398   4.903   0.884
 3496SOL    HW111387   6.384   4.887   0.981
 3496SOL    HW211388   6.309   4.913   0.839
 3497SOL     OW11389   2.630   1.348   3.617
 3497SOL    HW111390   2.582   1.349   3.705
 3497SOL    HW211391   2.725   1.322   3.631
 3498SOL     OW11392   3.174   1.964   1.444
 3498SOL    HW111393   3.237   1.946   1.521
 3498SOL    HW211394   3.194   1.900   1.370
 3499SOL     OW11395   5.591   3.818   4.080
 3499SOL    HW111396   5.647   3.901   4.069
 3499SOL    HW211397   5.516   3.820   4.014
 3500SOL     OW11398   1.690   3.337   3.617
 3500SOL    HW111399   1.693   3.355   3.519
 3500SOL    HW211400   1.771   3.287   3.644
 3501SOL     OW11401   3.117   5.729   5.920
 3501SOL    HW111402   3.154   5.720   6.012
 3501SOL    HW211403   3.041   5.794   5.920
 3502SOL     OW11404   6.717   1.668   1.392
 3502SOL    HW111405   6.653   1.628   1.458
 3502SOL    HW211406   6.715   1.767   1.400
 3503SOL     OW11407   6.198   5.846   5.131
 3503SOL    HW111408   6.217   5.749   5.114
 3503SOL    HW211409   6.106   5.855   5.167
 3504SOL     OW11410   2.384   0.306   1.600
 3504SOL    HW111411   2.409   0.400   1.621
 3504SOL    HW211412   2.433   0.243   1.660
 3505SOL     OW11413   5.286   4.108   5.774
 3505SOL    HW111414   5.208   4.084   5.831
 3505SOL    HW211415   5.310   4.204   5.789
 3506SOL     OW11416   5.675   4.899   5.458
 3506SOL    HW111417   5.576   4.902   5.449
 3506SOL    HW211418   5.700   4.906   5.555
 3507SOL     OW11419   2.591   0.829   0.998
 3507SOL    HW111420   2.579   0.772   0.917
 3507SOL    HW211421   2.681   0.811   1.039
 3508SOL     OW11422   1.892   2.322   5.974
 3508SOL    HW111423   1.845   2.254   5.919
 3508SOL    HW211424   1.920   2.399   5.915
 3509SOL     OW11425   4.962   0.434   6.805
 3509SOL    HW111426   4.954   0.524   6.762
 3509SOL    HW211427   4.964   0.363   6.735
 3510SOL     OW11428   1.069   1.068   2.185
 3510SOL    HW111429   0.983   1.016   2.183
 3510SOL    HW211430   1.138   1.021   2.130
 3511SOL     OW11431   2.105   4.722   1.286
 3511SOL    HW111432   2.144   4.740   1.377
 3511SOL    HW211433   2.008   4.702   1.294
 3512SOL     OW11434   0.784   4.608   0.370
 3512SOL    HW111435   0.859   4.581   0.309
 3512SOL    HW211436   0.723   4.670   0.322
 3513SOL     OW11437   5.412   2.305   0.358
 3513SOL    HW111438   5.405   2.370   0.282
 3513SOL    HW211439   5.404   2.212   0.323
 3514SOL     OW11440   7.012   1.039   1.916
 3514SOL    HW111441   0.063   1.091   1.875
 3514SOL    HW211442   6.978   1.088   1.996
 3515SOL     OW11443   4.427   6.059   3.396
 3515SOL    HW111444   4.522   6.063   3.429
 3515SOL    HW211445   4.406   5.967   3.366
 3516SOL     OW11446   5.121   6.872   1.150
 3516SOL    HW111447   5.130   6.972   1.148
 3516SOL    HW211448   5.168   6.833   1.070
 3517SOL     OW11449   0.880   2.029   1.260
 3517SOL    HW111450   0.945   1.978   1.202
 3517SOL    HW211451   0.789   1.991   1.248
 3518SOL     OW11452   4.972   3.205   4.647
 3518SOL    HW111453   4.938   3.266   4.719
 3518SOL    HW211454   5.044   3.146   4.685
 3519SOL     OW11455   1.560   1.126   6.350
 3519SOL    HW111456   1.522   1.212   6.384
 3519SOL    HW211457   1.560   1.058   6.423
 3520SOL     OW11458   2.956   5.699   6.953
 3520SOL    HW111459   3.046   5.688   6.911
 3520SOL    HW211460   2.913   5.783   6.919
 3521SOL     OW11461   4.817   2.724   0.041
 3521SOL    HW111462   4.739   2.667   0.066
 3521SOL    HW211463   4.902   2.679   0.070
 3522SOL     OW11464   0.262   4.750   1.257
 3522SOL    HW111465   0.215   4.759   1.169
 3522SOL    HW211466   0.219   4.676   1.310
 3523SOL     OW11467   1.376   4.410   5.659
 3523SOL    HW111468   1.352   4.507   5.663
 3523SOL    HW211469   1.383   4.381   5.564
 3524SOL     OW11470   4.897   1.398   1.606
 3524SOL    HW111471   4.854   1.410   1.516
 3524SOL    HW211472   4.854   1.321   1.653
 3525SOL     OW11473   6.864   4.629   3.232
 3525SOL    HW111474   6.885   4.674   3.144
 3525SOL    HW211475   6.817   4.542   3.214
 3526SOL     OW11476   2.367   6.742   3.734
 3526SOL    HW111477   2.387   6.664   3.675
 3526SOL    HW211478   2.446   6.760   3.793
 3527SOL     OW11479   5.396   3.515   5.967
 3527SOL    HW111480   5.355   3.432   6.005
 3527SOL    HW211481   5.494   3.501   5.957
 3528SOL     OW11482   1.490   6.200   5.478
 3528SOL    HW111483   1.514   6.285   5.431
 3528SOL    HW211484   1.516   6.208   5.575
 3529SOL     OW11485   3.897   0.352   0.377
 3529SOL    HW111486   3.909   0.430   0.316
 3529SOL    HW211487   3.900   0.267   0.325
 3530SOL     OW11488   6.333   5.646   2.393
 3530SOL    HW111489   6.391   5.564   2.392
 3530SOL    HW211490   6.383   5.722   2.352
 3531SOL     OW11491   5.411   3.414   1.067
 3531SOL    HW111492   5.334   3.364   1.028
 3531SOL    HW211493   5.401   3.417   1.167
 3532SOL     OW11494   2.579   6.793   1.732
 3532SOL    HW111495   2.658   6.732   1.726
 3532SOL    HW211496   2.608   6.887   1.718
 3533SOL     OW11497   0.906   1.906   2.617
 3533SOL    HW111498   0.951   1.822   2.648
 3533SOL    HW211499   0.966   1.954   2.554
 3534SOL     OW11500   6.669   1.745   0.882
 3534SOL    HW111501   6.604   1.671   0.870
 3534SOL    HW211502   6.760   1.708   0.900
 3535SOL     OW11503   1.566   5.291   6.812
 3535SOL    HW111504   1.625   5.365   6.781
 3535SOL    HW211505   1.621   5.212   6.838
 3536SOL     OW11506   3.124   1.761   3.064
 3536SOL    HW111507   3.065   1.709   3.125
 3536SOL    HW211508   3.076   1.844   3.033
 3537SOL     OW11509   3.157   6.080   2.407
 3537SOL    HW111510   3.150   6.168   2.454
 3537SOL    HW211511   3.200   6.013   2.468
 3538SOL     OW11512   1.760   6.988   6.175
 3538SOL    HW111513   1.762   6.895   6.137
 3538SOL    HW211514   1.847   7.007   6.221
 3539SOL     OW11515   3.792   3.255   5.807
 3539SOL    HW111516   3.734   3.313   5.864
 3539SOL    HW211517   3.871   3.307   5.775
 3540SOL     OW11518   1.838   2.558   5.556
 3540SOL    HW111519   1.738   2.556   5.552
 3540SOL    HW211520   1.877   2.512   5.476
 3541SOL     OW11521   2.136   2.907   6.082
 3541SOL    HW111522   2.044   2.874   6.060
 3541SOL    HW211523   2.155   2.990   6.029
 3542SOL     OW11524   1.818   5.714   2.914
 3542SOL    HW111525   1.784   5.804   2.940
 3542SOL    HW211526   1.885   5.723   2.840
 3543SOL     OW11527   0.742   2.425   4.842
 3543SOL    HW111528   0.645   2.417   4.820
 3543SOL    HW211529   0.754   2.428   4.941
 3544SOL     OW11530   2.244   4.285   6.097
 3544SOL    HW111531   2.310   4.330   6.158
 3544SOL    HW211532   2.264   4.187   6.094
 3545SOL     OW11533   3.947   5.500   0.415
 3545SOL    HW111534   3.870   5.557   0.386
 3545SOL    HW211535   4.004   5.552   0.480
 3546SOL     OW11536   1.219   4.148   4.473
 3546SOL    HW111537   1.205   4.245   4.455
 3546SOL    HW211538   1.263   4.136   4.562
 3547SOL     OW11539   6.961   4.156   3.746
 3547SOL    HW111540   6.874   4.110   3.732
 3547SOL    HW211541   7.004   4.174   3.657
 3548SOL     OW11542   5.872   1.688   5.883
 3548SOL    HW111543   5.825   1.741   5.953
 3548SOL    HW211544   5.945   1.743   5.843
 3549SOL     OW11545   6.592   5.085   6.069
 3549SOL    HW111546   6.563   5.070   6.163
 3549SOL    HW211547   6.692   5.091   6.065
 3550SOL     OW11548   6.232   2.223   2.619
 3550SOL    HW111549   6.235   2.124   2.633
 3550SOL    HW211550   6.137   2.251   2.603
 3551SOL     OW11551   3.806   0.782   2.159
 3551SOL    HW111552   3.811   0.704   2.097
 3551SOL    HW211553   3.719   0.828   2.148
 3552SOL     OW11554   5.522   6.548   2.223
 3552SOL    HW111555   5.472   6.605   2.157
 3552SOL    HW211556   5.617   6.579   2.228
 3553SOL     OW11557   5.221   4.226   1.130
 3553SOL    HW111558   5.241   4.288   1.054
 3553SOL    HW211559   5.263   4.137   1.111
 3554SOL     OW11560   4.456   2.388   0.720
 3554SOL    HW111561   4.488   2.447   0.646
 3554SOL    HW211562   4.372   2.342   0.692
 3555SOL     OW11563   1.105   3.992   3.717
 3555SOL    HW111564   1.179   4.037   3.767
 3555SOL    HW211565   1.034   4.060   3.695
 3556SOL     OW11566   4.508   1.432   3.340
 3556SOL    HW111567   4.418   1.403   3.308
 3556SOL    HW211568   4.577   1.370   3.304
 3557SOL     OW11569   1.369   0.261   4.377
 3557SOL    HW111570   1.294   0.280   4.441
 3557SOL    HW211571   1.355   0.314   4.293
 3558SOL     OW11572   1.372   6.867   1.454
 3558SOL    HW111573   1.323   6.911   1.379
 3558SOL    HW211574   1.446   6.810   1.416
 3559SOL     OW11575   0.254   6.078   4.732
 3559SOL    HW111576   0.236   6.167   4.690
 3559SOL    HW211577   0.169   6.027   4.741
 3560SOL     OW11578   0.849   5.804   1.191
 3560SOL    HW111579   0.798   5.747   1.256
 3560SOL    HW211580   0.902   5.873   1.242
 3561SOL     OW11581   4.199   4.857   5.139
 3561SOL    HW111582   4.236   4.806   5.216
 3561SOL    HW211583   4.250   4.835   5.056
 3562SOL     OW11584   5.053   1.107   3.265
 3562SOL    HW111585   4.996   1.141   3.340
 3562SOL    HW211586   5.053   1.007   3.266
 3563SOL     OW11587   5.691   1.337   0.196
 3563SOL    HW111588   5.725   1.409   0.257
 3563SOL    HW211589   5.662   1.378   0.109
 3564SOL     OW11590   1.427   4.403   4.115
 3564SOL    HW111591   1.482   4.486   4.129
 3564SOL    HW211592   1.443   4.340   4.191
 3565SOL     OW11593   3.763   5.856   5.123
 3565SOL    HW111594   3.709   5.816   5.048
 3565SOL    HW211595   3.833   5.791   5.151
 3566SOL     OW11596   6.902   3.621   6.431
 3566SOL    HW111597   6.919   3.528   6.397
 3566SOL    HW211598   6.986   3.658   6.469
 3567SOL     OW11599   0.819   3.312   6.983
 3567SOL    HW111600   0.763   3.394   6.973
 3567SOL    HW211601   0.853   3.306   0.053
 3568SOL     OW11602   4.937   5.709   4.055
 3568SOL    HW111603   4.860   5.690   3.994
 3568SOL    HW211604   4.922   5.797   4.101
 3569SOL     OW11605   2.994   2.515   5.843
 3569SOL    HW111606   2.923   2.544   5.908
 3569SOL    HW211607   2.953   2.507   5.752
 3570SOL     OW11608   5.166   0.123   4.891
 3570SOL    HW111609   5.091   0.161   4.946
 3570SOL    HW211610   5.244   0.186   4.893
 3571SOL     OW11611   1.834   0.902   5.190
 3571SOL    HW111612   1.842   0.804   5.171
 3571SOL    HW211613   1.861   0.953   5.108
 3572SOL     OW11614   5.880   3.381   2.878
 3572SOL    HW111615   5.951   3.390   2.807
 3572SOL    HW211616   5.915   3.417   2.964
 3573SOL     OW11617   6.275   3.909   2.752
 3573SOL    HW111618   6.371   3.889   2.770
 3573SOL    HW211619   6.220   3.826   2.766
 3574SOL     OW11620   0.567   2.957   0.805
 3574SOL    HW111621   0.655   2.910   0.795
 3574SOL    HW211622   0.558   2.989   0.900
 3575SOL     OW11623   4.974   5.673   2.722
 3575SOL    HW111624   4.885   5.681   2.767
 3575SOL    HW211625   5.046   5.672   2.791
 3576SOL     OW11626   0.575   1.895   0.207
 3576SOL    HW111627   0.528   1.835   0.271
 3576SOL    HW211628   0.645   1.843   0.157
 3577SOL     OW11629   1.677   2.900   6.822
 3577SOL    HW111630   1.660   2.978   6.762
 3577SOL    HW211631   1.666   2.815   6.770
 3578SOL     OW11632   4.960   1.814   1.078
 3578SOL    HW111633   4.983   1.905   1.044
 3578SOL    HW211634   4.956   1.749   1.002
 3579SOL     OW11635   6.847   2.241   2.712
 3579SOL    HW111636   6.832   2.152   2.756
 3579SOL    HW211637   6.944   2.253   2.695
 3580SOL     OW11638   5.881   3.020   0.332
 3580SOL    HW111639   5.907   3.077   0.409
 3580SOL    HW211640   5.868   3.077   0.251
 3581SOL     OW11641   0.630   5.602   3.404
 3581SOL    HW111642   0.566   5.549   3.461
 3581SOL    HW211643   0.669   5.542   3.334
 3582SOL     OW11644   1.646   4.428   5.421
 3582SOL    HW111645   1.692   4.444   5.334
 3582SOL    HW211646   1.622   4.516   5.463
 3583SOL     OW11647   1.475   4.698   0.069
 3583SOL    HW111648   1.523   4.614   0.044
 3583SOL    HW211649   1.521   4.776   0.025
 3584SOL     OW11650   5.558   4.416   5.583
 3584SOL    HW111651   5.613   4.484   5.632
 3584SOL    HW211652   5.523   4.349   5.648
 3585SOL     OW11653   2.625   2.453   4.844
 3585SOL    HW111654   2.568   2.392   4.900
 3585SOL    HW211655   2.716   2.461   4.885
 3586SOL     OW11656   6.680   1.656   4.952
 3586SOL    HW111657   6.658   1.738   4.899
 3586SOL    HW211658   6.596   1.605   4.970
 3587SOL     OW11659   1.874   5.721   5.836
 3587SOL    HW111660   1.912   5.785   5.903
 3587SOL    HW211661   1.948   5.685   5.780
 3588SOL     OW11662   6.839   2.847   5.060
 3588SOL    HW111663   6.902   2.833   5.136
 3588SOL    HW211664   6.850   2.939   5.024
 3589SOL     OW11665   5.777   0.569   6.210
 3589SOL    HW111666   5.873   0.571   6.239
 3589SOL    HW211667   5.731   0.490   6.251
 3590SOL     OW11668   6.649   3.514   0.395
 3590SOL    HW111669   6.613   3.603   0.369
 3590SOL    HW211670   6.693   3.471   0.315
 3591SOL     OW11671   5.580   3.757   0.031
 3591SOL    HW111672   5.582   3.706   0.117
 3591SOL    HW211673   5.673   3.764   7.019
 3592SOL     OW11674   0.391   0.135   2.909
 3592SOL    HW111675   0.480   0.180   2.916
 3592SOL    HW211676   0.319   0.196   2.943
 3593SOL     OW11677   0.091   4.216   5.848
 3593SOL    HW111678   0.114   4.251   5.938
 3593SOL    HW211679   0.026   4.140   5.857
 3594SOL     OW11680   4.526   0.441   3.731
 3594SOL    HW111681   4.459   0.380   3.773
 3594SOL    HW211682   4.604   0.453   3.793
 3595SOL     OW11683   5.371   5.860   6.421
 3595SOL    HW111684   5.308   5.920   6.373
 3595SOL    HW211685   5.335   5.839   6.512
 3596SOL     OW11686   4.956   3.085   3.505
 3596SOL    HW111687   4.919   3.074   3.413
 3596SOL    HW211688   4.930   3.006   3.561
 3597SOL     OW11689   1.703   2.899   5.341
 3597SOL    HW111690   1.795   2.905   5.303
 3597SOL    HW211691   1.686   2.978   5.399
 3598SOL     OW11692   1.930   6.773   5.730
 3598SOL    HW111693   1.976   6.799   5.816
 3598SOL    HW211694   1.839   6.813   5.727
 3599SOL     OW11695   4.819   2.184   0.558
 3599SOL    HW111696   4.751   2.182   0.632
 3599SOL    HW211697   4.799   2.261   0.497
 3600SOL     OW11698   0.619   2.914   2.125
 3600SOL    HW111699   0.701   2.890   2.175
 3600SOL    HW211700   0.557   2.835   2.121
 3601SOL     OW11701   5.302   3.044   5.879
 3601SOL    HW111702   5.307   3.013   5.974
 3601SOL    HW211703   5.207   3.037   5.847
 3602SOL     OW11704   1.216   3.848   1.116
 3602SOL    HW111705   1.218   3.933   1.063
 3602SOL    HW211706   1.298   3.842   1.172
 3603SOL     OW11707   3.529   1.086   4.356
 3603SOL    HW111708   3.556   1.143   4.278
 3603SOL    HW211709   3.572   1.121   4.439
 3604SOL     OW11710   6.807   6.775   3.809
 3604SOL    HW111711   6.770   6.857   3.852
 3604SOL    HW211712   6.907   6.775   3.818
 3605SOL     OW11713   0.584   4.604   3.923
 3605SOL    HW111714   0.553   4.683   3.871
 3605SOL    HW211715   0.594   4.525   3.861
 3606SOL     OW11716   1.116   6.690   3.723
 3606SOL    HW111717   1.083   6.762   3.784
 3606SOL    HW211718   1.146   6.731   3.637
 3607SOL     OW11719   5.601   4.171   1.869
 3607SOL    HW111720   5.680   4.152   1.811
 3607SOL    HW211721   5.632   4.216   1.953
 3608SOL     OW11722   5.044   1.494   4.751
 3608SOL    HW111723   4.986   1.470   4.673
 3608SOL    HW211724   5.061   1.592   4.752
 3609SOL     OW11725   2.274   0.302   4.112
 3609SOL    HW111726   2.336   0.233   4.149
 3609SOL    HW211727   2.196   0.313   4.174
 3610SOL     OW11728   1.733   0.876   6.060
 3610SOL    HW111729   1.658   0.940   6.074
 3610SOL    HW211730   1.765   0.842   6.149
 3611SOL     OW11731   4.098   4.746   3.783
 3611SOL    HW111732   4.169   4.714   3.720
 3611SOL    HW211733   4.134   4.746   3.876
 3612SOL     OW11734   0.852   0.812   6.292
 3612SOL    HW111735   0.782   0.767   6.347
 3612SOL    HW211736   0.830   0.909   6.281
 3613SOL     OW11737   5.029   4.486   2.021
 3613SOL    HW111738   5.084   4.566   1.994
 3613SOL    HW211739   5.073   4.403   1.986
 3614SOL     OW11740   3.335   3.951   0.536
 3614SOL    HW111741   3.362   3.896   0.615
 3614SOL    HW211742   3.331   4.048   0.563
 3615SOL     OW11743   5.386   2.659   6.278
 3615SOL    HW111744   5.368   2.560   6.282
 3615SOL    HW211745   5.430   2.681   6.192
 3616SOL     OW11746   0.970   0.301   6.166
 3616SOL    HW111747   0.965   0.385   6.220
 3616SOL    HW211748   0.993   0.324   6.071
 3617SOL     OW11749   4.203   0.562   5.737
 3617SOL    HW111750   4.189   0.463   5.751
 3617SOL    HW211751   4.158   0.591   5.653
 3618SOL     OW11752   2.358   3.278   5.331
 3618SOL    HW111753   2.399   3.196   5.292
 3618SOL    HW211754   2.416   3.357   5.309
 3619SOL     OW11755   5.610   3.333   6.501
 3619SOL    HW111756   5.625   3.350   6.403
 3619SOL    HW211757   5.578   3.239   6.513
 3620SOL     OW11758   5.839   5.453   5.454
 3620SOL    HW111759   5.769   5.474   5.387
 3620SOL    HW211760   5.826   5.510   5.536
 3621SOL     OW11761   3.324   3.002   4.855
 3621SOL    HW111762   3.413   2.956   4.867
 3621SOL    HW211763   3.253   2.949   4.902
 3622SOL     OW11764   2.272   0.891   0.665
 3622SOL    HW111765   2.259   0.928   0.757
 3622SOL    HW211766   2.279   0.967   0.600
 3623SOL     OW11767   6.436   5.625   4.613
 3623SOL    HW111768   6.469   5.602   4.521
 3623SOL    HW211769   6.507   5.601   4.680
 3624SOL     OW11770   1.476   6.842   2.349
 3624SOL    HW111771   1.538   6.882   2.417
 3624SOL    HW211772   1.529   6.806   2.272
 3625SOL     OW11773   6.788   3.284   6.491
 3625SOL    HW111774   6.849   3.227   6.547
 3625SOL    HW211775   6.754   3.230   6.414
 3626SOL     OW11776   0.879   2.998   5.412
 3626SOL    HW111777   0.945   3.073   5.413
 3626SOL    HW211778   0.877   2.954   5.502
 3627SOL     OW11779   4.363   3.521   1.714
 3627SOL    HW111780   4.286   3.586   1.713
 3627SOL    HW211781   4.329   3.430   1.736
 3628SOL     OW11782   1.297   1.411   2.113
 3628SOL    HW111783   1.282   1.327   2.060
 3628SOL    HW211784   1.389   1.409   2.153
 3629SOL     OW11785   0.937   0.269   5.017
 3629SOL    HW111786   0.876   0.328   5.069
 3629SOL    HW211787   0.956   0.310   4.928
 3630SOL     OW11788   6.483   3.120   3.536
 3630SOL    HW111789   6.556   3.186   3.552
 3630SOL    HW211790   6.402   3.147   3.589
 3631SOL     OW11791   1.567   6.774   3.558
 3631SOL    HW111792   1.661   6.745   3.569
 3631SOL    HW211793   1.542   6.771   3.461
 3632SOL     OW11794   5.155   4.584   0.325
 3632SOL    HW111795   5.114   4.542   0.405
 3632SOL    HW211796   5.195   4.514   0.267
 3633SOL     OW11797   4.591   2.964   6.273
 3633SOL    HW111798   4.546   3.023   6.340
 3633SOL    HW211799   4.531   2.886   6.252
 3634SOL     OW11800   1.952   6.207   6.142
 3634SOL    HW111801   1.913   6.116   6.151
 3634SOL    HW211802   1.943   6.238   6.047
 3635SOL     OW11803   3.011   1.340   0.997
 3635SOL    HW111804   3.003   1.248   0.959
 3635SOL    HW211805   2.922   1.368   1.034
 3636SOL     OW11806   6.765   5.686   0.702
 3636SOL    HW111807   6.681   5.733   0.731
 3636SOL    HW211808   6.745   5.590   0.684
 3637SOL     OW11809   0.755   2.869   1.093
 3637SOL    HW111810   0.778   2.816   1.012
 3637SOL    HW211811   0.712   2.955   1.067
 3638SOL     OW11812   6.796   4.259   2.957
 3638SOL    HW111813   6.747   4.307   3.029
 3638SOL    HW211814   6.885   4.303   2.941
 3639SOL     OW11815   3.686   5.039   6.550
 3639SOL    HW111816   3.624   4.964   6.575
 3639SOL    HW211817   3.721   5.024   6.458
 3640SOL     OW11818   4.853   1.720   0.495
 3640SOL    HW111819   4.872   1.804   0.546
 3640SOL    HW211820   4.761   1.724   0.456
 3641SOL     OW11821   5.761   3.742   1.658
 3641SOL    HW111822   5.717   3.813   1.714
 3641SOL    HW211823   5.803   3.674   1.717
 3642SOL     OW11824   4.991   2.291   6.649
 3642SOL    HW111825   5.022   2.260   6.559
 3642SOL    HW211826   4.897   2.261   6.665
 3643SOL     OW11827   4.181   5.846   5.898
 3643SOL    HW111828   4.207   5.933   5.939
 3643SOL    HW211829   4.100   5.859   5.841
 3644SOL     OW11830   2.490   0.781   1.283
 3644SOL    HW111831   2.415   0.845   1.298
 3644SOL    HW211832   2.523   0.789   1.189
 3645SOL     OW11833   1.384   3.552   4.107
 3645SOL    HW111834   1.301   3.592   4.145
 3645SOL    HW211835   1.373   3.538   4.008
 3646SOL     OW11836   1.612   4.183   5.238
 3646SOL    HW111837   1.641   4.153   5.147
 3646SOL    HW211838   1.645   4.275   5.255
 3647SOL     OW11839   2.473   6.068   6.937
 3647SOL    HW111840   2.463   6.026   0.003
 3647SOL    HW211841   2.542   6.140   6.942
 3648SOL     OW11842   4.937   5.583   3.094
 3648SOL    HW111843   4.947   5.484   3.087
 3648SOL    HW211844   5.022   5.623   3.128
 3649SOL     OW11845   6.624   3.380   0.127
 3649SOL    HW111846   6.656   3.449   0.062
 3649SOL    HW211847   6.528   3.396   0.150
 3650SOL     OW11848   6.298   4.617   0.799
 3650SOL    HW111849   6.263   4.633   0.891
 3650SOL    HW211850   6.366   4.687   0.776
 3651SOL     OW11851   2.139   0.281   4.553
 3651SOL    HW111852   2.142   0.381   4.557
 3651SOL    HW211853   2.232   0.244   4.561
 3652SOL     OW11854   5.727   7.005   3.271
 3652SOL    HW111855   5.677   6.941   3.212
 3652SOL    HW211856   5.767   6.956   3.348
 3653SOL     OW11857   2.018   0.964   2.985
 3653SOL    HW111858   1.936   1.018   2.966
 3653SOL    HW211859   2.035   0.902   2.908
 3654SOL     OW11860   4.971   5.758   0.368
 3654SOL    HW111861   5.043   5.709   0.319
 3654SOL    HW211862   4.900   5.694   0.395
 3655SOL     OW11863   3.318   1.298   4.098
 3655SOL    HW111864   3.332   1.391   4.133
 3655SOL    HW211865   3.228   1.266   4.126
 3656SOL     OW11866   1.265   5.652   1.183
 3656SOL    HW111867   1.324   5.572   1.170
 3656SOL    HW211868   1.189   5.648   1.117
 3657SOL     OW11869   4.919   5.481   4.703
 3657SOL    HW111870   4.928   5.545   4.627
 3657SOL    HW211871   5.009   5.446   4.728
 3658SOL     OW11872   1.878   5.148   6.726
 3658SOL    HW111873   1.788   5.109   6.747
 3658SOL    HW211874   1.901   5.129   6.631
 3659SOL     OW11875   0.701   1.670   6.786
 3659SOL    HW111876   0.672   1.577   6.810
 3659SOL    HW211877   0.620   1.725   6.764
 3660SOL     OW11878   6.171   6.036   4.632
 3660SOL    HW111879   6.196   5.956   4.578
 3660SOL    HW211880   6.148   6.007   4.725
 3661SOL     OW11881   0.892   0.430   4.744
 3661SOL    HW111882   0.926   0.510   4.793
 3661SOL    HW211883   0.843   0.459   4.662
 3662SOL     OW11884   4.224   1.203   4.312
 3662SOL    HW111885   4.323   1.220   4.319
 3662SOL    HW211886   4.175   1.283   4.346
 3663SOL     OW11887   1.919   2.793   6.794
 3663SOL    HW111888   1.833   2.842   6.801
 3663SOL    HW211889   1.909   2.701   6.833
 3664SOL     OW11890   4.540   2.445   1.773
 3664SOL    HW111891   4.507   2.396   1.854
 3664SOL    HW211892   4.576   2.534   1.801
 3665SOL     OW11893   0.558   5.918   5.740
 3665SOL    HW111894   0.511   5.854   5.801
 3665SOL    HW211895   0.536   6.011   5.768
 3666SOL     OW11896   1.098   3.241   3.275
 3666SOL    HW111897   1.118   3.144   3.289
 3666SOL    HW211898   1.103   3.263   3.178
 3667SOL     OW11899   0.724   1.107   3.708
 3667SOL    HW111900   0.644   1.120   3.767
 3667SOL    HW211901   0.775   1.193   3.701
 3668SOL     OW11902   1.780   0.727   1.724
 3668SOL    HW111903   1.852   0.709   1.791
 3668SOL    HW211904   1.691   0.726   1.770
 3669SOL     OW11905   5.385   1.419   3.949
 3669SOL    HW111906   5.450   1.462   4.012
 3669SOL    HW211907   5.304   1.390   3.999
 3670SOL     OW11908   3.022   5.408   0.614
 3670SOL    HW111909   3.038   5.431   0.518
 3670SOL    HW211910   2.928   5.377   0.626
 3671SOL     OW11911   0.086   1.195   4.218
 3671SOL    HW111912   0.066   1.281   4.264
 3671SOL    HW211913   0.156   1.209   4.148
 3672SOL     OW11914   4.941   2.154   2.361
 3672SOL    HW111915   4.920   2.147   2.458
 3672SOL    HW211916   5.031   2.114   2.343
 3673SOL     OW11917   3.800   5.458   6.355
 3673SOL    HW111918   3.853   5.503   6.427
 3673SOL    HW211919   3.825   5.361   6.352
 3674SOL     OW11920   1.618   5.680   5.307
 3674SOL    HW111921   1.570   5.676   5.395
 3674SOL    HW211922   1.672   5.596   5.295
 3675SOL     OW11923   0.716   2.660   4.205
 3675SOL    HW111924   0.708   2.656   4.106
 3675SOL    HW211925   0.720   2.755   4.234
 3676SOL     OW11926   5.730   3.023   2.494
 3676SOL    HW111927   5.789   3.020   2.575
 3676SOL    HW211928   5.635   3.012   2.522
 3677SOL     OW11929   2.601   0.527   5.118
 3677SOL    HW111930   2.640   0.557   5.032
 3677SOL    HW211931   2.502   0.543   5.118
 3678SOL     OW11932   1.755   1.398   3.890
 3678SOL    HW111933   1.684   1.426   3.955
 3678SOL    HW211934   1.762   1.466   3.817
 3679SOL     OW11935   6.838   0.366   3.543
 3679SOL    HW111936   6.839   0.275   3.504
 3679SOL    HW211937   6.765   0.373   3.612
 3680SOL     OW11938   4.698   2.575   4.260
 3680SOL    HW111939   4.717   2.637   4.337
 3680SOL    HW211940   4.774   2.577   4.196
 3681SOL     OW11941   1.367   0.778   6.523
 3681SOL    HW111942   1.426   0.776   6.604
 3681SOL    HW211943   1.407   0.722   6.451
 3682SOL     OW11944   5.533   2.689   0.319
 3682SOL    HW111945   5.487   2.642   0.394
 3682SOL    HW211946   5.600   2.753   0.356
 3683SOL     OW11947   0.435   0.924   4.272
 3683SOL    HW111948   0.505   0.991   4.248
 3683SOL    HW211949   0.411   0.871   4.191
 3684SOL     OW11950   1.226   5.620   0.024
 3684SOL    HW111951   1.180   5.708   0.010
 3684SOL    HW211952   1.240   5.575   6.961
 3685SOL     OW11953   2.605   6.197   5.597
 3685SOL    HW111954   2.684   6.220   5.653
 3685SOL    HW211955   2.620   6.107   5.555
 3686SOL     OW11956   6.336   4.518   4.049
 3686SOL    HW111957   6.405   4.584   4.018
 3686SOL    HW211958   6.380   4.431   4.068
 3687SOL     OW11959   4.690   6.622   3.657
 3687SOL    HW111960   4.709   6.676   3.739
 3687SOL    HW211961   4.698   6.680   3.576
 3688SOL     OW11962   6.264   3.302   6.564
 3688SOL    HW111963   6.250   3.402   6.565
 3688SOL    HW211964   6.175   3.257   6.553
 3689SOL     OW11965   2.628   2.222   5.626
 3689SOL    HW111966   2.724   2.229   5.599
 3689SOL    HW211967   2.570   2.238   5.546
 3690SOL     OW11968   4.716   6.010   1.147
 3690SOL    HW111969   4.792   6.045   1.203
 3690SOL    HW211970   4.658   6.087   1.119
 3691SOL     OW11971   2.839   2.069   5.896
 3691SOL    HW111972   2.817   2.023   5.810
 3691SOL    HW211973   2.918   2.129   5.882
 3692SOL     OW11974   6.644   4.329   6.113
 3692SOL    HW111975   6.557   4.357   6.153
 3692SOL    HW211976   6.669   4.238   6.145
 3693SOL     OW11977   2.060   1.618   2.842
 3693SOL    HW111978   2.115   1.621   2.926
 3693SOL    HW211979   2.027   1.525   2.827
 3694SOL     OW11980   1.605   6.781   1.829
 3694SOL    HW111981   1.680   6.797   1.766
 3694SOL    HW211982   1.522   6.825   1.794
 3695SOL     OW11983   5.979   1.622   1.976
 3695SOL    HW111984   5.943   1.677   1.901
 3695SOL    HW211985   6.016   1.537   1.939
 3696SOL     OW11986   4.081   0.128   5.598
 3696SOL    HW111987   4.090   0.045   5.544
 3696SOL    HW211988   4.060   0.205   5.538
 3697SOL     OW11989   6.790   6.243   2.767
 3697SOL    HW111990   6.756   6.221   2.859
 3697SOL    HW211991   6.826   6.336   2.767
 3698SOL     OW11992   2.310   0.944   3.768
 3698SOL    HW111993   2.251   0.933   3.848
 3698SOL    HW211994   2.255   0.940   3.685
 3699SOL     OW11995   1.951   1.935   3.405
 3699SOL    HW111996   1.992   1.892   3.486
 3699SOL    HW211997   2.023   1.961   3.341
 3700SOL     OW11998   1.382   5.227   4.625
 3700SOL    HW111999   1.314   5.189   4.687
 3700SOL    HW212000   1.472   5.223   4.668
 3701SOL     OW12001   0.909   6.450   2.820
 3701SOL    HW112002   0.811   6.465   2.825
 3701SOL    HW212003   0.941   6.405   2.903
 3702SOL     OW12004   5.732   6.574   3.423
 3702SOL    HW112005   5.743   6.532   3.333
 3702SOL    HW212006   5.724   6.673   3.413
 3703SOL     OW12007   0.666   0.269   6.757
 3703SOL    HW112008   0.638   0.329   6.683
 3703SOL    HW212009   0.632   0.176   6.740
 3704SOL     OW12010   5.716   2.888   0.981
 3704SOL    HW112011   5.642   2.823   0.970
 3704SOL    HW212012   5.679   2.981   0.979
 3705SOL     OW12013   4.817   4.927   3.825
 3705SOL    HW112014   4.800   4.905   3.729
 3705SOL    HW212015   4.915   4.920   3.844
 3706SOL     OW12016   0.771   4.331   0.026
 3706SOL    HW112017   0.763   4.240   0.064
 3706SOL    HW212018   0.718   4.338   6.966
 3707SOL     OW12019   4.272   5.635   3.972
 3707SOL    HW112020   4.357   5.650   3.923
 3707SOL    HW212021   4.291   5.594   4.062
 3708SOL     OW12022   4.537   6.763   0.893
 3708SOL    HW112023   4.495   6.841   0.939
 3708SOL    HW212024   4.636   6.764   0.908
 3709SOL     OW12025   2.489   0.181   1.379
 3709SOL    HW112026   2.451   0.212   1.292
 3709SOL    HW212027   2.450   0.235   1.454
 3710SOL     OW12028   0.649   5.494   4.938
 3710SOL    HW112029   0.559   5.530   4.912
 3710SOL    HW212030   0.655   5.489   5.038
 3711SOL     OW12031   1.074   5.958   4.496
 3711SOL    HW112032   1.142   5.891   4.525
 3711SOL    HW212033   1.120   6.030   4.443
 3712SOL     OW12034   1.549   5.927   0.275
 3712SOL    HW112035   1.479   5.914   0.345
 3712SOL    HW212036   1.639   5.921   0.317
 3713SOL     OW12037   1.129   0.744   4.575
 3713SOL    HW112038   1.052   0.741   4.511
 3713SOL    HW212039   1.211   0.707   4.530
 3714SOL     OW12040   6.433   5.173   6.718
 3714SOL    HW112041   6.387   5.165   6.630
 3714SOL    HW212042   6.402   5.100   6.779
 3715SOL     OW12043   0.792   4.930   2.470
 3715SOL    HW112044   0.714   4.882   2.510
 3715SOL    HW212045   0.872   4.919   2.529
 3716SOL     OW12046   6.001   5.475   4.514
 3716SOL    HW112047   6.045   5.386   4.503
 3716SOL    HW212048   6.016   5.508   4.607
 3717SOL     OW12049   6.160   1.268   0.848
 3717SOL    HW112050   6.237   1.300   0.792
 3717SOL    HW212051   6.102   1.208   0.794
 3718SOL     OW12052   6.613   0.324   6.786
 3718SOL    HW112053   6.591   0.298   6.880
 3718SOL    HW212054   6.529   0.342   6.736
 3719SOL     OW12055   3.966   3.352   6.390
 3719SOL    HW112056   4.051   3.302   6.376
 3719SOL    HW212057   3.970   3.400   6.478
 3720SOL     OW12058   5.567   4.074   0.562
 3720SOL    HW112059   5.578   4.021   0.478
 3720SOL    HW212060   5.589   4.016   0.641
 3721SOL     OW12061   0.112   5.153   0.665
 3721SOL    HW112062   0.110   5.180   0.761
 3721SOL    HW212063   0.206   5.133   0.638
 3722SOL     OW12064   5.269   6.389   1.643
 3722SOL    HW112065   5.337   6.319   1.665
 3722SOL    HW212066   5.177   6.350   1.651
 3723SOL     OW12067   5.092   5.566   0.219
 3723SOL    HW112068   5.025   5.589   0.149
 3723SOL    HW212069   5.182   5.603   0.194
 3724SOL     OW12070   1.415   4.775   5.339
 3724SOL    HW112071   1.355   4.825   5.400
 3724SOL    HW212072   1.486   4.729   5.392
 3725SOL     OW12073   0.484   6.102   6.827
 3725SOL    HW112074   0.464   6.034   6.898
 3725SOL    HW212075   0.563   6.072   6.773
 3726SOL     OW12076   5.396   3.788   5.940
 3726SOL    HW112077   5.481   3.823   5.977
 3726SOL    HW212078   5.395   3.688   5.946
 3727SOL     OW12079   6.695   3.290   5.103
 3727SOL    HW112080   6.599   3.260   5.104
 3727SOL    HW212081   6.699   3.389   5.097
 3728SOL     OW12082   2.571   3.957   6.678
 3728SOL    HW112083   2.627   3.878   6.652
 3728SOL    HW212084   2.612   4.041   6.642
 3729SOL     OW12085   0.701   0.481   4.191
 3729SOL    HW112086   0.618   0.510   4.240
 3729SOL    HW212087   0.781   0.523   4.234
 3730SOL     OW12088   3.921   6.074   5.689
 3730SOL    HW112089   3.919   6.130   5.606
 3730SOL    HW212090   3.828   6.064   5.724
 3731SOL     OW12091   0.198   1.257   0.084
 3731SOL    HW112092   0.285   1.210   0.071
 3731SOL    HW212093   0.200   1.309   0.169
 3732SOL     OW12094   1.853   2.303   0.571
 3732SOL    HW112095   1.781   2.283   0.505
 3732SOL    HW212096   1.853   2.233   0.642
 3733SOL     OW12097   2.044   2.306   3.665
 3733SOL    HW112098   1.948   2.317   3.689
 3733SOL    HW212099   2.094   2.389   3.688
 3734SOL     OW12100   4.339   0.531   1.417
 3734SOL    HW112101   4.428   0.501   1.385
 3734SOL    HW212102   4.310   0.611   1.364
 3735SOL     OW12103   4.043   0.611   2.623
 3735SOL    HW112104   4.009   0.673   2.553
 3735SOL    HW212105   3.977   0.537   2.637
 3736SOL     OW12106   0.089   1.226   0.919
 3736SOL    HW112107   0.139   1.304   0.881
 3736SOL    HW212108   0.154   1.156   0.948
 3737SOL     OW12109   6.083   1.839   3.366
 3737SOL    HW112110   6.162   1.779   3.377
 3737SOL    HW212111   6.038   1.851   3.455
 3738SOL     OW12112   6.485   6.366   1.163
 3738SOL    HW112113   6.518   6.418   1.083
 3738SOL    HW212114   6.561   6.320   1.207
 3739SOL     OW12115   2.743   4.432   1.649
 3739SOL    HW112116   2.754   4.472   1.558
 3739SOL    HW212117   2.818   4.462   1.708
 3740SOL     OW12118   6.053   5.575   0.270
 3740SOL    HW112119   6.124   5.550   0.336
 3740SOL    HW212120   5.963   5.558   0.311
 3741SOL     OW12121   4.010   2.977   6.726
 3741SOL    HW112122   4.075   2.991   6.651
 3741SOL    HW212123   3.935   2.919   6.695
 3742SOL     OW12124   4.321   0.316   0.604
 3742SOL    HW112125   4.235   0.272   0.629
 3742SOL    HW212126   4.302   0.407   0.566
 3743SOL     OW12127   5.392   3.790   1.402
 3743SOL    HW112128   5.332   3.860   1.440
 3743SOL    HW212129   5.487   3.817   1.415
 3744SOL     OW12130   1.259   6.564   2.624
 3744SOL    HW112131   1.236   6.472   2.655
 3744SOL    HW212132   1.359   6.575   2.626
 3745SOL     OW12133   5.437   4.028   2.494
 3745SOL    HW112134   5.442   3.932   2.466
 3745SOL    HW212135   5.530   4.067   2.494
 3746SOL     OW12136   5.874   0.394   3.297
 3746SOL    HW112137   5.829   0.477   3.332
 3746SOL    HW212138   5.908   0.340   3.374
 3747SOL     OW12139   5.092   6.742   5.703
 3747SOL    HW112140   5.052   6.725   5.612
 3747SOL    HW212141   5.187   6.709   5.704
 3748SOL     OW12142   5.266   0.501   2.207
 3748SOL    HW112143   5.352   0.508   2.257
 3748SOL    HW212144   5.225   0.592   2.199
 3749SOL     OW12145   2.104   4.629   3.615
 3749SOL    HW112146   2.197   4.611   3.647
 3749SOL    HW212147   2.078   4.559   3.549
 3750SOL     OW12148   5.913   4.247   1.004
 3750SOL    HW112149   5.916   4.261   1.103
 3750SOL    HW212150   5.833   4.192   0.980
 3751SOL     OW12151   0.126   2.953   0.918
 3751SOL    HW112152   0.103   3.003   1.002
 3751SOL    HW212153   0.069   2.871   0.912
 3752SOL     OW12154   0.799   6.742   0.603
 3752SOL    HW112155   0.716   6.797   0.608
 3752SOL    HW212156   0.861   6.781   0.534
 3753SOL     OW12157   0.268   0.176   4.284
 3753SOL    HW112158   0.245   0.080   4.268
 3753SOL    HW212159   0.190   0.222   4.326
 3754SOL     OW12160   4.673   6.183   1.820
 3754SOL    HW112161   4.600   6.245   1.790
 3754SOL    HW212162   4.733   6.163   1.743
 3755SOL     OW12163   5.468   5.674   5.059
 3755SOL    HW112164   5.386   5.616   5.064
 3755SOL    HW212165   5.514   5.659   4.972
 3756SOL     OW12166   1.849   0.344   6.145
 3756SOL    HW112167   1.870   0.399   6.064
 3756SOL    HW212168   1.751   0.327   6.149
 3757SOL     OW12169   3.980   6.104   6.895
 3757SOL    HW112170   3.970   6.071   6.801
 3757SOL    HW212171   3.898   6.154   6.922
 3758SOL     OW12172   1.606   1.299   4.419
 3758SOL    HW112173   1.510   1.288   4.394
 3758SOL    HW212174   1.632   1.225   4.480
 3759SOL     OW12175   3.985   4.928   5.667
 3759SOL    HW112176   3.959   4.947   5.572
 3759SOL    HW212177   4.084   4.935   5.676
 3760SOL     OW12178   0.983   3.481   4.491
 3760SOL    HW112179   1.081   3.480   4.507
 3760SOL    HW212180   0.957   3.405   4.432
 3761SOL     OW12181   0.733   6.793   4.964
 3761SOL    HW112182   0.667   6.819   4.894
 3761SOL    HW212183   0.694   6.720   5.021
 3762SOL     OW12184   0.965   5.547   6.780
 3762SOL    HW112185   0.922   5.635   6.799
 3762SOL    HW212186   0.919   5.503   6.703
 3763SOL     OW12187   6.610   4.901   0.075
 3763SOL    HW112188   6.603   4.802   0.061
 3763SOL    HW212189   6.685   4.937   0.019
 3764SOL     OW12190   2.013   0.596   3.906
 3764SOL    HW112191   2.062   0.542   3.974
 3764SOL    HW212192   2.075   0.619   3.831
 3765SOL     OW12193   5.357   1.699   1.646
 3765SOL    HW112194   5.360   1.799   1.649
 3765SOL    HW212195   5.298   1.665   1.720
 3766SOL     OW12196   1.052   1.297   4.538
 3766SOL    HW112197   1.015   1.350   4.614
 3766SOL    HW212198   1.046   1.199   4.560
 3767SOL     OW12199   2.249   5.447   0.295
 3767SOL    HW112200   2.237   5.536   0.252
 3767SOL    HW212201   2.182   5.383   0.258
 3768SOL     OW12202   2.216   5.612   5.481
 3768SOL    HW112203   2.288   5.593   5.548
 3768SOL    HW212204   2.174   5.701   5.502
 3769SOL     OW12205   5.624   5.382   5.055
 3769SOL    HW112206   5.708   5.383   5.000
 3769SOL    HW212207   5.607   5.289   5.089
 3770SOL     OW12208   1.707   0.698   6.881
 3770SOL    HW112209   1.719   0.645   6.965
 3770SOL    HW212210   1.727   0.640   6.802
 3771SOL     OW12211   5.554   2.252   7.019
 3771SOL    HW112212   5.573   2.350   7.022
 3771SOL    HW212213   5.461   2.235   0.030
 3772SOL     OW12214   6.726   1.405   0.412
 3772SOL    HW112215   6.726   1.354   0.498
 3772SOL    HW212216   6.808   1.461   0.406
 3773SOL     OW12217   6.101   3.190   6.066
 3773SOL    HW112218   6.184   3.222   6.020
 3773SOL    HW212219   6.126   3.137   6.147
 3774SOL     OW12220   0.587   6.451   6.707
 3774SOL    HW112221   0.658   6.410   6.765
 3774SOL    HW212222   0.534   6.516   6.762
 3775SOL     OW12223   5.335   4.250   2.193
 3775SOL    HW112224   5.290   4.175   2.144
 3775SOL    HW212225   5.286   4.267   2.279
 3776SOL     OW12226   3.494   0.878   1.038
 3776SOL    HW112227   3.567   0.943   1.021
 3776SOL    HW212228   3.444   0.860   0.953
 3777SOL     OW12229   3.154   4.879   4.299
 3777SOL    HW112230   3.063   4.844   4.323
 3777SOL    HW212231   3.184   4.944   4.369
 3778SOL     OW12232   2.833   5.340   3.535
 3778SOL    HW112233   2.909   5.331   3.471
 3778SOL    HW212234   2.823   5.255   3.587
 3779SOL     OW12235   1.947   4.477   0.923
 3779SOL    HW112236   1.874   4.468   0.991
 3779SOL    HW212237   1.964   4.574   0.905
 3780SOL     OW12238   4.606   4.714   5.608
 3780SOL    HW112239   4.602   4.742   5.513
 3780SOL    HW212240   4.585   4.792   5.667
 3781SOL     OW12241   1.357   6.622   4.379
 3781SOL    HW112242   1.292   6.677   4.431
 3781SOL    HW212243   1.307   6.561   4.316
 3782SOL     OW12244   3.007   2.247   4.282
 3782SOL    HW112245   2.974   2.153   4.273
 3782SOL    HW212246   3.090   2.259   4.227
 3783SOL     OW12247   5.509   6.195   5.463
 3783SOL    HW112248   5.540   6.271   5.521
 3783SOL    HW212249   5.588   6.142   5.432
 3784SOL     OW12250   5.081   1.976   3.592
 3784SOL    HW112251   5.113   1.901   3.533
 3784SOL    HW212252   5.099   2.063   3.547
 3785SOL     OW12253   1.739   1.063   0.180
 3785SOL    HW112254   1.835   1.039   0.194
 3785SOL    HW212255   1.730   1.124   0.102
 3786SOL     OW12256   2.908   6.565   3.072
 3786SOL    HW112257   2.817   6.594   3.102
 3786SOL    HW212258   2.900   6.484   3.014
 3787SOL     OW12259   5.927   6.108   3.441
 3787SOL    HW112260   5.958   6.186   3.496
 3787SOL    HW212261   5.831   6.091   3.459
 3788SOL     OW12262   0.294   3.110   3.616
 3788SOL    HW112263   0.249   3.035   3.566
 3788SOL    HW212264   0.375   3.140   3.565
 3789SOL     OW12265   0.924   2.996   4.231
 3789SOL    HW112266   0.833   2.973   4.265
 3789SOL    HW212267   0.916   3.040   4.142
 3790SOL     OW12268   1.554   3.695   5.099
 3790SOL    HW112269   1.603   3.781   5.085
 3790SOL    HW212270   1.611   3.619   5.069
 3791SOL     OW12271   6.175   6.964   0.964
 3791SOL    HW112272   6.217   6.904   1.033
 3791SOL    HW212273   6.089   7.000   1.000
 3792SOL     OW12274   6.793   0.954   4.192
 3792SOL    HW112275   6.864   0.963   4.123
 3792SOL    HW212276   6.826   0.987   4.280
 3793SOL     OW12277   3.850   6.755   2.888
 3793SOL    HW112278   3.866   6.659   2.865
 3793SOL    HW212279   3.929   6.809   2.858
 3794SOL     OW12280   3.090   4.695   1.402
 3794SOL    HW112281   3.147   4.636   1.460
 3794SOL    HW212282   3.113   4.680   1.306
 3795SOL     OW12283   3.610   6.721   7.008
 3795SOL    HW112284   3.544   6.767   0.044
 3795SOL    HW212285   3.562   6.651   6.954
 3796SOL     OW12286   2.986   2.272   1.248
 3796SOL    HW112287   3.065   2.234   1.199
 3796SOL    HW212288   2.945   2.201   1.306
 3797SOL     OW12289   6.363   4.406   2.557
 3797SOL    HW112290   6.278   4.411   2.609
 3797SOL    HW212291   6.418   4.329   2.591
 3798SOL     OW12292   3.724   5.640   3.313
 3798SOL    HW112293   3.812   5.662   3.355
 3798SOL    HW212294   3.670   5.585   3.376
 3799SOL     OW12295   0.047   2.592   4.784
 3799SOL    HW112296   6.972   2.600   4.796
 3799SOL    HW212297   0.087   2.549   4.865
 3800SOL     OW12298   5.187   3.013   4.708
 3800SOL    HW112299   5.185   2.981   4.613
 3800SOL    HW212300   5.158   2.939   4.768
 3801SOL     OW12301   0.001   6.328   3.843
 3801SOL    HW112302   0.079   6.269   3.821
 3801SOL    HW212303   6.948   6.305   3.784
 3802SOL     OW12304   0.070   1.888   3.946
 3802SOL    HW112305   7.004   1.874   3.985
 3802SOL    HW212306   0.138   1.835   3.997
 3803SOL     OW12307   3.870   2.016   1.456
 3803SOL    HW112308   3.822   2.079   1.516
 3803SOL    HW212309   3.862   1.923   1.492
 3804SOL     OW12310   5.208   1.863   4.021
 3804SOL    HW112311   5.120   1.815   4.022
 3804SOL    HW212312   5.275   1.809   3.970
 3805SOL     OW12313   2.631   3.638   1.650
 3805SOL    HW112314   2.607   3.602   1.560
 3805SOL    HW212315   2.578   3.721   1.668
 3806SOL     OW12316   2.380   3.898   0.231
 3806SOL    HW112317   2.430   3.919   0.146
 3806SOL    HW212318   2.358   3.800   0.233
 3807SOL     OW12319   2.394   0.882   3.471
 3807SOL    HW112320   2.438   0.972   3.468
 3807SOL    HW212321   2.299   0.890   3.440
 3808SOL     OW12322   4.062   0.995   1.029
 3808SOL    HW112323   4.046   0.993   1.128
 3808SOL    HW212324   4.062   1.090   0.997
 3809SOL     OW12325   6.313   2.751   0.481
 3809SOL    HW112326   6.366   2.831   0.452
 3809SOL    HW212327   6.365   2.700   0.550
 3810SOL     OW12328   4.404   2.693   5.348
 3810SOL    HW112329   4.497   2.666   5.371
 3810SOL    HW212330   4.369   2.756   5.418
 3811SOL     OW12331   0.396   4.705   4.554
 3811SOL    HW112332   0.396   4.626   4.616
 3811SOL    HW212333   0.485   4.713   4.510
 3812SOL     OW12334   5.716   1.123   5.356
 3812SOL    HW112335   5.633   1.157   5.401
 3812SOL    HW212336   5.691   1.054   5.287
 3813SOL     OW12337   3.738   3.988   0.738
 3813SOL    HW112338   3.709   3.989   0.834
 3813SOL    HW212339   3.676   4.044   0.684
 3814SOL     OW12340   0.015   6.624   1.258
 3814SOL    HW112341   6.966   6.560   1.233
 3814SOL    HW212342   0.004   6.651   1.354
 3815SOL     OW12343   4.885   2.675   0.391
 3815SOL    HW112344   4.978   2.645   0.369
 3815SOL    HW212345   4.887   2.769   0.425
 3816SOL     OW12346   6.896   5.841   0.499
 3816SOL    HW112347   6.826   5.808   0.562
 3816SOL    HW212348   6.858   5.914   0.442
 3817SOL     OW12349   4.826   2.946   3.700
 3817SOL    HW112350   4.865   2.855   3.687
 3817SOL    HW212351   4.792   2.955   3.794
 3818SOL     OW12352   5.450   0.355   0.680
 3818SOL    HW112353   5.411   0.265   0.663
 3818SOL    HW212354   5.378   0.418   0.710
 3819SOL     OW12355   5.613   5.546   0.634
 3819SOL    HW112356   5.514   5.535   0.622
 3819SOL    HW212357   5.644   5.487   0.709
 3820SOL     OW12358   6.925   6.632   4.125
 3820SOL    HW112359   6.839   6.681   4.144
 3820SOL    HW212360   6.994   6.660   4.192
 3821SOL     OW12361   1.820   3.014   1.803
 3821SOL    HW112362   1.898   2.961   1.835
 3821SOL    HW212363   1.816   3.013   1.704
 3822SOL     OW12364   1.111   5.638   2.583
 3822SOL    HW112365   1.178   5.708   2.606
 3822SOL    HW212366   1.096   5.579   2.663
 3823SOL     OW12367   4.053   2.439   5.732
 3823SOL    HW112368   3.982   2.403   5.672
 3823SOL    HW212369   4.019   2.440   5.826
 3824SOL     OW12370   6.348   1.638   5.988
 3824SOL    HW112371   6.253   1.613   5.972
 3824SOL    HW212372   6.393   1.565   6.040
 3825SOL     OW12373   0.297   0.361   1.007
 3825SOL    HW112374   0.359   0.439   1.004
 3825SOL    HW212375   0.345   0.280   1.041
 3826SOL     OW12376   0.936   3.864   6.587
 3826SOL    HW112377   0.922   3.784   6.645
 3826SOL    HW212378   0.851   3.885   6.539
 3827SOL     OW12379   3.243   3.249   0.555
 3827SOL    HW112380   3.266   3.191   0.633
 3827SOL    HW212381   3.327   3.278   0.509
 3828SOL     OW12382   4.530   2.302   1.204
 3828SOL    HW112383   4.619   2.276   1.240
 3828SOL    HW212384   4.542   2.366   1.128
 3829SOL     OW12385   2.337   4.670   4.229
 3829SOL    HW112386   2.366   4.597   4.290
 3829SOL    HW212387   2.375   4.757   4.260
 3830SOL     OW12388   0.815   0.620   4.511
 3830SOL    HW112389   0.866   0.584   4.432
 3830SOL    HW212390   0.741   0.679   4.478
 3831SOL     OW12391   4.546   1.672   2.329
 3831SOL    HW112392   4.460   1.685   2.379
 3831SOL    HW212393   4.542   1.722   2.243
 3832SOL     OW12394   5.854   0.910   2.196
 3832SOL    HW112395   5.893   0.928   2.105
 3832SOL    HW212396   5.907   0.838   2.240
 3833SOL     OW12397   0.917   5.943   5.863
 3833SOL    HW112398   0.925   5.969   5.959
 3833SOL    HW212399   0.872   6.016   5.811
 3834SOL     OW12400   3.439   2.838   0.764
 3834SOL    HW112401   3.364   2.779   0.795
 3834SOL    HW212402   3.516   2.829   0.826
 3835SOL     OW12403   3.102   4.824   5.033
 3835SOL    HW112404   3.005   4.810   5.055
 3835SOL    HW212405   3.148   4.736   5.027
 3836SOL     OW12406   2.109   3.655   4.925
 3836SOL    HW112407   2.139   3.611   5.010
 3836SOL    HW212408   2.132   3.753   4.929
 3837SOL     OW12409   4.713   3.163   6.900
 3837SOL    HW112410   4.792   3.218   6.872
 3837SOL    HW212411   4.733   3.066   6.885
 3838SOL     OW12412   6.432   4.230   4.341
 3838SOL    HW112413   6.476   4.140   4.343
 3838SOL    HW212414   6.342   4.222   4.299
 3839SOL     OW12415   4.238   0.337   4.178
 3839SOL    HW112416   4.222   0.248   4.220
 3839SOL    HW212417   4.180   0.348   4.097
 3840SOL     OW12418   1.850   1.200   5.769
 3840SOL    HW112419   1.784   1.234   5.836
 3840SOL    HW212420   1.868   1.104   5.787
 3841SOL     OW12421   0.020   3.349   4.907
 3841SOL    HW112422   0.028   3.371   5.004
 3841SOL    HW212423   7.003   3.426   4.859
 3842SOL     OW12424   1.301   4.828   0.222
 3842SOL    HW112425   1.265   4.848   0.131
 3842SOL    HW212426   1.377   4.765   0.215
 3843SOL     OW12427   6.929   3.728   1.373
 3843SOL    HW112428   6.993   3.803   1.390
 3843SOL    HW212429   6.977   3.641   1.383
 3844SOL     OW12430   0.058   4.585   5.637
 3844SOL    HW112431   6.991   4.547   5.652
 3844SOL    HW212432   0.127   4.514   5.657
 3845SOL     OW12433   3.362   2.901   2.644
 3845SOL    HW112434   3.291   2.925   2.710
 3845SOL    HW212435   3.437   2.854   2.691
 3846SOL     OW12436   0.152   4.248   4.127
 3846SOL    HW112437   0.155   4.326   4.190
 3846SOL    HW212438   0.191   4.275   4.039
 3847SOL     OW12439   6.564   1.780   5.940
 3847SOL    HW112440   6.589   1.751   5.847
 3847SOL    HW212441   6.486   1.726   5.971
 3848SOL     OW12442   2.672   5.549   3.275
 3848SOL    HW112443   2.708   5.615   3.342
 3848SOL    HW212444   2.633   5.471   3.324
 3849SOL     OW12445   0.688   0.858   5.535
 3849SOL    HW112446   0.724   0.871   5.628
 3849SOL    HW212447   0.743   0.911   5.471
 3850SOL     OW12448   2.110   3.647   1.860
 3850SOL    HW112449   2.128   3.640   1.762
 3850SOL    HW212450   2.147   3.566   1.907
 3851SOL     OW12451   1.392   4.304   2.740
 3851SOL    HW112452   1.299   4.268   2.735
 3851SOL    HW212453   1.398   4.373   2.812
 3852SOL     OW12454   4.848   0.031   4.834
 3852SOL    HW112455   4.779   0.096   4.865
 3852SOL    HW212456   4.937   0.077   4.829
 3853SOL     OW12457   1.442   3.661   2.800
 3853SOL    HW112458   1.540   3.681   2.804
 3853SOL    HW212459   1.429   3.568   2.766
 3854SOL     OW12460   0.457   4.063   3.101
 3854SOL    HW112461   0.409   3.994   3.155
 3854SOL    HW212462   0.541   4.024   3.065
 3855SOL     OW12463   5.540   5.568   6.731
 3855SOL    HW112464   5.594   5.532   6.807
 3855SOL    HW212465   5.601   5.607   6.662
 3856SOL     OW12466   0.129   6.339   4.872
 3856SOL    HW112467   0.218   6.337   4.919
 3856SOL    HW212468   0.103   6.433   4.854
 3857SOL     OW12469   1.233   6.476   5.338
 3857SOL    HW112470   1.319   6.526   5.331
 3857SOL    HW212471   1.161   6.537   5.371
 3858SOL     OW12472   1.238   6.013   6.409
 3858SOL    HW112473   1.246   5.915   6.387
 3858SOL    HW212474   1.144   6.043   6.390
 3859SOL     OW12475   0.168   1.737   2.918
 3859SOL    HW112476   0.140   1.663   2.979
 3859SOL    HW212477   0.120   1.821   2.942
 3860SOL     OW12478   2.147   6.233   4.485
 3860SOL    HW112479   2.205   6.152   4.491
 3860SOL    HW212480   2.185   6.298   4.420
 3861SOL     OW12481   5.582   4.531   1.303
 3861SOL    HW112482   5.521   4.474   1.248
 3861SOL    HW212483   5.626   4.474   1.372
 3862SOL     OW12484   6.834   6.862   5.304
 3862SOL    HW112485   6.772   6.859   5.225
 3862SOL    HW212486   6.909   6.925   5.284
 3863SOL     OW12487   3.783   4.299   0.099
 3863SOL    HW112488   3.851   4.310   0.027
 3863SOL    HW212489   3.722   4.223   0.076
 3864SOL     OW12490   4.124   2.203   6.048
 3864SOL    HW112491   4.130   2.167   6.141
 3864SOL    HW212492   4.200   2.167   5.993
 3865SOL     OW12493   4.014   0.647   1.576
 3865SOL    HW112494   3.998   0.668   1.480
 3865SOL    HW212495   3.940   0.685   1.632
 3866SOL     OW12496   4.264   0.857   0.548
 3866SOL    HW112497   4.327   0.933   0.565
 3866SOL    HW212498   4.241   0.853   0.451
 3867SOL     OW12499   2.133   3.754   3.850
 3867SOL    HW112500   2.156   3.731   3.944
 3867SOL    HW212501   2.036   3.776   3.843
 3868SOL     OW12502   2.100   5.956   1.947
 3868SOL    HW112503   2.041   5.970   2.027
 3868SOL    HW212504   2.187   5.916   1.977
 3869SOL     OW12505   0.316   2.414   4.165
 3869SOL    HW112506   0.354   2.468   4.091
 3869SOL    HW212507   0.333   2.317   4.149
 3870SOL     OW12508   4.005   5.408   0.132
 3870SOL    HW112509   3.908   5.409   0.108
 3870SOL    HW212510   4.017   5.444   0.224
 3871SOL     OW12511   3.673   0.212   2.613
 3871SOL    HW112512   3.753   0.183   2.665
 3871SOL    HW212513   3.605   0.250   2.676
 3872SOL     OW12514   3.923   3.000   1.112
 3872SOL    HW112515   3.953   3.063   1.184
 3872SOL    HW212516   3.947   2.907   1.136
 3873SOL     OW12517   5.508   5.781   1.484
 3873SOL    HW112518   5.554   5.742   1.404
 3873SOL    HW212519   5.421   5.734   1.498
 3874SOL     OW12520   3.887   6.793   0.407
 3874SOL    HW112521   3.836   6.864   0.455
 3874SOL    HW212522   3.900   6.714   0.468
 3875SOL     OW12523   1.018   3.800   2.944
 3875SOL    HW112524   1.109   3.790   2.903
 3875SOL    HW212525   1.001   3.723   3.005
 3876SOL     OW12526   4.639   4.857   6.368
 3876SOL    HW112527   4.723   4.887   6.323
 3876SOL    HW212528   4.562   4.911   6.334
 3877SOL     OW12529   6.909   1.625   1.191
 3877SOL    HW112530   6.881   1.659   1.280
 3877SOL    HW212531   6.867   1.535   1.175
 3878SOL     OW12532   2.913   5.912   6.101
 3878SOL    HW112533   2.924   5.985   6.168
 3878SOL    HW212534   2.816   5.889   6.092
 3879SOL     OW12535   4.808   5.601   1.275
 3879SOL    HW112536   4.773   5.509   1.258
 3879SOL    HW212537   4.746   5.669   1.235
 3880SOL     OW12538   6.090   4.089   2.813
 3880SOL    HW112539   6.009   4.033   2.828
 3880SOL    HW212540   6.171   4.030   2.808
 3881SOL     OW12541   1.507   5.321   0.791
 3881SOL    HW112542   1.534   5.391   0.857
 3881SOL    HW212543   1.424   5.351   0.743
 3882SOL     OW12544   6.687   0.858   5.758
 3882SOL    HW112545   6.636   0.944   5.755
 3882SOL    HW212546   6.669   0.806   5.675
 3883SOL     OW12547   5.007   1.451   4.305
 3883SOL    HW112548   4.965   1.533   4.265
 3883SOL    HW212549   5.041   1.392   4.232
 3884SOL     OW12550   1.457   6.303   4.352
 3884SOL    HW112551   1.426   6.268   4.440
 3884SOL    HW212552   1.382   6.350   4.306
 3885SOL     OW12553   6.466   0.946   4.655
 3885SOL    HW112554   6.465   0.857   4.610
 3885SOL    HW212555   6.438   0.936   4.750
 3886SOL     OW12556   6.549   0.365   5.731
 3886SOL    HW112557   6.623   0.340   5.794
 3886SOL    HW212558   6.485   0.289   5.723
 3887SOL     OW12559   4.872   1.710   5.436
 3887SOL    HW112560   4.929   1.761   5.371
 3887SOL    HW212561   4.852   1.769   5.514
 3888SOL     OW12562   6.768   1.431   6.815
 3888SOL    HW112563   6.737   1.337   6.829
 3888SOL    HW212564   6.847   1.432   6.754
 3889SOL     OW12565   0.686   5.343   6.712
 3889SOL    HW112566   0.665   5.279   6.638
 3889SOL    HW212567   0.602   5.363   6.763
 3890SOL     OW12568   5.909   6.124   3.179
 3890SOL    HW112569   5.817   6.150   3.152
 3890SOL    HW212570   5.914   6.117   3.279
 3891SOL     OW12571   5.191   5.418   4.796
 3891SOL    HW112572   5.153   5.327   4.814
 3891SOL    HW212573   5.216   5.461   4.883
 3892SOL     OW12574   0.779   0.229   2.824
 3892SOL    HW112575   0.827   0.156   2.776
 3892SOL    HW212576   0.685   0.235   2.790
 3893SOL     OW12577   3.796   5.419   3.665
 3893SOL    HW112578   3.782   5.378   3.755
 3893SOL    HW212579   3.804   5.346   3.597
 3894SOL     OW12580   3.597   2.521   0.431
 3894SOL    HW112581   3.669   2.585   0.457
 3894SOL    HW212582   3.540   2.562   0.360
 3895SOL     OW12583   1.563   1.491   5.447
 3895SOL    HW112584   1.604   1.402   5.466
 3895SOL    HW212585   1.611   1.535   5.371
 3896SOL     OW12586   0.410   1.668   5.827
 3896SOL    HW112587   0.385   1.734   5.897
 3896SOL    HW212588   0.356   1.683   5.744
 3897SOL     OW12589   2.668   6.380   2.316
 3897SOL    HW112590   2.762   6.355   2.292
 3897SOL    HW212591   2.649   6.473   2.285
 3898SOL     OW12592   3.340   2.906   4.159
 3898SOL    HW112593   3.371   2.878   4.249
 3898SOL    HW212594   3.253   2.955   4.168
 3899SOL     OW12595   5.287   1.332   5.386
 3899SOL    HW112596   5.386   1.345   5.383
 3899SOL    HW212597   5.242   1.405   5.334
 3900SOL     OW12598   6.561   2.617   3.266
 3900SOL    HW112599   6.650   2.609   3.221
 3900SOL    HW212600   6.562   2.694   3.331
 3901SOL     OW12601   1.238   6.445   4.633
 3901SOL    HW112602   1.230   6.442   4.732
 3901SOL    HW212603   1.274   6.359   4.599
 3902SOL     OW12604   5.530   4.865   1.656
 3902SOL    HW112605   5.463   4.791   1.655
 3902SOL    HW212606   5.558   4.886   1.562
 3903SOL     OW12607   4.090   2.409   0.146
 3903SOL    HW112608   4.164   2.444   0.203
 3903SOL    HW212609   4.008   2.466   0.159
 3904SOL     OW12610   1.010   7.023   0.073
 3904SOL    HW112611   1.097   0.034   0.106
 3904SOL    HW212612   0.941   0.006   0.144
 3905SOL     OW12613   6.805   6.755   6.163
 3905SOL    HW112614   6.738   6.723   6.229
 3905SOL    HW212615   6.872   6.815   6.208
 3906SOL     OW12616   1.698   4.838   3.657
 3906SOL    HW112617   1.780   4.793   3.622
 3906SOL    HW212618   1.687   4.818   3.754
 3907SOL     OW12619   0.133   0.861   4.771
 3907SOL    HW112620   0.052   0.917   4.752
 3907SOL    HW212621   0.142   0.790   4.701
 3908SOL     OW12622   1.707   0.817   5.593
 3908SOL    HW112623   1.695   0.870   5.508
 3908SOL    HW212624   1.805   0.800   5.607
 3909SOL     OW12625   5.445   3.152   5.420
 3909SOL    HW112626   5.485   3.115   5.503
 3909SOL    HW212627   5.445   3.252   5.425
 3910SOL     OW12628   3.336   3.383   1.931
 3910SOL    HW112629   3.285   3.306   1.893
 3910SOL    HW212630   3.290   3.469   1.908
 3911SOL     OW12631   5.392   0.551   1.108
 3911SOL    HW112632   5.388   0.489   1.029
 3911SOL    HW212633   5.304   0.549   1.156
 3912SOL     OW12634   2.926   2.270   6.953
 3912SOL    HW112635   2.961   2.251   6.862
 3912SOL    HW212636   2.827   2.280   6.949
 3913SOL     OW12637   3.788   6.691   0.772
 3913SOL    HW112638   3.746   6.737   0.694
 3913SOL    HW212639   3.849   6.754   0.820
 3914SOL     OW12640   6.050   1.509   1.273
 3914SOL    HW112641   6.079   1.439   1.208
 3914SOL    HW212642   5.958   1.488   1.306
 3915SOL     OW12643   4.567   5.792   0.379
 3915SOL    HW112644   4.577   5.755   0.286
 3915SOL    HW212645   4.642   5.761   0.436
 3916SOL     OW12646   3.062   0.707   2.685
 3916SOL    HW112647   3.122   0.738   2.611
 3916SOL    HW212648   3.116   0.656   2.752
 3917SOL     OW12649   2.441   5.401   0.788
 3917SOL    HW112650   2.418   5.366   0.697
 3917SOL    HW212651   2.540   5.393   0.803
 3918SOL     OW12652   5.377   1.252   0.822
 3918SOL    HW112653   5.399   1.274   0.917
 3918SOL    HW212654   5.279   1.233   0.814
 3919SOL     OW12655   4.705   1.177   1.165
 3919SOL    HW112656   4.614   1.217   1.163
 3919SOL    HW212657   4.697   1.077   1.165
 3920SOL     OW12658   3.058   1.525   6.331
 3920SOL    HW112659   3.146   1.482   6.352
 3920SOL    HW212660   3.067   1.582   6.250
 3921SOL     OW12661   0.475   2.334   6.629
 3921SOL    HW112662   0.542   2.392   6.676
 3921SOL    HW212663   0.430   2.388   6.557
 3922SOL     OW12664   4.921   4.774   1.759
 3922SOL    HW112665   5.009   4.735   1.731
 3922SOL    HW212666   4.852   4.702   1.763
 3923SOL     OW12667   5.698   0.902   1.922
 3923SOL    HW112668   5.674   0.951   1.839
 3923SOL    HW212669   5.762   0.828   1.901
 3924SOL     OW12670   6.738   4.535   4.137
 3924SOL    HW112671   6.716   4.562   4.231
 3924SOL    HW212672   6.821   4.582   4.108
 3925SOL     OW12673   5.050   3.888   0.198
 3925SOL    HW112674   5.007   3.822   0.259
 3925SOL    HW212675   5.134   3.849   0.159
 3926SOL     OW12676   1.349   0.386   6.469
 3926SOL    HW112677   1.322   0.364   6.562
 3926SOL    HW212678   1.270   0.419   6.418
 3927SOL     OW12679   0.850   2.364   5.103
 3927SOL    HW112680   0.856   2.450   5.153
 3927SOL    HW212681   0.773   2.310   5.138
 3928SOL     OW12682   2.124   6.912   3.652
 3928SOL    HW112683   2.160   6.960   3.572
 3928SOL    HW212684   2.197   6.862   3.697
 3929SOL     OW12685   0.049   1.705   5.197
 3929SOL    HW112686   0.075   1.707   5.294
 3929SOL    HW212687   6.992   1.648   5.185
 3930SOL     OW12688   1.445   3.005   3.851
 3930SOL    HW112689   1.459   3.016   3.949
 3930SOL    HW212690   1.415   3.092   3.811
 3931SOL     OW12691   1.450   2.316   1.783
 3931SOL    HW112692   1.522   2.354   1.725
 3931SOL    HW212693   1.460   2.352   1.876
 3932SOL     OW12694   2.103   5.884   4.050
 3932SOL    HW112695   2.018   5.898   4.100
 3932SOL    HW212696   2.102   5.939   3.967
 3933SOL     OW12697   2.462   5.043   0.346
 3933SOL    HW112698   2.443   4.945   0.345
 3933SOL    HW212699   2.427   5.083   0.431
 3934SOL     OW12700   0.995   1.332   2.801
 3934SOL    HW112701   0.952   1.377   2.879
 3934SOL    HW212702   1.011   1.235   2.823
 3935SOL     OW12703   6.218   3.595   6.564
 3935SOL    HW112704   6.169   3.681   6.548
 3935SOL    HW212705   6.304   3.615   6.611
 3936SOL     OW12706   6.509   5.200   5.102
 3936SOL    HW112707   6.439   5.139   5.065
 3936SOL    HW212708   6.593   5.190   5.049
 3937SOL     OW12709   6.569   5.699   2.624
 3937SOL    HW112710   6.527   5.643   2.552
 3937SOL    HW212711   6.629   5.766   2.582
 3938SOL     OW12712   6.381   3.933   3.455
 3938SOL    HW112713   6.411   3.994   3.529
 3938SOL    HW212714   6.453   3.866   3.436
 3939SOL     OW12715   0.598   1.035   2.483
 3939SOL    HW112716   0.696   1.036   2.506
 3939SOL    HW212717   0.577   1.112   2.423
 3940SOL     OW12718   3.196   4.919   1.948
 3940SOL    HW112719   3.147   4.844   1.903
 3940SOL    HW212720   3.131   4.986   1.982
 3941SOL     OW12721   5.784   6.837   4.545
 3941SOL    HW112722   5.760   6.749   4.585
 3941SOL    HW212723   5.876   6.863   4.574
 3942SOL     OW12724   1.246   6.503   6.447
 3942SOL    HW112725   1.159   6.471   6.410
 3942SOL    HW212726   1.305   6.424   6.466
 3943SOL     OW12727   1.480   3.333   1.550
 3943SOL    HW112728   1.566   3.313   1.597
 3943SOL    HW212729   1.476   3.281   1.465
 3944SOL     OW12730   6.696   2.618   6.689
 3944SOL    HW112731   6.718   2.540   6.747
 3944SOL    HW212732   6.711   2.594   6.593
 3945SOL     OW12733   1.360   1.206   3.219
 3945SOL    HW112734   1.311   1.135   3.168
 3945SOL    HW212735   1.294   1.273   3.253
 3946SOL     OW12736   0.187   2.842   0.513
 3946SOL    HW112737   0.125   2.765   0.525
 3946SOL    HW212738   0.237   2.858   0.597
 3947SOL     OW12739   5.923   5.806   0.462
 3947SOL    HW112740   5.956   5.797   0.367
 3947SOL    HW212741   5.823   5.802   0.463
 3948SOL     OW12742   1.664   2.325   6.135
 3948SOL    HW112743   1.594   2.268   6.178
 3948SOL    HW212744   1.722   2.268   6.077
 3949SOL     OW12745   6.049   6.240   2.167
 3949SOL    HW112746   6.010   6.157   2.206
 3949SOL    HW212747   6.050   6.232   2.067
 3950SOL     OW12748   4.194   4.476   1.264
 3950SOL    HW112749   4.201   4.568   1.304
 3950SOL    HW212750   4.212   4.408   1.335
 3951SOL     OW12751   0.428   1.931   5.617
 3951SOL    HW112752   0.414   1.944   5.519
 3951SOL    HW212753   0.340   1.910   5.661
 3952SOL     OW12754   5.986   2.581   5.525
 3952SOL    HW112755   6.027   2.506   5.577
 3952SOL    HW212756   5.905   2.548   5.477
 3953SOL     OW12757   3.453   4.422   6.308
 3953SOL    HW112758   3.435   4.473   6.224
 3953SOL    HW212759   3.371   4.371   6.335
 3954SOL     OW12760   6.966   3.575   4.758
 3954SOL    HW112761   0.033   3.595   4.725
 3954SOL    HW212762   6.922   3.659   4.791
 3955SOL     OW12763   5.312   5.796   6.691
 3955SOL    HW112764   5.381   5.725   6.705
 3955SOL    HW212765   5.238   5.783   6.758
 3956SOL     OW12766   0.586   2.822   6.189
 3956SOL    HW112767   0.649   2.800   6.115
 3956SOL    HW212768   0.637   2.832   6.274
 3957SOL     OW12769   2.373   6.816   4.063
 3957SOL    HW112770   2.385   6.848   4.157
 3957SOL    HW212771   2.324   6.886   4.011
 3958SOL     OW12772   6.475   6.385   6.228
 3958SOL    HW112773   6.407   6.353   6.293
 3958SOL    HW212774   6.540   6.311   6.209
 3959SOL     OW12775   3.364   5.431   0.114
 3959SOL    HW112776   3.361   5.460   0.210
 3959SOL    HW212777   3.452   5.388   0.095
 3960SOL     OW12778   3.542   3.124   0.197
 3960SOL    HW112779   3.479   3.078   0.260
 3960SOL    HW212780   3.490   3.182   0.134
 3961SOL     OW12781   5.070   1.120   1.896
 3961SOL    HW112782   4.980   1.120   1.938
 3961SOL    HW212783   5.119   1.203   1.922
 3962SOL     OW12784   0.678   6.653   6.998
 3962SOL    HW112785   0.773   6.646   6.967
 3962SOL    HW212786   0.677   6.688   0.068
 3963SOL     OW12787   5.025   5.515   4.433
 3963SOL    HW112788   5.069   5.438   4.481
 3963SOL    HW212789   5.089   5.591   4.425
 3964SOL     OW12790   5.139   5.971   5.558
 3964SOL    HW112791   5.083   5.890   5.575
 3964SOL    HW212792   5.099   6.023   5.483
 3965SOL     OW12793   3.693   4.333   6.831
 3965SOL    HW112794   3.606   4.288   6.852
 3965SOL    HW212795   3.757   4.266   6.794
 3966SOL     OW12796   6.216   4.592   5.426
 3966SOL    HW112797   6.266   4.508   5.405
 3966SOL    HW212798   6.252   4.632   5.511
 3967SOL     OW12799   0.479   6.355   5.383
 3967SOL    HW112800   0.467   6.453   5.372
 3967SOL    HW212801   0.572   6.329   5.355
 3968SOL     OW12802   5.400   0.854   2.763
 3968SOL    HW112803   5.423   0.762   2.796
 3968SOL    HW212804   5.317   0.886   2.808
 3969SOL     OW12805   0.992   4.923   2.711
 3969SOL    HW112806   0.931   4.926   2.789
 3969SOL    HW212807   0.990   4.832   2.670
 3970SOL     OW12808   4.995   4.787   3.429
 3970SOL    HW112809   4.999   4.695   3.389
 3970SOL    HW212810   5.065   4.796   3.500
 3971SOL     OW12811   1.967   6.088   3.160
 3971SOL    HW112812   1.926   6.151   3.226
 3971SOL    HW212813   2.009   6.012   3.208
 3972SOL     OW12814   0.526   6.599   0.459
 3972SOL    HW112815   0.455   6.608   0.529
 3972SOL    HW212816   0.577   6.514   0.473
 3973SOL     OW12817   3.753   4.073   4.055
 3973SOL    HW112818   3.802   4.159   4.037
 3973SOL    HW212819   3.678   4.063   3.990
 3974SOL     OW12820   6.609   1.029   6.040
 3974SOL    HW112821   6.536   1.010   6.105
 3974SOL    HW212822   6.648   0.943   6.008
 3975SOL     OW12823   6.786   1.112   6.241
 3975SOL    HW112824   6.772   1.020   6.278
 3975SOL    HW212825   6.735   1.122   6.156
 3976SOL     OW12826   1.565   4.127   0.984
 3976SOL    HW112827   1.656   4.102   0.951
 3976SOL    HW212828   1.567   4.140   1.083
 3977SOL     OW12829   2.515   6.398   6.333
 3977SOL    HW112830   2.515   6.368   6.237
 3977SOL    HW212831   2.514   6.498   6.336
 3978SOL     OW12832   5.909   1.826   5.548
 3978SOL    HW112833   5.948   1.842   5.639
 3978SOL    HW212834   5.882   1.730   5.540
 3979SOL     OW12835   1.204   6.802   2.453
 3979SOL    HW112836   1.176   6.719   2.502
 3979SOL    HW212837   1.294   6.788   2.412
 3980SOL     OW12838   4.914   3.338   4.427
 3980SOL    HW112839   4.910   3.438   4.426
 3980SOL    HW212840   4.943   3.306   4.517
 3981SOL     OW12841   6.657   1.991   0.379
 3981SOL    HW112842   6.611   2.077   0.358
 3981SOL    HW212843   6.649   1.972   0.477
 3982SOL     OW12844   2.536   1.319   3.883
 3982SOL    HW112845   2.569   1.388   3.947
 3982SOL    HW212846   2.437   1.330   3.871
 3983SOL     OW12847   3.081   6.806   4.143
 3983SOL    HW112848   3.110   6.876   4.078
 3983SOL    HW212849   3.149   6.797   4.215
 3984SOL     OW12850   1.394   6.683   2.051
 3984SOL    HW112851   1.462   6.698   1.979
 3984SOL    HW212852   1.346   6.597   2.033
 3985SOL     OW12853   1.735   3.860   6.980
 3985SOL    HW112854   1.772   3.951   6.960
 3985SOL    HW212855   1.764   3.797   6.908
 3986SOL     OW12856   0.094   1.987   1.223
 3986SOL    HW112857   0.194   1.979   1.217
 3986SOL    HW212858   0.063   1.944   1.308
 3987SOL     OW12859   1.988   5.196   6.185
 3987SOL    HW112860   1.932   5.235   6.113
 3987SOL    HW212861   2.021   5.105   6.157
 3988SOL     OW12862   3.776   2.224   0.397
 3988SOL    HW112863   3.758   2.305   0.342
 3988SOL    HW212864   3.760   2.245   0.494
 3989SOL     OW12865   6.143   0.153   0.113
 3989SOL    HW112866   6.221   0.167   0.051
 3989SOL    HW212867   6.100   0.240   0.133
 3990SOL     OW12868   0.412   2.927   4.419
 3990SOL    HW112869   0.444   2.869   4.494
 3990SOL    HW212870   0.312   2.930   4.420
 3991SOL     OW12871   0.470   2.224   3.568
 3991SOL    HW112872   0.469   2.178   3.479
 3991SOL    HW212873   0.564   2.244   3.595
 3992SOL     OW12874   4.015   3.467   6.635
 3992SOL    HW112875   4.081   3.395   6.655
 3992SOL    HW212876   3.937   3.460   6.698
 3993SOL     OW12877   2.925   2.253   2.902
 3993SOL    HW112878   2.933   2.270   2.804
 3993SOL    HW212879   2.975   2.169   2.925
 3994SOL     OW12880   2.442   2.720   4.040
 3994SOL    HW112881   2.535   2.689   4.020
 3994SOL    HW212882   2.387   2.642   4.070
 3995SOL     OW12883   2.323   4.201   3.543
 3995SOL    HW112884   2.284   4.129   3.600
 3995SOL    HW212885   2.303   4.182   3.446
 3996SOL     OW12886   1.181   0.983   4.317
 3996SOL    HW112887   1.181   1.059   4.252
 3996SOL    HW212888   1.155   1.017   4.407
 3997SOL     OW12889   4.917   3.784   2.969
 3997SOL    HW112890   4.846   3.852   2.986
 3997SOL    HW212891   5.007   3.825   2.987
 3998SOL     OW12892   6.319   1.950   2.403
 3998SOL    HW112893   6.263   2.011   2.346
 3998SOL    HW212894   6.403   1.928   2.354
 3999SOL     OW12895   6.344   4.232   2.976
 3999SOL    HW112896   6.342   4.331   2.963
 3999SOL    HW212897   6.343   4.211   3.074
 4000SOL     OW12898   2.483   5.496   2.974
 4000SOL    HW112899   2.573   5.466   3.007
 4000SOL    HW212900   2.422   5.417   2.968
 4001SOL     OW12901   2.828   4.018   5.805
 4001SOL    HW112902   2.841   3.945   5.873
 4001SOL    HW212903   2.827   4.106   5.852
 4002SOL     OW12904   3.498   3.376   5.272
 4002SOL    HW112905   3.589   3.368   5.313
 4002SOL    HW212906   3.492   3.317   5.191
 4003SOL     OW12907   2.776   1.506   6.311
 4003SOL    HW112908   2.771   1.565   6.230
 4003SOL    HW212909   2.863   1.520   6.357
 4004SOL     OW12910   6.253   3.113   2.998
 4004SOL    HW112911   6.183   3.184   2.992
 4004SOL    HW212912   6.268   3.088   3.094
 4005SOL     OW12913   4.057   3.457   0.730
 4005SOL    HW112914   4.104   3.368   0.726
 4005SOL    HW212915   4.096   3.518   0.661
 4006SOL     OW12916   5.383   5.403   1.977
 4006SOL    HW112917   5.337   5.320   1.948
 4006SOL    HW212918   5.448   5.382   2.050
 4007SOL     OW12919   0.410   1.841   2.983
 4007SOL    HW112920   0.437   1.751   3.018
 4007SOL    HW212921   0.315   1.837   2.951
 4008SOL     OW12922   3.131   0.152   0.255
 4008SOL    HW112923   3.127   0.053   0.249
 4008SOL    HW212924   3.225   0.183   0.240
 4009SOL     OW12925   4.769   1.801   1.589
 4009SOL    HW112926   4.824   1.722   1.615
 4009SOL    HW212927   4.758   1.802   1.489
 4010SOL     OW12928   3.689   4.659   1.279
 4010SOL    HW112929   3.612   4.604   1.311
 4010SOL    HW212930   3.774   4.607   1.288
 4011SOL     OW12931   6.990   6.321   0.919
 4011SOL    HW112932   6.930   6.288   0.846
 4011SOL    HW212933   6.949   6.301   1.007
 4012SOL     OW12934   4.407   6.743   1.850
 4012SOL    HW112935   4.460   6.825   1.831
 4012SOL    HW212936   4.310   6.761   1.833
 4013SOL     OW12937   1.724   6.809   1.168
 4013SOL    HW112938   1.657   6.838   1.100
 4013SOL    HW212939   1.816   6.836   1.138
 4014SOL     OW12940   3.663   6.402   4.140
 4014SOL    HW112941   3.609   6.338   4.085
 4014SOL    HW212942   3.715   6.462   4.079
 4015SOL     OW12943   4.433   4.634   6.497
 4015SOL    HW112944   4.471   4.614   6.588
 4015SOL    HW212945   4.497   4.692   6.447
 4016SOL     OW12946   2.962   5.176   0.393
 4016SOL    HW112947   3.007   5.183   0.304
 4016SOL    HW212948   3.012   5.111   0.451
 4017SOL     OW12949   0.071   4.982   5.173
 4017SOL    HW112950   0.009   4.967   5.096
 4017SOL    HW212951   0.141   4.911   5.174
 4018SOL     OW12952   4.338   0.078   1.984
 4018SOL    HW112953   4.437   0.086   1.997
 4018SOL    HW212954   4.306   0.150   1.923
 4019SOL     OW12955   5.197   3.384   2.249
 4019SOL    HW112956   5.244   3.380   2.161
 4019SOL    HW212957   5.239   3.455   2.306
 4020SOL     OW12958   6.432   3.489   4.755
 4020SOL    HW112959   6.468   3.531   4.839
 4020SOL    HW212960   6.430   3.389   4.766
 4021SOL     OW12961   3.659   3.973   5.330
 4021SOL    HW112962   3.622   3.881   5.344
 4021SOL    HW212963   3.742   3.984   5.385
 4022SOL     OW12964   3.887   0.077   0.300
 4022SOL    HW112965   3.862   0.044   0.391
 4022SOL    HW212966   3.944   0.009   0.255
 4023SOL     OW12967   6.957   0.891   5.385
 4023SOL    HW112968   7.024   0.962   5.409
 4023SOL    HW212969   6.987   0.804   5.424
 4024SOL     OW12970   2.055   5.086   4.815
 4024SOL    HW112971   2.102   5.059   4.899
 4024SOL    HW212972   2.096   5.039   4.737
 4025SOL     OW12973   1.085   6.128   4.244
 4025SOL    HW112974   1.127   6.037   4.244
 4025SOL    HW212975   1.127   6.185   4.174
 4026SOL     OW12976   6.460   6.332   4.792
 4026SOL    HW112977   6.510   6.266   4.736
 4026SOL    HW212978   6.503   6.421   4.785
 4027SOL     OW12979   2.964   1.738   0.084
 4027SOL    HW112980   2.964   1.778   7.017
 4027SOL    HW212981   2.871   1.741   0.122
 4028SOL     OW12982   4.240   1.729   3.325
 4028SOL    HW112983   4.322   1.711   3.271
 4028SOL    HW212984   4.197   1.814   3.294
 4029SOL     OW12985   2.362   4.066   5.977
 4029SOL    HW112986   2.358   4.047   5.878
 4029SOL    HW212987   2.387   3.982   6.025
 4030SOL     OW12988   0.131   0.995   1.078
 4030SOL    HW112989   0.098   1.025   1.167
 4030SOL    HW212990   0.064   0.934   1.036
 4031SOL     OW12991   4.993   6.419   3.048
 4031SOL    HW112992   4.981   6.328   3.009
 4031SOL    HW212993   5.054   6.414   3.127
 4032SOL     OW12994   0.310   0.028   2.647
 4032SOL    HW112995   0.343   0.069   2.733
 4032SOL    HW212996   0.312   0.096   2.575
 4033SOL     OW12997   1.927   2.197   2.581
 4033SOL    HW112998   1.889   2.122   2.526
 4033SOL    HW212999   2.022   2.213   2.554
 4034SOL     OW13000   6.076   1.782   5.186
 4034SOL    HW113001   6.102   1.837   5.265
 4034SOL    HW213002   5.977   1.777   5.180
 4035SOL     OW13003   6.665   1.053   1.563
 4035SOL    HW113004   6.716   0.995   1.626
 4035SOL    HW213005   6.593   1.101   1.613
 4036SOL     OW13006   4.211   5.134   2.501
 4036SOL    HW113007   4.121   5.148   2.460
 4036SOL    HW213008   4.200   5.104   2.595
 4037SOL     OW13009   2.008   1.553   6.284
 4037SOL    HW113010   1.944   1.607   6.229
 4037SOL    HW213011   2.001   1.457   6.257
 4038SOL     OW13012   4.851   3.099   0.353
 4038SOL    HW113013   4.844   3.054   0.442
 4038SOL    HW213014   4.763   3.096   0.307
 4039SOL     OW13015   4.522   5.871   1.858
 4039SOL    HW113016   4.468   5.943   1.903
 4039SOL    HW213017   4.506   5.784   1.903
 4040SOL     OW13018   2.705   6.593   4.834
 4040SOL    HW113019   2.721   6.645   4.918
 4040SOL    HW213020   2.793   6.564   4.796
 4041SOL     OW13021   1.884   5.641   1.134
 4041SOL    HW113022   1.957   5.603   1.191
 4041SOL    HW213023   1.923   5.708   1.071
 4042SOL     OW13024   5.994   6.412   4.182
 4042SOL    HW113025   6.023   6.421   4.087
 4042SOL    HW213026   5.897   6.434   4.190
 4043SOL     OW13027   0.030   1.728   6.473
 4043SOL    HW113028   0.008   1.709   6.569
 4043SOL    HW213029   6.971   1.754   6.424
 4044SOL     OW13030   5.472   5.441   2.980
 4044SOL    HW113031   5.490   5.393   2.894
 4044SOL    HW213032   5.555   5.485   3.011
 4045SOL     OW13033   3.908   6.313   5.871
 4045SOL    HW113034   3.908   6.323   5.971
 4045SOL    HW213035   3.923   6.218   5.847
 4046SOL     OW13036   0.675   2.268   2.286
 4046SOL    HW113037   0.665   2.168   2.283
 4046SOL    HW213038   0.597   2.310   2.239
 4047SOL     OW13039   2.382   2.338   0.023
 4047SOL    HW113040   2.398   2.292   0.110
 4047SOL    HW213041   2.324   2.418   0.037
 4048SOL     OW13042   5.592   1.315   1.720
 4048SOL    HW113043   5.622   1.228   1.682
 4048SOL    HW213044   5.613   1.318   1.818
 4049SOL     OW13045   4.963   5.737   6.102
 4049SOL    HW113046   4.918   5.686   6.176
 4049SOL    HW213047   5.048   5.692   6.078
 4050SOL     OW13048   1.000   6.237   1.726
 4050SOL    HW113049   0.986   6.331   1.696
 4050SOL    HW213050   0.981   6.175   1.650
 4051SOL     OW13051   4.450   1.411   5.964
 4051SOL    HW113052   4.412   1.502   5.951
 4051SOL    HW213053   4.516   1.413   6.040
 4052SOL     OW13054   5.769   2.055   3.348
 4052SOL    HW113055   5.848   2.009   3.387
 4052SOL    HW213056   5.798   2.140   3.305
 4053SOL     OW13057   2.546   6.007   4.701
 4053SOL    HW113058   2.514   5.934   4.761
 4053SOL    HW213059   2.606   5.969   4.631
 4054SOL     OW13060   5.029   4.185   0.835
 4054SOL    HW113061   4.993   4.093   0.851
 4054SOL    HW213062   5.120   4.179   0.794
 4055SOL     OW13063   2.492   4.456   0.814
 4055SOL    HW113064   2.535   4.383   0.867
 4055SOL    HW213065   2.470   4.533   0.875
 4056SOL     OW13066   5.351   4.001   1.105
 4056SOL    HW113067   5.430   3.938   1.109
 4056SOL    HW213068   5.290   3.981   1.182
 4057SOL     OW13069   7.010   2.769   0.263
 4057SOL    HW113070   0.009   2.685   0.312
 4057SOL    HW213071   6.965   2.833   0.325
 4058SOL     OW13072   3.231   6.725   5.142
 4058SOL    HW113073   3.208   6.663   5.216
 4058SOL    HW213074   3.171   6.805   5.146
 4059SOL     OW13075   0.380   1.457   2.471
 4059SOL    HW113076   0.333   1.531   2.424
 4059SOL    HW213077   0.479   1.467   2.459
 4060SOL     OW13078   5.698   4.964   5.747
 4060SOL    HW113079   5.602   4.983   5.729
 4060SOL    HW213080   5.755   5.034   5.704
 4061SOL     OW13081   2.461   4.981   2.313
 4061SOL    HW113082   2.393   4.979   2.240
 4061SOL    HW213083   2.502   5.072   2.318
 4062SOL     OW13084   2.446   0.152   2.021
 4062SOL    HW113085   2.362   0.205   2.016
 4062SOL    HW213086   2.446   0.097   2.104
 4063SOL     OW13087   5.959   0.141   0.556
 4063SOL    HW113088   5.886   0.110   0.616
 4063SOL    HW213089   6.047   0.113   0.595
 4064SOL     OW13090   2.634   1.087   4.286
 4064SOL    HW113091   2.567   1.143   4.238
 4064SOL    HW213092   2.625   0.992   4.258
 4065SOL     OW13093   1.379   6.886   1.743
 4065SOL    HW113094   1.382   6.894   1.644
 4065SOL    HW213095   1.286   6.904   1.775
 4066SOL     OW13096   6.447   4.539   2.916
 4066SOL    HW113097   6.361   4.545   2.866
 4066SOL    HW213098   6.445   4.600   2.995
 4067SOL     OW13099   6.126   3.683   2.840
 4067SOL    HW113100   6.162   3.597   2.805
 4067SOL    HW213101   6.120   3.680   2.940
 4068SOL     OW13102   1.988   1.858   4.440
 4068SOL    HW113103   1.958   1.867   4.535
 4068SOL    HW213104   2.048   1.935   4.417
 4069SOL     OW13105   3.735   5.138   6.806
 4069SOL    HW113106   3.775   5.065   6.862
 4069SOL    HW213107   3.719   5.105   6.713
 4070SOL     OW13108   0.432   2.200   2.695
 4070SOL    HW113109   0.446   2.179   2.792
 4070SOL    HW213110   0.479   2.285   2.672
 4071SOL     OW13111   1.168   1.138   4.969
 4071SOL    HW113112   1.210   1.184   4.891
 4071SOL    HW213113   1.117   1.206   5.023
 4072SOL     OW13114   0.770   5.248   4.379
 4072SOL    HW113115   0.737   5.161   4.343
 4072SOL    HW213116   0.811   5.301   4.305
 4073SOL     OW13117   2.549   6.035   6.486
 4073SOL    HW113118   2.643   6.018   6.458
 4073SOL    HW213119   2.545   6.116   6.544
 4074SOL     OW13120   0.542   5.023   1.159
 4074SOL    HW113121   0.579   4.931   1.168
 4074SOL    HW213122   0.595   5.075   1.092
 4075SOL     OW13123   4.818   1.804   1.317
 4075SOL    HW113124   4.724   1.814   1.284
 4075SOL    HW213125   4.881   1.818   1.241
 4076SOL     OW13126   2.404   3.380   6.584
 4076SOL    HW113127   2.372   3.340   6.498
 4076SOL    HW213128   2.328   3.429   6.628
 4077SOL     OW13129   3.712   2.010   0.261
 4077SOL    HW113130   3.732   2.088   0.321
 4077SOL    HW213131   3.708   1.926   0.316
 4078SOL     OW13132   2.102   5.179   1.917
 4078SOL    HW113133   2.169   5.112   1.886
 4078SOL    HW213134   2.142   5.271   1.914
 4079SOL     OW13135   2.109   1.013   3.609
 4079SOL    HW113136   2.189   1.066   3.580
 4079SOL    HW213137   2.078   0.955   3.533
 4080SOL     OW13138   4.929   3.094   6.345
 4080SOL    HW113139   4.858   3.164   6.344
 4080SOL    HW213140   5.012   3.132   6.386
 4081SOL     OW13141   1.732   2.557   3.954
 4081SOL    HW113142   1.778   2.528   4.038
 4081SOL    HW213143   1.759   2.650   3.930
 4082SOL     OW13144   1.102   4.450   0.349
 4082SOL    HW113145   1.064   4.360   0.370
 4082SOL    HW213146   1.069   4.480   0.259
 4083SOL     OW13147   6.876   3.210   2.675
 4083SOL    HW113148   6.966   3.252   2.688
 4083SOL    HW213149   6.852   3.213   2.578
 4084SOL     OW13150   6.019   2.515   3.828
 4084SOL    HW113151   5.942   2.473   3.781
 4084SOL    HW213152   5.987   2.558   3.912
 4085SOL     OW13153   3.519   5.446   1.332
 4085SOL    HW113154   3.446   5.443   1.401
 4085SOL    HW213155   3.545   5.540   1.314
 4086SOL     OW13156   1.969   5.693   1.635
 4086SOL    HW113157   1.966   5.611   1.693
 4086SOL    HW213158   1.935   5.670   1.544
 4087SOL     OW13159   3.270   2.069   3.391
 4087SOL    HW113160   3.198   2.000   3.392
 4087SOL    HW213161   3.294   2.093   3.485
 4088SOL     OW13162   0.713   1.832   0.676
 4088SOL    HW113163   0.615   1.853   0.683
 4088SOL    HW213164   0.766   1.915   0.692
 4089SOL     OW13165   6.050   6.534   3.884
 4089SOL    HW113166   6.086   6.453   3.838
 4089SOL    HW213167   5.969   6.567   3.836
 4090SOL     OW13168   0.999   4.198   5.890
 4090SOL    HW113169   0.981   4.186   5.987
 4090SOL    HW213170   1.098   4.199   5.874
 4091SOL     OW13171   6.819   6.326   0.145
 4091SOL    HW113172   6.745   6.295   0.204
 4091SOL    HW213173   6.907   6.308   0.190
 4092SOL     OW13174   6.732   2.479   5.277
 4092SOL    HW113175   6.817   2.428   5.286
 4092SOL    HW213176   6.748   2.576   5.294
 4093SOL     OW13177   4.444   0.471   2.635
 4093SOL    HW113178   4.369   0.501   2.695
 4093SOL    HW213179   4.519   0.437   2.692
 4094SOL     OW13180   2.527   6.081   4.352
 4094SOL    HW113181   2.523   6.181   4.360
 4094SOL    HW213182   2.543   6.056   4.256
 4095SOL     OW13183   0.460   3.471   6.738
 4095SOL    HW113184   0.547   3.519   6.734
 4095SOL    HW213185   0.385   3.537   6.735
 4096SOL     OW13186   4.942   6.305   6.903
 4096SOL    HW113187   4.987   6.383   6.946
 4096SOL    HW213188   4.932   6.322   6.805
 4097SOL     OW13189   3.731   4.740   5.749
 4097SOL    HW113190   3.670   4.670   5.712
 4097SOL    HW213191   3.697   4.831   5.725
 4098SOL     OW13192   0.897   3.079   1.757
 4098SOL    HW113193   0.988   3.111   1.785
 4098SOL    HW213194   0.827   3.133   1.803
 4099SOL     OW13195   2.800   4.801   1.121
 4099SOL    HW113196   2.811   4.707   1.091
 4099SOL    HW213197   2.791   4.861   1.041
 4100SOL     OW13198   6.795   5.451   4.853
 4100SOL    HW113199   6.864   5.509   4.809
 4100SOL    HW213200   6.820   5.355   4.843
 4101SOL     OW13201   6.022   1.196   0.433
 4101SOL    HW113202   5.957   1.158   0.367
 4101SOL    HW213203   6.006   1.156   0.523
 4102SOL     OW13204   6.462   0.651   0.572
 4102SOL    HW113205   6.412   0.701   0.502
 4102SOL    HW213206   6.558   0.676   0.570
 4103SOL     OW13207   0.469   1.022   0.882
 4103SOL    HW113208   0.517   0.949   0.833
 4103SOL    HW213209   0.459   0.996   0.978
 4104SOL     OW13210   0.717   4.519   2.496
 4104SOL    HW113211   0.626   4.482   2.515
 4104SOL    HW213212   0.722   4.546   2.399
 4105SOL     OW13213   3.960   6.166   1.690
 4105SOL    HW113214   4.023   6.104   1.645
 4105SOL    HW213215   3.997   6.194   1.778
 4106SOL     OW13216   6.942   1.963   4.285
 4106SOL    HW113217   6.855   1.986   4.241
 4106SOL    HW213218   6.981   1.881   4.243
 4107SOL     OW13219   1.631   6.111   1.287
 4107SOL    HW113220   1.567   6.042   1.320
 4107SOL    HW213221   1.718   6.100   1.335
 4108SOL     OW13222   6.879   4.210   5.549
 4108SOL    HW113223   6.978   4.208   5.540
 4108SOL    HW213224   6.838   4.173   5.465
 4109SOL     OW13225   5.221   6.374   5.054
 4109SOL    HW113226   5.192   6.312   4.981
 4109SOL    HW213227   5.249   6.321   5.134
 4110SOL     OW13228   4.416   3.028   6.802
 4110SOL    HW113229   4.497   3.081   6.829
 4110SOL    HW213230   4.366   3.001   6.884
 4111SOL     OW13231   3.636   3.474   6.728
 4111SOL    HW113232   3.711   3.435   6.781
 4111SOL    HW213233   3.674   3.530   6.653
 4112SOL     OW13234   4.701   0.327   5.323
 4112SOL    HW113235   4.757   0.255   5.281
 4112SOL    HW213236   4.672   0.391   5.252
 4113SOL     OW13237   4.887   6.563   4.527
 4113SOL    HW113238   4.814   6.630   4.543
 4113SOL    HW213239   4.882   6.530   4.433
 4114SOL     OW13240   3.096   2.178   4.549
 4114SOL    HW113241   3.192   2.160   4.528
 4114SOL    HW213242   3.054   2.232   4.476
 4115SOL     OW13243   3.969   5.507   2.278
 4115SOL    HW113244   4.020   5.489   2.194
 4115SOL    HW213245   3.875   5.532   2.255
 4116SOL     OW13246   3.782   2.237   1.615
 4116SOL    HW113247   3.882   2.235   1.606
 4116SOL    HW213248   3.757   2.265   1.707
 4117SOL     OW13249   0.752   4.965   2.114
 4117SOL    HW113250   0.830   4.990   2.172
 4117SOL    HW213251   0.671   5.016   2.143
 4118SOL     OW13252   2.884   6.876   6.843
 4118SOL    HW113253   2.900   6.825   6.928
 4118SOL    HW213254   2.844   6.965   6.864
 4119SOL     OW13255   3.998   2.180   4.038
 4119SOL    HW113256   4.010   2.101   3.978
 4119SOL    HW213257   4.070   2.247   4.022
 4120SOL     OW13258   4.273   0.519   0.382
 4120SOL    HW113259   4.372   0.536   0.377
 4120SOL    HW213260   4.239   0.491   0.293
 4121SOL     OW13261   6.054   1.030   5.197
 4121SOL    HW113262   6.065   1.042   5.098
 4121SOL    HW213263   6.059   1.119   5.242
 4122SOL     OW13264   0.917   5.318   5.309
 4122SOL    HW113265   0.927   5.398   5.250
 4122SOL    HW213266   0.956   5.338   5.399
 4123SOL     OW13267   4.279   4.856   5.873
 4123SOL    HW113268   4.273   4.931   5.807
 4123SOL    HW213269   4.304   4.771   5.825
 4124SOL     OW13270   6.101   5.163   6.314
 4124SOL    HW113271   6.176   5.220   6.280
 4124SOL    HW213272   6.076   5.096   6.244
 4125SOL     OW13273   4.779   1.548   2.264
 4125SOL    HW113274   4.839   1.624   2.289
 4125SOL    HW213275   4.684   1.573   2.281
 4126SOL     OW13276   1.663   3.839   3.237
 4126SOL    HW113277   1.739   3.893   3.271
 4126SOL    HW213278   1.600   3.818   3.312
 4127SOL     OW13279   4.770   4.665   4.637
 4127SOL    HW113280   4.686   4.622   4.669
 4127SOL    HW213281   4.757   4.696   4.543
 4128SOL     OW13282   1.455   3.389   2.181
 4128SOL    HW113283   1.469   3.381   2.082
 4128SOL    HW213284   1.496   3.475   2.213
 4129SOL     OW13285   4.797   1.668   6.868
 4129SOL    HW113286   4.841   1.582   6.840
 4129SOL    HW213287   4.790   1.728   6.788
 4130SOL     OW13288   6.873   2.592   5.621
 4130SOL    HW113289   6.923   2.575   5.536
 4130SOL    HW213290   6.799   2.526   5.630
 4131SOL     OW13291   1.696   6.267   3.922
 4131SOL    HW113292   1.628   6.270   3.996
 4131SOL    HW213293   1.734   6.358   3.908
 4132SOL     OW13294   5.121   4.068   3.443
 4132SOL    HW113295   5.108   3.974   3.411
 4132SOL    HW213296   5.075   4.131   3.381
 4133SOL     OW13297   2.875   6.913   1.785
 4133SOL    HW113298   2.955   6.947   1.736
 4133SOL    HW213299   2.876   6.949   1.878
 4134SOL     OW13300   2.016   2.492   0.265
 4134SOL    HW113301   2.025   2.497   0.364
 4134SOL    HW213302   1.947   2.423   0.241
 4135SOL     OW13303   2.129   1.434   2.504
 4135SOL    HW113304   2.113   1.523   2.546
 4135SOL    HW213305   2.044   1.400   2.464
 4136SOL     OW13306   1.799   2.173   2.823
 4136SOL    HW113307   1.852   2.184   2.739
 4136SOL    HW213308   1.704   2.153   2.799
 4137SOL     OW13309   1.728   4.468   1.120
 4137SOL    HW113310   1.680   4.381   1.128
 4137SOL    HW213311   1.670   4.535   1.073
 4138SOL     OW13312   3.828   4.925   3.241
 4138SOL    HW113313   3.740   4.923   3.194
 4138SOL    HW213314   3.813   4.944   3.338
 4139SOL     OW13315   2.323   2.717   4.456
 4139SOL    HW113316   2.396   2.682   4.398
 4139SOL    HW213317   2.342   2.692   4.551
 4140SOL     OW13318   3.074   0.839   5.314
 4140SOL    HW113319   2.996   0.898   5.290
 4140SOL    HW213320   3.048   0.777   5.387
 4141SOL     OW13321   5.526   6.645   1.470
 4141SOL    HW113322   5.477   6.581   1.412
 4141SOL    HW213323   5.466   6.722   1.493
 4142SOL     OW13324   6.563   5.502   0.626
 4142SOL    HW113325   6.532   5.460   0.711
 4142SOL    HW213326   6.598   5.430   0.565
 4143SOL     OW13327   0.273   3.245   0.296
 4143SOL    HW113328   0.181   3.213   0.269
 4143SOL    HW213329   0.267   3.339   0.329
 4144SOL     OW13330   4.924   3.644   6.617
 4144SOL    HW113331   4.881   3.734   6.612
 4144SOL    HW213332   4.872   3.586   6.679
 4145SOL     OW13333   6.753   5.812   1.059
 4145SOL    HW113334   6.694   5.731   1.066
 4145SOL    HW213335   6.699   5.894   1.077
 4146SOL     OW13336   0.186   1.013   5.432
 4146SOL    HW113337   0.168   1.035   5.528
 4146SOL    HW213338   0.247   0.934   5.427
 4147SOL     OW13339   4.507   2.956   5.745
 4147SOL    HW113340   4.588   2.991   5.697
 4147SOL    HW213341   4.535   2.887   5.811
 4148SOL     OW13342   1.061   0.230   4.417
 4148SOL    HW113343   1.027   0.216   4.510
 4148SOL    HW213344   1.137   0.168   4.399
 4149SOL     OW13345   0.282   2.543   0.549
 4149SOL    HW113346   0.237   2.495   0.625
 4149SOL    HW213347   0.222   2.543   0.469
 4150SOL     OW13348   0.391   0.867   5.175
 4150SOL    HW113349   0.321   0.936   5.190
 4150SOL    HW213350   0.418   0.867   5.079
 4151SOL     OW13351   3.889   6.274   6.143
 4151SOL    HW113352   3.872   6.343   6.213
 4151SOL    HW213353   3.852   6.186   6.174
 4152SOL     OW13354   3.041   6.235   1.032
 4152SOL    HW113355   3.072   6.279   0.948
 4152SOL    HW213356   3.020   6.139   1.013
 4153SOL     OW13357   4.450   4.798   6.998
 4153SOL    HW113358   4.418   4.774   0.065
 4153SOL    HW213359   4.484   4.716   6.952
 4154SOL     OW13360   0.672   4.615   4.818
 4154SOL    HW113361   0.588   4.560   4.812
 4154SOL    HW213362   0.649   4.706   4.854
 4155SOL     OW13363   6.799   1.633   2.812
 4155SOL    HW113364   6.716   1.675   2.847
 4155SOL    HW213365   6.779   1.581   2.729
 4156SOL     OW13366   4.841   6.501   4.838
 4156SOL    HW113367   4.884   6.481   4.750
 4156SOL    HW213368   4.846   6.599   4.856
 4157SOL     OW13369   4.088   6.622   4.032
 4157SOL    HW113370   4.079   6.615   4.131
 4157SOL    HW213371   4.117   6.715   4.007
 4158SOL     OW13372   1.790   5.083   3.518
 4158SOL    HW113373   1.888   5.072   3.538
 4158SOL    HW213374   1.742   4.998   3.541
 4159SOL     OW13375   2.172   3.170   3.887
 4159SOL    HW113376   2.203   3.198   3.796
 4159SOL    HW213377   2.120   3.085   3.879
 4160SOL     OW13378   6.960   0.641   0.828
 4160SOL    HW113379   6.992   0.547   0.842
 4160SOL    HW213380   6.962   0.662   0.730
 4161SOL     OW13381   0.956   0.403   6.545
 4161SOL    HW113382   1.020   0.383   6.619
 4161SOL    HW213383   0.971   0.497   6.512
 4162SOL     OW13384   6.107   6.344   5.803
 4162SOL    HW113385   6.164   6.285   5.859
 4162SOL    HW213386   6.131   6.333   5.706
 4163SOL     OW13387   6.198   0.152   3.324
 4163SOL    HW113388   6.266   0.086   3.355
 4163SOL    HW213389   6.226   0.189   3.235
 4164SOL     OW13390   0.871   6.663   6.357
 4164SOL    HW113391   0.918   6.574   6.352
 4164SOL    HW213392   0.785   6.652   6.405
 4165SOL     OW13393   4.435   0.521   0.046
 4165SOL    HW113394   4.481   0.432   0.046
 4165SOL    HW213395   4.344   0.511   0.085
 4166SOL     OW13396   5.587   3.855   1.168
 4166SOL    HW113397   5.607   3.868   1.265
 4166SOL    HW213398   5.599   3.759   1.144
 4167SOL     OW13399   1.571   4.299   0.771
 4167SOL    HW113400   1.561   4.271   0.867
 4167SOL    HW213401   1.665   4.329   0.755
 4168SOL     OW13402   0.187   5.178   1.382
 4168SOL    HW113403   0.285   5.198   1.388
 4168SOL    HW213404   0.156   5.140   1.469
 4169SOL     OW13405   5.684   3.553   3.789
 4169SOL    HW113406   5.700   3.455   3.774
 4169SOL    HW213407   5.641   3.592   3.708
 4170SOL     OW13408   2.880   3.495   4.918
 4170SOL    HW113409   2.782   3.484   4.897
 4170SOL    HW213410   2.891   3.508   5.016
 4171SOL     OW13411   5.066   4.805   1.378
 4171SOL    HW113412   5.087   4.806   1.280
 4171SOL    HW213413   5.145   4.769   1.428
 4172SOL     OW13414   0.247   1.581   6.389
 4172SOL    HW113415   0.159   1.618   6.419
 4172SOL    HW213416   0.316   1.653   6.396
 4173SOL     OW13417   5.503   3.400   5.379
 4173SOL    HW113418   5.512   3.469   5.451
 4173SOL    HW213419   5.510   3.444   5.289
 4174SOL     OW13420   5.040   0.528   3.998
 4174SOL    HW113421   4.985   0.467   4.055
 4174SOL    HW213422   5.116   0.566   4.052
 4175SOL     OW13423   2.174   5.704   4.784
 4175SOL    HW113424   2.164   5.794   4.741
 4175SOL    HW213425   2.128   5.635   4.728
 4176SOL     OW13426   2.614   6.622   2.153
 4176SOL    HW113427   2.613   6.563   2.072
 4176SOL    HW213428   2.678   6.697   2.138
 4177SOL     OW13429   6.678   4.477   4.592
 4177SOL    HW113430   6.621   4.397   4.611
 4177SOL    HW213431   6.648   4.553   4.650
 4178SOL     OW13432   4.440   0.991   4.084
 4178SOL    HW113433   4.461   0.926   4.157
 4178SOL    HW213434   4.361   0.958   4.032
 4179SOL     OW13435   5.738   2.478   3.453
 4179SOL    HW113436   5.715   2.472   3.550
 4179SOL    HW213437   5.673   2.538   3.407
 4180SOL     OW13438   5.460   3.516   1.781
 4180SOL    HW113439   5.491   3.436   1.729
 4180SOL    HW213440   5.516   3.526   1.863
 4181SOL     OW13441   1.981   2.099   6.178
 4181SOL    HW113442   1.886   2.101   6.147
 4181SOL    HW213443   1.997   2.175   6.242
 4182SOL     OW13444   0.033   6.142   2.726
 4182SOL    HW113445   6.966   6.170   2.756
 4182SOL    HW213446   0.102   6.196   2.774
 4183SOL     OW13447   4.267   0.724   0.774
 4183SOL    HW113448   4.255   0.756   0.680
 4183SOL    HW213449   4.178   0.697   0.811
 4184SOL     OW13450   4.677   5.054   1.324
 4184SOL    HW113451   4.591   5.012   1.353
 4184SOL    HW213452   4.685   5.049   1.225
 4185SOL     OW13453   0.883   6.103   2.683
 4185SOL    HW113454   0.958   6.135   2.740
 4185SOL    HW213455   0.800   6.154   2.705
 4186SOL     OW13456   1.581   4.628   0.905
 4186SOL    HW113457   1.629   4.658   0.823
 4186SOL    HW213458   1.496   4.583   0.879
 4187SOL     OW13459   3.778   3.943   6.004
 4187SOL    HW113460   3.738   3.871   5.946
 4187SOL    HW213461   3.705   4.003   6.037
 4188SOL     OW13462   4.988   6.761   3.949
 4188SOL    HW113463   4.901   6.740   3.992
 4188SOL    HW213464   5.010   6.689   3.883
 4189SOL     OW13465   3.178   1.215   4.842
 4189SOL    HW113466   3.218   1.184   4.929
 4189SOL    HW213467   3.160   1.136   4.783
 4190SOL     OW13468   1.599   0.187   6.809
 4190SOL    HW113469   1.589   0.089   6.828
 4190SOL    HW213470   1.621   0.200   6.712
 4191SOL     OW13471   5.696   3.712   2.995
 4191SOL    HW113472   5.632   3.693   2.921
 4191SOL    HW213473   5.781   3.661   2.979
 4192SOL     OW13474   6.585   0.840   3.711
 4192SOL    HW113475   6.534   0.757   3.688
 4192SOL    HW213476   6.683   0.820   3.707
 4193SOL     OW13477   2.081   6.822   1.715
 4193SOL    HW113478   2.093   6.866   1.805
 4193SOL    HW213479   2.170   6.811   1.671
 4194SOL     OW13480   6.755   1.546   5.419
 4194SOL    HW113481   6.713   1.460   5.390
 4194SOL    HW213482   6.824   1.527   5.490
 4195SOL     OW13483   3.117   0.652   1.301
 4195SOL    HW113484   3.059   0.571   1.297
 4195SOL    HW213485   3.107   0.695   1.391
 4196SOL     OW13486   6.174   1.911   3.735
 4196SOL    HW113487   6.082   1.903   3.697
 4196SOL    HW213488   6.173   1.975   3.812
 4197SOL     OW13489   4.408   4.814   4.638
 4197SOL    HW113490   4.495   4.827   4.684
 4197SOL    HW213491   4.339   4.875   4.679
 4198SOL     OW13492   5.825   3.518   6.601
 4198SOL    HW113493   5.754   3.448   6.610
 4198SOL    HW213494   5.873   3.505   6.514
 4199SOL     OW13495   1.873   3.577   6.162
 4199SOL    HW113496   1.774   3.593   6.159
 4199SOL    HW213497   1.915   3.607   6.077
 4200SOL     OW13498   3.021   6.567   5.274
 4200SOL    HW113499   2.921   6.566   5.263
 4200SOL    HW213500   3.049   6.654   5.315
 4201SOL     OW13501   5.694   6.373   4.084
 4201SOL    HW113502   5.717   6.277   4.070
 4201SOL    HW213503   5.597   6.381   4.109
 4202SOL     OW13504   4.277   5.803   5.602
 4202SOL    HW113505   4.355   5.763   5.555
 4202SOL    HW213506   4.289   5.793   5.701
 4203SOL     OW13507   4.550   5.916   2.221
 4203SOL    HW113508   4.527   5.827   2.260
 4203SOL    HW213509   4.473   5.979   2.234
 4204SOL     OW13510   3.421   3.015   1.912
 4204SOL    HW113511   3.345   2.958   1.943
 4204SOL    HW213512   3.486   3.029   1.987
 4205SOL     OW13513   3.660   5.300   4.758
 4205SOL    HW113514   3.698   5.353   4.834
 4205SOL    HW213515   3.726   5.230   4.731
 4206SOL     OW13516   5.896   0.903   5.449
 4206SOL    HW113517   5.875   0.982   5.392
 4206SOL    HW213518   5.816   0.879   5.504
 4207SOL     OW13519   2.650   1.892   1.337
 4207SOL    HW113520   2.585   1.931   1.273
 4207SOL    HW213521   2.741   1.930   1.320
 4208SOL     OW13522   1.150   2.350   6.955
 4208SOL    HW113523   1.073   2.409   6.929
 4208SOL    HW213524   1.168   2.362   0.029
 4209SOL     OW13525   1.190   1.678   4.535
 4209SOL    HW113526   1.186   1.619   4.616
 4209SOL    HW213527   1.155   1.768   4.558
 4210SOL     OW13528   2.932   3.338   1.813
 4210SOL    HW113529   2.962   3.318   1.906
 4210SOL    HW213530   2.832   3.351   1.813
 4211SOL     OW13531   4.579   6.184   5.679
 4211SOL    HW113532   4.482   6.169   5.702
 4211SOL    HW213533   4.608   6.115   5.613
 4212SOL     OW13534   6.223   1.739   2.100
 4212SOL    HW113535   6.197   1.681   2.022
 4212SOL    HW213536   6.157   1.814   2.108
 4213SOL     OW13537   2.332   1.269   2.428
 4213SOL    HW113538   2.263   1.309   2.487
 4213SOL    HW213539   2.415   1.252   2.480
 4214SOL     OW13540   6.904   4.041   5.934
 4214SOL    HW113541   6.831   4.071   5.872
 4214SOL    HW213542   6.897   4.092   6.019
 4215SOL     OW13543   6.883   5.561   4.619
 4215SOL    HW113544   6.817   5.636   4.627
 4215SOL    HW213545   6.955   5.587   4.555
 4216SOL     OW13546   1.646   1.609   2.826
 4216SOL    HW113547   1.605   1.656   2.905
 4216SOL    HW213548   1.629   1.662   2.743
 4217SOL     OW13549   6.331   0.492   2.775
 4217SOL    HW113550   6.243   0.499   2.823
 4217SOL    HW213551   6.401   0.461   2.839
 4218SOL     OW13552   4.837   0.080   1.463
 4218SOL    HW113553   4.773   0.092   1.387
 4218SOL    HW213554   4.930   0.100   1.431
 4219SOL     OW13555   2.847   5.307   4.951
 4219SOL    HW113556   2.850   5.326   4.853
 4219SOL    HW213557   2.868   5.210   4.966
 4220SOL     OW13558   6.355   3.000   3.240
 4220SOL    HW113559   6.339   2.905   3.216
 4220SOL    HW213560   6.449   3.025   3.216
 4221SOL     OW13561   6.314   5.765   6.526
 4221SOL    HW113562   6.243   5.736   6.590
 4221SOL    HW213563   6.403   5.730   6.556
 4222SOL     OW13564   6.091   1.988   2.132
 4222SOL    HW113565   6.141   2.071   2.157
 4222SOL    HW213566   6.071   1.990   2.034
 4223SOL     OW13567   3.494   3.136   4.688
 4223SOL    HW113568   3.445   3.135   4.601
 4223SOL    HW213569   3.448   3.074   4.752
 4224SOL     OW13570   4.806   3.054   3.954
 4224SOL    HW113571   4.800   2.990   4.030
 4224SOL    HW213572   4.782   3.146   3.985
 4225SOL     OW13573   5.063   0.481   5.149
 4225SOL    HW113574   5.146   0.446   5.194
 4225SOL    HW213575   5.036   0.567   5.193
 4226SOL     OW13576   1.958   0.139   3.411
 4226SOL    HW113577   1.861   0.116   3.424
 4226SOL    HW213578   1.971   0.236   3.430
 4227SOL     OW13579   3.349   4.582   6.555
 4227SOL    HW113580   3.436   4.549   6.518
 4227SOL    HW213581   3.327   4.532   6.638
 4228SOL     OW13582   6.411   4.772   3.343
 4228SOL    HW113583   6.444   4.810   3.430
 4228SOL    HW213584   6.312   4.783   3.338
 4229SOL     OW13585   3.872   4.437   6.466
 4229SOL    HW113586   3.890   4.352   6.516
 4229SOL    HW213587   3.959   4.485   6.452
 4230SOL     OW13588   2.637   0.544   4.566
 4230SOL    HW113589   2.726   0.513   4.532
 4230SOL    HW213590   2.605   0.482   4.638
 4231SOL     OW13591   5.480   6.496   5.003
 4231SOL    HW113592   5.389   6.464   5.031
 4231SOL    HW213593   5.531   6.420   4.963
 4232SOL     OW13594   0.593   5.281   1.679
 4232SOL    HW113595   0.584   5.380   1.673
 4232SOL    HW213596   0.690   5.256   1.682
 4233SOL     OW13597   6.586   0.300   0.033
 4233SOL    HW113598   6.500   0.264   7.020
 4233SOL    HW213599   6.626   0.231   0.094
 4234SOL     OW13600   1.500   6.703   5.355
 4234SOL    HW113601   1.582   6.760   5.363
 4234SOL    HW213602   1.440   6.720   5.433
 4235SOL     OW13603   6.121   3.936   5.295
 4235SOL    HW113604   6.127   3.900   5.389
 4235SOL    HW213605   6.136   3.862   5.230
 4236SOL     OW13606   6.903   3.215   3.446
 4236SOL    HW113607   6.823   3.243   3.500
 4236SOL    HW213608   6.875   3.151   3.375
 4237SOL     OW13609   6.083   4.546   4.224
 4237SOL    HW113610   6.146   4.549   4.147
 4237SOL    HW213611   6.131   4.513   4.305
 4238SOL     OW13612   4.255   4.754   4.016
 4238SOL    HW113613   4.314   4.678   3.990
 4238SOL    HW213614   4.289   4.838   3.974
 4239SOL     OW13615   5.607   0.113   4.301
 4239SOL    HW113616   5.547   0.145   4.374
 4239SOL    HW213617   5.611   0.014   4.300
 4240SOL     OW13618   2.322   6.293   6.090
 4240SOL    HW113619   2.258   6.222   6.117
 4240SOL    HW213620   2.274   6.365   6.040
 4241SOL     OW13621   5.687   0.217   1.064
 4241SOL    HW113622   5.613   0.250   1.123
 4241SOL    HW213623   5.751   0.291   1.045
 4242SOL     OW13624   2.185   0.027   3.414
 4242SOL    HW113625   2.172   6.965   3.365
 4242SOL    HW213626   2.100   0.079   3.412
 4243SOL     OW13627   0.843   3.906   2.737
 4243SOL    HW113628   0.896   3.835   2.783
 4243SOL    HW213629   0.774   3.863   2.678
 4244SOL     OW13630   4.709   5.805   0.986
 4244SOL    HW113631   4.705   5.886   1.045
 4244SOL    HW213632   4.800   5.795   0.948
 4245SOL     OW13633   6.974   2.265   0.329
 4245SOL    HW113634   6.991   2.207   0.249
 4245SOL    HW213635   6.877   2.289   0.333
 4246SOL     OW13636   5.374   3.274   3.237
 4246SOL    HW113637   5.299   3.214   3.210
 4246SOL    HW213638   5.371   3.290   3.335
 4247SOL     OW13639   2.371   5.195   4.586
 4247SOL    HW113640   2.412   5.140   4.659
 4247SOL    HW213641   2.289   5.240   4.621
 4248SOL     OW13642   1.764   0.936   3.272
 4248SOL    HW113643   1.785   1.024   3.230
 4248SOL    HW213644   1.813   0.864   3.223
 4249SOL     OW13645   6.403   1.882   3.610
 4249SOL    HW113646   6.316   1.903   3.655
 4249SOL    HW213647   6.385   1.827   3.529
 4250SOL     OW13648   0.003   5.918   4.087
 4250SOL    HW113649   0.025   5.825   4.058
 4250SOL    HW213650   0.086   5.966   4.111
 4251SOL     OW13651   5.756   2.447   6.700
 4251SOL    HW113652   5.724   2.511   6.769
 4251SOL    HW213653   5.847   2.414   6.723
 4252SOL     OW13654   6.130   5.988   6.472
 4252SOL    HW113655   6.208   5.926   6.481
 4252SOL    HW213656   6.090   5.979   6.381
 4253SOL     OW13657   3.500   6.401   2.374
 4253SOL    HW113658   3.434   6.435   2.307
 4253SOL    HW213659   3.478   6.438   2.464
 4254SOL     OW13660   2.323   4.578   1.735
 4254SOL    HW113661   2.268   4.611   1.811
 4254SOL    HW213662   2.420   4.586   1.759
 4255SOL     OW13663   6.961   3.295   3.894
 4255SOL    HW113664   0.021   3.333   3.933
 4255SOL    HW213665   6.920   3.362   3.832
 4256SOL     OW13666   1.142   5.725   1.889
 4256SOL    HW113667   1.138   5.825   1.879
 4256SOL    HW213668   1.053   5.686   1.863
 4257SOL     OW13669   6.429   0.918   4.939
 4257SOL    HW113670   6.482   0.883   5.017
 4257SOL    HW213671   6.375   0.843   4.900
 4258SOL     OW13672   3.569   5.649   1.149
 4258SOL    HW113673   3.605   5.608   1.065
 4258SOL    HW213674   3.644   5.683   1.205
 4259SOL     OW13675   1.546   6.638   1.405
 4259SOL    HW113676   1.629   6.639   1.460
 4259SOL    HW213677   1.549   6.562   1.340
 4260SOL     OW13678   5.028   0.002   4.048
 4260SOL    HW113679   4.995   6.947   3.997
 4260SOL    HW213680   5.124   7.013   4.073
 4261SOL     OW13681   1.875   0.374   3.781
 4261SOL    HW113682   1.781   0.347   3.798
 4261SOL    HW213683   1.892   0.465   3.820
 4262SOL     OW13684   1.860   4.769   5.651
 4262SOL    HW113685   1.926   4.835   5.616
 4262SOL    HW213686   1.908   4.696   5.699
 4263SOL     OW13687   3.022   1.602   3.314
 4263SOL    HW113688   3.107   1.585   3.363
 4263SOL    HW213689   2.979   1.515   3.290
 4264SOL     OW13690   5.860   1.292   4.700
 4264SOL    HW113691   5.799   1.305   4.622
 4264SOL    HW213692   5.948   1.258   4.669
 4265SOL     OW13693   3.263   0.694   0.678
 4265SOL    HW113694   3.167   0.722   0.675
 4265SOL    HW213695   3.309   0.744   0.752
 4266SOL     OW13696   1.571   6.913   0.018
 4266SOL    HW113697   1.522   6.839   0.065
 4266SOL    HW213698   1.505   6.968   6.990
 4267SOL     OW13699   1.987   4.046   3.951
 4267SOL    HW113700   2.063   4.027   4.014
 4267SOL    HW213701   1.940   3.961   3.929
 4268SOL     OW13702   2.098   5.367   6.525
 4268SOL    HW113703   2.023   5.302   6.514
 4268SOL    HW213704   2.146   5.348   6.611
 4269SOL     OW13705   3.108   1.678   3.979
 4269SOL    HW113706   3.183   1.615   3.959
 4269SOL    HW213707   3.135   1.739   4.054
 4270SOL     OW13708   3.805   3.177   1.439
 4270SOL    HW113709   3.716   3.167   1.395
 4270SOL    HW213710   3.860   3.244   1.388
 4271SOL     OW13711   6.472   0.896   0.355
 4271SOL    HW113712   6.522   0.951   0.421
 4271SOL    HW213713   6.408   0.954   0.304
 4272SOL     OW13714   6.820   3.288   5.357
 4272SOL    HW113715   6.774   3.287   5.269
 4272SOL    HW213716   6.858   3.197   5.377
 4273SOL     OW13717   5.430   6.085   5.141
 4273SOL    HW113718   5.444   5.994   5.182
 4273SOL    HW213719   5.376   6.141   5.204
 4274SOL     OW13720   0.671   6.930   1.910
 4274SOL    HW113721   0.762   6.967   1.930
 4274SOL    HW213722   0.651   6.855   1.972
 4275SOL     OW13723   0.327   1.814   4.709
 4275SOL    HW113724   0.412   1.865   4.693
 4275SOL    HW213725   0.324   1.787   4.806
 4276SOL     OW13726   2.982   5.057   3.558
 4276SOL    HW113727   2.963   4.989   3.487
 4276SOL    HW213728   2.976   5.013   3.648
 4277SOL     OW13729   6.789   4.658   3.483
 4277SOL    HW113730   6.779   4.559   3.498
 4277SOL    HW213731   6.826   4.673   3.391
 4278SOL     OW13732   6.933   6.523   3.435
 4278SOL    HW113733   6.940   6.522   3.336
 4278SOL    HW213734   6.950   6.431   3.470
 4279SOL     OW13735   1.839   0.620   2.218
 4279SOL    HW113736   1.781   0.541   2.232
 4279SOL    HW213737   1.816   0.691   2.284
 4280SOL     OW13738   6.114   6.566   5.948
 4280SOL    HW113739   6.127   6.477   5.903
 4280SOL    HW213740   6.017   6.588   5.951
 4281SOL     OW13741   4.831   5.036   4.328
 4281SOL    HW113742   4.749   5.012   4.277
 4281SOL    HW213743   4.905   5.057   4.263
 4282SOL     OW13744   3.321   4.433   0.847
 4282SOL    HW113745   3.310   4.335   0.861
 4282SOL    HW213746   3.377   4.450   0.766
 4283SOL     OW13747   4.699   1.258   3.259
 4283SOL    HW113748   4.750   1.261   3.173
 4283SOL    HW213749   4.754   1.213   3.329
 4284SOL     OW13750   3.819   5.557   6.676
 4284SOL    HW113751   3.906   5.557   6.725
 4284SOL    HW213752   3.819   5.632   6.609
 4285SOL     OW13753   2.712   0.878   5.730
 4285SOL    HW113754   2.750   0.797   5.686
 4285SOL    HW213755   2.776   0.912   5.799
 4286SOL     OW13756   7.011   0.456   6.214
 4286SOL    HW113757   6.924   0.494   6.181
 4286SOL    HW213758   0.013   0.502   6.299
 4287SOL     OW13759   4.915   1.366   6.305
 4287SOL    HW113760   4.898   1.385   6.208
 4287SOL    HW213761   4.828   1.357   6.353
 4288SOL     OW13762   6.765   5.856   2.520
 4288SOL    HW113763   6.857   5.851   2.481
 4288SOL    HW213764   6.749   5.948   2.555
 4289SOL     OW13765   1.367   2.376   5.632
 4289SOL    HW113766   1.333   2.392   5.724
 4289SOL    HW213767   1.424   2.454   5.603
 4290SOL     OW13768   0.344   6.428   4.235
 4290SOL    HW113769   0.335   6.507   4.175
 4290SOL    HW213770   0.403   6.452   4.313
 4291SOL     OW13771   4.809   2.965   6.546
 4291SOL    HW113772   4.711   2.982   6.554
 4291SOL    HW213773   4.841   2.995   6.456
 4292SOL     OW13774   6.117   2.910   0.070
 4292SOL    HW113775   6.120   2.960   7.008
 4292SOL    HW213776   6.131   2.812   0.053
 4293SOL     OW13777   4.277   3.851   6.886
 4293SOL    HW113778   4.353   3.874   6.947
 4293SOL    HW213779   4.253   3.755   6.896
 4294SOL     OW13780   2.248   2.031   6.165
 4294SOL    HW113781   2.289   2.095   6.099
 4294SOL    HW213782   2.148   2.035   6.155
 4295SOL     OW13783   4.160   6.285   2.962
 4295SOL    HW113784   4.154   6.384   2.977
 4295SOL    HW213785   4.169   6.238   3.049
 4296SOL     OW13786   3.262   6.854   0.900
 4296SOL    HW113787   3.219   6.932   0.855
 4296SOL    HW213788   3.296   6.790   0.830
 4297SOL     OW13789   6.241   6.479   1.505
 4297SOL    HW113790   6.215   6.441   1.416
 4297SOL    HW213791   6.179   6.447   1.575
 4298SOL     OW13792   3.711   6.450   1.439
 4298SOL    HW113793   3.700   6.548   1.453
 4298SOL    HW213794   3.631   6.414   1.389
 4299SOL     OW13795   0.535   3.418   0.207
 4299SOL    HW113796   0.533   3.367   0.121
 4299SOL    HW213797   0.441   3.429   0.240
 4300SOL     OW13798   2.717   0.414   1.139
 4300SOL    HW113799   2.636   0.455   1.180
 4300SOL    HW213800   2.705   0.314   1.135
 4301SOL     OW13801   3.076   6.999   1.643
 4301SOL    HW113802   3.086   0.073   1.627
 4301SOL    HW213803   3.162   6.962   1.680
 4302SOL     OW13804   6.338   0.201   6.949
 4302SOL    HW113805   6.345   0.128   6.881
 4302SOL    HW213806   6.296   0.282   6.907
 4303SOL     OW13807   0.154   4.490   3.389
 4303SOL    HW113808   0.133   4.586   3.408
 4303SOL    HW213809   0.194   4.482   3.297
 4304SOL     OW13810   3.757   4.065   1.896
 4304SOL    HW113811   3.789   3.971   1.906
 4304SOL    HW213812   3.738   4.104   1.986
 4305SOL     OW13813   0.565   6.708   4.727
 4305SOL    HW113814   0.657   6.720   4.689
 4305SOL    HW213815   0.554   6.613   4.757
 4306SOL     OW13816   5.038   4.394   4.645
 4306SOL    HW113817   5.011   4.333   4.571
 4306SOL    HW213818   4.957   4.433   4.689
 4307SOL     OW13819   5.489   3.074   5.685
 4307SOL    HW113820   5.419   3.050   5.753
 4307SOL    HW213821   5.529   3.162   5.708
 4308SOL     OW13822   5.643   5.067   1.812
 4308SOL    HW113823   5.607   4.977   1.789
 4308SOL    HW213824   5.743   5.063   1.820
 4309SOL     OW13825   0.849   3.453   0.210
 4309SOL    HW113826   0.911   3.521   0.250
 4309SOL    HW213827   0.760   3.496   0.193
 4310SOL     OW13828   1.395   2.668   2.363
 4310SOL    HW113829   1.453   2.740   2.325
 4310SOL    HW213830   1.428   2.578   2.333
 4311SOL     OW13831   1.216   6.858   2.148
 4311SOL    HW113832   1.239   6.954   2.134
 4311SOL    HW213833   1.297   6.802   2.136
 4312SOL     OW13834   1.163   5.580   2.875
 4312SOL    HW113835   1.202   5.665   2.912
 4312SOL    HW213836   1.086   5.551   2.931
 4313SOL     OW13837   3.464   2.359   7.019
 4313SOL    HW113838   3.492   2.293   6.949
 4313SOL    HW213839   3.365   2.356   0.006
 4314SOL     OW13840   6.587   1.733   5.666
 4314SOL    HW113841   6.647   1.665   5.624
 4314SOL    HW213842   6.494   1.721   5.632
 4315SOL     OW13843   2.011   1.644   3.992
 4315SOL    HW113844   1.968   1.660   4.081
 4315SOL    HW213845   2.100   1.690   3.989
 4316SOL     OW13846   4.932   6.695   2.770
 4316SOL    HW113847   4.859   6.761   2.755
 4316SOL    HW213848   5.002   6.735   2.829
 4317SOL     OW13849   4.123   0.682   5.449
 4317SOL    HW113850   4.055   0.735   5.501
 4317SOL    HW213851   4.130   0.720   5.356
 4318SOL     OW13852   0.492   0.607   4.346
 4318SOL    HW113853   0.470   0.613   4.443
 4318SOL    HW213854   0.484   0.697   4.304
 4319SOL     OW13855   1.864   2.263   1.378
 4319SOL    HW113856   1.829   2.259   1.284
 4319SOL    HW213857   1.896   2.173   1.405
 4320SOL     OW13858   4.012   5.843   0.754
 4320SOL    HW113859   3.982   5.785   0.830
 4320SOL    HW213860   4.100   5.886   0.778
 4321SOL     OW13861   6.895   5.019   3.382
 4321SOL    HW113862   6.869   4.954   3.311
 4321SOL    HW213863   6.950   5.092   3.343
 4322SOL     OW13864   6.947   3.233   5.757
 4322SOL    HW113865   6.950   3.332   5.767
 4322SOL    HW213866   6.861   3.198   5.793
 4323SOL     OW13867   4.161   5.307   6.712
 4323SOL    HW113868   4.231   5.266   6.653
 4323SOL    HW213869   4.099   5.235   6.744
 4324SOL     OW13870   6.700   3.144   5.892
 4324SOL    HW113871   6.665   3.082   5.822
 4324SOL    HW213872   6.670   3.238   5.872
 4325SOL     OW13873   2.687   1.883   2.336
 4325SOL    HW113874   2.615   1.922   2.392
 4325SOL    HW213875   2.650   1.855   2.247
 4326SOL     OW13876   5.750   3.217   2.684
 4326SOL    HW113877   5.818   3.230   2.757
 4326SOL    HW213878   5.736   3.304   2.636
 4327SOL     OW13879   3.787   5.534   3.050
 4327SOL    HW113880   3.766   5.575   3.139
 4327SOL    HW213881   3.750   5.442   3.045
 4328SOL     OW13882   6.061   4.255   4.673
 4328SOL    HW113883   6.137   4.307   4.633
 4328SOL    HW213884   6.054   4.166   4.628
 4329SOL     OW13885   6.157   3.476   5.153
 4329SOL    HW113886   6.154   3.395   5.094
 4329SOL    HW213887   6.144   3.558   5.098
 4330SOL     OW13888   1.843   6.512   4.595
 4330SOL    HW113889   1.820   6.604   4.626
 4330SOL    HW213890   1.783   6.486   4.520
 4331SOL     OW13891   0.254   0.225   1.424
 4331SOL    HW113892   0.233   0.156   1.493
 4331SOL    HW213893   0.223   0.314   1.456
 4332SOL     OW13894   5.872   3.754   2.691
 4332SOL    HW113895   5.956   3.719   2.733
 4332SOL    HW213896   5.886   3.764   2.592
 4333SOL     OW13897   4.513   2.175   5.043
 4333SOL    HW113898   4.608   2.151   5.062
 4333SOL    HW213899   4.488   2.257   5.094
 4334SOL     OW13900   1.566   3.025   2.482
 4334SOL    HW113901   1.514   3.005   2.565
 4334SOL    HW213902   1.534   3.111   2.442
 4335SOL     OW13903   3.574   2.805   1.016
 4335SOL    HW113904   3.543   2.711   1.018
 4335SOL    HW213905   3.520   2.860   1.080
 4336SOL     OW13906   2.056   4.648   5.200
 4336SOL    HW113907   1.972   4.692   5.232
 4336SOL    HW213908   2.118   4.717   5.163
 4337SOL     OW13909   1.484   6.073   2.160
 4337SOL    HW113910   1.477   5.974   2.146
 4337SOL    HW213911   1.403   6.118   2.122
 4338SOL     OW13912   6.530   0.192   6.266
 4338SOL    HW113913   6.506   0.110   6.317
 4338SOL    HW213914   6.451   0.222   6.212
 4339SOL     OW13915   3.621   2.563   6.353
 4339SOL    HW113916   3.565   2.497   6.403
 4339SOL    HW213917   3.714   2.528   6.343
 4340SOL     OW13918   5.856   2.751   1.160
 4340SOL    HW113919   5.785   2.715   1.220
 4340SOL    HW213920   5.815   2.810   1.091
 4341SOL     OW13921   1.367   5.380   2.280
 4341SOL    HW113922   1.377   5.301   2.219
 4341SOL    HW213923   1.402   5.461   2.235
 4342SOL     OW13924   4.938   3.586   3.158
 4342SOL    HW113925   5.030   3.547   3.163
 4342SOL    HW213926   4.926   3.636   3.073
 4343SOL     OW13927   3.610   6.621   6.463
 4343SOL    HW113928   3.674   6.683   6.508
 4343SOL    HW213929   3.592   6.542   6.522
 4344SOL     OW13930   0.244   2.896   3.430
 4344SOL    HW113931   0.314   2.825   3.419
 4344SOL    HW213932   0.235   2.947   3.345
 4345SOL     OW13933   3.120   3.373   2.978
 4345SOL    HW113934   3.166   3.389   3.065
 4345SOL    HW213935   3.058   3.448   2.958
 4346SOL     OW13936   2.115   2.669   2.440
 4346SOL    HW113937   2.162   2.708   2.361
 4346SOL    HW213938   2.176   2.672   2.519
 4347SOL     OW13939   6.331   5.898   2.113
 4347SOL    HW113940   6.408   5.837   2.134
 4347SOL    HW213941   6.353   5.991   2.142
 4348SOL     OW13942   0.093   5.661   4.034
 4348SOL    HW113943   0.086   5.641   4.132
 4348SOL    HW213944   0.048   5.589   3.982
 4349SOL     OW13945   6.691   3.270   3.580
 4349SOL    HW113946   6.718   3.265   3.676
 4349SOL    HW213947   6.623   3.343   3.568
 4350SOL     OW13948   5.007   2.246   4.703
 4350SOL    HW113949   4.949   2.293   4.637
 4350SOL    HW213950   5.074   2.189   4.655
 4351SOL     OW13951   1.276   6.172   1.595
 4351SOL    HW113952   1.330   6.253   1.572
 4351SOL    HW213953   1.186   6.180   1.553
 4352SOL     OW13954   5.163   3.705   1.256
 4352SOL    HW113955   5.132   3.643   1.328
 4352SOL    HW213956   5.261   3.723   1.268
 4353SOL     OW13957   2.947   3.522   6.556
 4353SOL    HW113958   3.044   3.499   6.553
 4353SOL    HW213959   2.895   3.451   6.509
 4354SOL     OW13960   1.026   0.802   5.643
 4354SOL    HW113961   0.968   0.868   5.690
 4354SOL    HW213962   1.122   0.832   5.649
 4355SOL     OW13963   1.267   6.596   3.402
 4355SOL    HW113964   1.350   6.643   3.372
 4355SOL    HW213965   1.193   6.663   3.415
 4356SOL     OW13966   4.605   3.348   5.931
 4356SOL    HW113967   4.569   3.261   5.966
 4356SOL    HW213968   4.562   3.369   5.843
 4357SOL     OW13969   0.128   1.658   1.954
 4357SOL    HW113970   0.174   1.746   1.940
 4357SOL    HW213971   0.189   1.596   2.004
 4358SOL     OW13972   0.288   0.924   6.761
 4358SOL    HW113973   0.240   0.988   6.822
 4358SOL    HW213974   0.290   0.833   6.804
 4359SOL     OW13975   2.010   0.566   6.595
 4359SOL    HW113976   1.924   0.525   6.623
 4359SOL    HW213977   2.042   0.523   6.511
 4360SOL     OW13978   1.194   2.182   4.059
 4360SOL    HW113979   1.207   2.280   4.040
 4360SOL    HW213980   1.282   2.142   4.086
 4361SOL     OW13981   2.038   2.900   1.490
 4361SOL    HW113982   2.096   2.980   1.502
 4361SOL    HW213983   1.949   2.928   1.456
 4362SOL     OW13984   0.811   6.097   4.333
 4362SOL    HW113985   0.897   6.117   4.285
 4362SOL    HW213986   0.817   6.006   4.374
 4363SOL     OW13987   3.863   0.572   1.980
 4363SOL    HW113988   3.912   0.579   1.893
 4363SOL    HW213989   3.823   0.481   1.989
 4364SOL     OW13990   3.260   3.859   2.672
 4364SOL    HW113991   3.256   3.763   2.644
 4364SOL    HW213992   3.176   3.883   2.719
 4365SOL     OW13993   3.193   1.641   2.061
 4365SOL    HW113994   3.265   1.636   2.130
 4365SOL    HW213995   3.153   1.551   2.048
 4366SOL     OW13996   6.607   5.897   5.910
 4366SOL    HW113997   6.605   5.996   5.925
 4366SOL    HW213998   6.531   5.855   5.959
 4367SOL     OW13999   2.720   5.384   3.073
 4367SOL    HW114000   2.720   5.465   3.132
 4367SOL    HW214001   2.741   5.303   3.129
 4368SOL     OW14002   3.978   5.679   2.916
 4368SOL    HW114003   3.914   5.602   2.914
 4368SOL    HW214004   3.949   5.744   2.987
 4369SOL     OW14005   5.224   5.374   3.116
 4369SOL    HW114006   5.231   5.379   3.215
 4369SOL    HW214007   5.301   5.422   3.074
 4370SOL     OW14008   3.646   3.916   1.648
 4370SOL    HW114009   3.695   3.905   1.734
 4370SOL    HW214010   3.548   3.919   1.665
 4371SOL     OW14011   2.467   1.027   2.145
 4371SOL    HW114012   2.430   1.034   2.237
 4371SOL    HW214013   2.462   0.931   2.114
 4372SOL     OW14014   1.851   3.430   4.288
 4372SOL    HW114015   1.781   3.360   4.307
 4372SOL    HW214016   1.938   3.385   4.270
 4373SOL     OW14017   4.349   1.186   5.857
 4373SOL    HW114018   4.399   1.268   5.886
 4373SOL    HW214019   4.318   1.198   5.763
 4374SOL     OW14020   2.540   2.214   1.518
 4374SOL    HW114021   2.537   2.119   1.550
 4374SOL    HW214022   2.525   2.276   1.595
 4375SOL     OW14023   4.090   6.627   3.210
 4375SOL    HW114024   4.108   6.589   3.119
 4375SOL    HW214025   4.033   6.709   3.201
 4376SOL     OW14026   6.154   0.448   2.267
 4376SOL    HW114027   6.130   0.413   2.176
 4376SOL    HW214028   6.084   0.421   2.333
 4377SOL     OW14029   6.658   5.658   0.301
 4377SOL    HW114030   6.749   5.619   0.304
 4377SOL    HW214031   6.662   5.756   0.324
 4378SOL     OW14032   1.427   4.807   2.078
 4378SOL    HW114033   1.520   4.843   2.067
 4378SOL    HW214034   1.387   4.845   2.162
 4379SOL     OW14035   2.389   0.743   2.404
 4379SOL    HW114036   2.421   0.737   2.310
 4379SOL    HW214037   2.290   0.759   2.404
 4380SOL     OW14038   2.193   5.658   5.069
 4380SOL    HW114039   2.174   5.713   4.988
 4380SOL    HW214040   2.180   5.561   5.048
 4381SOL     OW14041   2.671   4.709   4.546
 4381SOL    HW114042   2.741   4.734   4.612
 4381SOL    HW214043   2.642   4.791   4.496
 4382SOL     OW14044   5.367   4.333   5.077
 4382SOL    HW114045   5.290   4.277   5.047
 4382SOL    HW214046   5.401   4.299   5.165
 4383SOL     OW14047   0.565   1.637   5.217
 4383SOL    HW114048   0.603   1.710   5.275
 4383SOL    HW214049   0.603   1.644   5.125
 4384SOL     OW14050   4.907   0.671   0.074
 4384SOL    HW114051   5.002   0.684   0.046
 4384SOL    HW214052   4.847   0.680   7.019
 4385SOL     OW14053   6.875   2.087   3.843
 4385SOL    HW114054   6.810   2.037   3.787
 4385SOL    HW214055   6.953   2.115   3.786
 4386SOL     OW14056   0.901   4.131   6.131
 4386SOL    HW114057   0.875   4.214   6.179
 4386SOL    HW214058   0.921   4.059   6.197
 4387SOL     OW14059   0.207   2.209   1.970
 4387SOL    HW114060   0.110   2.216   1.947
 4387SOL    HW214061   0.217   2.195   2.069
 4388SOL     OW14062   4.077   1.278   6.371
 4388SOL    HW114063   4.040   1.276   6.278
 4388SOL    HW214064   4.148   1.209   6.381
 4389SOL     OW14065   5.991   2.164   0.998
 4389SOL    HW114066   6.011   2.179   0.901
 4389SOL    HW214067   5.975   2.067   1.014
 4390SOL     OW14068   4.061   2.375   1.605
 4390SOL    HW114069   4.029   2.466   1.634
 4390SOL    HW214070   4.100   2.382   1.513
 4391SOL     OW14071   1.701   6.198   6.507
 4391SOL    HW114072   1.684   6.269   6.439
 4391SOL    HW214073   1.682   6.108   6.466
 4392SOL     OW14074   5.456   3.970   5.028
 4392SOL    HW114075   5.439   3.961   5.127
 4392SOL    HW214076   5.544   4.015   5.014
 4393SOL     OW14077   4.849   6.652   3.107
 4393SOL    HW114078   4.753   6.639   3.083
 4393SOL    HW214079   4.900   6.569   3.084
 4394SOL     OW14080   5.731   5.345   2.316
 4394SOL    HW114081   5.821   5.303   2.330
 4394SOL    HW214082   5.688   5.361   2.405
 4395SOL     OW14083   4.198   2.307   0.659
 4395SOL    HW114084   4.210   2.238   0.588
 4395SOL    HW214085   4.117   2.284   0.714
 4396SOL     OW14086   2.176   2.117   4.118
 4396SOL    HW114087   2.269   2.097   4.147
 4396SOL    HW214088   2.153   2.060   4.038
 4397SOL     OW14089   0.137   1.437   3.703
 4397SOL    HW114090   0.192   1.521   3.699
 4397SOL    HW214091   0.194   1.363   3.738
 4398SOL     OW14092   1.533   4.246   4.322
 4398SOL    HW114093   1.565   4.210   4.409
 4398SOL    HW214094   1.567   4.339   4.310
 4399SOL     OW14095   2.344   0.535   0.965
 4399SOL    HW114096   2.272   0.602   0.978
 4399SOL    HW214097   2.404   0.534   1.044
 4400SOL     OW14098   2.175   6.526   4.906
 4400SOL    HW114099   2.122   6.459   4.854
 4400SOL    HW214100   2.203   6.484   4.993
 4401SOL     OW14101   5.985   5.570   6.218
 4401SOL    HW114102   5.950   5.532   6.304
 4401SOL    HW214103   5.943   5.660   6.203
 4402SOL     OW14104   1.401   6.424   2.900
 4402SOL    HW114105   1.459   6.381   2.830
 4402SOL    HW214106   1.458   6.457   2.975
 4403SOL     OW14107   6.582   6.900   3.620
 4403SOL    HW114108   6.540   6.852   3.696
 4403SOL    HW214109   6.643   6.838   3.571
 4404SOL     OW14110   1.139   3.721   4.842
 4404SOL    HW114111   1.094   3.784   4.906
 4404SOL    HW214112   1.235   3.710   4.868
 4405SOL     OW14113   3.233   4.656   6.310
 4405SOL    HW114114   3.268   4.740   6.268
 4405SOL    HW214115   3.292   4.629   6.385
 4406SOL     OW14116   5.067   4.425   0.519
 4406SOL    HW114117   4.984   4.371   0.507
 4406SOL    HW214118   5.062   4.475   0.605
 4407SOL     OW14119   0.262   5.297   0.994
 4407SOL    HW114120   0.226   5.370   1.051
 4407SOL    HW214121   0.232   5.208   1.030
 4408SOL     OW14122   5.080   1.220   0.836
 4408SOL    HW114123   5.021   1.187   0.763
 4408SOL    HW214124   5.039   1.197   0.925
 4409SOL     OW14125   3.604   0.846   1.539
 4409SOL    HW114126   3.527   0.789   1.509
 4409SOL    HW214127   3.579   0.893   1.623
 4410SOL     OW14128   2.155   4.371   6.698
 4410SOL    HW114129   2.105   4.326   6.773
 4410SOL    HW214130   2.093   4.387   6.622
 4411SOL     OW14131   3.570   3.265   3.306
 4411SOL    HW114132   3.647   3.213   3.342
 4411SOL    HW214133   3.532   3.323   3.378
 4412SOL     OW14134   3.903   1.751   4.947
 4412SOL    HW114135   3.864   1.786   4.862
 4412SOL    HW214136   4.002   1.763   4.945
 4413SOL     OW14137   5.011   5.845   5.103
 4413SOL    HW114138   4.967   5.782   5.039
 4413SOL    HW214139   4.963   5.933   5.102
 4414SOL     OW14140   4.668   4.792   2.210
 4414SOL    HW114141   4.646   4.807   2.114
 4414SOL    HW214142   4.722   4.709   2.220
 4415SOL     OW14143   4.557   3.824   6.693
 4415SOL    HW114144   4.473   3.814   6.640
 4415SOL    HW214145   4.610   3.738   6.688
 4416SOL     OW14146   2.717   1.429   4.074
 4416SOL    HW114147   2.743   1.360   4.142
 4416SOL    HW214148   2.787   1.433   4.003
 4417SOL     OW14149   6.774   4.369   2.611
 4417SOL    HW114150   6.764   4.398   2.516
 4417SOL    HW214151   6.870   4.374   2.637
 4418SOL     OW14152   4.525   6.676   4.303
 4418SOL    HW114153   4.493   6.649   4.212
 4418SOL    HW214154   4.549   6.594   4.355
 4419SOL     OW14155   5.329   5.545   0.554
 4419SOL    HW114156   5.260   5.566   0.623
 4419SOL    HW214157   5.356   5.629   0.508
 4420SOL     OW14158   5.236   1.633   0.607
 4420SOL    HW114159   5.229   1.597   0.699
 4420SOL    HW214160   5.262   1.560   0.544
 4421SOL     OW14161   1.689   1.408   3.394
 4421SOL    HW114162   1.783   1.374   3.394
 4421SOL    HW214163   1.686   1.498   3.349
 4422SOL     OW14164   2.439   3.542   5.731
 4422SOL    HW114165   2.490   3.458   5.747
 4422SOL    HW214166   2.501   3.620   5.738
 4423SOL     OW14167   0.761   2.763   5.933
 4423SOL    HW114168   0.673   2.718   5.913
 4423SOL    HW214169   0.834   2.695   5.930
 4424SOL     OW14170   5.413   6.848   3.414
 4424SOL    HW114171   5.408   6.945   3.436
 4424SOL    HW214172   5.473   6.834   3.335
 4425SOL     OW14173   3.273   5.587   5.760
 4425SOL    HW114174   3.218   5.636   5.827
 4425SOL    HW214175   3.232   5.497   5.743
 4426SOL     OW14176   6.536   1.316   4.641
 4426SOL    HW114177   6.446   1.276   4.622
 4426SOL    HW214178   6.588   1.254   4.700
 4427SOL     OW14179   6.941   0.079   2.695
 4427SOL    HW114180   7.020   0.026   2.726
 4427SOL    HW214181   6.923   0.153   2.760
 4428SOL     OW14182   3.097   5.015   3.143
 4428SOL    HW114183   3.107   5.110   3.113
 4428SOL    HW214184   3.179   4.988   3.194
 4429SOL     OW14185   2.799   0.125   3.910
 4429SOL    HW114186   2.719   0.181   3.889
 4429SOL    HW214187   2.770   0.031   3.931
 4430SOL     OW14188   5.055   2.658   3.392
 4430SOL    HW114189   4.986   2.688   3.327
 4430SOL    HW214190   5.094   2.571   3.361
 4431SOL     OW14191   1.948   1.848   2.109
 4431SOL    HW114192   1.895   1.832   2.192
 4431SOL    HW214193   2.042   1.871   2.134
 4432SOL     OW14194   2.984   3.631   4.004
 4432SOL    HW114195   2.935   3.685   3.935
 4432SOL    HW214196   2.983   3.534   3.977
 4433SOL     OW14197   6.379   6.847   4.756
 4433SOL    HW114198   6.406   6.941   4.779
 4433SOL    HW214199   6.315   6.813   4.826
 4434SOL     OW14200   4.749   1.197   4.280
 4434SOL    HW114201   4.849   1.201   4.283
 4434SOL    HW214202   4.718   1.195   4.185
 4435SOL     OW14203   3.834   3.715   1.005
 4435SOL    HW114204   3.766   3.788   1.007
 4435SOL    HW214205   3.902   3.731   1.078
 4436SOL     OW14206   2.908   2.288   0.402
 4436SOL    HW114207   2.847   2.257   0.476
 4436SOL    HW214208   2.854   2.304   0.319
 4437SOL     OW14209   4.955   1.174   3.949
 4437SOL    HW114210   4.952   1.096   4.010
 4437SOL    HW214211   4.934   1.144   3.855
 4438SOL     OW14212   3.752   1.940   6.789
 4438SOL    HW114213   3.716   1.854   6.825
 4438SOL    HW214214   3.804   1.987   6.859
 4439SOL     OW14215   0.780   5.569   1.381
 4439SOL    HW114216   0.824   5.521   1.457
 4439SOL    HW214217   0.680   5.567   1.393
 4440SOL     OW14218   1.413   4.730   6.598
 4440SOL    HW114219   1.445   4.665   6.529
 4440SOL    HW214220   1.430   4.823   6.566
 4441SOL     OW14221   6.915   1.787   1.884
 4441SOL    HW114222   6.853   1.719   1.844
 4441SOL    HW214223   6.998   1.742   1.915
 4442SOL     OW14224   2.957   6.059   4.078
 4442SOL    HW114225   2.933   6.140   4.024
 4442SOL    HW214226   2.988   5.986   4.017
 4443SOL     OW14227   0.931   2.636   6.710
 4443SOL    HW114228   0.984   2.573   6.654
 4443SOL    HW214229   0.965   2.729   6.696
 4444SOL     OW14230   3.517   6.120   6.697
 4444SOL    HW114231   3.463   6.141   6.779
 4444SOL    HW214232   3.596   6.065   6.724
 4445SOL     OW14233   0.747   0.441   0.171
 4445SOL    HW114234   0.796   0.395   0.244
 4445SOL    HW214235   0.795   0.428   0.084
 4446SOL     OW14236   5.815   1.473   1.388
 4446SOL    HW114237   5.795   1.376   1.379
 4446SOL    HW214238   5.741   1.519   1.438
 4447SOL     OW14239   5.225   3.549   5.495
 4447SOL    HW114240   5.236   3.476   5.563
 4447SOL    HW214241   5.292   3.537   5.422
 4448SOL     OW14242   2.807   3.883   0.684
 4448SOL    HW114243   2.775   3.854   0.774
 4448SOL    HW214244   2.780   3.979   0.669
 4449SOL     OW14245   3.859   0.386   6.245
 4449SOL    HW114246   3.767   0.409   6.276
 4449SOL    HW214247   3.895   0.461   6.189
 4450SOL     OW14248   3.464   2.899   3.712
 4450SOL    HW114249   3.453   2.914   3.614
 4450SOL    HW214250   3.399   2.957   3.762
 4451SOL     OW14251   5.757   4.531   2.633
 4451SOL    HW114252   5.797   4.460   2.575
 4451SOL    HW214253   5.670   4.560   2.594
 4452SOL     OW14254   5.685   6.297   5.167
 4452SOL    HW114255   5.629   6.349   5.232
 4452SOL    HW214256   5.626   6.233   5.117
 4453SOL     OW14257   6.585   2.704   0.042
 4453SOL    HW114258   6.682   2.688   0.023
 4453SOL    HW214259   6.536   2.718   6.981
 4454SOL     OW14260   4.896   2.609   0.665
 4454SOL    HW114261   4.845   2.592   0.580
 4454SOL    HW214262   4.940   2.524   0.695
 4455SOL     OW14263   3.082   6.744   6.727
 4455SOL    HW114264   3.087   6.755   6.628
 4455SOL    HW214265   3.001   6.790   6.762
 4456SOL     OW14266   2.370   5.067   2.547
 4456SOL    HW114267   2.390   5.017   2.463
 4456SOL    HW214268   2.288   5.029   2.589
 4457SOL     OW14269   3.904   2.576   0.226
 4457SOL    HW114270   3.891   2.584   0.324
 4457SOL    HW214271   3.874   2.660   0.181
 4458SOL     OW14272   1.789   3.762   6.727
 4458SOL    HW114273   1.845   3.809   6.659
 4458SOL    HW214274   1.783   3.664   6.704
 4459SOL     OW14275   5.509   0.299   4.148
 4459SOL    HW114276   5.517   0.294   4.048
 4459SOL    HW214277   5.552   0.219   4.189
 4460SOL     OW14278   2.728   2.731   5.682
 4460SOL    HW114279   2.650   2.790   5.705
 4460SOL    HW214280   2.790   2.781   5.622
 4461SOL     OW14281   0.986   0.622   2.775
 4461SOL    HW114282   0.930   0.617   2.693
 4461SOL    HW214283   0.950   0.558   2.844
 4462SOL     OW14284   6.964   4.037   1.151
 4462SOL    HW114285   6.928   4.125   1.182
 4462SOL    HW214286   7.020   3.997   1.224
 4463SOL     OW14287   2.179   2.761   6.922
 4463SOL    HW114288   2.238   2.826   6.874
 4463SOL    HW214289   2.095   2.807   6.952
 4464SOL     OW14290   6.089   5.309   0.647
 4464SOL    HW114291   5.995   5.341   0.645
 4464SOL    HW214292   6.137   5.350   0.724
 4465SOL     OW14293   1.913   6.342   3.042
 4465SOL    HW114294   1.919   6.244   3.063
 4465SOL    HW214295   1.999   6.371   2.999
 4466SOL     OW14296   1.386   0.505   3.005
 4466SOL    HW114297   1.352   0.558   2.927
 4466SOL    HW214298   1.389   0.563   3.086
 4467SOL     OW14299   1.035   6.441   3.706
 4467SOL    HW114300   1.059   6.538   3.715
 4467SOL    HW214301   1.057   6.409   3.614
 4468SOL     OW14302   0.784   1.649   0.480
 4468SOL    HW114303   0.883   1.646   0.467
 4468SOL    HW214304   0.761   1.721   0.545
 4469SOL     OW14305   3.004   0.123   1.327
 4469SOL    HW114306   2.907   0.107   1.307
 4469SOL    HW214307   3.057   0.044   1.297
 4470SOL     OW14308   5.896   3.616   1.872
 4470SOL    HW114309   5.909   3.704   1.917
 4470SOL    HW214310   5.876   3.546   1.941
 4471SOL     OW14311   0.424   2.860   0.381
 4471SOL    HW114312   0.327   2.861   0.406
 4471SOL    HW214313   0.478   2.897   0.456
 4472SOL     OW14314   1.478   3.523   3.135
 4472SOL    HW114315   1.441   3.599   3.081
 4472SOL    HW214316   1.410   3.493   3.202
 4473SOL     OW14317   0.368   1.148   4.537
 4473SOL    HW114318   0.431   1.192   4.474
 4473SOL    HW214319   0.359   1.052   4.514
 4474SOL     OW14320   3.539   1.166   2.168
 4474SOL    HW114321   3.466   1.227   2.137
 4474SOL    HW214322   3.623   1.218   2.179
 4475SOL     OW14323   1.929   4.204   2.221
 4475SOL    HW114324   1.986   4.217   2.139
 4475SOL    HW214325   1.980   4.151   2.289
 4476SOL     OW14326   5.414   6.406   4.120
 4476SOL    HW114327   5.397   6.460   4.203
 4476SOL    HW214328   5.327   6.369   4.086
 4477SOL     OW14329   1.923   0.244   6.830
 4477SOL    HW114330   1.901   0.175   6.761
 4477SOL    HW214331   1.973   0.202   6.905
 4478SOL     OW14332   2.800   6.205   2.545
 4478SOL    HW114333   2.767   6.295   2.570
 4478SOL    HW214334   2.754   6.175   2.461
 4479SOL     OW14335   1.216   0.642   0.097
 4479SOL    HW114336   1.302   0.667   0.141
 4479SOL    HW214337   1.228   0.644   7.022
 4480SOL     OW14338   2.138   3.926   4.969
 4480SOL    HW114339   2.201   3.990   5.013
 4480SOL    HW214340   2.047   3.936   5.009
 4481SOL     OW14341   2.427   0.112   4.202
 4481SOL    HW114342   2.394   0.039   4.262
 4481SOL    HW214343   2.420   0.083   4.107
 4482SOL     OW14344   0.361   3.776   4.104
 4482SOL    HW114345   0.385   3.871   4.084
 4482SOL    HW214346   0.405   3.748   4.189
 4483SOL     OW14347   6.154   3.366   1.465
 4483SOL    HW114348   6.106   3.436   1.518
 4483SOL    HW214349   6.250   3.393   1.453
 4484SOL     OW14350   2.977   1.698   5.256
 4484SOL    HW114351   3.063   1.693   5.205
 4484SOL    HW214352   2.900   1.686   5.194
 4485SOL     OW14353   5.704   2.902   6.017
 4485SOL    HW114354   5.796   2.907   6.056
 4485SOL    HW214355   5.711   2.895   5.917
 4486SOL     OW14356   5.792   3.483   4.310
 4486SOL    HW114357   5.799   3.508   4.213
 4486SOL    HW214358   5.706   3.519   4.347
 4487SOL     OW14359   2.103   3.499   6.868
 4487SOL    HW114360   2.089   3.506   6.770
 4487SOL    HW214361   2.088   3.588   6.910
 4488SOL     OW14362   5.351   2.560   5.680
 4488SOL    HW114363   5.261   2.563   5.725
 4488SOL    HW214364   5.374   2.652   5.647
 4489SOL     OW14365   5.101   6.153   4.496
 4489SOL    HW114366   5.081   6.062   4.534
 4489SOL    HW214367   5.053   6.222   4.551
 4490SOL     OW14368   5.517   2.126   2.064
 4490SOL    HW114369   5.432   2.088   2.028
 4490SOL    HW214370   5.591   2.060   2.051
 4491SOL     OW14371   0.734   2.988   3.450
 4491SOL    HW114372   0.676   3.018   3.374
 4491SOL    HW214373   0.811   2.936   3.415
 4492SOL     OW14374   5.498   4.229   0.844
 4492SOL    HW114375   5.553   4.249   0.763
 4492SOL    HW214376   5.553   4.178   0.911
 4493SOL     OW14377   4.634   5.336   5.162
 4493SOL    HW114378   4.548   5.385   5.151
 4493SOL    HW214379   4.657   5.289   5.077
 4494SOL     OW14380   0.345   2.077   6.231
 4494SOL    HW114381   0.296   2.000   6.272
 4494SOL    HW214382   0.322   2.161   6.279
 4495SOL     OW14383   5.564   7.004   3.653
 4495SOL    HW114384   5.516   0.023   3.729
 4495SOL    HW214385   5.540   0.026   3.568
 4496SOL     OW14386   5.165   5.915   0.527
 4496SOL    HW114387   5.072   5.883   0.510
 4496SOL    HW214388   5.168   6.015   0.517
 4497SOL     OW14389   4.426   6.889   6.884
 4497SOL    HW114390   4.382   6.861   6.969
 4497SOL    HW214391   4.525   6.878   6.892
 4498SOL     OW14392   0.154   3.104   6.231
 4498SOL    HW114393   0.084   3.166   6.194
 4498SOL    HW214394   0.244   3.149   6.225
 4499SOL     OW14395   6.917   3.109   4.120
 4499SOL    HW114396   6.921   3.167   4.039
 4499SOL    HW214397   6.828   3.062   4.123
 4500SOL     OW14398   3.517   3.407   3.806
 4500SOL    HW114399   3.519   3.315   3.768
 4500SOL    HW214400   3.427   3.447   3.792
 4501SOL     OW14401   0.221   3.191   5.848
 4501SOL    HW114402   0.265   3.105   5.875
 4501SOL    HW214403   0.143   3.171   5.789
 4502SOL     OW14404   1.801   3.068   6.292
 4502SOL    HW114405   1.825   3.128   6.216
 4502SOL    HW214406   1.722   3.105   6.341
 4503SOL     OW14407   2.872   0.264   2.470
 4503SOL    HW114408   2.957   0.313   2.449
 4503SOL    HW214409   2.876   0.172   2.430
 4504SOL     OW14410   6.293   1.600   4.821
 4504SOL    HW114411   6.298   1.641   4.913
 4504SOL    HW214412   6.366   1.637   4.764
 4505SOL     OW14413   6.348   5.685   4.179
 4505SOL    HW114414   6.290   5.748   4.128
 4505SOL    HW214415   6.292   5.626   4.237
 4506SOL     OW14416   4.566   2.645   4.608
 4506SOL    HW114417   4.484   2.698   4.633
 4506SOL    HW214418   4.548   2.548   4.624
 4507SOL     OW14419   4.949   3.984   1.554
 4507SOL    HW114420   4.859   3.990   1.511
 4507SOL    HW214421   4.940   3.937   1.642
 4508SOL     OW14422   0.835   4.999   6.362
 4508SOL    HW114423   0.803   4.979   6.455
 4508SOL    HW214424   0.762   4.978   6.297
 4509SOL     OW14425   5.003   2.273   4.019
 4509SOL    HW114426   4.927   2.295   4.081
 4509SOL    HW214427   5.008   2.174   4.006
 4510SOL     OW14428   5.676   6.545   5.371
 4510SOL    HW114429   5.672   6.476   5.444
 4510SOL    HW214430   5.767   6.586   5.369
 4511SOL     OW14431   0.033   2.824   6.256
 4511SOL    HW114432   0.075   2.787   6.173
 4511SOL    HW214433   0.089   2.899   6.291
 4512SOL     OW14434   2.190   6.663   6.300
 4512SOL    HW114435   2.175   6.583   6.358
 4512SOL    HW214436   2.125   6.661   6.224
 4513SOL     OW14437   5.340   6.530   0.483
 4513SOL    HW114438   5.353   6.568   0.391
 4513SOL    HW214439   5.256   6.475   0.485
 4514SOL     OW14440   4.457   0.487   4.583
 4514SOL    HW114441   4.447   0.585   4.600
 4514SOL    HW214442   4.367   0.446   4.571
 4515SOL     OW14443   6.732   4.054   6.207
 4515SOL    HW114444   6.793   4.004   6.269
 4515SOL    HW214445   6.678   3.989   6.154
 4516SOL     OW14446   1.356   1.814   5.800
 4516SOL    HW114447   1.302   1.869   5.736
 4516SOL    HW214448   1.421   1.757   5.749
 4517SOL     OW14449   2.552   6.922   6.792
 4517SOL    HW114450   2.572   6.922   6.890
 4517SOL    HW214451   2.614   6.986   6.746
 4518SOL     OW14452   6.483   1.761   3.273
 4518SOL    HW114453   6.503   1.858   3.259
 4518SOL    HW214454   6.568   1.709   3.275
 4519SOL     OW14455   6.130   0.544   1.691
 4519SOL    HW114456   6.091   0.516   1.603
 4519SOL    HW214457   6.188   0.624   1.678
 4520SOL     OW14458   5.370   4.997   2.627
 4520SOL    HW114459   5.290   4.987   2.687
 4520SOL    HW214460   5.423   4.912   2.627
 4521SOL     OW14461   4.997   2.153   5.363
 4521SOL    HW114462   5.045   2.095   5.297
 4521SOL    HW214463   5.051   2.235   5.382
 4522SOL     OW14464   5.306   0.375   3.917
 4522SOL    HW114465   5.302   0.327   4.005
 4522SOL    HW214466   5.220   0.424   3.901
 4523SOL     OW14467   1.239   4.554   6.746
 4523SOL    HW114468   1.309   4.485   6.765
 4523SOL    HW214469   1.279   4.626   6.689
 4524SOL     OW14470   5.262   2.352   5.996
 4524SOL    HW114471   5.342   2.408   6.017
 4524SOL    HW214472   5.271   2.263   6.041
 4525SOL     OW14473   6.272   1.662   3.389
 4525SOL    HW114474   6.263   1.563   3.397
 4525SOL    HW214475   6.363   1.684   3.353
 4526SOL     OW14476   5.098   0.810   0.793
 4526SOL    HW114477   5.196   0.815   0.813
 4526SOL    HW214478   5.084   0.819   0.694
 4527SOL     OW14479   4.172   1.801   3.843
 4527SOL    HW114480   4.247   1.817   3.907
 4527SOL    HW214481   4.206   1.805   3.749
 4528SOL     OW14482   5.079   6.467   0.104
 4528SOL    HW114483   5.144   6.394   0.083
 4528SOL    HW214484   5.066   6.524   0.023
 4529SOL     OW14485   3.136   1.317   3.777
 4529SOL    HW114486   3.190   1.305   3.694
 4529SOL    HW214487   3.192   1.361   3.848
 4530SOL     OW14488   6.942   3.779   5.435
 4530SOL    HW114489   6.883   3.824   5.368
 4530SOL    HW214490   6.901   3.692   5.463
 4531SOL     OW14491   6.847   2.805   3.436
 4531SOL    HW114492   6.881   2.797   3.342
 4531SOL    HW214493   6.922   2.788   3.500
 4532SOL     OW14494   0.577   1.474   2.184
 4532SOL    HW114495   0.583   1.522   2.271
 4532SOL    HW214496   0.482   1.465   2.156
 4533SOL     OW14497   1.625   0.165   3.268
 4533SOL    HW114498   1.564   0.119   3.203
 4533SOL    HW214499   1.616   0.264   3.258
 4534SOL     OW14500   6.143   3.450   4.193
 4534SOL    HW114501   6.179   3.396   4.117
 4534SOL    HW214502   6.113   3.389   4.266
 4535SOL     OW14503   4.370   1.992   2.454
 4535SOL    HW114504   4.469   1.990   2.465
 4535SOL    HW214505   4.335   1.899   2.441
 4536SOL     OW14506   4.464   1.758   4.674
 4536SOL    HW114507   4.364   1.754   4.686
 4536SOL    HW214508   4.485   1.768   4.577
 4537SOL     OW14509   3.615   3.581   6.229
 4537SOL    HW114510   3.691   3.617   6.175
 4537SOL    HW214511   3.586   3.650   6.295
 4538SOL     OW14512   2.922   1.990   4.221
 4538SOL    HW114513   2.992   1.919   4.232
 4538SOL    HW214514   2.836   1.947   4.191
 4539SOL     OW14515   2.327   1.821   4.184
 4539SOL    HW114516   2.374   1.744   4.227
 4539SOL    HW214517   2.377   1.905   4.203
 4540SOL     OW14518   3.751   3.278   3.676
 4540SOL    HW114519   3.802   3.335   3.741
 4540SOL    HW214520   3.816   3.228   3.618
 4541SOL     OW14521   6.013   1.319   6.900
 4541SOL    HW114522   6.030   1.389   6.969
 4541SOL    HW214523   6.049   1.231   6.930
 4542SOL     OW14524   5.759   6.704   1.943
 4542SOL    HW114525   5.687   6.661   1.888
 4542SOL    HW214526   5.830   6.738   1.882
 4543SOL     OW14527   4.199   2.062   0.097
 4543SOL    HW114528   4.220   1.964   0.091
 4543SOL    HW214529   4.142   2.079   0.178
 4544SOL     OW14530   2.589   5.940   5.890
 4544SOL    HW114531   2.684   5.970   5.883
 4544SOL    HW214532   2.577   5.885   5.972
 4545SOL     OW14533   5.293   2.318   5.294
 4545SOL    HW114534   5.374   2.260   5.306
 4545SOL    HW214535   5.256   2.342   5.384
 4546SOL     OW14536   1.641   0.341   6.521
 4546SOL    HW114537   1.661   0.265   6.459
 4546SOL    HW214538   1.542   0.350   6.531
 4547SOL     OW14539   6.331   2.419   2.450
 4547SOL    HW114540   6.290   2.340   2.496
 4547SOL    HW214541   6.429   2.422   2.469
 4548SOL     OW14542   1.025   4.328   4.581
 4548SOL    HW114543   1.095   4.398   4.569
 4548SOL    HW214544   0.973   4.318   4.496
 4549SOL     OW14545   6.015   3.395   2.646
 4549SOL    HW114546   5.991   3.444   2.562
 4549SOL    HW214547   6.103   3.426   2.680
 4550SOL     OW14548   0.375   6.201   3.224
 4550SOL    HW114549   0.434   6.169   3.298
 4550SOL    HW214550   0.323   6.123   3.187
 4551SOL     OW14551   0.017   1.965   5.556
 4551SOL    HW114552   6.943   1.950   5.542
 4551SOL    HW214553   0.051   2.031   5.489
 4552SOL     OW14554   6.741   2.532   6.401
 4552SOL    HW114555   6.836   2.560   6.417
 4552SOL    HW214556   6.739   2.444   6.353
 4553SOL     OW14557   3.258   4.148   0.854
 4553SOL    HW114558   3.207   4.077   0.805
 4553SOL    HW214559   3.340   4.107   0.895
 4554SOL     OW14560   3.922   1.098   1.560
 4554SOL    HW114561   4.008   1.068   1.519
 4554SOL    HW214562   3.923   1.077   1.658
 4555SOL     OW14563   3.726   1.754   5.542
 4555SOL    HW114564   3.737   1.791   5.634
 4555SOL    HW214565   3.673   1.819   5.486
 4556SOL     OW14566   4.608   2.274   3.803
 4556SOL    HW114567   4.704   2.277   3.774
 4556SOL    HW214568   4.573   2.367   3.813
 4557SOL     OW14569   4.807   6.310   5.014
 4557SOL    HW114570   4.831   6.380   4.947
 4557SOL    HW214571   4.821   6.219   4.975
 4558SOL     OW14572   6.603   3.378   5.785
 4558SOL    HW114573   6.521   3.415   5.742
 4558SOL    HW214574   6.651   3.450   5.835
 4559SOL     OW14575   1.129   5.695   1.616
 4559SOL    HW114576   1.198   5.763   1.590
 4559SOL    HW214577   1.136   5.676   1.714
 4560SOL     OW14578   5.478   3.948   3.294
 4560SOL    HW114579   5.421   4.030   3.290
 4560SOL    HW214580   5.559   3.965   3.350
 4561SOL     OW14581   2.684   0.757   1.476
 4561SOL    HW114582   2.713   0.662   1.463
 4561SOL    HW214583   2.627   0.785   1.398
 4562SOL     OW14584   2.913   5.770   5.225
 4562SOL    HW114585   2.880   5.693   5.171
 4562SOL    HW214586   2.970   5.736   5.300
 4563SOL     OW14587   6.218   4.039   6.881
 4563SOL    HW114588   6.236   4.021   6.978
 4563SOL    HW214589   6.162   4.122   6.872
 4564SOL     OW14590   0.711   6.111   0.848
 4564SOL    HW114591   0.686   6.027   0.801
 4564SOL    HW214592   0.628   6.160   0.875
 4565SOL     OW14593   0.667   1.227   5.381
 4565SOL    HW114594   0.575   1.258   5.359
 4565SOL    HW214595   0.732   1.301   5.367
 4566SOL     OW14596   0.398   0.739   0.650
 4566SOL    HW114597   0.484   0.784   0.675
 4566SOL    HW214598   0.337   0.738   0.730
 4567SOL     OW14599   0.310   0.863   0.248
 4567SOL    HW114600   0.322   0.765   0.263
 4567SOL    HW214601   0.244   0.877   0.173
 4568SOL     OW14602   2.040   4.406   5.076
 4568SOL    HW114603   2.125   4.366   5.109
 4568SOL    HW214604   2.006   4.472   5.142
 4569SOL     OW14605   1.970   1.668   3.725
 4569SOL    HW114606   1.881   1.632   3.699
 4569SOL    HW214607   1.988   1.648   3.821
 4570SOL     OW14608   0.092   4.741   3.494
 4570SOL    HW114609   0.134   4.822   3.453
 4570SOL    HW214610   0.037   4.769   3.573
 4571SOL     OW14611   3.601   3.696   5.392
 4571SOL    HW114612   3.661   3.651   5.326
 4571SOL    HW214613   3.507   3.662   5.380
 4572SOL     OW14614   0.128   6.205   6.906
 4572SOL    HW114615   0.031   6.227   6.915
 4572SOL    HW214616   0.181   6.289   6.896
 4573SOL     OW14617   6.292   6.084   0.692
 4573SOL    HW114618   6.375   6.060   0.741
 4573SOL    HW214619   6.282   6.024   0.612
 4574SOL     OW14620   6.921   4.661   0.879
 4574SOL    HW114621   6.921   4.734   0.947
 4574SOL    HW214622   7.011   4.658   0.835
 4575SOL     OW14623   6.491   2.201   0.348
 4575SOL    HW114624   6.443   2.235   0.268
 4575SOL    HW214625   6.556   2.269   0.381
 4576SOL     OW14626   2.299   6.030   6.276
 4576SOL    HW114627   2.367   6.095   6.309
 4576SOL    HW214628   2.327   5.937   6.300
 4577SOL     OW14629   0.193   2.984   3.164
 4577SOL    HW114630   0.195   2.884   3.173
 4577SOL    HW214631   0.188   3.008   3.067
 4578SOL     OW14632   0.374   3.552   3.067
 4578SOL    HW114633   0.459   3.587   3.028
 4578SOL    HW214634   0.296   3.596   3.021
 4579SOL     OW14635   5.375   1.491   3.129
 4579SOL    HW114636   5.293   1.510   3.183
 4579SOL    HW214637   5.453   1.540   3.169
 4580SOL     OW14638   5.364   5.607   0.132
 4580SOL    HW114639   5.358   5.689   0.075
 4580SOL    HW214640   5.450   5.609   0.184
 4581SOL     OW14641   3.200   5.125   2.783
 4581SOL    HW114642   3.140   5.145   2.705
 4581SOL    HW214643   3.182   5.190   2.857
 4582SOL     OW14644   6.135   6.313   4.952
 4582SOL    HW114645   6.062   6.382   4.951
 4582SOL    HW214646   6.151   6.284   5.047
 4583SOL     OW14647   2.589   1.652   4.782
 4583SOL    HW114648   2.670   1.598   4.805
 4583SOL    HW214649   2.596   1.684   4.688
 4584SOL     OW14650   0.445   6.320   5.660
 4584SOL    HW114651   0.426   6.224   5.679
 4584SOL    HW214652   0.466   6.332   5.563
 4585SOL     OW14653   3.072   5.975   3.167
 4585SOL    HW114654   3.153   5.921   3.190
 4585SOL    HW214655   3.035   5.944   3.080
 4586SOL     OW14656   3.981   4.662   0.815
 4586SOL    HW114657   4.055   4.596   0.817
 4586SOL    HW214658   3.915   4.637   0.743
 4587SOL     OW14659   4.134   3.266   1.764
 4587SOL    HW114660   4.135   3.303   1.857
 4587SOL    HW214661   4.214   3.206   1.751
 4588SOL     OW14662   4.002   3.919   5.268
 4588SOL    HW114663   4.008   4.018   5.268
 4588SOL    HW214664   3.977   3.886   5.177
 4589SOL     OW14665   5.943   1.260   2.122
 4589SOL    HW114666   6.023   1.320   2.116
 4589SOL    HW214667   5.878   1.297   2.189
 4590SOL     OW14668   4.159   5.992   1.600
 4590SOL    HW114669   4.247   5.997   1.554
 4590SOL    HW214670   4.131   5.896   1.608
 4591SOL     OW14671   0.626   6.127   5.062
 4591SOL    HW114672   0.681   6.165   4.988
 4591SOL    HW214673   0.529   6.134   5.038
 4592SOL     OW14674   4.086   2.847   1.779
 4592SOL    HW114675   4.029   2.925   1.803
 4592SOL    HW214676   4.179   2.878   1.758
 4593SOL     OW14677   4.306   5.327   3.940
 4593SOL    HW114678   4.252   5.258   3.892
 4593SOL    HW214679   4.245   5.389   3.989
 4594SOL     OW14680   3.478   2.329   1.233
 4594SOL    HW114681   3.431   2.263   1.292
 4594SOL    HW214682   3.562   2.359   1.277
 4595SOL     OW14683   3.396   2.779   5.942
 4595SOL    HW114684   3.367   2.861   5.991
 4595SOL    HW214685   3.462   2.728   5.998
 4596SOL     OW14686   5.790   6.645   2.224
 4596SOL    HW114687   5.834   6.722   2.271
 4596SOL    HW214688   5.795   6.659   2.125
 4597SOL     OW14689   4.775   4.543   6.968
 4597SOL    HW114690   4.830   4.578   0.019
 4597SOL    HW214691   4.681   4.529   6.998
 4598SOL     OW14692   1.255   5.168   0.059
 4598SOL    HW114693   1.307   5.252   0.072
 4598SOL    HW214694   1.170   5.174   0.112
 4599SOL     OW14695   1.339   4.493   1.329
 4599SOL    HW114696   1.428   4.535   1.348
 4599SOL    HW214697   1.270   4.565   1.321
 4600SOL     OW14698   2.507   5.749   5.703
 4600SOL    HW114699   2.544   5.838   5.729
 4600SOL    HW214700   2.551   5.718   5.619
 4601SOL     OW14701   1.643   0.950   5.370
 4601SOL    HW114702   1.590   1.035   5.366
 4601SOL    HW214703   1.712   0.950   5.297
 4602SOL     OW14704   0.921   5.996   0.545
 4602SOL    HW114705   0.922   6.052   0.628
 4602SOL    HW214706   0.959   6.049   0.469
 4603SOL     OW14707   3.687   6.745   1.471
 4603SOL    HW114708   3.762   6.811   1.471
 4603SOL    HW214709   3.654   6.731   1.565
 4604SOL     OW14710   4.572   0.762   1.454
 4604SOL    HW114711   4.546   0.772   1.551
 4604SOL    HW214712   4.498   0.716   1.405
 4605SOL     OW14713   5.118   0.828   3.364
 4605SOL    HW114714   5.119   0.785   3.274
 4605SOL    HW214715   5.200   0.801   3.415
 4606SOL     OW14716   6.917   6.935   2.144
 4606SOL    HW114717   6.822   6.909   2.128
 4606SOL    HW214718   6.961   6.866   2.202
 4607SOL     OW14719   2.858   2.846   0.686
 4607SOL    HW114720   2.792   2.885   0.621
 4607SOL    HW214721   2.879   2.914   0.757
 4608SOL     OW14722   1.763   5.520   4.240
 4608SOL    HW114723   1.700   5.463   4.293
 4608SOL    HW214724   1.720   5.548   4.154
 4609SOL     OW14725   4.289   5.458   5.931
 4609SOL    HW114726   4.277   5.364   5.961
 4609SOL    HW214727   4.227   5.478   5.855
 4610SOL     OW14728   6.707   2.360   0.372
 4610SOL    HW114729   6.749   2.389   0.459
 4610SOL    HW214730   6.669   2.440   0.326
 4611SOL     OW14731   6.451   4.822   5.603
 4611SOL    HW114732   6.527   4.839   5.540
 4611SOL    HW214733   6.464   4.733   5.647
 4612SOL     OW14734   1.838   6.491   0.468
 4612SOL    HW114735   1.896   6.413   0.493
 4612SOL    HW214736   1.853   6.565   0.533
 4613SOL     OW14737   2.726   5.681   2.648
 4613SOL    HW114738   2.725   5.752   2.577
 4613SOL    HW214739   2.679   5.715   2.729
 4614SOL     OW14740   1.256   4.889   5.540
 4614SOL    HW114741   1.315   4.968   5.558
 4614SOL    HW214742   1.161   4.913   5.558
 4615SOL     OW14743   2.224   0.777   0.105
 4615SOL    HW114744   2.233   0.765   0.203
 4615SOL    HW214745   2.310   0.811   0.067
 4616SOL     OW14746   6.673   0.184   5.536
 4616SOL    HW114747   6.642   0.091   5.516
 4616SOL    HW214748   6.600   0.234   5.582
 4617SOL     OW14749   1.448   2.116   3.089
 4617SOL    HW114750   1.354   2.112   3.121
 4617SOL    HW214751   1.451   2.095   2.991
 4618SOL     OW14752   1.801   3.210   5.054
 4618SOL    HW114753   1.837   3.131   5.005
 4618SOL    HW214754   1.701   3.206   5.056
 4619SOL     OW14755   5.019   6.518   3.818
 4619SOL    HW114756   5.052   6.498   3.726
 4619SOL    HW214757   4.921   6.500   3.822
 4620SOL     OW14758   3.035   3.841   6.861
 4620SOL    HW114759   3.120   3.857   6.910
 4620SOL    HW214760   2.958   3.846   6.925
 4621SOL     OW14761   5.869   1.898   3.613
 4621SOL    HW114762   5.853   1.810   3.657
 4621SOL    HW214763   5.845   1.972   3.677
 4622SOL     OW14764   0.218   3.209   0.768
 4622SOL    HW114765   0.272   3.208   0.684
 4622SOL    HW214766   0.155   3.131   0.768
 4623SOL     OW14767   0.191   5.727   1.009
 4623SOL    HW114768   0.200   5.645   1.065
 4623SOL    HW214769   0.102   5.728   0.965
 4624SOL     OW14770   4.567   6.929   3.149
 4624SOL    HW114771   4.499   6.977   3.094
 4624SOL    HW214772   4.658   6.950   3.114
 4625SOL     OW14773   1.525   4.258   0.031
 4625SOL    HW114774   1.476   4.171   0.036
 4625SOL    HW214775   1.509   4.299   6.966
 4626SOL     OW14776   5.901   4.968   1.512
 4626SOL    HW114777   5.994   5.003   1.500
 4626SOL    HW214778   5.900   4.869   1.500
 4627SOL     OW14779   3.435   6.015   4.724
 4627SOL    HW114780   3.352   5.971   4.756
 4627SOL    HW214781   3.467   5.971   4.641
 4628SOL     OW14782   6.226   4.480   3.150
 4628SOL    HW114783   6.152   4.438   3.097
 4628SOL    HW214784   6.195   4.568   3.186
 4629SOL     OW14785   2.331   4.875   5.975
 4629SOL    HW114786   2.286   4.840   5.893
 4629SOL    HW214787   2.386   4.804   6.017
 4630SOL     OW14788   3.683   5.905   3.465
 4630SOL    HW114789   3.627   5.859   3.396
 4630SOL    HW214790   3.692   5.846   3.545
 4631SOL     OW14791   2.820   6.628   3.463
 4631SOL    HW114792   2.792   6.532   3.455
 4631SOL    HW214793   2.918   6.636   3.446
 4632SOL     OW14794   4.501   4.504   2.976
 4632SOL    HW114795   4.433   4.577   2.967
 4632SOL    HW214796   4.534   4.477   2.885
 4633SOL     OW14797   6.212   1.658   3.838
 4633SOL    HW114798   6.190   1.750   3.806
 4633SOL    HW214799   6.276   1.664   3.915
 4634SOL     OW14800   2.426   4.282   6.523
 4634SOL    HW114801   2.371   4.363   6.540
 4634SOL    HW214802   2.522   4.301   6.544
 4635SOL     OW14803   6.151   3.727   2.531
 4635SOL    HW114804   6.194   3.637   2.539
 4635SOL    HW214805   6.212   3.788   2.480
 4636SOL     OW14806   2.168   4.704   7.024
 4636SOL    HW114807   2.168   4.627   0.064
 4636SOL    HW214808   2.183   4.669   6.931
 4637SOL     OW14809   1.914   0.555   0.375
 4637SOL    HW114810   2.002   0.509   0.390
 4637SOL    HW214811   1.929   0.640   0.325
 4638SOL     OW14812   3.329   2.931   6.285
 4638SOL    HW114813   3.298   3.026   6.281
 4638SOL    HW214814   3.250   2.870   6.275
 4639SOL     OW14815   1.894   5.155   5.412
 4639SOL    HW114816   1.897   5.255   5.406
 4639SOL    HW214817   1.864   5.117   5.324
 4640SOL     OW14818   4.560   5.029   3.495
 4640SOL    HW114819   4.600   4.977   3.420
 4640SOL    HW214820   4.509   4.968   3.555
 4641SOL     OW14821   2.734   5.436   4.003
 4641SOL    HW114822   2.755   5.366   3.934
 4641SOL    HW214823   2.790   5.517   3.987
 4642SOL     OW14824   0.921   6.428   4.780
 4642SOL    HW114825   0.974   6.351   4.816
 4642SOL    HW214826   0.971   6.513   4.796
 4643SOL     OW14827   4.955   2.478   0.954
 4643SOL    HW114828   5.040   2.516   0.991
 4643SOL    HW214829   4.975   2.432   0.867
 4644SOL     OW14830   1.340   4.729   4.347
 4644SOL    HW114831   1.424   4.733   4.293
 4644SOL    HW214832   1.303   4.821   4.359
 4645SOL     OW14833   1.635   0.187   4.411
 4645SOL    HW114834   1.543   0.226   4.417
 4645SOL    HW214835   1.679   0.219   4.327
 4646SOL     OW14836   2.604   6.350   2.860
 4646SOL    HW114837   2.557   6.401   2.788
 4646SOL    HW214838   2.602   6.252   2.838
 4647SOL     OW14839   0.664   6.587   2.788
 4647SOL    HW114840   0.647   6.665   2.727
 4647SOL    HW214841   0.601   6.590   2.865
 4648SOL     OW14842   3.770   0.185   0.929
 4648SOL    HW114843   3.831   0.238   0.871
 4648SOL    HW214844   3.717   0.246   0.987
 4649SOL     OW14845   5.448   6.767   6.048
 4649SOL    HW114846   5.465   6.738   6.142
 4649SOL    HW214847   5.402   6.856   6.048
 4650SOL     OW14848   3.968   5.712   3.395
 4650SOL    HW114849   4.030   5.787   3.370
 4650SOL    HW214850   3.974   5.695   3.493
 4651SOL     OW14851   0.379   1.864   0.692
 4651SOL    HW114852   0.444   1.923   0.644
 4651SOL    HW214853   0.296   1.917   0.714
 4652SOL     OW14854   0.592   0.161   3.768
 4652SOL    HW114855   0.640   0.241   3.806
 4652SOL    HW214856   0.499   0.157   3.805
 4653SOL     OW14857   6.919   5.484   0.033
 4653SOL    HW114858   7.003   5.435   0.012
 4653SOL    HW214859   6.941   5.579   0.058
 4654SOL     OW14860   0.581   7.007   0.149
 4654SOL    HW114861   0.523   6.936   0.191
 4654SOL    HW214862   0.528   0.067   0.139
 4655SOL     OW14863   6.745   5.214   1.708
 4655SOL    HW114864   6.691   5.143   1.752
 4655SOL    HW214865   6.756   5.291   1.771
 4656SOL     OW14866   1.019   0.035   3.209
 4656SOL    HW114867   1.065   0.025   3.120
 4656SOL    HW214868   0.971   6.975   3.231
 4657SOL     OW14869   4.873   6.975   1.721
 4657SOL    HW114870   4.867   0.011   1.641
 4657SOL    HW214871   4.938   6.901   1.703
 4658SOL     OW14872   3.364   0.501   2.552
 4658SOL    HW114873   3.374   0.587   2.502
 4658SOL    HW214874   3.294   0.511   2.622
 4659SOL     OW14875   2.349   3.930   5.696
 4659SOL    HW114876   2.361   4.027   5.673
 4659SOL    HW214877   2.429   3.878   5.666
 4660SOL     OW14878   1.012   2.580   4.840
 4660SOL    HW114879   0.922   2.537   4.845
 4660SOL    HW214880   1.020   2.650   4.911
 4661SOL     OW14881   4.252   4.647   5.667
 4661SOL    HW114882   4.296   4.692   5.589
 4661SOL    HW214883   4.166   4.605   5.637
 4662SOL     OW14884   5.094   0.629   4.704
 4662SOL    HW114885   5.133   0.537   4.703
 4662SOL    HW214886   5.060   0.652   4.613
 4663SOL     OW14887   0.165   1.130   2.570
 4663SOL    HW114888   0.084   1.175   2.608
 4663SOL    HW214889   0.208   1.073   2.640
 4664SOL     OW14890   1.732   2.496   6.914
 4664SOL    HW114891   1.656   2.432   6.924
 4664SOL    HW214892   1.813   2.447   6.883
 4665SOL     OW14893   4.519   6.995   0.216
 4665SOL    HW114894   4.448   6.926   0.205
 4665SOL    HW214895   4.485   0.046   0.272
 4666SOL     OW14896   1.826   1.590   6.945
 4666SOL    HW114897   1.797   1.669   6.891
 4666SOL    HW214898   1.900   1.617   7.007
 4667SOL     OW14899   6.746   5.201   0.591
 4667SOL    HW114900   6.651   5.188   0.561
 4667SOL    HW214901   6.794   5.114   0.589
 4668SOL     OW14902   6.704   2.049   4.053
 4668SOL    HW114903   6.660   2.135   4.080
 4668SOL    HW214904   6.772   2.067   3.982
 4669SOL     OW14905   3.608   0.106   0.704
 4669SOL    HW114906   3.508   0.110   0.708
 4669SOL    HW214907   3.645   0.116   0.797
 4670SOL     OW14908   3.340   1.513   4.950
 4670SOL    HW114909   3.438   1.505   4.932
 4670SOL    HW214910   3.292   1.433   4.913
 4671SOL     OW14911   6.206   2.425   1.976
 4671SOL    HW114912   6.175   2.361   1.906
 4671SOL    HW214913   6.285   2.388   2.023
 4672SOL     OW14914   2.570   4.580   5.843
 4672SOL    HW114915   2.628   4.508   5.803
 4672SOL    HW214916   2.616   4.668   5.831
 4673SOL     OW14917   4.818   6.862   0.993
 4673SOL    HW114918   4.913   6.863   1.026
 4673SOL    HW214919   4.801   6.945   0.939
 4674SOL     OW14920   5.218   5.987   6.162
 4674SOL    HW114921   5.267   5.925   6.101
 4674SOL    HW214922   5.133   6.016   6.119
 4675SOL     OW14923   0.301   3.512   0.337
 4675SOL    HW114924   0.246   3.562   0.270
 4675SOL    HW214925   0.312   3.567   0.420
 4676SOL     OW14926   0.700   5.890   4.035
 4676SOL    HW114927   0.603   5.908   4.021
 4676SOL    HW214928   0.744   5.971   4.073
 4677SOL     OW14929   2.244   2.140   0.700
 4677SOL    HW114930   2.193   2.166   0.618
 4677SOL    HW214931   2.329   2.193   0.704
 4678SOL     OW14932   2.663   4.810   2.623
 4678SOL    HW114933   2.606   4.769   2.694
 4678SOL    HW214934   2.628   4.784   2.533
 4679SOL     OW14935   3.902   0.060   1.747
 4679SOL    HW114936   3.848   7.010   1.787
 4679SOL    HW214937   3.909   0.135   1.813
 4680SOL     OW14938   3.790   1.731   7.024
 4680SOL    HW114939   3.824   1.751   0.092
 4680SOL    HW214940   3.858   1.760   6.957
 4681SOL     OW14941   4.912   4.644   0.142
 4681SOL    HW114942   4.994   4.621   0.195
 4681SOL    HW214943   4.852   4.702   0.197
 4682SOL     OW14944   4.978   4.012   5.721
 4682SOL    HW114945   4.996   4.084   5.654
 4682SOL    HW214946   4.880   3.996   5.728
 4683SOL     OW14947   5.679   5.538   2.117
 4683SOL    HW114948   5.772   5.542   2.081
 4683SOL    HW214949   5.675   5.471   2.191
 4684SOL     OW14950   4.159   6.442   5.813
 4684SOL    HW114951   4.063   6.421   5.796
 4684SOL    HW214952   4.194   6.384   5.886
 4685SOL     OW14953   2.226   4.722   5.775
 4685SOL    HW114954   2.138   4.683   5.801
 4685SOL    HW214955   2.225   4.742   5.677
 4686SOL     OW14956   4.361   5.599   0.319
 4686SOL    HW114957   4.288   5.648   0.271
 4686SOL    HW214958   4.412   5.662   0.377
 4687SOL     OW14959   5.145   2.809   4.480
 4687SOL    HW114960   5.107   2.717   4.480
 4687SOL    HW214961   5.073   2.875   4.459
 4688SOL     OW14962   5.436   2.782   5.563
 4688SOL    HW114963   5.518   2.837   5.541
 4688SOL    HW214964   5.355   2.841   5.560
 4689SOL     OW14965   5.688   1.206   1.291
 4689SOL    HW114966   5.619   1.134   1.301
 4689SOL    HW214967   5.642   1.294   1.273
 4690SOL     OW14968   1.857   1.224   0.946
 4690SOL    HW114969   1.760   1.203   0.960
 4690SOL    HW214970   1.885   1.296   1.010
 4691SOL     OW14971   3.606   3.974   0.229
 4691SOL    HW114972   3.567   3.925   0.151
 4691SOL    HW214973   3.540   4.040   0.264
 4692SOL     OW14974   5.830   5.241   2.762
 4692SOL    HW114975   5.806   5.153   2.802
 4692SOL    HW214976   5.755   5.305   2.774
 4693SOL     OW14977   1.225   0.935   3.548
 4693SOL    HW114978   1.207   0.977   3.637
 4693SOL    HW214979   1.303   0.980   3.505
 4694SOL     OW14980   2.054   2.566   0.543
 4694SOL    HW114981   2.008   2.641   0.495
 4694SOL    HW214982   1.988   2.521   0.604
 4695SOL     OW14983   1.833   5.796   0.316
 4695SOL    HW114984   1.920   5.761   0.350
 4695SOL    HW214985   1.829   5.895   0.330
 4696SOL     OW14986   0.239   5.419   6.241
 4696SOL    HW114987   0.267   5.389   6.149
 4696SOL    HW214988   0.245   5.518   6.247
 4697SOL     OW14989   0.989   3.710   2.274
 4697SOL    HW114990   0.919   3.780   2.281
 4697SOL    HW214991   1.007   3.689   2.178
 4698SOL     OW14992   4.217   6.447   3.369
 4698SOL    HW114993   4.171   6.510   3.306
 4698SOL    HW214994   4.225   6.357   3.327
 4699SOL     OW14995   0.325   6.380   2.545
 4699SOL    HW114996   0.423   6.399   2.557
 4699SOL    HW214997   0.273   6.463   2.563
 4700SOL     OW14998   6.442   1.465   2.225
 4700SOL    HW114999   6.431   1.526   2.304
 4700SOL    HW215000   6.520   1.496   2.170
 4701SOL     OW15001   3.618   1.892   0.713
 4701SOL    HW115002   3.527   1.931   0.721
 4701SOL    HW215003   3.620   1.802   0.756
 4702SOL     OW15004   4.437   4.699   0.746
 4702SOL    HW115005   4.438   4.783   0.691
 4702SOL    HW215006   4.443   4.722   0.843
 4703SOL     OW15007   0.949   6.377   3.089
 4703SOL    HW115008   1.046   6.377   3.115
 4703SOL    HW215009   0.908   6.465   3.114
 4704SOL     OW15010   6.849   5.923   5.765
 4704SOL    HW115011   6.755   5.912   5.796
 4704SOL    HW215012   6.861   6.015   5.728
 4705SOL     OW15013   3.415   2.462   0.635
 4705SOL    HW115014   3.466   2.459   0.549
 4705SOL    HW215015   3.341   2.396   0.632
 4706SOL     OW15016   1.620   1.016   0.656
 4706SOL    HW115017   1.652   0.922   0.670
 4706SOL    HW215018   1.696   1.080   0.667
 4707SOL     OW15019   0.965   6.046   1.543
 4707SOL    HW115020   0.916   5.962   1.567
 4707SOL    HW215021   0.974   6.052   1.443
 4708SOL     OW15022   1.027   1.860   5.843
 4708SOL    HW115023   0.987   1.917   5.915
 4708SOL    HW215024   1.073   1.781   5.886
 4709SOL     OW15025   4.781   5.036   4.635
 4709SOL    HW115026   4.822   5.022   4.545
 4709SOL    HW215027   4.746   4.949   4.670
 4710SOL     OW15028   5.878   0.023   6.265
 4710SOL    HW115029   5.856   6.949   6.258
 4710SOL    HW215030   5.930   0.051   6.184
 4711SOL     OW15031   6.755   1.488   2.599
 4711SOL    HW115032   6.745   1.391   2.576
 4711SOL    HW215033   6.710   1.544   2.529
 4712SOL     OW15034   3.527   4.805   6.600
 4712SOL    HW115035   3.595   4.732   6.591
 4712SOL    HW215036   3.439   4.773   6.564
 4713SOL     OW15037   4.723   5.619   0.527
 4713SOL    HW115038   4.714   5.697   0.589
 4713SOL    HW215039   4.750   5.538   0.579
 4714SOL     OW15040   0.468   1.145   6.218
 4714SOL    HW115041   0.405   1.223   6.223
 4714SOL    HW215042   0.442   1.077   6.287
 4715SOL     OW15043   6.367   2.996   1.666
 4715SOL    HW115044   6.341   2.921   1.606
 4715SOL    HW215045   6.427   2.962   1.739
 4716SOL     OW15046   5.004   6.410   5.550
 4716SOL    HW115047   4.989   6.422   5.452
 4716SOL    HW215048   4.920   6.430   5.599
 4717SOL     OW15049   1.478   5.051   5.003
 4717SOL    HW115050   1.399   5.087   4.952
 4717SOL    HW215051   1.561   5.095   4.969
 4718SOL     OW15052   5.265   2.448   1.271
 4718SOL    HW115053   5.233   2.357   1.297
 4718SOL    HW215054   5.361   2.443   1.243
 4719SOL     OW15055   5.052   3.965   2.757
 4719SOL    HW115056   5.079   3.990   2.664
 4719SOL    HW215057   4.954   3.943   2.758
 4720SOL     OW15058   2.006   4.505   6.516
 4720SOL    HW115059   1.956   4.591   6.509
 4720SOL    HW215060   1.984   4.447   6.437
 4721SOL     OW15061   6.123   2.238   1.799
 4721SOL    HW115062   6.029   2.256   1.826
 4721SOL    HW215063   6.133   2.141   1.776
 4722SOL     OW15064   1.076   6.218   6.977
 4722SOL    HW115065   1.152   6.219   6.913
 4722SOL    HW215066   1.101   6.269   0.035
 4723SOL     OW15067   3.417   3.846   5.014
 4723SOL    HW115068   3.454   3.783   5.082
 4723SOL    HW215069   3.430   3.940   5.045
 4724SOL     OW15070   0.153   6.964   4.094
 4724SOL    HW115071   0.165   6.882   4.150
 4724SOL    HW215072   0.224   6.967   4.024
 4725SOL     OW15073   5.819   4.972   0.417
 4725SOL    HW115074   5.887   5.045   0.403
 4725SOL    HW215075   5.762   4.995   0.496
 4726SOL     OW15076   1.163   3.301   5.834
 4726SOL    HW115077   1.142   3.278   5.929
 4726SOL    HW215078   1.186   3.398   5.828
 4727SOL     OW15079   0.144   6.051   1.056
 4727SOL    HW115080   0.175   5.957   1.047
 4727SOL    HW215081   0.188   6.108   0.986
 4728SOL     OW15082   6.869   1.072   2.978
 4728SOL    HW115083   6.790   1.029   2.933
 4728SOL    HW215084   6.866   1.171   2.964
 4729SOL     OW15085   4.871   1.151   0.287
 4729SOL    HW115086   4.965   1.165   0.317
 4729SOL    HW215087   4.864   1.064   0.237
 4730SOL     OW15088   3.296   5.819   5.598
 4730SOL    HW115089   3.235   5.890   5.634
 4730SOL    HW215090   3.298   5.741   5.660
 4731SOL     OW15091   3.171   0.999   1.078
 4731SOL    HW115092   3.085   0.981   1.127
 4731SOL    HW215093   3.181   1.097   1.064
 4732SOL     OW15094   0.416   3.049   5.164
 4732SOL    HW115095   0.360   2.967   5.178
 4732SOL    HW215096   0.512   3.024   5.163
 4733SOL     OW15097   1.289   4.222   3.093
 4733SOL    HW115098   1.356   4.168   3.143
 4733SOL    HW215099   1.216   4.162   3.059
 4734SOL     OW15100   4.859   3.325   0.185
 4734SOL    HW115101   4.877   3.240   0.235
 4734SOL    HW215102   4.763   3.348   0.193
 4735SOL     OW15103   6.225   5.400   3.867
 4735SOL    HW115104   6.152   5.345   3.826
 4735SOL    HW215105   6.283   5.341   3.923
 4736SOL     OW15106   5.803   1.687   4.926
 4736SOL    HW115107   5.813   1.710   5.023
 4736SOL    HW215108   5.885   1.717   4.877
 4737SOL     OW15109   2.506   4.535   0.556
 4737SOL    HW115110   2.570   4.474   0.509
 4737SOL    HW215111   2.509   4.518   0.654
 4738SOL     OW15112   3.120   6.470   3.589
 4738SOL    HW115113   3.040   6.412   3.573
 4738SOL    HW215114   3.111   6.553   3.535
 4739SOL     OW15115   5.451   1.774   3.482
 4739SOL    HW115116   5.453   1.873   3.495
 4739SOL    HW215117   5.530   1.733   3.528
 4740SOL     OW15118   1.259   0.370   0.875
 4740SOL    HW115119   1.260   0.364   0.775
 4740SOL    HW215120   1.350   0.349   0.911
 4741SOL     OW15121   4.563   3.535   1.259
 4741SOL    HW115122   4.590   3.540   1.355
 4741SOL    HW215123   4.471   3.496   1.252
 4742SOL     OW15124   3.379   6.149   1.944
 4742SOL    HW115125   3.394   6.074   1.879
 4742SOL    HW215126   3.389   6.236   1.896
 4743SOL     OW15127   1.450   2.119   5.599
 4743SOL    HW115128   1.360   2.076   5.606
 4743SOL    HW215129   1.441   2.218   5.610
 4744SOL     OW15130   2.867   3.194   5.670
 4744SOL    HW115131   2.820   3.146   5.744
 4744SOL    HW215132   2.800   3.241   5.613
 4745SOL     OW15133   2.336   5.323   5.499
 4745SOL    HW115134   2.389   5.241   5.521
 4745SOL    HW215135   2.345   5.343   5.402
 4746SOL     OW15136   6.061   6.122   1.875
 4746SOL    HW115137   5.998   6.044   1.882
 4746SOL    HW215138   6.155   6.088   1.863
 4747SOL     OW15139   1.331   3.518   5.999
 4747SOL    HW115140   1.253   3.519   6.062
 4747SOL    HW215141   1.298   3.531   5.905
 4748SOL     OW15142   1.671   5.305   1.186
 4748SOL    HW115143   1.762   5.340   1.163
 4748SOL    HW215144   1.610   5.382   1.205
 4749SOL     OW15145   3.056   6.173   5.955
 4749SOL    HW115146   3.034   6.212   6.045
 4749SOL    HW215147   3.146   6.205   5.926
 4750SOL     OW15148   0.259   2.168   4.067
 4750SOL    HW115149   0.173   2.205   4.032
 4750SOL    HW215150   0.307   2.123   3.992
 4751SOL     OW15151   1.922   3.838   0.486
 4751SOL    HW115152   1.832   3.857   0.525
 4751SOL    HW215153   1.952   3.917   0.432
 4752SOL     OW15154   3.035   0.042   0.768
 4752SOL    HW115155   3.063   0.131   0.733
 4752SOL    HW215156   3.040   0.042   0.868
 4753SOL     OW15157   5.234   0.303   4.194
 4753SOL    HW115158   5.227   0.206   4.171
 4753SOL    HW215159   5.315   0.318   4.251
 4754SOL     OW15160   5.976   0.456   5.336
 4754SOL    HW115161   5.989   0.535   5.395
 4754SOL    HW215162   6.052   0.392   5.349
 4755SOL     OW15163   2.828   1.121   0.336
 4755SOL    HW115164   2.904   1.187   0.342
 4755SOL    HW215165   2.823   1.084   0.244
 4756SOL     OW15166   6.175   2.321   1.168
 4756SOL    HW115167   6.127   2.319   1.256
 4756SOL    HW215168   6.121   2.272   1.100
 4757SOL     OW15169   1.793   2.007   2.429
 4757SOL    HW115170   1.836   1.931   2.379
 4757SOL    HW215171   1.699   2.018   2.399
 4758SOL     OW15172   3.206   5.875   4.803
 4758SOL    HW115173   3.280   5.807   4.806
 4758SOL    HW215174   3.154   5.871   4.888
 4759SOL     OW15175   5.953   5.329   5.047
 4759SOL    HW115176   5.893   5.258   5.010
 4759SOL    HW215177   6.003   5.292   5.126
 4760SOL     OW15178   3.394   2.170   0.879
 4760SOL    HW115179   3.345   2.248   0.919
 4760SOL    HW215180   3.438   2.118   0.952
 4761SOL     OW15181   0.109   0.397   6.923
 4761SOL    HW115182   0.095   0.424   6.828
 4761SOL    HW215183   0.029   0.348   6.957
 4762SOL     OW15184   2.797   5.049   2.753
 4762SOL    HW115185   2.747   4.976   2.707
 4762SOL    HW215186   2.848   5.012   2.831
 4763SOL     OW15187   5.927   6.425   3.508
 4763SOL    HW115188   5.979   6.422   3.422
 4763SOL    HW215189   5.841   6.473   3.492
 4764SOL     OW15190   4.741   3.903   5.832
 4764SOL    HW115191   4.686   3.982   5.860
 4764SOL    HW215192   4.750   3.840   5.909
 4765SOL     OW15193   5.247   6.903   4.469
 4765SOL    HW115194   5.266   6.828   4.533
 4765SOL    HW215195   5.170   6.877   4.411
 4766SOL     OW15196   4.329   0.183   3.493
 4766SOL    HW115197   4.365   0.094   3.464
 4766SOL    HW215198   4.248   0.169   3.550
 4767SOL     OW15199   4.229   5.649   6.087
 4767SOL    HW115200   4.260   5.566   6.041
 4767SOL    HW215201   4.199   5.716   6.019
 4768SOL     OW15202   4.808   2.349   4.990
 4768SOL    HW115203   4.794   2.440   4.950
 4768SOL    HW215204   4.898   2.347   5.035
 4769SOL     OW15205   4.661   5.069   1.038
 4769SOL    HW115206   4.729   5.119   0.984
 4769SOL    HW215207   4.609   5.134   1.094
 4770SOL     OW15208   1.698   0.007   3.933
 4770SOL    HW115209   1.787   0.022   3.891
 4770SOL    HW215210   1.701   6.948   3.989
 4771SOL     OW15211   3.498   5.398   5.587
 4771SOL    HW115212   3.597   5.390   5.602
 4771SOL    HW215213   3.450   5.371   5.671
 4772SOL     OW15214   2.168   5.893   2.222
 4772SOL    HW115215   2.071   5.874   2.239
 4772SOL    HW215216   2.224   5.819   2.261
 4773SOL     OW15217   6.548   5.210   4.818
 4773SOL    HW115218   6.528   5.304   4.846
 4773SOL    HW215219   6.618   5.211   4.746
 4774SOL     OW15220   1.172   2.413   1.761
 4774SOL    HW115221   1.143   2.501   1.725
 4774SOL    HW215222   1.271   2.406   1.756
 4775SOL     OW15223   5.151   7.013   2.749
 4775SOL    HW115224   5.166   0.042   2.832
 4775SOL    HW215225   5.154   6.915   2.771
 4776SOL     OW15226   1.002   6.842   4.168
 4776SOL    HW115227   1.097   6.868   4.150
 4776SOL    HW215228   0.953   6.920   4.207
 4777SOL     OW15229   2.897   4.871   1.472
 4777SOL    HW115230   2.968   4.801   1.461
 4777SOL    HW215231   2.906   4.914   1.561
 4778SOL     OW15232   5.243   2.038   2.035
 4778SOL    HW115233   5.203   2.037   1.943
 4778SOL    HW215234   5.196   2.105   2.092
 4779SOL     OW15235   6.749   6.246   2.110
 4779SOL    HW115236   6.798   6.275   2.192
 4779SOL    HW215237   6.763   6.147   2.097
 4780SOL     OW15238   6.886   0.359   6.990
 4780SOL    HW115239   6.816   0.338   6.922
 4780SOL    HW215240   6.857   0.324   0.055
 4781SOL     OW15241   2.970   6.182   1.334
 4781SOL    HW115242   3.018   6.262   1.299
 4781SOL    HW215243   2.876   6.181   1.300
 4782SOL     OW15244   4.682   6.613   0.406
 4782SOL    HW115245   4.749   6.544   0.377
 4782SOL    HW215246   4.629   6.578   0.483
 4783SOL     OW15247   4.700   4.211   0.079
 4783SOL    HW115248   4.758   4.169   0.149
 4783SOL    HW215249   4.753   4.226   7.020
 4784SOL     OW15250   6.485   3.769   6.990
 4784SOL    HW115251   6.413   3.736   0.027
 4784SOL    HW215252   6.557   3.700   6.984
 4785SOL     OW15253   6.435   5.783   1.347
 4785SOL    HW115254   6.463   5.877   1.329
 4785SOL    HW215255   6.395   5.778   1.439
 4786SOL     OW15256   2.484   2.185   2.235
 4786SOL    HW115257   2.521   2.171   2.327
 4786SOL    HW215258   2.555   2.165   2.167
 4787SOL     OW15259   3.684   2.144   3.458
 4787SOL    HW115260   3.749   2.145   3.534
 4787SOL    HW215261   3.599   2.188   3.487
 4788SOL     OW15262   0.900   5.379   6.180
 4788SOL    HW115263   0.950   5.296   6.208
 4788SOL    HW215264   0.916   5.452   6.247
 4789SOL     OW15265   5.345   0.923   0.201
 4789SOL    HW115266   5.375   0.865   0.277
 4789SOL    HW215267   5.395   1.009   0.203
 4790SOL     OW15268   7.004   2.608   6.440
 4790SOL    HW115269   0.002   2.683   6.378
 4790SOL    HW215270   0.009   2.632   6.533
 4791SOL     OW15271   5.640   2.069   1.749
 4791SOL    HW115272   5.704   2.047   1.676
 4791SOL    HW215273   5.663   2.017   1.831
 4792SOL     OW15274   1.801   3.795   2.764
 4792SOL    HW115275   1.778   3.863   2.694
 4792SOL    HW215276   1.750   3.815   2.848
 4793SOL     OW15277   1.171   2.525   6.136
 4793SOL    HW115278   1.177   2.468   6.218
 4793SOL    HW215279   1.199   2.619   6.158
 4794SOL     OW15280   4.480   1.106   3.137
 4794SOL    HW115281   4.568   1.138   3.172
 4794SOL    HW215282   4.446   1.031   3.194
 4795SOL     OW15283   6.323   1.270   3.160
 4795SOL    HW115284   6.327   1.324   3.076
 4795SOL    HW215285   6.385   1.191   3.151
 4796SOL     OW15286   5.385   2.370   6.291
 4796SOL    HW115287   5.436   2.365   6.376
 4796SOL    HW215288   5.369   2.278   6.256
 4797SOL     OW15289   1.537   6.414   5.280
 4797SOL    HW115290   1.497   6.416   5.188
 4797SOL    HW215291   1.549   6.508   5.313
 4798SOL     OW15292   0.184   3.072   5.384
 4798SOL    HW115293   0.200   2.978   5.414
 4798SOL    HW215294   0.245   3.094   5.307
 4799SOL     OW15295   5.037   2.201   6.380
 4799SOL    HW115296   4.951   2.181   6.333
 4799SOL    HW215297   5.093   2.119   6.383
 4800SOL     OW15298   2.585   3.766   5.609
 4800SOL    HW115299   2.635   3.849   5.587
 4800SOL    HW215300   2.614   3.692   5.547
 4801SOL     OW15301   2.759   2.764   0.357
 4801SOL    HW115302   2.685   2.705   0.390
 4801SOL    HW215303   2.748   2.780   0.259
 4802SOL     OW15304   0.966   6.525   2.053
 4802SOL    HW115305   0.930   6.445   2.005
 4802SOL    HW215306   0.900   6.554   2.123
 4803SOL     OW15307   1.156   6.415   0.470
 4803SOL    HW115308   1.061   6.437   0.487
 4803SOL    HW215309   1.215   6.462   0.536
 4804SOL     OW15310   4.454   5.417   6.397
 4804SOL    HW115311   4.406   5.502   6.417
 4804SOL    HW215312   4.483   5.416   6.301
 4805SOL     OW15313   6.259   6.937   1.383
 4805SOL    HW115314   6.232   7.018   1.331
 4805SOL    HW215315   6.245   6.855   1.327
 4806SOL     OW15316   0.224   4.662   2.924
 4806SOL    HW115317   0.235   4.606   3.006
 4806SOL    HW215318   0.262   4.753   2.941
 4807SOL     OW15319   1.397   5.059   0.628
 4807SOL    HW115320   1.309   5.083   0.668
 4807SOL    HW215321   1.458   5.026   0.699
 4808SOL     OW15322   6.445   3.635   6.713
 4808SOL    HW115323   6.540   3.615   6.735
 4808SOL    HW215324   6.413   3.713   6.768
 4809SOL     OW15325   3.303   4.097   6.755
 4809SOL    HW115326   3.280   4.007   6.791
 4809SOL    HW215327   3.361   4.088   6.675
 4810SOL     OW15328   1.260   5.258   2.502
 4810SOL    HW115329   1.270   5.285   2.598
 4810SOL    HW215330   1.314   5.320   2.444
 4811SOL     OW15331   1.902   4.686   2.086
 4811SOL    HW115332   1.861   4.599   2.112
 4811SOL    HW215333   1.835   4.742   2.036
 4812SOL     OW15334   0.309   5.143   5.279
 4812SOL    HW115335   0.241   5.084   5.236
 4812SOL    HW215336   0.393   5.142   5.224
 4813SOL     OW15337   5.615   1.955   0.976
 4813SOL    HW115338   5.631   1.962   1.075
 4813SOL    HW215339   5.519   1.971   0.957
 4814SOL     OW15340   6.072   4.547   0.679
 4814SOL    HW115341   6.153   4.580   0.727
 4814SOL    HW215342   6.079   4.448   0.665
 4815SOL     OW15343   5.414   4.408   2.693
 4815SOL    HW115344   5.402   4.310   2.708
 4815SOL    HW215345   5.408   4.456   2.781
 4816SOL     OW15346   6.756   5.328   2.796
 4816SOL    HW115347   6.685   5.377   2.847
 4816SOL    HW215348   6.839   5.383   2.792
 4817SOL     OW15349   0.949   1.954   6.278
 4817SOL    HW115350   0.898   2.027   6.323
 4817SOL    HW215351   0.890   1.873   6.271
 4818SOL     OW15352   0.407   0.030   4.507
 4818SOL    HW115353   0.384   0.073   4.419
 4818SOL    HW215354   0.462   0.093   4.561
 4819SOL     OW15355   0.964   2.515   0.495
 4819SOL    HW115356   1.031   2.514   0.420
 4819SOL    HW215357   0.908   2.598   0.488
 4820SOL     OW15358   6.697   2.829   1.510
 4820SOL    HW115359   6.766   2.764   1.539
 4820SOL    HW215360   6.725   2.922   1.537
 4821SOL     OW15361   0.633   6.207   2.712
 4821SOL    HW115362   0.612   6.132   2.650
 4821SOL    HW215363   0.628   6.294   2.662
 4822SOL     OW15364   1.096   3.441   5.076
 4822SOL    HW115365   1.000   3.464   5.057
 4822SOL    HW215366   1.138   3.405   4.993
 4823SOL     OW15367   1.726   1.561   3.649
 4823SOL    HW115368   1.735   1.520   3.559
 4823SOL    HW215369   1.659   1.636   3.645
 4824SOL     OW15370   5.120   2.364   5.499
 4824SOL    HW115371   5.114   2.332   5.594
 4824SOL    HW215372   5.127   2.464   5.498
 4825SOL     OW15373   1.152   2.250   4.639
 4825SOL    HW115374   1.220   2.265   4.567
 4825SOL    HW215375   1.061   2.276   4.606
 4826SOL     OW15376   5.712   0.561   0.639
 4826SOL    HW115377   5.617   0.534   0.652
 4826SOL    HW215378   5.773   0.489   0.671
 4827SOL     OW15379   6.514   2.087   0.983
 4827SOL    HW115380   6.535   2.007   1.038
 4827SOL    HW215381   6.435   2.068   0.925
 4828SOL     OW15382   5.141   0.871   1.335
 4828SOL    HW115383   5.153   0.865   1.236
 4828SOL    HW215384   5.123   0.965   1.361
 4829SOL     OW15385   3.701   0.761   6.447
 4829SOL    HW115386   3.785   0.776   6.499
 4829SOL    HW215387   3.686   0.663   6.436
 4830SOL     OW15388   3.575   5.758   4.126
 4830SOL    HW115389   3.480   5.771   4.154
 4830SOL    HW215390   3.614   5.847   4.102
 4831SOL     OW15391   1.823   4.768   5.295
 4831SOL    HW115392   1.806   4.860   5.260
 4831SOL    HW215393   1.836   4.772   5.394
 4832SOL     OW15394   3.141   3.961   3.799
 4832SOL    HW115395   3.206   4.037   3.803
 4832SOL    HW215396   3.152   3.905   3.882
 4833SOL     OW15397   5.739   1.740   2.922
 4833SOL    HW115398   5.775   1.713   2.833
 4833SOL    HW215399   5.813   1.774   2.979
 4834SOL     OW15400   2.382   5.926   2.461
 4834SOL    HW115401   2.392   5.985   2.381
 4834SOL    HW215402   2.318   5.968   2.525
 4835SOL     OW15403   6.328   3.208   5.900
 4835SOL    HW115404   6.297   3.116   5.875
 4835SOL    HW215405   6.427   3.215   5.885
 4836SOL     OW15406   5.388   1.189   4.838
 4836SOL    HW115407   5.396   1.221   4.932
 4836SOL    HW215408   5.351   1.261   4.781
 4837SOL     OW15409   6.982   4.165   3.218
 4837SOL    HW115410   6.945   4.211   3.138
 4837SOL    HW215411   6.906   4.132   3.275
 4838SOL     OW15412   2.398   5.762   6.998
 4838SOL    HW115413   2.446   5.848   7.017
 4838SOL    HW215414   2.320   5.753   0.035
 4839SOL     OW15415   1.494   3.294   0.124
 4839SOL    HW115416   1.513   3.226   0.053
 4839SOL    HW215417   1.442   3.252   0.197
 4840SOL     OW15418   6.582   3.829   6.084
 4840SOL    HW115419   6.497   3.860   6.041
 4840SOL    HW215420   6.640   3.786   6.014
 4841SOL     OW15421   2.772   5.153   3.214
 4841SOL    HW115422   2.714   5.116   3.287
 4841SOL    HW215423   2.853   5.196   3.255
 4842SOL     OW15424   2.604   4.986   3.650
 4842SOL    HW115425   2.622   4.988   3.552
 4842SOL    HW215426   2.624   4.895   3.685
 4843SOL     OW15427   6.819   2.550   2.032
 4843SOL    HW115428   6.820   2.450   2.038
 4843SOL    HW215429   6.730   2.581   1.999
 4844SOL     OW15430   0.255   4.037   5.005
 4844SOL    HW115431   0.195   4.051   4.927
 4844SOL    HW215432   0.201   4.007   5.084
 4845SOL     OW15433   4.252   5.021   5.651
 4845SOL    HW115434   4.305   5.104   5.634
 4845SOL    HW215435   4.263   4.958   5.574
 4846SOL     OW15436   0.240   1.890   3.309
 4846SOL    HW115437   0.198   1.975   3.280
 4846SOL    HW215438   0.197   1.813   3.260
 4847SOL     OW15439   2.124   1.777   5.648
 4847SOL    HW115440   2.028   1.776   5.673
 4847SOL    HW215441   2.172   1.849   5.698
 4848SOL     OW15442   2.639   1.288   4.678
 4848SOL    HW115443   2.594   1.276   4.766
 4848SOL    HW215444   2.679   1.379   4.673
 4849SOL     OW15445   2.028   6.316   0.581
 4849SOL    HW115446   2.126   6.294   0.572
 4849SOL    HW215447   1.987   6.257   0.651
 4850SOL     OW15448   4.914   0.642   1.186
 4850SOL    HW115449   4.880   0.613   1.096
 4850SOL    HW215450   4.853   0.609   1.257
 4851SOL     OW15451   3.918   5.389   5.930
 4851SOL    HW115452   3.957   5.475   5.961
 4851SOL    HW215453   3.992   5.330   5.896
 4852SOL     OW15454   2.734   5.413   4.685
 4852SOL    HW115455   2.791   5.474   4.630
 4852SOL    HW215456   2.643   5.454   4.696
 4853SOL     OW15457   3.738   1.741   3.865
 4853SOL    HW115458   3.818   1.753   3.806
 4853SOL    HW215459   3.720   1.827   3.914
 4854SOL     OW15460   4.602   6.932   1.818
 4854SOL    HW115461   4.559   6.982   1.743
 4854SOL    HW215462   4.698   6.912   1.795
 4855SOL     OW15463   5.984   3.720   5.094
 4855SOL    HW115464   6.031   3.753   5.012
 4855SOL    HW215465   5.886   3.735   5.084
 4856SOL     OW15466   0.597   2.899   2.955
 4856SOL    HW115467   0.603   2.828   3.026
 4856SOL    HW215468   0.523   2.877   2.892
 4857SOL     OW15469   3.336   1.558   3.156
 4857SOL    HW115470   3.362   1.642   3.204
 4857SOL    HW215471   3.296   1.581   3.068
 4858SOL     OW15472   0.646   0.134   5.139
 4858SOL    HW115473   0.665   0.164   5.046
 4858SOL    HW215474   0.709   0.060   5.164
 4859SOL     OW15475   0.859   5.301   2.041
 4859SOL    HW115476   0.871   5.220   2.098
 4859SOL    HW215477   0.782   5.355   2.075
 4860SOL     OW15478   3.959   4.292   0.371
 4860SOL    HW115479   4.001   4.205   0.345
 4860SOL    HW215480   3.875   4.306   0.318
 4861SOL     OW15481   6.015   5.402   6.714
 4861SOL    HW115482   5.951   5.359   6.777
 4861SOL    HW215483   6.077   5.333   6.676
 4862SOL     OW15484   2.488   4.518   4.449
 4862SOL    HW115485   2.560   4.580   4.479
 4862SOL    HW215486   2.431   4.492   4.527
 4863SOL     OW15487   4.870   3.326   2.909
 4863SOL    HW115488   4.874   3.241   2.857
 4863SOL    HW215489   4.846   3.402   2.848
 4864SOL     OW15490   3.325   1.643   1.675
 4864SOL    HW115491   3.324   1.559   1.730
 4864SOL    HW215492   3.293   1.720   1.731
 4865SOL     OW15493   2.546   5.339   5.024
 4865SOL    HW115494   2.476   5.407   5.046
 4865SOL    HW215495   2.628   5.386   4.989
 4866SOL     OW15496   6.408   5.001   1.475
 4866SOL    HW115497   6.487   4.999   1.414
 4866SOL    HW215498   6.423   4.939   1.551
 4867SOL     OW15499   4.554   5.337   3.823
 4867SOL    HW115500   4.549   5.367   3.728
 4867SOL    HW215501   4.462   5.326   3.860
 4868SOL     OW15502   0.669   6.032   1.664
 4868SOL    HW115503   0.611   5.955   1.638
 4868SOL    HW215504   0.693   6.024   1.761
 4869SOL     OW15505   6.721   2.596   0.914
 4869SOL    HW115506   6.779   2.514   0.905
 4869SOL    HW215507   6.625   2.569   0.907
 4870SOL     OW15508   4.622   4.910   1.694
 4870SOL    HW115509   4.543   4.967   1.672
 4870SOL    HW215510   4.612   4.821   1.648
 4871SOL     OW15511   0.990   0.502   3.841
 4871SOL    HW115512   1.025   0.422   3.791
 4871SOL    HW215513   1.050   0.520   3.919
 4872SOL     OW15514   1.055   0.211   3.478
 4872SOL    HW115515   1.050   0.193   3.380
 4872SOL    HW215516   1.006   0.140   3.528
 4873SOL     OW15517   6.919   4.671   3.995
 4873SOL    HW115518   7.007   4.717   3.992
 4873SOL    HW215519   6.913   4.605   3.921
 4874SOL     OW15520   5.884   3.683   2.404
 4874SOL    HW115521   5.868   3.745   2.327
 4874SOL    HW215522   5.982   3.663   2.411
 4875SOL     OW15523   5.878   2.704   0.828
 4875SOL    HW115524   5.842   2.769   0.894
 4875SOL    HW215525   5.878   2.612   0.869
 4876SOL     OW15526   5.487   0.411   5.425
 4876SOL    HW115527   5.516   0.469   5.501
 4876SOL    HW215528   5.545   0.428   5.345
 4877SOL     OW15529   6.854   1.348   0.881
 4877SOL    HW115530   6.940   1.306   0.909
 4877SOL    HW215531   6.865   1.448   0.880
 4878SOL     OW15532   0.286   1.233   2.347
 4878SOL    HW115533   0.242   1.177   2.417
 4878SOL    HW215534   0.341   1.304   2.391
 4879SOL     OW15535   4.337   4.985   2.752
 4879SOL    HW115536   4.311   4.893   2.723
 4879SOL    HW215537   4.255   5.035   2.780
 4880SOL     OW15538   5.283   2.272   6.661
 4880SOL    HW115539   5.298   2.186   6.611
 4880SOL    HW215540   5.185   2.292   6.663
 4881SOL     OW15541   2.229   6.066   6.815
 4881SOL    HW115542   2.233   6.001   6.739
 4881SOL    HW215543   2.321   6.082   6.850
 4882SOL     OW15544   6.205   1.575   5.299
 4882SOL    HW115545   6.155   1.659   5.278
 4882SOL    HW215546   6.207   1.517   5.217
 4883SOL     OW15547   4.963   5.107   2.418
 4883SOL    HW115548   4.996   5.197   2.388
 4883SOL    HW215549   5.029   5.037   2.390
 4884SOL     OW15550   4.688   0.125   1.233
 4884SOL    HW115551   4.731   0.182   1.163
 4884SOL    HW215552   4.589   0.133   1.226
 4885SOL     OW15553   2.450   6.322   2.527
 4885SOL    HW115554   2.392   6.251   2.488
 4885SOL    HW215555   2.516   6.352   2.458
 4886SOL     OW15556   0.216   6.640   6.103
 4886SOL    HW115557   0.179   6.561   6.150
 4886SOL    HW215558   0.211   6.626   6.004
 4887SOL     OW15559   6.899   1.783   3.301
 4887SOL    HW115560   6.963   1.782   3.378
 4887SOL    HW215561   6.828   1.714   3.316
 4888SOL     OW15562   1.726   6.539   3.914
 4888SOL    HW115563   1.744   6.581   3.825
 4888SOL    HW215564   1.805   6.554   3.974
 4889SOL     OW15565   0.701   1.598   0.208
 4889SOL    HW115566   0.750   1.614   0.294
 4889SOL    HW215567   0.650   1.512   0.214
 4890SOL     OW15568   0.383   1.478   4.120
 4890SOL    HW115569   0.463   1.499   4.175
 4890SOL    HW215570   0.403   1.496   4.023
 4891SOL     OW15571   1.102   5.855   6.978
 4891SOL    HW115572   1.020   5.818   6.934
 4891SOL    HW215573   1.075   5.918   0.027
 4892SOL     OW15574   1.998   5.804   2.682
 4892SOL    HW115575   1.918   5.860   2.659
 4892SOL    HW215576   2.081   5.850   2.648
 4893SOL     OW15577   6.795   4.309   6.427
 4893SOL    HW115578   6.848   4.391   6.448
 4893SOL    HW215579   6.849   4.228   6.451
 4894SOL     OW15580   2.743   7.012   2.573
 4894SOL    HW115581   2.709   6.930   2.619
 4894SOL    HW215582   2.678   0.016   2.503
 4895SOL     OW15583   0.707   4.332   1.408
 4895SOL    HW115584   0.761   4.248   1.418
 4895SOL    HW215585   0.686   4.346   1.311
 4896SOL     OW15586   2.796   5.324   2.757
 4896SOL    HW115587   2.711   5.362   2.796
 4896SOL    HW215588   2.797   5.225   2.770
 4897SOL     OW15589   3.012   5.086   6.080
 4897SOL    HW115590   2.961   5.084   5.994
 4897SOL    HW215591   3.090   5.024   6.074
 4898SOL     OW15592   5.637   2.357   5.262
 4898SOL    HW115593   5.720   2.326   5.307
 4898SOL    HW215594   5.572   2.281   5.256
 4899SOL     OW15595   6.543   4.968   2.916
 4899SOL    HW115596   6.558   4.934   2.824
 4899SOL    HW215597   6.531   4.890   2.978
 4900SOL     OW15598   1.302   6.396   5.791
 4900SOL    HW115599   1.383   6.367   5.842
 4900SOL    HW215600   1.256   6.316   5.752
 4901SOL     OW15601   2.103   6.831   4.573
 4901SOL    HW115602   2.090   6.887   4.655
 4901SOL    HW215603   2.124   6.737   4.601
 4902SOL     OW15604   2.084   2.920   3.788
 4902SOL    HW115605   2.121   2.902   3.697
 4902SOL    HW215606   2.093   2.838   3.845
 4903SOL     OW15607   3.622   6.343   0.345
 4903SOL    HW115608   3.580   6.385   0.425
 4903SOL    HW215609   3.670   6.413   0.292
 4904SOL     OW15610   2.008   6.843   4.306
 4904SOL    HW115611   2.027   6.850   4.404
 4904SOL    HW215612   1.944   6.915   4.279
 4905SOL     OW15613   4.219   2.280   2.227
 4905SOL    HW115614   4.132   2.256   2.185
 4905SOL    HW215615   4.207   2.297   2.324
 4906SOL     OW15616   3.746   0.220   0.101
 4906SOL    HW115617   3.716   0.134   0.061
 4906SOL    HW215618   3.817   0.203   0.170
 4907SOL     OW15619   4.228   6.447   2.532
 4907SOL    HW115620   4.205   6.357   2.569
 4907SOL    HW215621   4.147   6.491   2.494
 4908SOL     OW15622   4.013   5.484   6.877
 4908SOL    HW115623   3.998   5.459   6.973
 4908SOL    HW215624   4.078   5.420   6.836
 4909SOL     OW15625   5.985   0.954   6.423
 4909SOL    HW115626   5.934   0.916   6.500
 4909SOL    HW215627   6.081   0.925   6.429
 4910SOL     OW15628   5.323   6.983   5.210
 4910SOL    HW115629   5.313   6.968   5.112
 4910SOL    HW215630   5.267   0.036   5.238
 4911SOL     OW15631   6.733   2.034   5.419
 4911SOL    HW115632   6.695   2.051   5.510
 4911SOL    HW215633   6.727   1.936   5.399
 4912SOL     OW15634   5.111   1.749   1.503
 4912SOL    HW115635   5.048   1.706   1.568
 4912SOL    HW215636   5.183   1.797   1.553
 4913SOL     OW15637   3.888   3.621   3.997
 4913SOL    HW115638   3.922   3.662   3.913
 4913SOL    HW215639   3.961   3.619   4.065
 4914SOL     OW15640   3.090   0.903   4.847
 4914SOL    HW115641   3.041   0.847   4.779
 4914SOL    HW215642   3.188   0.880   4.844
 4915SOL     OW15643   4.463   0.072   4.315
 4915SOL    HW115644   4.464   0.172   4.315
 4915SOL    HW215645   4.557   0.038   4.315
 4916SOL     OW15646   2.445   1.616   2.943
 4916SOL    HW115647   2.504   1.666   3.006
 4916SOL    HW215648   2.498   1.545   2.897
 4917SOL     OW15649   1.613   3.869   0.656
 4917SOL    HW115650   1.538   3.866   0.721
 4917SOL    HW215651   1.611   3.787   0.599
 4918SOL     OW15652   3.386   0.141   2.939
 4918SOL    HW115653   3.423   0.155   3.031
 4918SOL    HW215654   3.286   0.148   2.942
 4919SOL     OW15655   1.943   2.137   3.036
 4919SOL    HW115656   2.002   2.064   3.000
 4919SOL    HW215657   1.877   2.165   2.966
 4920SOL     OW15658   4.540   0.397   6.720
 4920SOL    HW115659   4.543   0.306   6.762
 4920SOL    HW215660   4.471   0.452   6.767
 4921SOL     OW15661   2.402   4.425   1.453
 4921SOL    HW115662   2.431   4.511   1.495
 4921SOL    HW215663   2.314   4.397   1.492
 4922SOL     OW15664   1.147   3.684   5.181
 4922SOL    HW115665   1.121   3.755   5.117
 4922SOL    HW215666   1.138   3.594   5.137
 4923SOL     OW15667   4.855   0.502   1.423
 4923SOL    HW115668   4.955   0.498   1.423
 4923SOL    HW215669   4.820   0.444   1.496
 4924SOL     OW15670   2.165   3.300   5.071
 4924SOL    HW115671   2.247   3.308   5.015
 4924SOL    HW215672   2.151   3.204   5.095
 4925SOL     OW15673   6.016   6.086   0.821
 4925SOL    HW115674   5.978   5.996   0.843
 4925SOL    HW215675   6.113   6.078   0.800
 4926SOL     OW15676   4.796   2.663   1.589
 4926SOL    HW115677   4.784   2.593   1.661
 4926SOL    HW215678   4.784   2.754   1.629
 4927SOL     OW15679   3.906   3.486   3.298
 4927SOL    HW115680   3.844   3.564   3.307
 4927SOL    HW215681   3.948   3.467   3.386
 4928SOL     OW15682   0.215   0.253   6.371
 4928SOL    HW115683   0.219   0.173   6.311
 4928SOL    HW215684   0.301   0.304   6.365
 4929SOL     OW15685   0.834   4.066   4.976
 4929SOL    HW115686   0.781   4.105   5.052
 4929SOL    HW215687   0.883   4.139   4.929
 4930SOL     OW15688   0.628   0.865   0.715
 4930SOL    HW115689   0.709   0.813   0.744
 4930SOL    HW215690   0.657   0.943   0.660
 4931SOL     OW15691   0.819   6.940   0.275
 4931SOL    HW115692   0.735   6.981   0.241
 4931SOL    HW215693   0.807   6.841   0.282
 4932SOL     OW15694   2.016   3.324   1.894
 4932SOL    HW115695   2.085   3.372   1.948
 4932SOL    HW215696   2.014   3.227   1.921
 4933SOL     OW15697   1.975   0.490   4.209
 4933SOL    HW115698   2.049   0.540   4.254
 4933SOL    HW215699   1.996   0.392   4.210
 4934SOL     OW15700   1.155   4.985   4.019
 4934SOL    HW115701   1.170   5.084   4.020
 4934SOL    HW215702   1.122   4.957   3.929
 4935SOL     OW15703   2.108   0.875   6.912
 4935SOL    HW115704   2.167   0.876   6.993
 4935SOL    HW215705   2.013   0.892   6.939
 4936SOL     OW15706   2.416   6.026   1.988
 4936SOL    HW115707   2.453   5.982   1.906
 4936SOL    HW215708   2.384   6.118   1.964
 4937SOL     OW15709   0.764   3.903   5.989
 4937SOL    HW115710   0.823   3.978   6.021
 4937SOL    HW215711   0.821   3.824   5.966
 4938SOL     OW15712   3.363   4.762   1.723
 4938SOL    HW115713   3.439   4.716   1.768
 4938SOL    HW215714   3.343   4.848   1.770
 4939SOL     OW15715   0.887   2.463   2.353
 4939SOL    HW115716   0.804   2.407   2.349
 4939SOL    HW215717   0.929   2.467   2.262
 4940SOL     OW15718   0.091   1.699   5.474
 4940SOL    HW115719   0.103   1.792   5.507
 4940SOL    HW215720   0.101   1.635   5.550
 4941SOL     OW15721   4.065   2.777   5.397
 4941SOL    HW115722   3.987   2.822   5.353
 4941SOL    HW215723   4.083   2.690   5.352
 4942SOL     OW15724   5.246   3.030   3.470
 4942SOL    HW115725   5.218   3.053   3.376
 4942SOL    HW215726   5.167   3.041   3.531
 4943SOL     OW15727   5.392   3.766   6.382
 4943SOL    HW115728   5.466   3.814   6.430
 4943SOL    HW215729   5.322   3.739   6.448
 4944SOL     OW15730   2.455   4.696   0.963
 4944SOL    HW115731   2.438   4.794   0.961
 4944SOL    HW215732   2.440   4.661   1.055
 4945SOL     OW15733   1.520   0.901   4.557
 4945SOL    HW115734   1.584   0.888   4.481
 4945SOL    HW215735   1.545   0.983   4.608
 4946SOL     OW15736   0.978   5.250   0.128
 4946SOL    HW115737   0.991   5.340   0.168
 4946SOL    HW215738   0.939   5.188   0.196
 4947SOL     OW15739   2.727   1.142   2.241
 4947SOL    HW115740   2.740   1.224   2.185
 4947SOL    HW215741   2.657   1.084   2.199
 4948SOL     OW15742   1.445   2.387   3.028
 4948SOL    HW115743   1.350   2.415   3.011
 4948SOL    HW215744   1.448   2.291   3.053
 4949SOL     OW15745   6.725   3.598   5.936
 4949SOL    HW115746   6.770   3.650   5.863
 4949SOL    HW215747   6.792   3.574   6.006
 4950SOL     OW15748   1.824   4.026   5.402
 4950SOL    HW115749   1.874   4.108   5.374
 4950SOL    HW215750   1.766   4.048   5.481
 4951SOL     OW15751   6.213   6.309   4.591
 4951SOL    HW115752   6.187   6.214   4.605
 4951SOL    HW215753   6.295   6.329   4.644
 4952SOL     OW15754   0.161   0.371   6.026
 4952SOL    HW115755   0.098   0.395   6.101
 4952SOL    HW215756   0.192   0.277   6.037
 4953SOL     OW15757   2.391   0.957   4.153
 4953SOL    HW115758   2.293   0.949   4.134
 4953SOL    HW215759   2.435   1.008   4.080
 4954SOL     OW15760   2.097   3.869   6.329
 4954SOL    HW115761   2.085   3.877   6.230
 4954SOL    HW215762   2.172   3.928   6.359
 4955SOL     OW15763   3.576   5.858   6.850
 4955SOL    HW115764   3.582   5.849   6.751
 4955SOL    HW215765   3.507   5.795   6.886
 4956SOL     OW15766   2.843   0.392   5.684
 4956SOL    HW115767   2.930   0.369   5.640
 4956SOL    HW215768   2.768   0.371   5.621
 4957SOL     OW15769   5.804   3.358   0.542
 4957SOL    HW115770   5.856   3.424   0.596
 4957SOL    HW215771   5.849   3.343   0.454
 4958SOL     OW15772   1.979   6.265   5.848
 4958SOL    HW115773   1.895   6.267   5.792
 4958SOL    HW215774   2.012   6.171   5.854
 4959SOL     OW15775   6.399   1.394   1.432
 4959SOL    HW115776   6.374   1.299   1.412
 4959SOL    HW215777   6.353   1.455   1.367
 4960SOL     OW15778   4.261   4.678   3.581
 4960SOL    HW115779   4.244   4.690   3.483
 4960SOL    HW215780   4.329   4.606   3.595
 4961SOL     OW15781   3.060   0.757   6.323
 4961SOL    HW115782   3.043   0.718   6.413
 4961SOL    HW215783   3.141   0.715   6.282
 4962SOL     OW15784   5.557   2.714   1.277
 4962SOL    HW115785   5.524   2.794   1.227
 4962SOL    HW215786   5.537   2.725   1.374
 4963SOL     OW15787   1.745   5.139   1.373
 4963SOL    HW115788   1.715   5.196   1.297
 4963SOL    HW215789   1.806   5.068   1.340
 4964SOL     OW15790   2.132   6.932   4.834
 4964SOL    HW115791   2.091   6.841   4.838
 4964SOL    HW215792   2.089   6.991   4.903
 4965SOL     OW15793   0.936   6.668   2.638
 4965SOL    HW115794   0.986   6.602   2.693
 4965SOL    HW215795   0.959   6.761   2.669
 4966SOL     OW15796   2.118   6.548   4.520
 4966SOL    HW115797   2.118   6.547   4.420
 4966SOL    HW215798   2.026   6.529   4.554
 4967SOL     OW15799   2.958   5.352   6.231
 4967SOL    HW115800   3.034   5.396   6.278
 4967SOL    HW215801   2.993   5.278   6.173
 4968SOL     OW15802   6.875   1.189   3.552
 4968SOL    HW115803   6.787   1.178   3.505
 4968SOL    HW215804   6.896   1.287   3.561
 4969SOL     OW15805   0.597   5.754   2.549
 4969SOL    HW115806   0.695   5.736   2.544
 4969SOL    HW215807   0.581   5.844   2.590
 4970SOL     OW15808   2.495   1.134   1.191
 4970SOL    HW115809   2.542   1.148   1.104
 4970SOL    HW215810   2.397   1.146   1.179
 4971SOL     OW15811   6.328   5.942   3.146
 4971SOL    HW115812   6.284   6.026   3.113
 4971SOL    HW215813   6.282   5.912   3.230
 4972SOL     OW15814   1.050   4.076   0.603
 4972SOL    HW115815   1.109   4.142   0.650
 4972SOL    HW215816   1.021   4.115   0.515
 4973SOL     OW15817   0.539   0.403   1.509
 4973SOL    HW115818   0.549   0.304   1.497
 4973SOL    HW215819   0.442   0.427   1.511
 4974SOL     OW15820   6.079   4.961   1.014
 4974SOL    HW115821   6.088   5.006   0.925
 4974SOL    HW215822   6.002   4.898   1.013
 4975SOL     OW15823   5.580   3.945   0.309
 4975SOL    HW115824   5.641   3.998   0.251
 4975SOL    HW215825   5.604   3.848   0.304
 4976SOL     OW15826   1.425   0.464   4.705
 4976SOL    HW115827   1.445   0.432   4.798
 4976SOL    HW215828   1.357   0.404   4.664
 4977SOL     OW15829   3.733   4.881   6.952
 4977SOL    HW115830   3.759   4.791   6.917
 4977SOL    HW215831   3.638   4.899   6.929
 4978SOL     OW15832   5.842   4.910   4.477
 4978SOL    HW115833   5.824   4.994   4.425
 4978SOL    HW215834   5.797   4.915   4.566
 4979SOL     OW15835   6.960   6.725   6.524
 4979SOL    HW115836   6.889   6.663   6.489
 4979SOL    HW215837   6.963   6.807   6.466
 4980SOL     OW15838   5.540   5.164   2.531
 4980SOL    HW115839   5.512   5.184   2.437
 4980SOL    HW215840   5.480   5.093   2.569
 4981SOL     OW15841   3.609   5.795   1.994
 4981SOL    HW115842   3.654   5.723   1.940
 4981SOL    HW215843   3.674   5.834   2.059
 4982SOL     OW15844   3.115   1.975   5.761
 4982SOL    HW115845   3.138   2.061   5.807
 4982SOL    HW215846   3.035   1.988   5.703
 4983SOL     OW15847   5.867   4.609   4.664
 4983SOL    HW115848   5.898   4.646   4.751
 4983SOL    HW215849   5.767   4.608   4.662
 4984SOL     OW15850   4.780   4.072   2.682
 4984SOL    HW115851   4.717   4.085   2.759
 4984SOL    HW215852   4.765   4.145   2.615
 4985SOL     OW15853   5.302   6.068   3.125
 4985SOL    HW115854   5.303   6.123   3.041
 4985SOL    HW215855   5.380   6.006   3.125
 4986SOL     OW15856   6.401   4.952   0.243
 4986SOL    HW115857   6.460   4.949   0.162
 4986SOL    HW215858   6.328   5.019   0.229
 4987SOL     OW15859   1.513   6.607   2.560
 4987SOL    HW115860   1.491   6.663   2.480
 4987SOL    HW215861   1.606   6.573   2.553
 4988SOL     OW15862   5.918   0.815   3.405
 4988SOL    HW115863   5.980   0.819   3.326
 4988SOL    HW215864   5.958   0.866   3.481
 4989SOL     OW15865   4.968   0.007   1.964
 4989SOL    HW115866   4.918   0.004   1.877
 4989SOL    HW215867   5.057   0.051   1.950
 4990SOL     OW15868   3.493   2.421   6.582
 4990SOL    HW115869   3.397   2.405   6.558
 4990SOL    HW215870   3.535   2.334   6.610
 4991SOL     OW15871   6.929   5.085   3.843
 4991SOL    HW115872   6.926   4.996   3.799
 4991SOL    HW215873   6.902   5.156   3.778
 4992SOL     OW15874   5.795   0.694   2.562
 4992SOL    HW115875   5.747   0.767   2.513
 4992SOL    HW215876   5.788   0.711   2.661
 4993SOL     OW15877   4.061   5.959   5.029
 4993SOL    HW115878   4.053   5.968   5.128
 4993SOL    HW215879   4.105   5.872   5.007
 4994SOL     OW15880   2.540   5.767   4.836
 4994SOL    HW115881   2.508   5.677   4.810
 4994SOL    HW215882   2.633   5.782   4.802
 4995SOL     OW15883   1.289   0.878   5.379
 4995SOL    HW115884   1.355   0.904   5.449
 4995SOL    HW215885   1.335   0.829   5.305
 4996SOL     OW15886   6.841   0.939   3.443
 4996SOL    HW115887   6.911   0.949   3.372
 4996SOL    HW215888   6.864   0.997   3.521
 4997SOL     OW15889   4.213   2.538   1.384
 4997SOL    HW115890   4.286   2.508   1.446
 4997SOL    HW215891   4.230   2.501   1.293
 4998SOL     OW15892   2.161   3.759   4.397
 4998SOL    HW115893   2.154   3.850   4.438
 4998SOL    HW215894   2.155   3.690   4.468
 4999SOL     OW15895   6.961   3.131   4.392
 4999SOL    HW115896   6.892   3.177   4.449
 4999SOL    HW215897   6.931   3.131   4.297
 5000SOL     OW15898   3.459   6.689   3.172
 5000SOL    HW115899   3.550   6.704   3.134
 5000SOL    HW215900   3.390   6.729   3.111
 5001SOL     OW15901   0.894   6.050   2.131
 5001SOL    HW115902   0.889   6.045   2.231
 5001SOL    HW215903   0.989   6.061   2.103
 5002SOL     OW15904   0.327   5.332   2.140
 5002SOL    HW115905   0.316   5.251   2.083
 5002SOL    HW215906   0.327   5.305   2.237
 5003SOL     OW15907   4.220   6.218   3.230
 5003SOL    HW115908   4.317   6.198   3.242
 5003SOL    HW215909   4.168   6.132   3.233
 5004SOL     OW15910   2.383   4.454   5.653
 5004SOL    HW115911   2.403   4.495   5.741
 5004SOL    HW215912   2.290   4.478   5.625
 5005SOL     OW15913   2.990   2.691   6.464
 5005SOL    HW115914   2.981   2.777   6.515
 5005SOL    HW215915   2.901   2.648   6.454
 5006SOL     OW15916   5.650   0.562   1.747
 5006SOL    HW115917   5.608   0.555   1.838
 5006SOL    HW215918   5.735   0.614   1.755
 5007SOL     OW15919   0.065   0.067   1.266
 5007SOL    HW115920   0.146   0.125   1.277
 5007SOL    HW215921   0.009   0.071   1.348
 5008SOL     OW15922   5.743   5.907   1.643
 5008SOL    HW115923   5.772   5.830   1.699
 5008SOL    HW215924   5.677   5.876   1.575
 5009SOL     OW15925   0.028   2.085   0.119
 5009SOL    HW115926   0.101   2.153   0.120
 5009SOL    HW215927   0.065   1.995   0.098
 5010SOL     OW15928   4.363   2.783   0.945
 5010SOL    HW115929   4.438   2.792   0.879
 5010SOL    HW215930   4.289   2.730   0.903
 5011SOL     OW15931   1.527   4.594   1.624
 5011SOL    HW115932   1.569   4.675   1.665
 5011SOL    HW215933   1.490   4.536   1.696
 5012SOL     OW15934   6.017   2.367   5.129
 5012SOL    HW115935   6.016   2.441   5.062
 5012SOL    HW215936   6.101   2.371   5.183
 5013SOL     OW15937   5.586   1.282   6.536
 5013SOL    HW115938   5.585   1.258   6.439
 5013SOL    HW215939   5.530   1.216   6.587
 5014SOL     OW15940   6.348   4.224   0.409
 5014SOL    HW115941   6.399   4.170   0.476
 5014SOL    HW215942   6.380   4.319   0.412
 5015SOL     OW15943   4.801   0.773   4.664
 5015SOL    HW115944   4.742   0.732   4.734
 5015SOL    HW215945   4.747   0.797   4.584
 5016SOL     OW15946   1.307   3.053   5.158
 5016SOL    HW115947   1.380   3.108   5.117
 5016SOL    HW215948   1.307   2.962   5.116
 5017SOL     OW15949   1.436   2.692   1.254
 5017SOL    HW115950   1.431   2.652   1.346
 5017SOL    HW215951   1.527   2.730   1.238
 5018SOL     OW15952   1.439   5.128   2.813
 5018SOL    HW115953   1.358   5.073   2.793
 5018SOL    HW215954   1.517   5.090   2.764
 5019SOL     OW15955   2.184   6.454   5.934
 5019SOL    HW115956   2.220   6.500   5.853
 5019SOL    HW215957   2.117   6.386   5.907
 5020SOL     OW15958   6.810   0.255   6.204
 5020SOL    HW115959   6.856   0.193   6.141
 5020SOL    HW215960   6.714   0.228   6.213
 5021SOL     OW15961   1.327   1.325   1.264
 5021SOL    HW115962   1.294   1.329   1.359
 5021SOL    HW215963   1.257   1.361   1.203
 5022SOL     OW15964   1.590   2.584   1.822
 5022SOL    HW115965   1.677   2.543   1.850
 5022SOL    HW215966   1.559   2.647   1.893
 5023SOL     OW15967   0.470   3.989   1.644
 5023SOL    HW115968   0.544   4.008   1.579
 5023SOL    HW215969   0.509   3.958   1.731
 5024SOL     OW15970   5.819   5.421   1.318
 5024SOL    HW115971   5.739   5.480   1.314
 5024SOL    HW215972   5.896   5.466   1.273
 5025SOL     OW15973   4.333   2.267   3.982
 5025SOL    HW115974   4.373   2.176   3.990
 5025SOL    HW215975   4.364   2.325   4.057
 5026SOL     OW15976   6.797   5.415   5.538
 5026SOL    HW115977   6.833   5.397   5.446
 5026SOL    HW215978   6.795   5.514   5.554
 5027SOL     OW15979   5.901   0.065   1.377
 5027SOL    HW115980   5.929   7.010   1.431
 5027SOL    HW215981   5.883   0.142   1.438
 5028SOL     OW15982   6.840   1.342   2.939
 5028SOL    HW115983   6.754   1.382   2.905
 5028SOL    HW215984   6.841   1.345   3.039
 5029SOL     OW15985   5.950   2.004   2.684
 5029SOL    HW115986   5.960   2.001   2.585
 5029SOL    HW215987   5.912   2.093   2.710
 5030SOL     OW15988   6.890   6.274   6.888
 5030SOL    HW115989   6.886   6.273   6.988
 5030SOL    HW215990   6.835   6.351   6.854
 5031SOL     OW15991   0.094   1.080   6.189
 5031SOL    HW115992   0.123   1.168   6.227
 5031SOL    HW215993   0.004   1.056   6.225
 5032SOL     OW15994   2.728   1.594   6.019
 5032SOL    HW115995   2.789   1.588   5.940
 5032SOL    HW215996   2.720   1.689   6.048
 5033SOL     OW15997   2.146   0.087   6.515
 5033SOL    HW115998   2.200   0.154   6.566
 5033SOL    HW215999   2.175   7.019   6.539
 5034SOL     OW16000   6.238   0.175   3.721
 5034SOL    HW116001   6.220   0.184   3.819
 5034SOL    HW216002   6.259   0.079   3.700
 5035SOL     OW16003   0.123   3.937   5.577
 5035SOL    HW116004   0.161   3.903   5.663
 5035SOL    HW216005   0.061   3.869   5.538
 5036SOL     OW16006   0.245   5.033   0.023
 5036SOL    HW116007   0.185   4.963   7.007
 5036SOL    HW216008   0.251   5.019   0.122
 5037SOL     OW16009   5.327   4.324   1.762
 5037SOL    HW116010   5.269   4.300   1.684
 5037SOL    HW216011   5.399   4.255   1.771
 5038SOL     OW16012   3.204   3.384   5.330
 5038SOL    HW116013   3.188   3.431   5.242
 5038SOL    HW216014   3.301   3.360   5.337
 5039SOL     OW16015   2.295   3.315   5.627
 5039SOL    HW116016   2.321   3.324   5.531
 5039SOL    HW216017   2.250   3.399   5.658
 5040SOL     OW16018   1.021   6.406   6.338
 5040SOL    HW116019   0.988   6.315   6.363
 5040SOL    HW216020   1.037   6.410   6.239
 5041SOL     OW16021   1.468   1.824   2.004
 5041SOL    HW116022   1.514   1.903   1.963
 5041SOL    HW216023   1.528   1.744   1.997
 5042SOL     OW16024   6.305   3.538   0.501
 5042SOL    HW116025   6.233   3.481   0.461
 5042SOL    HW216026   6.395   3.503   0.473
 5043SOL     OW16027   4.074   0.278   6.991
 5043SOL    HW116028   3.988   0.307   6.950
 5043SOL    HW216029   4.148   0.290   6.925
 5044SOL     OW16030   0.539   6.324   0.930
 5044SOL    HW116031   0.511   6.354   1.021
 5044SOL    HW216032   0.461   6.330   0.868
 5045SOL     OW16033   5.750   6.317   6.661
 5045SOL    HW116034   5.714   6.309   6.568
 5045SOL    HW216035   5.849   6.299   6.660
 5046SOL     OW16036   3.274   4.134   2.963
 5046SOL    HW116037   3.278   4.055   2.903
 5046SOL    HW216038   3.296   4.217   2.911
 5047SOL     OW16039   1.162   4.082   2.723
 5047SOL    HW116040   1.211   4.095   2.637
 5047SOL    HW216041   1.193   3.997   2.767
 5048SOL     OW16042   0.982   1.042   2.968
 5048SOL    HW116043   0.900   1.010   3.014
 5048SOL    HW216044   0.994   0.992   2.882
 5049SOL     OW16045   4.993   2.029   6.934
 5049SOL    HW116046   5.045   2.114   6.937
 5049SOL    HW216047   4.964   2.004   0.002
 5050SOL     OW16048   1.483   0.413   1.066
 5050SOL    HW116049   1.459   0.417   1.163
 5050SOL    HW216050   1.497   0.317   1.039
 5051SOL     OW16051   4.693   3.947   1.467
 5051SOL    HW116052   4.615   4.001   1.437
 5051SOL    HW216053   4.687   3.930   1.565
 5052SOL     OW16054   2.504   1.257   5.631
 5052SOL    HW116055   2.445   1.309   5.569
 5052SOL    HW216056   2.447   1.207   5.696
 5053SOL     OW16057   1.372   4.150   3.524
 5053SOL    HW116058   1.373   4.134   3.623
 5053SOL    HW216059   1.340   4.067   3.477
 5054SOL     OW16060   2.963   5.083   4.184
 5054SOL    HW116061   2.896   5.152   4.209
 5054SOL    HW216062   3.053   5.111   4.217
 5055SOL     OW16063   1.006   2.299   5.925
 5055SOL    HW116064   1.051   2.250   6.000
 5055SOL    HW216065   0.944   2.237   5.876
 5056SOL     OW16066   5.567   4.003   6.463
 5056SOL    HW116067   5.589   4.100   6.457
 5056SOL    HW216068   5.519   3.985   6.549
 5057SOL     OW16069   0.702   6.953   3.309
 5057SOL    HW116070   0.646   6.995   3.380
 5057SOL    HW216071   0.690   6.854   3.312
 5058SOL     OW16072   3.390   4.153   5.397
 5058SOL    HW116073   3.437   4.064   5.392
 5058SOL    HW216074   3.393   4.188   5.490
 5059SOL     OW16075   6.138   0.822   3.211
 5059SOL    HW116076   6.236   0.824   3.188
 5059SOL    HW216077   6.109   0.728   3.226
 5060SOL     OW16078   0.609   2.011   6.227
 5060SOL    HW116079   0.514   2.005   6.258
 5060SOL    HW216080   0.652   2.092   6.266
 5061SOL     OW16081   4.838   3.152   0.855
 5061SOL    HW116082   4.784   3.230   0.886
 5061SOL    HW216083   4.838   3.081   0.926
 5062SOL     OW16084   6.254   6.863   3.166
 5062SOL    HW116085   6.202   6.932   3.116
 5062SOL    HW216086   6.351   6.869   3.140
 5063SOL     OW16087   1.030   0.179   2.695
 5063SOL    HW116088   1.086   0.155   2.616
 5063SOL    HW216089   1.000   0.274   2.688
 5064SOL     OW16090   5.139   3.823   0.658
 5064SOL    HW116091   5.194   3.824   0.574
 5064SOL    HW216092   5.083   3.741   0.660
 5065SOL     OW16093   3.007   0.374   5.394
 5065SOL    HW116094   3.094   0.417   5.373
 5065SOL    HW216095   2.935   0.414   5.337
 5066SOL     OW16096   5.299   4.539   2.307
 5066SOL    HW116097   5.300   4.530   2.207
 5066SOL    HW216098   5.380   4.495   2.345
 5067SOL     OW16099   4.740   0.988   1.834
 5067SOL    HW116100   4.765   1.064   1.774
 5067SOL    HW216101   4.741   1.018   1.929
 5068SOL     OW16102   2.869   4.353   0.838
 5068SOL    HW116103   2.867   4.451   0.859
 5068SOL    HW216104   2.784   4.311   0.869
 5069SOL     OW16105   1.406   3.945   4.336
 5069SOL    HW116106   1.368   4.014   4.273
 5069SOL    HW216107   1.442   3.991   4.417
 5070SOL     OW16108   5.143   3.870   4.101
 5070SOL    HW116109   5.051   3.844   4.072
 5070SOL    HW216110   5.193   3.789   4.131
 5071SOL     OW16111   4.611   1.849   4.911
 5071SOL    HW116112   4.559   1.808   4.836
 5071SOL    HW216113   4.594   1.797   4.995
 5072SOL     OW16114   0.892   6.479   0.221
 5072SOL    HW116115   0.851   6.389   0.201
 5072SOL    HW216116   0.955   6.504   0.148
 5073SOL     OW16117   0.182   6.614   2.592
 5073SOL    HW116118   0.137   6.696   2.628
 5073SOL    HW216119   0.247   6.640   2.521
 5074SOL     OW16120   3.215   3.339   0.061
 5074SOL    HW116121   3.302   3.366   0.021
 5074SOL    HW216122   3.210   3.239   0.067
 5075SOL     OW16123   1.142   2.011   6.501
 5075SOL    HW116124   1.077   1.950   6.546
 5075SOL    HW216125   1.099   2.052   6.420
 5076SOL     OW16126   3.488   0.574   1.126
 5076SOL    HW116127   3.575   0.559   1.173
 5076SOL    HW216128   3.469   0.672   1.122
 5077SOL     OW16129   0.249   2.844   5.140
 5077SOL    HW116130   0.269   2.747   5.123
 5077SOL    HW216131   0.154   2.853   5.170
 5078SOL     OW16132   0.913   1.902   3.358
 5078SOL    HW116133   0.883   1.995   3.378
 5078SOL    HW216134   0.858   1.864   3.284
 5079SOL     OW16135   2.521   4.850   5.543
 5079SOL    HW116136   2.555   4.756   5.551
 5079SOL    HW216137   2.422   4.849   5.532
 5080SOL     OW16138   6.294   6.227   5.967
 5080SOL    HW116139   6.330   6.134   5.959
 5080SOL    HW216140   6.362   6.293   5.937
 5081SOL     OW16141   3.962   3.069   4.676
 5081SOL    HW116142   4.032   3.119   4.625
 5081SOL    HW216143   3.893   3.035   4.613
 5082SOL     OW16144   6.168   5.338   5.569
 5082SOL    HW116145   6.144   5.392   5.650
 5082SOL    HW216146   6.239   5.272   5.593
 5083SOL     OW16147   2.524   6.771   2.972
 5083SOL    HW116148   2.607   6.826   2.981
 5083SOL    HW216149   2.544   6.676   2.996
 5084SOL     OW16150   1.045   5.034   4.307
 5084SOL    HW116151   1.031   5.131   4.289
 5084SOL    HW216152   1.069   4.987   4.221
 5085SOL     OW16153   5.302   2.908   6.708
 5085SOL    HW116154   5.296   2.819   6.664
 5085SOL    HW216155   5.225   2.965   6.679
 5086SOL     OW16156   6.728   5.777   3.406
 5086SOL    HW116157   6.681   5.845   3.350
 5086SOL    HW216158   6.677   5.691   3.402
 5087SOL     OW16159   6.774   5.810   3.684
 5087SOL    HW116160   6.687   5.822   3.732
 5087SOL    HW216161   6.756   5.785   3.589
 5088SOL     OW16162   5.457   1.565   4.963
 5088SOL    HW116163   5.507   1.540   4.879
 5088SOL    HW216164   5.510   1.633   5.014
 5089SOL     OW16165   5.653   2.736   2.959
 5089SOL    HW116166   5.591   2.797   2.910
 5089SOL    HW216167   5.600   2.670   3.012
 5090SOL     OW16168   1.829   3.623   3.105
 5090SOL    HW116169   1.924   3.652   3.097
 5090SOL    HW216170   1.779   3.688   3.163
 5091SOL     OW16171   1.827   6.239   2.459
 5091SOL    HW116172   1.760   6.246   2.385
 5091SOL    HW216173   1.827   6.324   2.511
 5092SOL     OW16174   2.894   3.281   1.202
 5092SOL    HW116175   2.816   3.253   1.258
 5092SOL    HW216176   2.979   3.259   1.250
 5093SOL     OW16177   3.156   1.394   1.444
 5093SOL    HW116178   3.123   1.302   1.424
 5093SOL    HW216179   3.096   1.462   1.402
 5094SOL     OW16180   1.006   6.419   4.429
 5094SOL    HW116181   0.912   6.384   4.420
 5094SOL    HW216182   1.035   6.412   4.524
 5095SOL     OW16183   0.370   1.786   4.391
 5095SOL    HW116184   0.331   1.855   4.452
 5095SOL    HW216185   0.347   1.809   4.296
 5096SOL     OW16186   4.198   3.634   0.537
 5096SOL    HW116187   4.263   3.613   0.464
 5096SOL    HW216188   4.105   3.622   0.503
 5097SOL     OW16189   1.738   0.273   0.035
 5097SOL    HW116190   1.831   0.242   0.054
 5097SOL    HW216191   1.708   0.235   6.971
 5098SOL     OW16192   1.010   0.811   1.322
 5098SOL    HW116193   0.959   0.842   1.402
 5098SOL    HW216194   1.011   0.711   1.320
 5099SOL     OW16195   0.553   0.018   6.153
 5099SOL    HW116196   0.508   6.960   6.119
 5099SOL    HW216197   0.628   0.042   6.092
 5100SOL     OW16198   4.449   6.727   5.230
 5100SOL    HW116199   4.360   6.697   5.197
 5100SOL    HW216200   4.505   6.757   5.153
 5101SOL     OW16201   4.740   6.823   0.215
 5101SOL    HW116202   4.711   6.750   0.277
 5101SOL    HW216203   4.683   6.904   0.229
 5102SOL     OW16204   5.747   0.423   5.853
 5102SOL    HW116205   5.750   0.391   5.948
 5102SOL    HW216206   5.743   0.343   5.792
 5103SOL     OW16207   0.701   0.785   4.073
 5103SOL    HW116208   0.686   0.884   4.077
 5103SOL    HW216209   0.614   0.737   4.080
 5104SOL     OW16210   2.439   6.120   2.258
 5104SOL    HW116211   2.440   6.085   2.164
 5104SOL    HW216212   2.376   6.197   2.264
 5105SOL     OW16213   4.113   3.346   0.167
 5105SOL    HW116214   4.144   3.441   0.161
 5105SOL    HW216215   4.051   3.336   0.245
 5106SOL     OW16216   3.772   0.268   1.486
 5106SOL    HW116217   3.684   0.222   1.482
 5106SOL    HW216218   3.759   0.366   1.470
 5107SOL     OW16219   3.994   1.027   0.507
 5107SOL    HW116220   3.930   1.072   0.569
 5107SOL    HW216221   4.036   0.948   0.554
 5108SOL     OW16222   2.885   3.371   3.726
 5108SOL    HW116223   2.787   3.359   3.742
 5108SOL    HW216224   2.900   3.449   3.666
 5109SOL     OW16225   1.100   1.183   1.069
 5109SOL    HW116226   1.046   1.246   1.125
 5109SOL    HW216227   1.129   1.229   0.985
 5110SOL     OW16228   0.562   0.117   6.510
 5110SOL    HW116229   0.488   0.066   6.465
 5110SOL    HW216230   0.564   0.210   6.476
 5111SOL     OW16231   0.823   0.876   5.814
 5111SOL    HW116232   0.904   0.859   5.870
 5111SOL    HW216233   0.801   0.973   5.816
 5112SOL     OW16234   0.534   0.392   2.571
 5112SOL    HW116235   0.475   0.320   2.535
 5112SOL    HW216236   0.522   0.475   2.517
 5113SOL     OW16237   1.807   6.713   1.402
 5113SOL    HW116238   1.896   6.758   1.411
 5113SOL    HW216239   1.768   6.733   1.312
 5114SOL     OW16240   3.688   2.908   0.673
 5114SOL    HW116241   3.736   2.905   0.760
 5114SOL    HW216242   3.591   2.893   0.688
 5115SOL     OW16243   2.280   4.621   5.364
 5115SOL    HW116244   2.222   4.608   5.283
 5115SOL    HW216245   2.376   4.611   5.339
 5116SOL     OW16246   5.904   6.298   6.284
 5116SOL    HW116247   5.845   6.318   6.205
 5116SOL    HW216248   5.991   6.260   6.252
 5117SOL     OW16249   1.977   5.047   4.168
 5117SOL    HW116250   2.028   5.132   4.162
 5117SOL    HW216251   1.900   5.050   4.104
 5118SOL     OW16252   4.803   6.284   0.883
 5118SOL    HW116253   4.806   6.324   0.792
 5118SOL    HW216254   4.874   6.214   0.892
 5119SOL     OW16255   5.318   0.222   1.666
 5119SOL    HW116256   5.302   0.224   1.568
 5119SOL    HW216257   5.408   0.181   1.685
 5120SOL     OW16258   5.282   1.285   3.432
 5120SOL    HW116259   5.242   1.194   3.429
 5120SOL    HW216260   5.380   1.278   3.412
 5121SOL     OW16261   2.223   2.533   0.082
 5121SOL    HW116262   2.204   2.631   0.073
 5121SOL    HW216263   2.151   2.490   0.136
 5122SOL     OW16264   3.280   0.674   4.222
 5122SOL    HW116265   3.279   0.617   4.140
 5122SOL    HW216266   3.280   0.770   4.197
 5123SOL     OW16267   6.086   3.319   4.730
 5123SOL    HW116268   6.128   3.409   4.736
 5123SOL    HW216269   6.024   3.316   4.651
 5124SOL     OW16270   2.477   5.332   5.896
 5124SOL    HW116271   2.519   5.241   5.900
 5124SOL    HW216272   2.547   5.400   5.872
 5125SOL     OW16273   6.478   3.144   4.550
 5125SOL    HW116274   6.476   3.047   4.573
 5125SOL    HW216275   6.449   3.198   4.629
 5126SOL     OW16276   6.127   4.634   6.128
 5126SOL    HW116277   6.112   4.539   6.102
 5126SOL    HW216278   6.044   4.687   6.111
 5127SOL     OW16279   6.086   3.824   0.179
 5127SOL    HW116280   6.071   3.913   0.222
 5127SOL    HW216281   6.087   3.836   0.079
 5128SOL     OW16282   0.810   0.321   0.452
 5128SOL    HW116283   0.776   0.378   0.527
 5128SOL    HW216284   0.907   0.339   0.436
 5129SOL     OW16285   5.027   0.533   2.434
 5129SOL    HW116286   4.943   0.493   2.396
 5129SOL    HW216287   5.076   0.582   2.363
 5130SOL     OW16288   1.559   5.996   4.316
 5130SOL    HW116289   1.575   6.093   4.303
 5130SOL    HW216290   1.619   5.962   4.388
 5131SOL     OW16291   2.863   4.833   3.421
 5131SOL    HW116292   2.784   4.780   3.392
 5131SOL    HW216293   2.930   4.836   3.347
 5132SOL     OW16294   3.064   1.079   6.000
 5132SOL    HW116295   3.074   1.050   6.095
 5132SOL    HW216296   2.990   1.145   5.992
 5133SOL     OW16297   2.789   5.909   6.411
 5133SOL    HW116298   2.778   5.830   6.351
 5133SOL    HW216299   2.839   5.882   6.493
 5134SOL     OW16300   6.966   6.981   2.427
 5134SOL    HW116301   6.939   0.031   2.367
 5134SOL    HW216302   6.983   7.017   2.519
 5135SOL     OW16303   6.396   4.167   3.253
 5135SOL    HW116304   6.339   4.248   3.261
 5135SOL    HW216305   6.350   4.089   3.296
 5136SOL     OW16306   6.346   1.339   5.849
 5136SOL    HW116307   6.407   1.354   5.771
 5136SOL    HW216308   6.251   1.348   5.819
 5137SOL     OW16309   5.000   3.419   5.409
 5137SOL    HW116310   5.082   3.473   5.426
 5137SOL    HW216311   4.920   3.468   5.444
 5138SOL     OW16312   4.024   3.862   3.891
 5138SOL    HW116313   3.958   3.910   3.949
 5138SOL    HW216314   4.094   3.821   3.949
 5139SOL     OW16315   1.071   6.980   4.461
 5139SOL    HW116316   1.097   6.894   4.506
 5139SOL    HW216317   0.976   7.001   4.484
 5140SOL     OW16318   3.630   1.941   5.789
 5140SOL    HW116319   3.567   1.864   5.796
 5140SOL    HW216320   3.635   1.988   5.877
 5141SOL     OW16321   6.534   3.216   1.599
 5141SOL    HW116322   6.523   3.251   1.692
 5141SOL    HW216323   6.507   3.120   1.596
 5142SOL     OW16324   5.841   6.905   5.561
 5142SOL    HW116325   5.747   6.870   5.559
 5142SOL    HW216326   5.859   6.958   5.478
 5143SOL     OW16327   1.049   4.200   5.369
 5143SOL    HW116328   1.062   4.137   5.446
 5143SOL    HW216329   1.109   4.173   5.293
 5144SOL     OW16330   1.601   3.582   6.175
 5144SOL    HW116331   1.544   3.587   6.093
 5144SOL    HW216332   1.567   3.648   6.243
 5145SOL     OW16333   4.130   6.305   6.786
 5145SOL    HW116334   4.076   6.389   6.778
 5145SOL    HW216335   4.087   6.245   6.854
 5146SOL     OW16336   3.480   4.126   4.996
 5146SOL    HW116337   3.565   4.152   5.043
 5146SOL    HW216338   3.479   4.165   4.904
 5147SOL     OW16339   6.130   5.121   3.447
 5147SOL    HW116340   6.135   5.111   3.347
 5147SOL    HW216341   6.097   5.213   3.469
 5148SOL     OW16342   0.838   0.602   2.256
 5148SOL    HW116343   0.758   0.559   2.216
 5148SOL    HW216344   0.842   0.698   2.228
 5149SOL     OW16345   5.827   5.106   4.269
 5149SOL    HW116346   5.923   5.109   4.299
 5149SOL    HW216347   5.822   5.132   4.173
 5150SOL     OW16348   2.540   4.487   4.016
 5150SOL    HW116349   2.496   4.433   3.944
 5150SOL    HW216350   2.589   4.563   3.974
 5151SOL     OW16351   6.036   3.977   1.618
 5151SOL    HW116352   6.106   3.966   1.688
 5151SOL    HW216353   6.020   3.889   1.573
 5152SOL     OW16354   1.355   6.268   6.495
 5152SOL    HW116355   1.454   6.261   6.500
 5152SOL    HW216356   1.317   6.180   6.465
 5153SOL     OW16357   1.347   1.596   1.082
 5153SOL    HW116358   1.303   1.601   1.171
 5153SOL    HW216359   1.322   1.676   1.028
 5154SOL     OW16360   1.620   3.139   6.692
 5154SOL    HW116361   1.529   3.157   6.728
 5154SOL    HW216362   1.614   3.124   6.593
 5155SOL     OW16363   3.748   1.323   0.875
 5155SOL    HW116364   3.744   1.248   0.810
 5155SOL    HW216365   3.752   1.286   0.968
 5156SOL     OW16366   5.451   4.763   4.602
 5156SOL    HW116367   5.362   4.723   4.622
 5156SOL    HW216368   5.486   4.810   4.683
 5157SOL     OW16369   3.318   1.988   2.103
 5157SOL    HW116370   3.374   2.019   2.026
 5157SOL    HW216371   3.224   2.020   2.091
 5158SOL     OW16372   3.050   2.354   0.968
 5158SOL    HW116373   3.022   2.353   1.064
 5158SOL    HW216374   3.146   2.378   0.961
 5159SOL     OW16375   6.151   4.205   6.601
 5159SOL    HW116376   6.244   4.166   6.607
 5159SOL    HW216377   6.086   4.131   6.587
 5160SOL     OW16378   6.506   5.840   3.678
 5160SOL    HW116379   6.435   5.819   3.747
 5160SOL    HW216380   6.522   5.759   3.622
 5161SOL     OW16381   0.976   3.225   0.314
 5161SOL    HW116382   0.932   3.309   0.283
 5161SOL    HW216383   0.927   3.146   0.276
 5162SOL     OW16384   0.902   6.043   2.401
 5162SOL    HW116385   0.871   6.029   2.495
 5162SOL    HW216386   0.997   6.013   2.392
 5163SOL     OW16387   3.364   6.970   0.537
 5163SOL    HW116388   3.410   7.015   0.461
 5163SOL    HW216389   3.345   0.012   0.609
 5164SOL     OW16390   2.647   3.276   6.745
 5164SOL    HW116391   2.734   3.324   6.744
 5164SOL    HW216392   2.587   3.314   6.674
 5165SOL     OW16393   0.935   4.197   6.579
 5165SOL    HW116394   0.853   4.176   6.526
 5165SOL    HW216395   1.016   4.182   6.522
 5166SOL     OW16396   1.731   4.657   2.823
 5166SOL    HW116397   1.769   4.659   2.915
 5166SOL    HW216398   1.716   4.562   2.795
 5167SOL     OW16399   6.406   4.285   4.905
 5167SOL    HW116400   6.339   4.349   4.943
 5167SOL    HW216401   6.473   4.262   4.976
 5168SOL     OW16402   4.845   2.124   2.602
 5168SOL    HW116403   4.810   2.211   2.638
 5168SOL    HW216404   4.768   2.061   2.586
 5169SOL     OW16405   4.894   2.058   3.760
 5169SOL    HW116406   4.970   2.009   3.716
 5169SOL    HW216407   4.898   2.155   3.737
 5170SOL     OW16408   1.156   3.616   5.451
 5170SOL    HW116409   1.228   3.547   5.462
 5170SOL    HW216410   1.144   3.635   5.353
 5171SOL     OW16411   0.256   4.746   5.187
 5171SOL    HW116412   0.192   4.687   5.237
 5171SOL    HW216413   0.350   4.723   5.212
 5172SOL     OW16414   1.385   4.961   3.202
 5172SOL    HW116415   1.374   4.916   3.291
 5172SOL    HW216416   1.470   4.931   3.159
 5173SOL     OW16417   4.208   4.036   6.525
 5173SOL    HW116418   4.150   4.049   6.444
 5173SOL    HW216419   4.260   3.951   6.515
 5174SOL     OW16420   2.158   6.476   3.809
 5174SOL    HW116421   2.202   6.386   3.810
 5174SOL    HW216422   2.200   6.535   3.877
 5175SOL     OW16423   2.350   3.786   6.612
 5175SOL    HW116424   2.444   3.821   6.614
 5175SOL    HW216425   2.288   3.853   6.652
 5176SOL     OW16426   4.952   5.114   6.485
 5176SOL    HW116427   4.889   5.175   6.436
 5176SOL    HW216428   4.899   5.046   6.535
 5177SOL     OW16429   4.947   6.581   1.290
 5177SOL    HW116430   4.903   6.671   1.285
 5177SOL    HW216431   4.939   6.545   1.383
 5178SOL     OW16432   0.748   4.781   1.611
 5178SOL    HW116433   0.794   4.692   1.606
 5178SOL    HW216434   0.793   4.838   1.681
 5179SOL     OW16435   4.942   4.270   3.317
 5179SOL    HW116436   4.925   4.353   3.370
 5179SOL    HW216437   4.976   4.294   3.226
 5180SOL     OW16438   3.533   0.300   1.038
 5180SOL    HW116439   3.502   0.389   1.070
 5180SOL    HW216440   3.455   0.246   1.008
 5181SOL     OW16441   0.242   0.600   0.231
 5181SOL    HW116442   0.271   0.506   0.215
 5181SOL    HW216443   0.156   0.617   0.183
 5182SOL     OW16444   4.440   4.489   1.808
 5182SOL    HW116445   4.415   4.523   1.898
 5182SOL    HW216446   4.437   4.389   1.807
 5183SOL     OW16447   3.917   1.647   2.594
 5183SOL    HW116448   3.951   1.604   2.678
 5183SOL    HW216449   3.818   1.660   2.602
 5184SOL     OW16450   2.192   2.023   3.273
 5184SOL    HW116451   2.210   2.059   3.365
 5184SOL    HW216452   2.279   2.006   3.227
 5185SOL     OW16453   4.708   0.393   2.754
 5185SOL    HW116454   4.738   0.308   2.797
 5185SOL    HW216455   4.715   0.385   2.654
 5186SOL     OW16456   6.081   3.048   5.357
 5186SOL    HW116457   6.145   3.039   5.281
 5186SOL    HW216458   5.992   3.010   5.330
 5187SOL     OW16459   1.815   5.457   4.804
 5187SOL    HW116460   1.769   5.520   4.867
 5187SOL    HW216461   1.810   5.494   4.711
 5188SOL     OW16462   6.532   6.048   1.783
 5188SOL    HW116463   6.485   6.135   1.801
 5188SOL    HW216464   6.464   5.975   1.776
 5189SOL     OW16465   5.030   5.980   6.746
 5189SOL    HW116466   4.965   5.915   6.705
 5189SOL    HW216467   5.092   6.014   6.675
 5190SOL     OW16468   1.824   3.517   2.734
 5190SOL    HW116469   1.828   3.616   2.724
 5190SOL    HW216470   1.755   3.493   2.802
 5191SOL     OW16471   3.041   5.604   3.225
 5191SOL    HW116472   3.049   5.662   3.306
 5191SOL    HW216473   2.964   5.635   3.170
 5192SOL     OW16474   1.781   6.010   1.521
 5192SOL    HW116475   1.727   5.931   1.549
 5192SOL    HW216476   1.871   6.005   1.564
 5193SOL     OW16477   4.319   6.311   6.037
 5193SOL    HW116478   4.262   6.378   6.085
 5193SOL    HW216479   4.413   6.345   6.031
 5194SOL     OW16480   2.738   1.968   6.783
 5194SOL    HW116481   2.691   1.881   6.762
 5194SOL    HW216482   2.750   2.020   6.699
 5195SOL     OW16483   0.374   0.271   4.030
 5195SOL    HW116484   0.324   0.252   4.114
 5195SOL    HW216485   0.317   0.323   3.967
 5196SOL     OW16486   4.312   6.648   2.116
 5196SOL    HW116487   4.385   6.584   2.142
 5196SOL    HW216488   4.353   6.727   2.070
 5197SOL     OW16489   1.224   3.865   6.830
 5197SOL    HW116490   1.149   3.816   6.784
 5197SOL    HW216491   1.283   3.799   6.876
 5198SOL     OW16492   4.473   5.175   3.240
 5198SOL    HW116493   4.515   5.236   3.173
 5198SOL    HW216494   4.453   5.225   3.324
 5199SOL     OW16495   0.103   5.600   0.701
 5199SOL    HW116496   0.029   5.639   0.755
 5199SOL    HW216497   0.158   5.673   0.661
 5200SOL     OW16498   6.547   3.351   5.491
 5200SOL    HW116499   6.595   3.356   5.579
 5200SOL    HW216500   6.614   3.356   5.417
 5201SOL     OW16501   0.728   6.848   2.975
 5201SOL    HW116502   0.701   6.852   2.879
 5201SOL    HW216503   0.720   6.939   3.016
 5202SOL     OW16504   6.102   3.026   6.323
 5202SOL    HW116505   6.078   3.094   6.392
 5202SOL    HW216506   6.106   2.935   6.365
 5203SOL     OW16507   1.958   2.382   6.845
 5203SOL    HW116508   2.034   2.443   6.823
 5203SOL    HW216509   1.991   2.287   6.845
 5204SOL     OW16510   3.785   5.306   0.472
 5204SOL    HW116511   3.810   5.305   0.569
 5204SOL    HW216512   3.848   5.365   0.423
 5205SOL     OW16513   1.783   6.996   0.740
 5205SOL    HW116514   1.811   0.026   0.661
 5205SOL    HW216515   1.826   0.009   0.822
 5206SOL     OW16516   0.660   3.568   6.165
 5206SOL    HW116517   0.682   3.513   6.083
 5206SOL    HW216518   0.609   3.649   6.138
 5207SOL     OW16519   1.202   5.286   3.879
 5207SOL    HW116520   1.294   5.320   3.899
 5207SOL    HW216521   1.199   5.250   3.786
 5208SOL     OW16522   3.516   1.245   0.395
 5208SOL    HW116523   3.469   1.243   0.306
 5208SOL    HW216524   3.572   1.328   0.400
 5209SOL     OW16525   5.759   6.124   4.023
 5209SOL    HW116526   5.694   6.093   3.954
 5209SOL    HW216527   5.797   6.044   4.070
 5210SOL     OW16528   5.722   2.957   5.726
 5210SOL    HW116529   5.767   3.032   5.774
 5210SOL    HW216530   5.637   2.991   5.684
 5211SOL     OW16531   4.068   3.290   4.532
 5211SOL    HW116532   3.972   3.316   4.526
 5211SOL    HW216533   4.120   3.363   4.576
 5212SOL     OW16534   6.861   2.036   1.107
 5212SOL    HW116535   6.890   1.943   1.084
 5212SOL    HW216536   6.931   2.080   1.164
 5213SOL     OW16537   5.067   3.009   6.638
 5213SOL    HW116538   4.983   2.967   6.605
 5213SOL    HW216539   5.087   3.091   6.585
 5214SOL     OW16540   5.674   1.456   6.741
 5214SOL    HW116541   5.649   1.407   6.658
 5214SOL    HW216542   5.768   1.489   6.733
 5215SOL     OW16543   5.228   5.313   3.405
 5215SOL    HW116544   5.275   5.287   3.490
 5215SOL    HW216545   5.175   5.235   3.372
 5216SOL     OW16546   4.429   6.037   1.533
 5216SOL    HW116547   4.481   6.061   1.451
 5216SOL    HW216548   4.432   6.112   1.598
 5217SOL     OW16549   3.343   5.206   4.117
 5217SOL    HW116550   3.408   5.137   4.149
 5217SOL    HW216551   3.291   5.241   4.195
 5218SOL     OW16552   1.657   0.452   3.262
 5218SOL    HW116553   1.655   0.448   3.162
 5218SOL    HW216554   1.728   0.516   3.292
 5219SOL     OW16555   3.707   0.805   6.823
 5219SOL    HW116556   3.757   0.746   6.759
 5219SOL    HW216557   3.768   0.831   6.898
 5220SOL     OW16558   1.507   5.292   3.020
 5220SOL    HW116559   1.484   5.222   2.952
 5220SOL    HW216560   1.566   5.361   2.978
 5221SOL     OW16561   5.833   2.361   4.308
 5221SOL    HW116562   5.786   2.275   4.328
 5221SOL    HW216563   5.931   2.345   4.298
 5222SOL     OW16564   2.291   0.507   3.955
 5222SOL    HW116565   2.375   0.562   3.959
 5222SOL    HW216566   2.299   0.431   4.019
 5223SOL     OW16567   5.203   0.364   1.425
 5223SOL    HW116568   5.225   0.419   1.506
 5223SOL    HW216569   5.214   0.421   1.343
 5224SOL     OW16570   1.052   1.498   3.359
 5224SOL    HW116571   1.082   1.410   3.395
 5224SOL    HW216572   1.023   1.487   3.263
 5225SOL     OW16573   6.475   0.738   2.820
 5225SOL    HW116574   6.552   0.758   2.759
 5225SOL    HW216575   6.411   0.677   2.773
 5226SOL     OW16576   0.405   5.807   5.179
 5226SOL    HW116577   0.387   5.831   5.084
 5226SOL    HW216578   0.346   5.730   5.205
 5227SOL     OW16579   1.713   4.493   3.671
 5227SOL    HW116580   1.765   4.410   3.649
 5227SOL    HW216581   1.616   4.477   3.654
 5228SOL     OW16582   6.423   3.428   1.468
 5228SOL    HW116583   6.496   3.457   1.406
 5228SOL    HW216584   6.462   3.373   1.542
 5229SOL     OW16585   1.513   4.309   6.792
 5229SOL    HW116586   1.444   4.242   6.765
 5229SOL    HW216587   1.566   4.336   6.712
 5230SOL     OW16588   0.305   6.812   0.888
 5230SOL    HW116589   0.274   6.869   0.812
 5230SOL    HW216590   0.397   6.777   0.868
 5231SOL     OW16591   3.111   4.004   4.242
 5231SOL    HW116592   3.106   4.055   4.328
 5231SOL    HW216593   3.046   3.927   4.245
 5232SOL     OW16594   3.010   2.454   6.208
 5232SOL    HW116595   2.934   2.397   6.177
 5232SOL    HW216596   3.037   2.515   6.134
 5233SOL     OW16597   6.326   0.237   1.445
 5233SOL    HW116598   6.317   0.325   1.398
 5233SOL    HW216599   6.268   0.169   1.400
 5234SOL     OW16600   2.816   0.379   6.468
 5234SOL    HW116601   2.729   0.423   6.489
 5234SOL    HW216602   2.825   0.369   6.368
 5235SOL     OW16603   1.508   3.108   1.416
 5235SOL    HW116604   1.543   3.103   1.323
 5235SOL    HW216605   1.482   3.017   1.448
 5236SOL     OW16606   5.541   3.220   2.318
 5236SOL    HW116607   5.490   3.148   2.364
 5236SOL    HW216608   5.632   3.187   2.295
 5237SOL     OW16609   2.841   1.019   5.300
 5237SOL    HW116610   2.792   1.087   5.355
 5237SOL    HW216611   2.890   1.066   5.227
 5238SOL     OW16612   1.851   5.064   0.542
 5238SOL    HW116613   1.923   5.097   0.602
 5238SOL    HW216614   1.886   5.056   0.449
 5239SOL     OW16615   3.902   3.585   3.651
 5239SOL    HW116616   3.950   3.634   3.578
 5239SOL    HW216617   3.968   3.530   3.702
 5240SOL     OW16618   2.821   1.698   5.739
 5240SOL    HW116619   2.796   1.795   5.734
 5240SOL    HW216620   2.738   1.643   5.742
 5241SOL     OW16621   0.869   5.822   6.293
 5241SOL    HW116622   0.782   5.798   6.250
 5241SOL    HW216623   0.938   5.836   6.222
 5242SOL     OW16624   6.564   6.192   5.634
 5242SOL    HW116625   6.592   6.153   5.722
 5242SOL    HW216626   6.593   6.131   5.560
 5243SOL     OW16627   1.447   6.379   1.568
 5243SOL    HW116628   1.479   6.429   1.648
 5243SOL    HW216629   1.523   6.328   1.528
 5244SOL     OW16630   3.996   3.797   6.504
 5244SOL    HW116631   3.972   3.871   6.441
 5244SOL    HW216632   4.083   3.818   6.549
 5245SOL     OW16633   4.382   4.304   0.027
 5245SOL    HW116634   4.321   4.336   6.979
 5245SOL    HW216635   4.461   4.364   0.032
 5246SOL     OW16636   5.842   4.454   2.886
 5246SOL    HW116637   5.821   4.476   2.790
 5246SOL    HW216638   5.759   4.463   2.941
 5247SOL     OW16639   1.374   5.689   0.311
 5247SOL    HW116640   1.457   5.686   0.255
 5247SOL    HW216641   1.335   5.597   0.318
 5248SOL     OW16642   5.996   0.657   5.529
 5248SOL    HW116643   5.976   0.639   5.626
 5248SOL    HW216644   5.951   0.742   5.502
 5249SOL     OW16645   0.603   5.206   5.223
 5249SOL    HW116646   0.647   5.289   5.190
 5249SOL    HW216647   0.672   5.143   5.258
 5250SOL     OW16648   0.248   1.078   5.687
 5250SOL    HW116649   0.253   1.034   5.777
 5250SOL    HW216650   0.337   1.119   5.666
 5251SOL     OW16651   0.390   2.994   1.584
 5251SOL    HW116652   0.421   2.930   1.654
 5251SOL    HW216653   0.352   3.076   1.627
 5252SOL     OW16654   2.042   5.785   0.681
 5252SOL    HW116655   2.074   5.701   0.724
 5252SOL    HW216656   1.949   5.805   0.710
 5253SOL     OW16657   5.456   3.852   5.654
 5253SOL    HW116658   5.387   3.861   5.583
 5253SOL    HW216659   5.412   3.828   5.741
 5254SOL     OW16660   5.939   0.960   3.865
 5254SOL    HW116661   5.993   1.044   3.874
 5254SOL    HW216662   5.898   0.937   3.954
 5255SOL     OW16663   4.451   0.346   5.439
 5255SOL    HW116664   4.522   0.304   5.383
 5255SOL    HW216665   4.427   0.436   5.401
 5256SOL     OW16666   4.603   1.297   2.996
 5256SOL    HW116667   4.540   1.265   3.066
 5256SOL    HW216668   4.584   1.392   2.973
 5257SOL     OW16669   4.154   0.566   2.018
 5257SOL    HW116670   4.164   0.485   2.077
 5257SOL    HW216671   4.065   0.608   2.034
 5258SOL     OW16672   5.308   4.009   1.995
 5258SOL    HW116673   5.372   4.074   1.955
 5258SOL    HW216674   5.354   3.920   2.006
 5259SOL     OW16675   4.229   6.096   1.011
 5259SOL    HW116676   4.258   6.090   1.106
 5259SOL    HW216677   4.233   6.191   0.980
 5260SOL     OW16678   5.643   3.164   1.085
 5260SOL    HW116679   5.680   3.162   1.178
 5260SOL    HW216680   5.561   3.222   1.084
 5261SOL     OW16681   1.134   2.911   6.184
 5261SOL    HW116682   1.188   2.837   6.224
 5261SOL    HW216683   1.150   2.995   6.235
 5262SOL     OW16684   3.201   7.006   2.409
 5262SOL    HW116685   3.298   6.985   2.423
 5262SOL    HW216686   3.193   0.070   2.363
 5263SOL     OW16687   0.935   0.573   5.780
 5263SOL    HW116688   0.853   0.520   5.759
 5263SOL    HW216689   0.938   0.656   5.725
 5264SOL     OW16690   5.751   0.236   1.863
 5264SOL    HW116691   5.778   0.143   1.890
 5264SOL    HW216692   5.691   0.275   1.933
 5265SOL     OW16693   5.059   4.255   2.680
 5265SOL    HW116694   4.991   4.186   2.705
 5265SOL    HW216695   5.040   4.339   2.731
 5266SOL     OW16696   2.508   0.123   1.768
 5266SOL    HW116697   2.604   0.128   1.741
 5266SOL    HW216698   2.499   0.139   1.866
 5267SOL     OW16699   4.599   4.847   6.009
 5267SOL    HW116700   4.659   4.771   6.036
 5267SOL    HW216701   4.517   4.810   5.965
 5268SOL     OW16702   6.458   5.525   6.376
 5268SOL    HW116703   6.402   5.442   6.381
 5268SOL    HW216704   6.404   5.604   6.405
 5269SOL     OW16705   3.030   6.348   4.228
 5269SOL    HW116706   2.985   6.303   4.304
 5269SOL    HW216707   3.129   6.336   4.236
 5270SOL     OW16708   4.440   1.962   1.753
 5270SOL    HW116709   4.349   1.921   1.744
 5270SOL    HW216710   4.437   2.034   1.822
 5271SOL     OW16711   4.295   5.370   4.824
 5271SOL    HW116712   4.208   5.405   4.790
 5271SOL    HW216713   4.282   5.276   4.858
 5272SOL     OW16714   1.920   5.528   3.123
 5272SOL    HW116715   1.907   5.607   3.064
 5272SOL    HW216716   1.847   5.525   3.191
 5273SOL     OW16717   0.604   3.624   2.923
 5273SOL    HW116718   0.664   3.554   2.961
 5273SOL    HW216719   0.554   3.585   2.845
 5274SOL     OW16720   6.048   4.845   2.379
 5274SOL    HW116721   6.145   4.864   2.361
 5274SOL    HW216722   5.997   4.931   2.382
 5275SOL     OW16723   3.594   1.543   6.220
 5275SOL    HW116724   3.562   1.637   6.209
 5275SOL    HW216725   3.674   1.541   6.281
 5276SOL     OW16726   0.969   6.134   0.777
 5276SOL    HW116727   1.018   6.216   0.808
 5276SOL    HW216728   0.871   6.147   0.791
 5277SOL     OW16729   1.142   2.180   3.116
 5277SOL    HW116730   1.149   2.266   3.064
 5277SOL    HW216731   1.190   2.190   3.203
 5278SOL     OW16732   5.202   6.212   4.839
 5278SOL    HW116733   5.280   6.153   4.858
 5278SOL    HW216734   5.235   6.300   4.804
 5279SOL     OW16735   1.612   6.027   0.031
 5279SOL    HW116736   1.581   6.012   0.125
 5279SOL    HW216737   1.696   6.082   0.031
 5280SOL     OW16738   3.084   5.504   5.350
 5280SOL    HW116739   3.010   5.452   5.308
 5280SOL    HW216740   3.166   5.447   5.354
 5281SOL     OW16741   1.532   1.254   3.557
 5281SOL    HW116742   1.580   1.331   3.515
 5281SOL    HW216743   1.575   1.231   3.644
 5282SOL     OW16744   1.929   0.681   1.962
 5282SOL    HW116745   2.006   0.618   1.956
 5282SOL    HW216746   1.880   0.666   2.048
 5283SOL     OW16747   2.568   0.242   2.872
 5283SOL    HW116748   2.468   0.242   2.867
 5283SOL    HW216749   2.606   0.264   2.782
 5284SOL     OW16750   4.870   3.049   3.258
 5284SOL    HW116751   4.801   3.004   3.201
 5284SOL    HW216752   4.875   3.146   3.233
 5285SOL     OW16753   0.904   3.726   4.431
 5285SOL    HW116754   0.860   3.749   4.517
 5285SOL    HW216755   0.938   3.632   4.435
 5286SOL     OW16756   6.462   3.679   1.143
 5286SOL    HW116757   6.376   3.677   1.194
 5286SOL    HW216758   6.518   3.600   1.169
 5287SOL     OW16759   2.641   5.859   1.467
 5287SOL    HW116760   2.541   5.859   1.462
 5287SOL    HW216761   2.674   5.953   1.479
 5288SOL     OW16762   3.858   0.792   2.760
 5288SOL    HW116763   3.934   0.845   2.799
 5288SOL    HW216764   3.891   0.702   2.734
 5289SOL     OW16765   1.633   6.177   5.731
 5289SOL    HW116766   1.599   6.150   5.821
 5289SOL    HW216767   1.643   6.096   5.673
 5290SOL     OW16768   1.291   4.071   6.029
 5290SOL    HW116769   1.326   3.994   5.975
 5290SOL    HW216770   1.295   4.155   5.974
 5291SOL     OW16771   2.894   4.887   6.222
 5291SOL    HW116772   2.902   4.835   6.137
 5291SOL    HW216773   2.918   4.983   6.204
 5292SOL     OW16774   5.770   4.840   6.366
 5292SOL    HW116775   5.819   4.769   6.315
 5292SOL    HW216776   5.835   4.902   6.409
 5293SOL     OW16777   1.968   6.712   4.894
 5293SOL    HW116778   1.878   6.677   4.917
 5293SOL    HW216779   2.037   6.640   4.906
 5294SOL     OW16780   5.731   2.564   5.453
 5294SOL    HW116781   5.725   2.659   5.485
 5294SOL    HW216782   5.673   2.552   5.373
 5295SOL     OW16783   4.294   1.323   2.836
 5295SOL    HW116784   4.319   1.226   2.838
 5295SOL    HW216785   4.275   1.355   2.929
 5296SOL     OW16786   3.100   5.023   6.491
 5296SOL    HW116787   3.124   5.102   6.547
 5296SOL    HW216788   3.019   5.044   6.436
 5297SOL     OW16789   1.522   3.170   0.895
 5297SOL    HW116790   1.604   3.164   0.837
 5297SOL    HW216791   1.455   3.229   0.851
 5298SOL     OW16792   0.989   6.038   0.136
 5298SOL    HW116793   1.044   5.982   0.198
 5298SOL    HW216794   1.048   6.077   0.065
 5299SOL     OW16795   2.335   3.207   0.766
 5299SOL    HW116796   2.319   3.284   0.827
 5299SOL    HW216797   2.268   3.209   0.691
 5300SOL     OW16798   0.699   5.775   0.969
 5300SOL    HW116799   0.754   5.820   1.039
 5300SOL    HW216800   0.613   5.825   0.956
 5301SOL     OW16801   3.491   1.805   6.101
 5301SOL    HW116802   3.443   1.795   6.014
 5301SOL    HW216803   3.564   1.873   6.092
 5302SOL     OW16804   5.800   5.856   3.730
 5302SOL    HW116805   5.811   5.766   3.689
 5302SOL    HW216806   5.724   5.904   3.687
 5303SOL     OW16807   6.868   5.127   4.400
 5303SOL    HW116808   6.961   5.138   4.366
 5303SOL    HW216809   6.845   5.030   4.403
 5304SOL     OW16810   5.678   1.035   0.791
 5304SOL    HW116811   5.624   1.015   0.872
 5304SOL    HW216812   5.738   0.958   0.771
 5305SOL     OW16813   0.619   4.345   3.310
 5305SOL    HW116814   0.670   4.327   3.395
 5305SOL    HW216815   0.521   4.337   3.328
 5306SOL     OW16816   1.044   4.683   4.592
 5306SOL    HW116817   1.035   4.657   4.689
 5306SOL    HW216818   1.133   4.654   4.558
 5307SOL     OW16819   4.095   1.892   0.380
 5307SOL    HW116820   4.070   1.989   0.377
 5307SOL    HW216821   4.151   1.875   0.461
 5308SOL     OW16822   1.067   4.493   3.377
 5308SOL    HW116823   1.106   4.470   3.466
 5308SOL    HW216824   1.048   4.409   3.326
 5309SOL     OW16825   4.058   4.632   1.795
 5309SOL    HW116826   4.052   4.532   1.803
 5309SOL    HW216827   4.135   4.655   1.736
 5310SOL     OW16828   5.911   3.348   2.005
 5310SOL    HW116829   5.897   3.345   2.104
 5310SOL    HW216830   5.827   3.319   1.958
 5311SOL     OW16831   6.501   6.595   6.990
 5311SOL    HW116832   6.546   6.632   0.047
 5311SOL    HW216833   6.490   6.496   7.000
 5312SOL     OW16834   0.577   5.765   1.710
 5312SOL    HW116835   0.513   5.689   1.698
 5312SOL    HW216836   0.652   5.736   1.770
 5313SOL     OW16837   1.541   3.111   5.755
 5313SOL    HW116838   1.487   3.045   5.806
 5313SOL    HW216839   1.538   3.200   5.801
 5314SOL     OW16840   3.367   6.733   0.116
 5314SOL    HW116841   3.285   6.697   0.073
 5314SOL    HW216842   3.387   6.681   0.199
 5315SOL     OW16843   4.915   3.479   1.855
 5315SOL    HW116844   4.926   3.569   1.898
 5315SOL    HW216845   4.836   3.480   1.794
 5316SOL     OW16846   0.866   3.562   5.046
 5316SOL    HW116847   0.851   3.619   5.127
 5316SOL    HW216848   0.814   3.599   4.970
 5317SOL     OW16849   5.800   0.268   5.055
 5317SOL    HW116850   5.780   0.284   4.959
 5317SOL    HW216851   5.892   0.232   5.065
 5318SOL     OW16852   0.636   3.173   6.761
 5318SOL    HW116853   0.661   3.215   6.848
 5318SOL    HW216854   0.541   3.193   6.740
 5319SOL     OW16855   3.249   6.373   0.273
 5319SOL    HW116856   3.300   6.446   0.318
 5319SOL    HW216857   3.292   6.285   0.294
 5320SOL     OW16858   4.863   5.057   0.093
 5320SOL    HW116859   4.931   5.014   0.033
 5320SOL    HW216860   4.886   5.154   0.104
 5321SOL     OW16861   1.955   5.122   4.434
 5321SOL    HW116862   1.968   5.113   4.336
 5321SOL    HW216863   1.858   5.122   4.455
 5322SOL     OW16864   5.675   6.279   6.412
 5322SOL    HW116865   5.628   6.191   6.402
 5322SOL    HW216866   5.768   6.271   6.377
 5323SOL     OW16867   4.040   2.223   6.971
 5323SOL    HW116868   4.109   2.162   7.010
 5323SOL    HW216869   4.027   2.302   0.006
 5324SOL     OW16870   3.333   1.949   0.702
 5324SOL    HW116871   3.360   2.029   0.754
 5324SOL    HW216872   3.263   1.974   0.635
 5325SOL     OW16873   4.313   0.802   4.251
 5325SOL    HW116874   4.297   0.704   4.249
 5325SOL    HW216875   4.237   0.848   4.297
 5326SOL     OW16876   6.487   4.761   2.738
 5326SOL    HW116877   6.487   4.683   2.799
 5326SOL    HW216878   6.393   4.793   2.725
 5327SOL     OW16879   5.729   2.829   5.498
 5327SOL    HW116880   5.793   2.851   5.425
 5327SOL    HW216881   5.759   2.872   5.583
 5328SOL     OW16882   3.841   2.959   5.318
 5328SOL    HW116883   3.855   3.037   5.256
 5328SOL    HW216884   3.860   2.988   5.412
 5329SOL     OW16885   0.413   4.710   0.388
 5329SOL    HW116886   0.396   4.612   0.397
 5329SOL    HW216887   0.469   4.726   0.306
 5330SOL     OW16888   3.891   4.358   5.667
 5330SOL    HW116889   3.920   4.444   5.624
 5330SOL    HW216890   3.846   4.378   5.754
 5331SOL     OW16891   5.543   1.402   0.667
 5331SOL    HW116892   5.475   1.437   0.603
 5331SOL    HW216893   5.497   1.359   0.744
 5332SOL     OW16894   0.592   3.097   1.072
 5332SOL    HW116895   0.526   3.163   1.036
 5332SOL    HW216896   0.560   3.063   1.160
 5333SOL     OW16897   0.602   0.402   3.437
 5333SOL    HW116898   0.645   0.385   3.349
 5333SOL    HW216899   0.671   0.432   3.503
 5334SOL     OW16900   3.548   0.259   4.362
 5334SOL    HW116901   3.491   0.296   4.436
 5334SOL    HW216902   3.634   0.226   4.399
 5335SOL     OW16903   6.787   5.967   2.105
 5335SOL    HW116904   6.716   5.916   2.057
 5335SOL    HW216905   6.875   5.921   2.092
 5336SOL     OW16906   1.930   2.277   3.293
 5336SOL    HW116907   1.956   2.249   3.201
 5336SOL    HW216908   1.998   2.243   3.359
 5337SOL     OW16909   5.024   4.478   1.571
 5337SOL    HW116910   5.011   4.578   1.569
 5337SOL    HW216911   5.019   4.442   1.478
 5338SOL     OW16912   6.119   2.047   6.634
 5338SOL    HW116913   6.056   2.059   6.557
 5338SOL    HW216914   6.068   2.047   6.720
 5339SOL     OW16915   6.707   2.410   4.334
 5339SOL    HW116916   6.775   2.362   4.390
 5339SOL    HW216917   6.753   2.480   4.279
 5340SOL     OW16918   4.926   3.544   0.954
 5340SOL    HW116919   4.832   3.558   0.986
 5340SOL    HW216920   4.927   3.536   0.855
 5341SOL     OW16921   3.474   3.172   6.477
 5341SOL    HW116922   3.445   3.180   6.382
 5341SOL    HW216923   3.453   3.080   6.510
 5342SOL     OW16924   3.066   0.174   4.025
 5342SOL    HW116925   3.134   0.106   3.999
 5342SOL    HW216926   2.977   0.151   3.984
 5343SOL     OW16927   3.611   3.568   4.408
 5343SOL    HW116928   3.632   3.623   4.328
 5343SOL    HW216929   3.523   3.521   4.395
 5344SOL     OW16930   2.365   2.726   2.593
 5344SOL    HW116931   2.403   2.712   2.684
 5344SOL    HW216932   2.327   2.818   2.587
 5345SOL     OW16933   3.534   6.660   1.255
 5345SOL    HW116934   3.590   6.704   1.325
 5345SOL    HW216935   3.485   6.582   1.295
 5346SOL     OW16936   3.341   6.196   4.409
 5346SOL    HW116937   3.261   6.146   4.376
 5346SOL    HW216938   3.338   6.204   4.508
 5347SOL     OW16939   0.502   2.377   2.090
 5347SOL    HW116940   0.543   2.465   2.064
 5347SOL    HW216941   0.552   2.303   2.046
 5348SOL     OW16942   0.112   2.239   1.071
 5348SOL    HW116943   0.125   2.147   1.109
 5348SOL    HW216944   0.068   2.297   1.140
 5349SOL     OW16945   2.086   3.087   0.384
 5349SOL    HW116946   2.004   3.074   0.327
 5349SOL    HW216947   2.062   3.141   0.465
 5350SOL     OW16948   2.067   0.257   5.366
 5350SOL    HW116949   2.146   0.214   5.411
 5350SOL    HW216950   2.095   0.293   5.277
 5351SOL     OW16951   6.521   5.460   2.419
 5351SOL    HW116952   6.511   5.365   2.392
 5351SOL    HW216953   6.617   5.478   2.443
 5352SOL     OW16954   2.653   4.673   3.416
 5352SOL    HW116955   2.579   4.698   3.354
 5352SOL    HW216956   2.618   4.613   3.489
 5353SOL     OW16957   4.300   4.708   3.303
 5353SOL    HW116958   4.339   4.795   3.274
 5353SOL    HW216959   4.363   4.633   3.279
 5354SOL     OW16960   2.567   5.549   2.236
 5354SOL    HW116961   2.645   5.604   2.266
 5354SOL    HW216962   2.552   5.563   2.138
 5355SOL     OW16963   6.562   3.837   3.791
 5355SOL    HW116964   6.514   3.855   3.877
 5355SOL    HW216965   6.578   3.739   3.781
 5356SOL     OW16966   5.813   4.382   1.688
 5356SOL    HW116967   5.816   4.374   1.788
 5356SOL    HW216968   5.907   4.382   1.652
 5357SOL     OW16969   4.302   6.659   0.940
 5357SOL    HW116970   4.398   6.685   0.931
 5357SOL    HW216971   4.252   6.690   0.859
 5358SOL     OW16972   4.545   1.682   0.130
 5358SOL    HW116973   4.516   1.753   0.065
 5358SOL    HW216974   4.643   1.668   0.124
 5359SOL     OW16975   1.309   1.241   6.006
 5359SOL    HW116976   1.305   1.315   5.938
 5359SOL    HW216977   1.296   1.153   5.960
 5360SOL     OW16978   4.025   6.401   5.110
 5360SOL    HW116979   4.035   6.302   5.118
 5360SOL    HW216980   3.961   6.433   5.181
 5361SOL     OW16981   2.592   1.298   5.200
 5361SOL    HW116982   2.496   1.322   5.187
 5361SOL    HW216983   2.628   1.255   5.117
 5362SOL     OW16984   6.667   5.296   3.150
 5362SOL    HW116985   6.604   5.223   3.176
 5362SOL    HW216986   6.760   5.269   3.174
 5363SOL     OW16987   0.608   0.617   6.747
 5363SOL    HW116988   0.550   0.671   6.808
 5363SOL    HW216989   0.693   0.593   6.795
 5364SOL     OW16990   6.271   6.729   2.071
 5364SOL    HW116991   6.203   6.788   2.116
 5364SOL    HW216992   6.329   6.686   2.140
 5365SOL     OW16993   3.492   3.621   6.912
 5365SOL    HW116994   3.531   3.602   7.002
 5365SOL    HW216995   3.548   3.576   6.842
 5366SOL     OW16996   5.167   6.114   2.141
 5366SOL    HW116997   5.215   6.153   2.219
 5366SOL    HW216998   5.189   6.166   2.059
 5367SOL     OW16999   0.876   6.483   0.543
 5367SOL    HW117000   0.810   6.414   0.515
 5367SOL    HW217001   0.828   6.569   0.561
 5368SOL     OW17002   5.039   0.277   2.943
 5368SOL    HW117003   5.126   0.302   2.901
 5368SOL    HW217004   5.049   0.277   3.043
 5369SOL     OW17005   2.947   6.639   2.104
 5369SOL    HW117006   2.965   6.563   2.167
 5369SOL    HW217007   2.965   6.725   2.151
 5370SOL     OW17008   4.355   3.138   1.668
 5370SOL    HW117009   4.393   3.157   1.577
 5370SOL    HW217010   4.425   3.097   1.726
 5371SOL     OW17011   1.055   3.904   5.022
 5371SOL    HW117012   0.966   3.945   5.004
 5371SOL    HW217013   1.113   3.971   5.069
 5372SOL     OW17014   2.567   6.231   3.940
 5372SOL    HW117015   2.665   6.225   3.920
 5372SOL    HW217016   2.527   6.304   3.885
 5373SOL     OW17017   3.766   6.893   4.413
 5373SOL    HW117018   3.772   6.822   4.482
 5373SOL    HW217019   3.771   6.852   4.322
 5374SOL     OW17020   1.377   4.010   7.013
 5374SOL    HW117021   1.342   3.949   0.060
 5374SOL    HW217022   1.328   3.994   6.928
 5375SOL     OW17023   1.526   4.957   4.686
 5375SOL    HW117024   1.487   4.951   4.778
 5375SOL    HW217025   1.531   4.865   4.646
 5376SOL     OW17026   1.142   2.809   0.961
 5376SOL    HW117027   1.108   2.751   0.887
 5376SOL    HW217028   1.124   2.765   1.049
 5377SOL     OW17029   0.321   0.218   2.446
 5377SOL    HW117030   0.239   0.246   2.397
 5377SOL    HW217031   0.391   0.189   2.380
 5378SOL     OW17032   6.904   0.548   1.594
 5378SOL    HW117033   6.804   0.556   1.597
 5378SOL    HW217034   6.944   0.639   1.589
 5379SOL     OW17035   1.348   4.542   5.007
 5379SOL    HW117036   1.289   4.505   5.080
 5379SOL    HW217037   1.405   4.615   5.044
 5380SOL     OW17038   2.409   1.916   3.159
 5380SOL    HW117039   2.449   1.936   3.069
 5380SOL    HW217040   2.425   1.820   3.181
 5381SOL     OW17041   6.600   4.412   1.930
 5381SOL    HW117042   6.541   4.334   1.909
 5381SOL    HW217043   6.691   4.380   1.953
 5382SOL     OW17044   2.976   1.030   1.975
 5382SOL    HW117045   2.926   1.073   1.899
 5382SOL    HW217046   3.052   1.089   2.002
 5383SOL     OW17047   2.420   2.359   5.482
 5383SOL    HW117048   2.345   2.301   5.449
 5383SOL    HW217049   2.472   2.393   5.403
 5384SOL     OW17050   6.146   6.783   4.904
 5384SOL    HW117051   6.118   6.755   4.996
 5384SOL    HW217052   6.107   6.719   4.837
 5385SOL     OW17053   3.062   3.401   4.268
 5385SOL    HW117054   3.037   3.373   4.175
 5385SOL    HW217055   3.140   3.464   4.263
 5386SOL     OW17056   4.838   0.381   4.162
 5386SOL    HW117057   4.829   0.282   4.177
 5386SOL    HW217058   4.790   0.430   4.234
 5387SOL     OW17059   2.219   6.731   3.405
 5387SOL    HW117060   2.313   6.765   3.413
 5387SOL    HW217061   2.186   6.702   3.495
 5388SOL     OW17062   7.002   0.909   4.030
 5388SOL    HW117063   0.065   0.951   4.002
 5388SOL    HW217064   7.020   0.834   4.094
 5389SOL     OW17065   4.597   1.197   2.494
 5389SOL    HW117066   4.579   1.284   2.540
 5389SOL    HW217067   4.622   1.214   2.398
 5390SOL     OW17068   4.665   4.250   2.910
 5390SOL    HW117069   4.640   4.311   2.835
 5390SOL    HW217070   4.600   4.259   2.985
 5391SOL     OW17071   2.096   2.434   1.010
 5391SOL    HW117072   2.069   2.512   0.953
 5391SOL    HW217073   2.196   2.429   1.014
 5392SOL     OW17074   5.484   3.038   1.362
 5392SOL    HW117075   5.508   2.949   1.401
 5392SOL    HW217076   5.563   3.100   1.370
 5393SOL     OW17077   5.036   6.733   6.199
 5393SOL    HW117078   5.045   6.662   6.129
 5393SOL    HW217079   4.945   6.727   6.240
 5394SOL     OW17080   6.682   4.697   6.495
 5394SOL    HW117081   6.706   4.632   6.568
 5394SOL    HW217082   6.743   4.683   6.417
 5395SOL     OW17083   5.353   1.004   1.676
 5395SOL    HW117084   5.311   1.043   1.758
 5395SOL    HW217085   5.311   1.043   1.595
 5396SOL     OW17086   4.365   4.646   2.092
 5396SOL    HW117087   4.426   4.712   2.047
 5396SOL    HW217088   4.284   4.693   2.127
 5397SOL     OW17089   0.360   2.478   1.468
 5397SOL    HW117090   0.457   2.492   1.449
 5397SOL    HW217091   0.350   2.415   1.545
 5398SOL     OW17092   3.392   2.156   3.898
 5398SOL    HW117093   3.357   2.139   3.990
 5398SOL    HW217094   3.486   2.188   3.903
 5399SOL     OW17095   2.623   5.702   0.583
 5399SOL    HW117096   2.570   5.623   0.551
 5399SOL    HW217097   2.717   5.694   0.551
 5400SOL     OW17098   2.634   4.127   0.645
 5400SOL    HW117099   2.562   4.094   0.585
 5400SOL    HW217100   2.594   4.162   0.730
 5401SOL     OW17101   5.663   3.588   1.180
 5401SOL    HW117102   5.615   3.530   1.114
 5401SOL    HW217103   5.616   3.583   1.268
 5402SOL     OW17104   2.509   5.257   1.653
 5402SOL    HW117105   2.417   5.217   1.658
 5402SOL    HW217106   2.577   5.186   1.669
 5403SOL     OW17107   5.947   2.870   6.116
 5403SOL    HW117108   6.008   2.928   6.170
 5403SOL    HW217109   5.918   2.792   6.172
 5404SOL     OW17110   0.610   0.946   2.178
 5404SOL    HW117111   0.610   1.044   2.195
 5404SOL    HW217112   0.546   0.924   2.104
 5405SOL     OW17113   5.813   6.211   0.397
 5405SOL    HW117114   5.882   6.186   0.465
 5405SOL    HW217115   5.803   6.138   0.330
 5406SOL     OW17116   2.668   0.092   6.668
 5406SOL    HW117117   2.738   0.140   6.720
 5406SOL    HW217118   2.605   0.159   6.627
 5407SOL     OW17119   4.677   2.642   1.324
 5407SOL    HW117120   4.676   2.616   1.420
 5407SOL    HW217121   4.739   2.582   1.273
 5408SOL     OW17122   3.423   1.334   5.926
 5408SOL    HW117123   3.348   1.336   5.860
 5408SOL    HW217124   3.389   1.358   6.017
 5409SOL     OW17125   6.024   1.649   4.299
 5409SOL    HW117126   6.029   1.668   4.397
 5409SOL    HW217127   6.033   1.551   4.284
 5410SOL     OW17128   1.498   3.115   1.142
 5410SOL    HW117129   1.528   3.149   1.053
 5410SOL    HW217130   1.403   3.140   1.157
 5411SOL     OW17131   6.640   4.477   5.870
 5411SOL    HW117132   6.634   4.575   5.887
 5411SOL    HW217133   6.666   4.430   5.954
 5412SOL     OW17134   4.121   0.758   6.779
 5412SOL    HW117135   4.103   0.789   6.873
 5412SOL    HW217136   4.143   0.836   6.722
 5413SOL     OW17137   1.470   0.156   1.001
 5413SOL    HW117138   1.394   0.096   1.025
 5413SOL    HW217139   1.556   0.104   1.004
 5414SOL     OW17140   6.184   2.918   4.832
 5414SOL    HW117141   6.093   2.958   4.846
 5414SOL    HW217142   6.210   2.929   4.737
 5415SOL     OW17143   1.079   6.312   1.414
 5415SOL    HW117144   1.029   6.385   1.460
 5415SOL    HW217145   1.161   6.350   1.371
 5416SOL     OW17146   3.652   4.832   6.181
 5416SOL    HW117147   3.699   4.748   6.210
 5416SOL    HW217148   3.674   4.906   6.244
 5417SOL     OW17149   3.792   6.520   5.253
 5417SOL    HW117150   3.771   6.573   5.171
 5417SOL    HW217151   3.745   6.431   5.248
 5418SOL     OW17152   4.127   6.823   4.537
 5418SOL    HW117153   4.204   6.784   4.588
 5418SOL    HW217154   4.158   6.905   4.488
 5419SOL     OW17155   3.335   5.612   0.337
 5419SOL    HW117156   3.427   5.581   0.363
 5419SOL    HW217157   3.326   5.710   0.357
 5420SOL     OW17158   1.672   2.704   2.090
 5420SOL    HW117159   1.766   2.700   2.056
 5420SOL    HW217160   1.666   2.775   2.161
 5421SOL     OW17161   2.114   4.062   2.915
 5421SOL    HW117162   2.025   4.105   2.898
 5421SOL    HW217163   2.181   4.133   2.937
 5422SOL     OW17164   0.752   6.155   5.742
 5422SOL    HW117165   0.765   6.231   5.805
 5422SOL    HW217166   0.712   6.077   5.792
 5423SOL     OW17167   5.443   3.114   6.816
 5423SOL    HW117168   5.395   3.035   6.778
 5423SOL    HW217169   5.387   3.196   6.807
 5424SOL     OW17170   5.208   2.820   4.215
 5424SOL    HW117171   5.164   2.906   4.192
 5424SOL    HW217172   5.195   2.801   4.313
 5425SOL     OW17173   4.652   2.043   4.210
 5425SOL    HW117174   4.564   2.010   4.243
 5425SOL    HW217175   4.725   2.010   4.271
 5426SOL     OW17176   6.737   5.598   3.903
 5426SOL    HW117177   6.779   5.650   3.978
 5426SOL    HW217178   6.639   5.588   3.920
 5427SOL     OW17179   5.162   5.219   0.844
 5427SOL    HW117180   5.172   5.168   0.930
 5427SOL    HW217181   5.172   5.157   0.767
 5428SOL     OW17182   0.072   0.430   1.747
 5428SOL    HW117183   0.071   0.465   1.841
 5428SOL    HW217184   7.024   0.475   1.695
 5429SOL     OW17185   1.324   1.432   5.812
 5429SOL    HW117186   1.361   1.522   5.833
 5429SOL    HW217187   1.307   1.425   5.714
 5430SOL     OW17188   0.849   3.253   5.238
 5430SOL    HW117189   0.880   3.300   5.320
 5430SOL    HW217190   0.767   3.297   5.203
 5431SOL     OW17191   3.522   5.847   6.580
 5431SOL    HW117192   3.458   5.921   6.601
 5431SOL    HW217193   3.554   5.858   6.485
 5432SOL     OW17194   3.909   6.534   6.341
 5432SOL    HW117195   3.984   6.594   6.367
 5432SOL    HW217196   3.883   6.476   6.418
 5433SOL     OW17197   0.276   1.349   3.424
 5433SOL    HW117198   0.351   1.350   3.491
 5433SOL    HW217199   0.239   1.441   3.414
 5434SOL     OW17200   3.661   1.244   4.534
 5434SOL    HW117201   3.675   1.332   4.578
 5434SOL    HW217202   3.751   1.203   4.514
 5435SOL     OW17203   5.752   1.781   1.525
 5435SOL    HW117204   5.842   1.750   1.493
 5435SOL    HW217205   5.693   1.702   1.538
 5436SOL     OW17206   5.257   4.184   4.377
 5436SOL    HW117207   5.346   4.192   4.422
 5436SOL    HW217208   5.194   4.135   4.437
 5437SOL     OW17209   2.704   4.915   5.729
 5437SOL    HW117210   2.654   4.973   5.793
 5437SOL    HW217211   2.646   4.894   5.651
 5438SOL     OW17212   5.586   3.504   2.758
 5438SOL    HW117213   5.627   3.468   2.843
 5438SOL    HW217214   5.658   3.515   2.689
 5439SOL     OW17215   0.606   2.421   0.901
 5439SOL    HW117216   0.544   2.499   0.912
 5439SOL    HW217217   0.637   2.416   0.806
 5440SOL     OW17218   0.786   0.243   2.042
 5440SOL    HW117219   0.759   0.282   1.954
 5440SOL    HW217220   0.726   0.277   2.114
 5441SOL     OW17221   5.136   2.693   3.055
 5441SOL    HW117222   5.149   2.647   2.967
 5441SOL    HW217223   5.197   2.771   3.062
 5442SOL     OW17224   3.599   6.139   3.602
 5442SOL    HW117225   3.601   6.069   3.531
 5442SOL    HW217226   3.505   6.171   3.615
 5443SOL     OW17227   2.536   0.680   3.347
 5443SOL    HW117228   2.469   0.618   3.308
 5443SOL    HW217229   2.490   0.749   3.403
 5444SOL     OW17230   1.309   0.606   3.802
 5444SOL    HW117231   1.273   0.616   3.709
 5444SOL    HW217232   1.284   0.686   3.856
 5445SOL     OW17233   5.857   4.224   4.211
 5445SOL    HW117234   5.821   4.212   4.303
 5445SOL    HW217235   5.838   4.318   4.180
 5446SOL     OW17236   6.309   5.031   5.064
 5446SOL    HW117237   6.216   5.034   5.099
 5446SOL    HW217238   6.338   4.936   5.054
 5447SOL     OW17239   1.403   2.057   0.311
 5447SOL    HW117240   1.498   2.029   0.303
 5447SOL    HW217241   1.376   2.110   0.230
 5448SOL     OW17242   5.455   3.121   4.694
 5448SOL    HW117243   5.413   3.135   4.605
 5448SOL    HW217244   5.386   3.090   4.759
 5449SOL     OW17245   1.806   2.195   6.613
 5449SOL    HW117246   1.775   2.101   6.597
 5449SOL    HW217247   1.899   2.194   6.649
 5450SOL     OW17248   2.070   0.254   2.143
 5450SOL    HW117249   1.990   0.195   2.156
 5450SOL    HW217250   2.147   0.219   2.196
 5451SOL     OW17251   1.127   5.644   3.710
 5451SOL    HW117252   1.129   5.665   3.808
 5451SOL    HW217253   1.219   5.626   3.677
 5452SOL     OW17254   1.791   4.571   0.258
 5452SOL    HW117255   1.731   4.498   0.292
 5452SOL    HW217256   1.793   4.569   0.159
 5453SOL     OW17257   5.219   3.939   1.560
 5453SOL    HW117258   5.123   3.914   1.563
 5453SOL    HW217259   5.270   3.879   1.623
 5454SOL     OW17260   6.697   4.124   5.776
 5454SOL    HW117261   6.601   4.142   5.754
 5454SOL    HW217262   6.753   4.137   5.694
 5455SOL     OW17263   6.030   2.975   1.692
 5455SOL    HW117264   6.076   3.004   1.608
 5455SOL    HW217265   5.971   2.897   1.672
 5456SOL     OW17266   2.660   0.324   7.008
 5456SOL    HW117267   2.707   0.292   6.926
 5456SOL    HW217268   2.695   0.274   0.063
 5457SOL     OW17269   6.734   2.663   0.571
 5457SOL    HW117270   6.657   2.609   0.603
 5457SOL    HW217271   6.707   2.758   0.560
 5458SOL     OW17272   0.317   4.095   0.637
 5458SOL    HW117273   0.322   4.058   0.730
 5458SOL    HW217274   0.272   4.184   0.638
 5459SOL     OW17275   1.969   4.292   6.883
 5459SOL    HW117276   1.905   4.355   6.839
 5459SOL    HW217277   1.918   4.212   6.916
 5460SOL     OW17278   4.213   0.513   3.438
 5460SOL    HW117279   4.264   0.427   3.447
 5460SOL    HW217280   4.275   0.586   3.409
 5461SOL     OW17281   6.063   0.323   5.643
 5461SOL    HW117282   6.088   0.306   5.548
 5461SOL    HW217283   5.963   0.325   5.651
 5462SOL     OW17284   0.278   0.063   0.752
 5462SOL    HW117285   0.248   0.158   0.751
 5462SOL    HW217286   0.377   0.059   0.769
 5463SOL     OW17287   6.901   1.622   0.345
 5463SOL    HW117288   6.858   1.654   0.430
 5463SOL    HW217289   6.924   1.701   0.288
 5464SOL     OW17290   1.110   1.027   4.588
 5464SOL    HW117291   1.032   1.032   4.651
 5464SOL    HW217292   1.178   0.964   4.625
 5465SOL     OW17293   4.165   6.861   3.990
 5465SOL    HW117294   4.104   6.939   3.976
 5465SOL    HW217295   4.231   6.882   4.063
 5466SOL     OW17296   5.185   2.749   4.812
 5466SOL    HW117297   5.220   2.769   4.903
 5466SOL    HW217298   5.207   2.655   4.786
 5467SOL     OW17299   5.094   3.463   3.455
 5467SOL    HW117300   5.161   3.514   3.401
 5467SOL    HW217301   5.031   3.415   3.394
 5468SOL     OW17302   5.981   2.938   3.912
 5468SOL    HW117303   5.998   3.011   3.846
 5468SOL    HW217304   6.054   2.870   3.906
 5469SOL     OW17305   2.935   6.121   6.288
 5469SOL    HW117306   2.869   6.073   6.345
 5469SOL    HW217307   2.904   6.215   6.273
 5470SOL     OW17308   3.314   5.615   3.181
 5470SOL    HW117309   3.371   5.608   3.263
 5470SOL    HW217310   3.220   5.592   3.203
 5471SOL     OW17311   5.217   7.002   3.076
 5471SOL    HW117312   5.216   0.065   3.126
 5471SOL    HW217313   5.309   6.986   3.040
 5472SOL     OW17314   4.126   3.924   5.991
 5472SOL    HW117315   4.071   3.975   5.926
 5472SOL    HW217316   4.170   3.987   6.055
 5473SOL     OW17317   0.196   3.040   2.132
 5473SOL    HW117318   0.296   3.039   2.140
 5473SOL    HW217319   0.170   3.077   2.043
 5474SOL     OW17320   0.905   4.779   4.058
 5474SOL    HW117321   0.904   4.875   4.032
 5474SOL    HW217322   0.994   4.755   4.095
 5475SOL     OW17323   2.233   3.133   1.432
 5475SOL    HW117324   2.263   3.148   1.526
 5475SOL    HW217325   2.145   3.180   1.417
 5476SOL     OW17326   2.263   4.845   5.486
 5476SOL    HW117327   2.265   4.764   5.427
 5476SOL    HW217328   2.175   4.891   5.478
 5477SOL     OW17329   2.643   4.643   3.013
 5477SOL    HW117330   2.728   4.695   3.022
 5477SOL    HW217331   2.586   4.686   2.944
 5478SOL     OW17332   3.455   5.247   5.176
 5478SOL    HW117333   3.469   5.329   5.121
 5478SOL    HW217334   3.430   5.170   5.117
 5479SOL     OW17335   5.442   1.498   6.095
 5479SOL    HW117336   5.469   1.431   6.027
 5479SOL    HW217337   5.519   1.561   6.113
 5480SOL     OW17338   6.123   4.322   2.677
 5480SOL    HW117339   6.111   4.239   2.732
 5480SOL    HW217340   6.080   4.309   2.588
 5481SOL     OW17341   4.515   1.768   4.419
 5481SOL    HW117342   4.467   1.852   4.396
 5481SOL    HW217343   4.530   1.714   4.336
 5482SOL     OW17344   3.577   4.388   1.715
 5482SOL    HW117345   3.580   4.478   1.757
 5482SOL    HW217346   3.483   4.353   1.718
 5483SOL     OW17347   0.682   1.749   5.644
 5483SOL    HW117348   0.619   1.824   5.622
 5483SOL    HW217349   0.772   1.768   5.604
 5484SOL     OW17350   4.187   1.545   4.323
 5484SOL    HW117351   4.197   1.644   4.313
 5484SOL    HW217352   4.260   1.511   4.383
 5485SOL     OW17353   3.692   6.962   5.556
 5485SOL    HW117354   3.654   6.914   5.477
 5485SOL    HW217355   3.642   0.023   5.571
 5486SOL     OW17356   2.448   5.595   5.216
 5486SOL    HW117357   2.498   5.676   5.248
 5486SOL    HW217358   2.381   5.623   5.147
 5487SOL     OW17359   4.143   2.745   0.194
 5487SOL    HW117360   4.144   2.829   0.249
 5487SOL    HW217361   4.056   2.699   0.207
 5488SOL     OW17362   6.717   0.188   1.100
 5488SOL    HW117363   6.642   0.141   1.055
 5488SOL    HW217364   6.804   0.155   1.063
 5489SOL     OW17365   0.781   5.071   1.548
 5489SOL    HW117366   0.715   4.997   1.534
 5489SOL    HW217367   0.811   5.072   1.644
 5490SOL     OW17368   3.198   0.497   2.792
 5490SOL    HW117369   3.236   0.490   2.884
 5490SOL    HW217370   3.125   0.429   2.780
 5491SOL     OW17371   0.434   3.222   0.034
 5491SOL    HW117372   0.347   3.234   0.081
 5491SOL    HW217373   0.496   3.169   0.093
 5492SOL     OW17374   0.642   4.103   6.682
 5492SOL    HW117375   0.698   4.027   6.649
 5492SOL    HW217376   0.626   4.167   6.607
 5493SOL     OW17377   2.943   3.242   4.075
 5493SOL    HW117378   2.855   3.206   4.107
 5493SOL    HW217379   2.964   3.202   3.986
 5494SOL     OW17380   0.270   3.540   5.607
 5494SOL    HW117381   0.275   3.455   5.554
 5494SOL    HW217382   0.361   3.583   5.610
 5495SOL     OW17383   5.969   1.106   0.707
 5495SOL    HW117384   5.888   1.164   0.715
 5495SOL    HW217385   5.948   1.015   0.746
 5496SOL     OW17386   4.025   0.381   3.608
 5496SOL    HW117387   4.069   0.446   3.547
 5496SOL    HW217388   4.093   0.337   3.667
 5497SOL     OW17389   1.039   0.663   4.826
 5497SOL    HW117390   1.001   0.740   4.876
 5497SOL    HW217391   1.082   0.695   4.742
 5498SOL     OW17392   0.019   5.398   2.024
 5498SOL    HW117393   6.982   5.415   2.101
 5498SOL    HW217394   6.990   5.388   1.940
 5499SOL     OW17395   1.439   0.748   4.950
 5499SOL    HW117396   1.437   0.695   5.035
 5499SOL    HW217397   1.445   0.685   4.872
 5500SOL     OW17398   1.158   0.394   0.143
 5500SOL    HW117399   1.196   0.486   0.135
 5500SOL    HW217400   1.133   0.359   0.053
 5501SOL     OW17401   3.781   2.087   7.008
 5501SOL    HW117402   3.763   2.061   0.079
 5501SOL    HW217403   3.870   2.131   7.002
 5502SOL     OW17404   5.394   4.042   6.713
 5502SOL    HW117405   5.325   4.114   6.699
 5502SOL    HW217406   5.443   4.059   6.798
 5503SOL     OW17407   6.779   4.851   1.073
 5503SOL    HW117408   6.693   4.895   1.097
 5503SOL    HW217409   6.830   4.911   1.010
 5504SOL     OW17410   4.464   1.096   5.162
 5504SOL    HW117411   4.476   1.013   5.107
 5504SOL    HW217412   4.552   1.127   5.196
 5505SOL     OW17413   2.199   4.640   3.964
 5505SOL    HW117414   2.248   4.624   4.050
 5505SOL    HW217415   2.120   4.698   3.980
 5506SOL     OW17416   0.261   3.765   1.205
 5506SOL    HW117417   0.329   3.707   1.249
 5506SOL    HW217418   0.261   3.747   1.107
 5507SOL     OW17419   4.103   1.049   4.703
 5507SOL    HW117420   4.097   1.014   4.797
 5507SOL    HW217421   4.041   0.996   4.644
 5508SOL     OW17422   1.429   1.396   0.407
 5508SOL    HW117423   1.421   1.439   0.497
 5508SOL    HW217424   1.388   1.304   0.410
 5509SOL     OW17425   0.718   6.076   6.722
 5509SOL    HW117426   0.798   6.129   6.752
 5509SOL    HW217427   0.736   6.038   6.631
 5510SOL     OW17428   4.091   5.343   6.242
 5510SOL    HW117429   4.130   5.266   6.292
 5510SOL    HW217430   4.156   5.419   6.243
 5511SOL     OW17431   1.374   0.689   4.451
 5511SOL    HW117432   1.415   0.767   4.498
 5511SOL    HW217433   1.439   0.613   4.450
 5512SOL     OW17434   4.631   2.168   0.739
 5512SOL    HW117435   4.556   2.233   0.729
 5512SOL    HW217436   4.602   2.091   0.796
 5513SOL     OW17437   3.724   5.273   5.734
 5513SOL    HW117438   3.791   5.295   5.664
 5513SOL    HW217439   3.764   5.286   5.825
 5514SOL     OW17440   3.503   0.665   4.621
 5514SOL    HW117441   3.473   0.681   4.715
 5514SOL    HW217442   3.423   0.642   4.565
 5515SOL     OW17443   0.831   5.781   1.831
 5515SOL    HW117444   0.814   5.875   1.861
 5515SOL    HW217445   0.838   5.779   1.731
 5516SOL     OW17446   1.469   2.589   4.625
 5516SOL    HW117447   1.546   2.646   4.595
 5516SOL    HW217448   1.496   2.535   4.704
 5517SOL     OW17449   2.069   3.690   2.159
 5517SOL    HW117450   2.114   3.600   2.161
 5517SOL    HW217451   2.082   3.731   2.069
 5518SOL     OW17452   5.805   5.309   6.846
 5518SOL    HW117453   5.734   5.265   6.791
 5518SOL    HW217454   5.766   5.384   6.898
 5519SOL     OW17455   5.444   2.864   2.823
 5519SOL    HW117456   5.392   2.885   2.906
 5519SOL    HW217457   5.467   2.950   2.777
 5520SOL     OW17458   5.508   6.862   2.471
 5520SOL    HW117459   5.566   6.877   2.391
 5520SOL    HW217460   5.418   6.902   2.454
 5521SOL     OW17461   4.851   6.413   2.039
 5521SOL    HW117462   4.803   6.456   1.962
 5521SOL    HW217463   4.929   6.469   2.066
 5522SOL     OW17464   6.506   5.248   1.117
 5522SOL    HW117465   6.568   5.181   1.158
 5522SOL    HW217466   6.483   5.318   1.184
 5523SOL     OW17467   4.279   0.726   1.852
 5523SOL    HW117468   4.219   0.784   1.795
 5523SOL    HW217469   4.222   0.671   1.913
 5524SOL     OW17470   3.552   7.000   4.844
 5524SOL    HW117471   3.551   6.953   4.756
 5524SOL    HW217472   3.579   0.071   4.831
 5525SOL     OW17473   1.176   2.380   0.199
 5525SOL    HW117474   1.225   2.390   0.285
 5525SOL    HW217475   1.080   2.406   0.213
 5526SOL     OW17476   4.999   4.488   2.815
 5526SOL    HW117477   5.034   4.544   2.890
 5526SOL    HW217478   4.935   4.541   2.760
 5527SOL     OW17479   4.943   3.710   3.923
 5527SOL    HW117480   4.962   3.621   3.967
 5527SOL    HW217481   4.886   3.765   3.984
 5528SOL     OW17482   1.520   0.932   0.949
 5528SOL    HW117483   1.535   0.852   1.006
 5528SOL    HW217484   1.498   0.903   0.856
 5529SOL     OW17485   3.267   6.970   4.635
 5529SOL    HW117486   3.360   6.934   4.639
 5529SOL    HW217487   3.208   6.917   4.695
 5530SOL     OW17488   6.392   1.891   1.314
 5530SOL    HW117489   6.483   1.893   1.274
 5530SOL    HW217490   6.330   1.949   1.261
 5531SOL     OW17491   3.331   3.305   1.293
 5531SOL    HW117492   3.249   3.355   1.266
 5531SOL    HW217493   3.412   3.354   1.261
 5532SOL     OW17494   1.005   3.073   0.959
 5532SOL    HW117495   1.021   2.974   0.960
 5532SOL    HW217496   0.960   3.099   0.874
 5533SOL     OW17497   4.497   1.625   3.551
 5533SOL    HW117498   4.491   1.721   3.523
 5533SOL    HW217499   4.491   1.567   3.470
 5534SOL     OW17500   1.070   1.404   0.173
 5534SOL    HW117501   1.060   1.304   0.175
 5534SOL    HW217502   1.008   1.442   0.106
 5535SOL     OW17503   1.333   1.372   2.853
 5535SOL    HW117504   1.432   1.382   2.839
 5535SOL    HW217505   1.312   1.276   2.871
 5536SOL     OW17506   3.628   0.509   3.853
 5536SOL    HW117507   3.632   0.409   3.849
 5536SOL    HW217508   3.618   0.538   3.948
 5537SOL     OW17509   3.474   1.424   2.070
 5537SOL    HW117510   3.434   1.474   2.148
 5537SOL    HW217511   3.573   1.418   2.082
 5538SOL     OW17512   4.231   5.586   5.284
 5538SOL    HW117513   4.199   5.676   5.315
 5538SOL    HW217514   4.317   5.597   5.235
 5539SOL     OW17515   1.165   3.945   1.833
 5539SOL    HW117516   1.198   3.957   1.740
 5539SOL    HW217517   1.065   3.955   1.835
 5540SOL     OW17518   4.669   4.631   3.939
 5540SOL    HW117519   4.733   4.555   3.945
 5540SOL    HW217520   4.719   4.717   3.925
 5541SOL     OW17521   5.051   0.025   6.441
 5541SOL    HW117522   5.100   0.057   6.522
 5541SOL    HW217523   4.965   0.076   6.432
 5542SOL     OW17524   4.041   3.532   6.181
 5542SOL    HW117525   4.004   3.459   6.238
 5542SOL    HW217526   3.969   3.598   6.160
 5543SOL     OW17527   4.709   4.048   6.845
 5543SOL    HW117528   4.675   3.963   6.805
 5543SOL    HW217529   4.795   4.074   6.801
 5544SOL     OW17530   4.698   5.782   6.386
 5544SOL    HW117531   4.613   5.802   6.337
 5544SOL    HW217532   4.677   5.734   6.471
 5545SOL     OW17533   5.189   0.934   2.913
 5545SOL    HW117534   5.146   0.869   2.851
 5545SOL    HW217535   5.158   1.027   2.891
 5546SOL     OW17536   0.640   4.872   4.987
 5546SOL    HW117537   0.552   4.916   5.003
 5546SOL    HW217538   0.668   4.889   4.892
 5547SOL     OW17539   2.757   6.504   5.255
 5547SOL    HW117540   2.669   6.526   5.214
 5547SOL    HW217541   2.767   6.405   5.262
 5548SOL     OW17542   6.364   3.516   5.699
 5548SOL    HW117543   6.270   3.494   5.726
 5548SOL    HW217544   6.374   3.504   5.600
 5549SOL     OW17545   4.040   4.896   0.240
 5549SOL    HW117546   4.108   4.826   0.262
 5549SOL    HW217547   4.083   4.969   0.186
 5550SOL     OW17548   2.828   5.700   1.970
 5550SOL    HW117549   2.779   5.787   1.977
 5550SOL    HW217550   2.842   5.662   2.062
 5551SOL     OW17551   1.742   0.716   2.890
 5551SOL    HW117552   1.687   0.799   2.886
 5551SOL    HW217553   1.799   0.716   2.972
 5552SOL     OW17554   6.939   1.255   0.034
 5552SOL    HW117555   6.919   1.330   0.096
 5552SOL    HW217556   0.014   1.245   0.025
 5553SOL     OW17557   3.345   6.597   0.386
 5553SOL    HW117558   3.419   6.611   0.451
 5553SOL    HW217559   3.276   6.669   0.397
 5554SOL     OW17560   2.451   1.766   5.802
 5554SOL    HW117561   2.394   1.776   5.883
 5554SOL    HW217562   2.460   1.855   5.757
 5555SOL     OW17563   0.870   5.726   3.469
 5555SOL    HW117564   0.932   5.702   3.394
 5555SOL    HW217565   0.776   5.703   3.443
 5556SOL     OW17566   0.391   2.219   4.577
 5556SOL    HW117567   0.319   2.205   4.646
 5556SOL    HW217568   0.350   2.214   4.486
 5557SOL     OW17569   2.944   5.816   4.400
 5557SOL    HW117570   2.850   5.847   4.409
 5557SOL    HW217571   2.959   5.778   4.308
 5558SOL     OW17572   4.840   3.299   5.188
 5558SOL    HW117573   4.808   3.354   5.110
 5558SOL    HW217574   4.890   3.358   5.251
 5559SOL     OW17575   2.442   6.780   1.972
 5559SOL    HW117576   2.390   6.695   1.963
 5559SOL    HW217577   2.490   6.799   1.886
 5560SOL     OW17578   6.772   6.744   3.223
 5560SOL    HW117579   6.695   6.711   3.279
 5560SOL    HW217580   6.814   6.822   3.268
 5561SOL     OW17581   1.416   2.561   4.293
 5561SOL    HW117582   1.503   2.607   4.276
 5561SOL    HW217583   1.341   2.627   4.292
 5562SOL     OW17584   1.901   2.292   6.350
 5562SOL    HW117585   1.828   2.343   6.305
 5562SOL    HW217586   1.865   2.245   6.430
 5563SOL     OW17587   4.552   6.479   2.103
 5563SOL    HW117588   4.616   6.510   2.174
 5563SOL    HW217589   4.547   6.379   2.105
 5564SOL     OW17590   5.033   2.695   1.407
 5564SOL    HW117591   5.075   2.715   1.495
 5564SOL    HW217592   4.934   2.697   1.416
 5565SOL     OW17593   4.274   2.647   5.846
 5565SOL    HW117594   4.197   2.683   5.793
 5565SOL    HW217595   4.242   2.624   5.938
 5566SOL     OW17596   1.443   5.882   1.272
 5566SOL    HW117597   1.538   5.865   1.245
 5566SOL    HW217598   1.389   5.799   1.260
 5567SOL     OW17599   1.133   5.151   0.761
 5567SOL    HW117600   1.125   5.228   0.824
 5567SOL    HW217601   1.057   5.087   0.777
 5568SOL     OW17602   4.426   2.710   1.242
 5568SOL    HW117603   4.516   2.676   1.267
 5568SOL    HW217604   4.400   2.673   1.153
 5569SOL     OW17605   4.233   1.786   1.721
 5569SOL    HW117606   4.147   1.828   1.749
 5569SOL    HW217607   4.219   1.734   1.636
 5570SOL     OW17608   6.289   4.615   4.775
 5570SOL    HW117609   6.223   4.598   4.848
 5570SOL    HW217610   6.272   4.704   4.734
 5571SOL     OW17611   0.300   6.421   0.827
 5571SOL    HW117612   0.309   6.497   0.762
 5571SOL    HW217613   0.222   6.438   0.887
 5572SOL     OW17614   3.905   2.433   6.574
 5572SOL    HW117615   3.929   2.515   6.625
 5572SOL    HW217616   3.935   2.352   6.624
 5573SOL     OW17617   1.258   3.256   0.311
 5573SOL    HW117618   1.266   3.355   0.300
 5573SOL    HW217619   1.163   3.228   0.295
 5574SOL     OW17620   0.182   6.940   4.611
 5574SOL    HW117621   0.263   6.969   4.561
 5574SOL    HW217622   0.103   6.941   4.550
 5575SOL     OW17623   1.598   0.763   1.343
 5575SOL    HW117624   1.644   0.715   1.269
 5575SOL    HW217625   1.499   0.763   1.327
 5576SOL     OW17626   6.139   5.082   1.447
 5576SOL    HW117627   6.233   5.051   1.439
 5576SOL    HW217628   6.131   5.175   1.410
 5577SOL     OW17629   2.144   3.549   5.189
 5577SOL    HW117630   2.154   3.453   5.161
 5577SOL    HW217631   2.214   3.572   5.256
 5578SOL     OW17632   3.006   2.655   0.153
 5578SOL    HW117633   3.083   2.677   0.094
 5578SOL    HW217634   2.929   2.623   0.097
 5579SOL     OW17635   5.134   3.923   6.421
 5579SOL    HW117636   5.123   3.857   6.347
 5579SOL    HW217637   5.177   3.879   6.499
 5580SOL     OW17638   4.776   2.385   0.348
 5580SOL    HW117639   4.841   2.461   0.357
 5580SOL    HW217640   4.788   2.341   0.259
 5581SOL     OW17641   2.457   0.527   6.800
 5581SOL    HW117642   2.450   0.435   6.839
 5581SOL    HW217643   2.367   0.569   6.797
 5582SOL     OW17644   3.418   3.743   4.159
 5582SOL    HW117645   3.343   3.772   4.099
 5582SOL    HW217646   3.398   3.771   4.253
 5583SOL     OW17647   3.700   6.032   2.479
 5583SOL    HW117648   3.771   5.965   2.501
 5583SOL    HW217649   3.696   6.046   2.380
 5584SOL     OW17650   5.670   3.996   3.073
 5584SOL    HW117651   5.612   3.995   2.992
 5584SOL    HW217652   5.618   3.964   3.152
 5585SOL     OW17653   5.595   0.803   3.815
 5585SOL    HW117654   5.597   0.705   3.834
 5585SOL    HW217655   5.686   0.834   3.786
 5586SOL     OW17656   1.406   1.459   6.373
 5586SOL    HW117657   1.328   1.495   6.423
 5586SOL    HW217658   1.486   1.458   6.433
 5587SOL     OW17659   3.479   0.433   3.317
 5587SOL    HW117660   3.539   0.445   3.396
 5587SOL    HW217661   3.384   0.441   3.346
 5588SOL     OW17662   2.502   6.639   5.121
 5588SOL    HW117663   2.434   6.681   5.060
 5588SOL    HW217664   2.484   6.667   5.215
 5589SOL     OW17665   5.012   3.037   5.852
 5589SOL    HW117666   4.981   3.112   5.794
 5589SOL    HW217667   4.958   3.035   5.936
 5590SOL     OW17668   6.220   5.802   3.991
 5590SOL    HW117669   6.180   5.724   3.943
 5590SOL    HW217670   6.160   5.882   3.980
 5591SOL     OW17671   5.766   0.783   0.486
 5591SOL    HW117672   5.839   0.754   0.424
 5591SOL    HW217673   5.744   0.709   0.549
 5592SOL     OW17674   1.863   3.806   3.889
 5592SOL    HW117675   1.767   3.820   3.865
 5592SOL    HW217676   1.871   3.722   3.944
 5593SOL     OW17677   0.547   2.449   6.074
 5593SOL    HW117678   0.456   2.482   6.100
 5593SOL    HW217679   0.587   2.399   6.151
 5594SOL     OW17680   2.240   0.719   0.373
 5594SOL    HW117681   2.172   0.704   0.444
 5594SOL    HW217682   2.331   0.727   0.414
 5595SOL     OW17683   6.264   0.925   5.787
 5595SOL    HW117684   6.168   0.948   5.800
 5595SOL    HW217685   6.286   0.843   5.841
 5596SOL     OW17686   6.041   0.619   2.519
 5596SOL    HW117687   6.072   0.535   2.564
 5596SOL    HW217688   5.952   0.645   2.555
 5597SOL     OW17689   5.702   1.995   6.437
 5597SOL    HW117690   5.765   1.937   6.384
 5597SOL    HW217691   5.699   1.963   6.531
 5598SOL     OW17692   5.070   1.646   3.935
 5598SOL    HW117693   5.118   1.666   3.849
 5598SOL    HW217694   4.971   1.649   3.919
 5599SOL     OW17695   5.646   3.880   1.439
 5599SOL    HW117696   5.707   3.955   1.416
 5599SOL    HW217697   5.686   3.825   1.512
 5600SOL     OW17698   2.211   0.382   3.012
 5600SOL    HW117699   2.274   0.443   3.060
 5600SOL    HW217700   2.217   0.290   3.052
 5601SOL     OW17701   5.320   3.362   5.680
 5601SOL    HW117702   5.418   3.354   5.699
 5601SOL    HW217703   5.288   3.281   5.631
 5602SOL     OW17704   0.490   2.194   2.968
 5602SOL    HW117705   0.572   2.250   2.975
 5602SOL    HW217706   0.507   2.105   3.010
 5603SOL     OW17707   4.520   2.976   5.345
 5603SOL    HW117708   4.548   2.888   5.308
 5603SOL    HW217709   4.424   2.971   5.374
 5604SOL     OW17710   1.324   0.017   4.605
 5604SOL    HW117711   1.417   7.016   4.579
 5604SOL    HW217712   1.259   7.005   4.538
 5605SOL     OW17713   1.608   6.970   4.553
 5605SOL    HW117714   1.566   6.932   4.470
 5605SOL    HW217715   1.635   0.041   4.536
 5606SOL     OW17716   5.046   1.732   0.215
 5606SOL    HW117717   5.062   1.679   0.298
 5606SOL    HW217718   4.947   1.747   0.204
 5607SOL     OW17719   5.978   2.271   3.625
 5607SOL    HW117720   6.050   2.213   3.586
 5607SOL    HW217721   5.980   2.361   3.580
 5608SOL     OW17722   5.611   0.421   3.549
 5608SOL    HW117723   5.653   0.336   3.517
 5608SOL    HW217724   5.668   0.499   3.521
 5609SOL     OW17725   5.284   6.665   0.181
 5609SOL    HW117726   5.353   6.637   0.114
 5609SOL    HW217727   5.197   6.620   0.160
 5610SOL     OW17728   5.264   3.747   7.013
 5610SOL    HW117729   5.256   3.650   0.014
 5610SOL    HW217730   5.358   3.777   0.000
 5611SOL     OW17731   0.911   5.044   1.205
 5611SOL    HW117732   0.973   5.119   1.180
 5611SOL    HW217733   0.817   5.077   1.206
 5612SOL     OW17734   2.444   2.228   0.275
 5612SOL    HW117735   2.385   2.152   0.249
 5612SOL    HW217736   2.402   2.279   0.350
 5613SOL     OW17737   0.079   5.331   4.708
 5613SOL    HW117738   0.096   5.399   4.636
 5613SOL    HW217739   0.166   5.307   4.751
 5614SOL     OW17740   5.749   2.021   5.034
 5614SOL    HW117741   5.674   1.994   4.974
 5614SOL    HW217742   5.770   2.118   5.020
 5615SOL     OW17743   0.482   2.566   2.428
 5615SOL    HW117744   0.427   2.508   2.368
 5615SOL    HW217745   0.437   2.654   2.439
 5616SOL     OW17746   1.673   2.661   4.278
 5616SOL    HW117747   1.750   2.597   4.266
 5616SOL    HW217748   1.689   2.742   4.222
 5617SOL     OW17749   1.634   4.939   5.908
 5617SOL    HW117750   1.658   4.991   5.827
 5617SOL    HW217751   1.551   4.886   5.891
 5618SOL     OW17752   6.785   5.110   4.082
 5618SOL    HW117753   6.820   5.084   3.992
 5618SOL    HW217754   6.771   5.209   4.085
 5619SOL     OW17755   3.144   3.040   3.500
 5619SOL    HW117756   3.238   3.030   3.468
 5619SOL    HW217757   3.089   2.964   3.465
 5620SOL     OW17758   4.224   4.067   6.196
 5620SOL    HW117759   4.225   4.159   6.155
 5620SOL    HW217760   4.315   4.046   6.232
 5621SOL     OW17761   1.797   2.665   5.894
 5621SOL    HW117762   1.887   2.636   5.860
 5621SOL    HW217763   1.809   2.740   5.959
 5622SOL     OW17764   4.671   5.379   4.827
 5622SOL    HW117765   4.759   5.390   4.781
 5622SOL    HW217766   4.610   5.326   4.768
 5623SOL     OW17767   4.999   6.320   4.223
 5623SOL    HW117768   4.913   6.278   4.193
 5623SOL    HW217769   5.042   6.263   4.292
 5624SOL     OW17770   0.078   5.285   3.671
 5624SOL    HW117771   7.011   5.277   3.630
 5624SOL    HW217772   0.069   5.299   3.770
 5625SOL     OW17773   1.682   5.215   4.466
 5625SOL    HW117774   1.647   5.304   4.438
 5625SOL    HW217775   1.654   5.196   4.560
 5626SOL     OW17776   2.030   4.267   4.253
 5626SOL    HW117777   2.015   4.364   4.273
 5626SOL    HW217778   2.105   4.258   4.188
 5627SOL     OW17779   1.103   5.928   6.684
 5627SOL    HW117780   1.104   6.028   6.693
 5627SOL    HW217781   1.111   5.887   6.775
 5628SOL     OW17782   3.019   3.141   0.787
 5628SOL    HW117783   3.075   3.058   0.781
 5628SOL    HW217784   2.954   3.142   0.711
 5629SOL     OW17785   4.218   3.921   1.043
 5629SOL    HW117786   4.282   3.992   1.015
 5629SOL    HW217787   4.203   3.857   0.967
 5630SOL     OW17788   1.385   4.080   6.691
 5630SOL    HW117789   1.322   4.011   6.726
 5630SOL    HW217790   1.457   4.036   6.639
 5631SOL     OW17791   5.111   0.710   1.536
 5631SOL    HW117792   5.131   0.781   1.468
 5631SOL    HW217793   5.016   0.719   1.566
 5632SOL     OW17794   5.058   0.883   5.735
 5632SOL    HW117795   5.024   0.789   5.729
 5632SOL    HW217796   4.981   0.946   5.746
 5633SOL     OW17797   0.223   4.561   4.982
 5633SOL    HW117798   0.129   4.528   4.989
 5633SOL    HW217799   0.234   4.644   5.038
 5634SOL     OW17800   2.938   5.579   5.778
 5634SOL    HW117801   2.972   5.490   5.748
 5634SOL    HW217802   3.015   5.639   5.798
 5635SOL     OW17803   2.864   0.175   6.844
 5635SOL    HW117804   2.908   0.186   6.755
 5635SOL    HW217805   2.918   0.222   6.914
 5636SOL     OW17806   6.252   1.206   5.538
 5636SOL    HW117807   6.211   1.269   5.603
 5636SOL    HW217808   6.193   1.197   5.457
 5637SOL     OW17809   5.673   6.021   5.066
 5637SOL    HW117810   5.694   5.931   5.029
 5637SOL    HW217811   5.578   6.024   5.096
 5638SOL     OW17812   5.243   5.763   1.174
 5638SOL    HW117813   5.239   5.692   1.244
 5638SOL    HW217814   5.336   5.800   1.169
 5639SOL     OW17815   1.624   0.224   1.969
 5639SOL    HW117816   1.662   0.177   1.889
 5639SOL    HW217817   1.674   0.196   2.051
 5640SOL     OW17818   2.634   6.726   3.261
 5640SOL    HW117819   2.714   6.715   3.320
 5640SOL    HW217820   2.627   6.648   3.199
 5641SOL     OW17821   1.275   4.377   5.418
 5641SOL    HW117822   1.352   4.318   5.392
 5641SOL    HW217823   1.191   4.323   5.418
 5642SOL     OW17824   0.770   5.024   5.964
 5642SOL    HW117825   0.711   5.091   6.008
 5642SOL    HW217826   0.861   5.062   5.951
 5643SOL     OW17827   3.547   2.113   5.014
 5643SOL    HW117828   3.631   2.077   4.972
 5643SOL    HW217829   3.565   2.203   5.054
 5644SOL     OW17830   4.912   1.644   4.521
 5644SOL    HW117831   4.862   1.587   4.456
 5644SOL    HW217832   5.006   1.659   4.488
 5645SOL     OW17833   5.018   4.550   2.394
 5645SOL    HW117834   5.109   4.576   2.363
 5645SOL    HW217835   4.953   4.555   2.318
 5646SOL     OW17836   0.747   5.587   3.695
 5646SOL    HW117837   0.828   5.582   3.636
 5646SOL    HW217838   0.683   5.515   3.670
 5647SOL     OW17839   0.151   5.979   6.756
 5647SOL    HW117840   0.181   5.900   6.810
 5647SOL    HW217841   0.158   6.062   6.812
 5648SOL     OW17842   1.971   1.359   3.363
 5648SOL    HW117843   2.023   1.296   3.305
 5648SOL    HW217844   2.027   1.439   3.384
 5649SOL     OW17845   2.042   0.540   4.964
 5649SOL    HW117846   2.094   0.572   4.884
 5649SOL    HW217847   1.964   0.601   4.979
 5650SOL     OW17848   0.172   4.857   0.963
 5650SOL    HW117849   0.217   4.931   1.013
 5650SOL    HW217850   0.077   4.882   0.943
 5651SOL     OW17851   0.835   2.421   1.570
 5651SOL    HW117852   0.913   2.368   1.538
 5651SOL    HW217853   0.797   2.378   1.652
 5652SOL     OW17854   4.843   5.969   1.937
 5652SOL    HW117855   4.784   6.047   1.917
 5652SOL    HW217856   4.787   5.887   1.952
 5653SOL     OW17857   0.054   6.256   6.085
 5653SOL    HW117858   0.089   6.297   6.001
 5653SOL    HW217859   0.070   6.318   6.161
 5654SOL     OW17860   0.286   0.111   5.967
 5654SOL    HW117861   0.260   0.038   6.031
 5654SOL    HW217862   0.383   0.102   5.945
 5655SOL     OW17863   1.028   2.978   4.489
 5655SOL    HW117864   1.117   2.992   4.531
 5655SOL    HW217865   1.039   2.961   4.391
 5656SOL     OW17866   3.079   4.233   1.054
 5656SOL    HW117867   3.004   4.274   1.002
 5656SOL    HW217868   3.139   4.183   0.991
 5657SOL     OW17869   4.988   6.338   1.659
 5657SOL    HW117870   4.934   6.254   1.652
 5657SOL    HW217871   4.929   6.417   1.643
 5658SOL     OW17872   3.165   6.814   6.081
 5658SOL    HW117873   3.088   6.798   6.142
 5658SOL    HW217874   3.222   6.888   6.117
 5659SOL     OW17875   2.963   3.164   2.888
 5659SOL    HW117876   2.894   3.139   2.956
 5659SOL    HW217877   3.027   3.229   2.928
 5660SOL     OW17878   5.231   0.515   0.171
 5660SOL    HW117879   5.320   0.530   0.213
 5660SOL    HW217880   5.241   0.509   0.072
 5661SOL     OW17881   7.020   5.661   5.241
 5661SOL    HW117882   6.952   5.602   5.198
 5661SOL    HW217883   0.064   5.606   5.288
 5662SOL     OW17884   2.793   5.297   4.248
 5662SOL    HW117885   2.769   5.326   4.156
 5662SOL    HW217886   2.710   5.290   4.304
 5663SOL     OW17887   1.138   4.084   0.183
 5663SOL    HW117888   1.221   4.082   0.238
 5663SOL    HW217889   1.136   4.169   0.129
 5664SOL     OW17890   0.358   4.196   3.337
 5664SOL    HW117891   0.372   4.127   3.408
 5664SOL    HW217892   0.394   4.162   3.250
 5665SOL     OW17893   1.567   1.715   6.540
 5665SOL    HW117894   1.506   1.794   6.548
 5665SOL    HW217895   1.530   1.639   6.593
 5666SOL     OW17896   4.927   5.735   0.856
 5666SOL    HW117897   4.882   5.651   0.886
 5666SOL    HW217898   5.022   5.735   0.886
 5667SOL     OW17899   1.003   4.718   3.238
 5667SOL    HW117900   0.909   4.711   3.271
 5667SOL    HW217901   1.057   4.642   3.277
 5668SOL     OW17902   5.868   1.736   6.797
 5668SOL    HW117903   5.931   1.706   6.726
 5668SOL    HW217904   5.910   1.721   6.887
 5669SOL     OW17905   0.304   4.350   6.035
 5669SOL    HW117906   0.360   4.423   6.072
 5669SOL    HW217907   0.301   4.357   5.935
 5670SOL     OW17908   6.744   2.995   3.747
 5670SOL    HW117909   6.837   2.981   3.780
 5670SOL    HW217910   6.714   3.088   3.769
 5671SOL     OW17911   1.167   6.990   6.388
 5671SOL    HW117912   1.088   6.933   6.409
 5671SOL    HW217913   1.229   6.992   6.466
 5672SOL     OW17914   4.467   4.033   6.281
 5672SOL    HW117915   4.491   3.936   6.286
 5672SOL    HW217916   4.529   4.079   6.218
 5673SOL     OW17917   0.285   6.918   1.958
 5673SOL    HW117918   0.206   6.863   1.931
 5673SOL    HW217919   0.344   6.933   1.879
 5674SOL     OW17920   0.043   4.189   2.132
 5674SOL    HW117921   6.988   4.213   2.189
 5674SOL    HW217922   0.123   4.241   2.163
 5675SOL     OW17923   4.281   2.465   5.566
 5675SOL    HW117924   4.367   2.456   5.618
 5675SOL    HW217925   4.204   2.460   5.629
 5676SOL     OW17926   2.220   1.124   1.156
 5676SOL    HW117927   2.186   1.047   1.210
 5676SOL    HW217928   2.167   1.131   1.071
 5677SOL     OW17929   0.705   1.540   3.314
 5677SOL    HW117930   0.693   1.547   3.413
 5677SOL    HW217931   0.741   1.450   3.292
 5678SOL     OW17932   3.327   5.861   3.294
 5678SOL    HW117933   3.391   5.911   3.235
 5678SOL    HW217934   3.321   5.766   3.261
 5679SOL     OW17935   2.001   6.324   4.738
 5679SOL    HW117936   2.056   6.276   4.670
 5679SOL    HW217937   1.960   6.405   4.695
 5680SOL     OW17938   1.575   5.753   6.943
 5680SOL    HW117939   1.564   5.842   6.988
 5680SOL    HW217940   1.578   5.681   7.012
 5681SOL     OW17941   1.344   3.216   6.519
 5681SOL    HW117942   1.353   3.206   6.618
 5681SOL    HW217943   1.292   3.299   6.499
 5682SOL     OW17944   2.187   3.595   5.568
 5682SOL    HW117945   2.281   3.603   5.600
 5682SOL    HW217946   2.161   3.677   5.518
 5683SOL     OW17947   4.200   2.483   6.058
 5683SOL    HW117948   4.146   2.503   6.140
 5683SOL    HW217949   4.163   2.403   6.012
 5684SOL     OW17950   4.073   3.551   4.901
 5684SOL    HW117951   3.980   3.540   4.866
 5684SOL    HW217952   4.114   3.633   4.861
 5685SOL     OW17953   0.889   4.918   1.832
 5685SOL    HW117954   0.983   4.898   1.859
 5685SOL    HW217955   0.846   4.978   1.900
 5686SOL     OW17956   3.362   0.694   0.407
 5686SOL    HW117957   3.299   0.695   0.485
 5686SOL    HW217958   3.428   0.768   0.417
 5687SOL     OW17959   6.341   4.035   4.597
 5687SOL    HW117960   6.249   4.050   4.559
 5687SOL    HW217961   6.403   4.006   4.524
 5688SOL     OW17962   6.633   1.871   0.641
 5688SOL    HW117963   6.564   1.806   0.610
 5688SOL    HW217964   6.649   1.858   0.739
 5689SOL     OW17965   4.061   1.283   0.875
 5689SOL    HW117966   3.961   1.276   0.876
 5689SOL    HW217967   4.088   1.378   0.891
 5690SOL     OW17968   3.022   6.071   0.785
 5690SOL    HW117969   2.934   6.064   0.737
 5690SOL    HW217970   3.097   6.066   0.718
 5691SOL     OW17971   3.216   6.212   2.148
 5691SOL    HW117972   3.271   6.180   2.071
 5691SOL    HW217973   3.207   6.138   2.215
 5692SOL     OW17974   6.740   2.257   6.236
 5692SOL    HW117975   6.755   2.204   6.153
 5692SOL    HW217976   6.818   2.245   6.298
 5693SOL     OW17977   4.988   2.599   2.129
 5693SOL    HW117978   4.909   2.617   2.187
 5693SOL    HW217979   4.974   2.513   2.079
 5694SOL     OW17980   0.761   1.562   3.633
 5694SOL    HW117981   0.812   1.479   3.656
 5694SOL    HW217982   0.825   1.632   3.600
 5695SOL     OW17983   1.276   2.113   3.353
 5695SOL    HW117984   1.228   2.141   3.436
 5695SOL    HW217985   1.274   2.013   3.345
 5696SOL     OW17986   3.067   0.849   3.987
 5696SOL    HW117987   3.064   0.770   3.926
 5696SOL    HW217988   2.975   0.890   3.992
 5697SOL     OW17989   6.593   2.009   1.789
 5697SOL    HW117990   6.677   1.967   1.823
 5697SOL    HW217991   6.551   2.063   1.862
 5698SOL     OW17992   0.214   2.238   2.289
 5698SOL    HW117993   0.293   2.193   2.331
 5698SOL    HW217994   0.238   2.332   2.266
 5699SOL     OW17995   6.045   1.192   3.879
 5699SOL    HW117996   6.051   1.243   3.793
 5699SOL    HW217997   6.001   1.248   3.948
 5700SOL     OW17998   0.045   5.798   4.519
 5700SOL    HW117999   7.000   5.770   4.453
 5700SOL    HW218000   0.036   5.895   4.538
 5701SOL     OW18001   0.719   5.355   3.263
 5701SOL    HW118002   0.683   5.317   3.178
 5701SOL    HW218003   0.818   5.342   3.266
 5702SOL     OW18004   2.047   6.973   5.569
 5702SOL    HW118005   1.978   0.011   5.532
 5702SOL    HW218006   2.003   6.906   5.629
 5703SOL     OW18007   4.729   4.914   0.532
 5703SOL    HW118008   4.721   4.901   0.433
 5703SOL    HW218009   4.638   4.933   0.570
 5704SOL     OW18010   4.157   5.883   2.470
 5704SOL    HW118011   4.063   5.865   2.442
 5704SOL    HW218012   4.160   5.898   2.569
 5705SOL     OW18013   6.190   1.458   0.497
 5705SOL    HW118014   6.117   1.397   0.465
 5705SOL    HW218015   6.163   1.553   0.485
 5706SOL     OW18016   1.693   1.808   0.386
 5706SOL    HW118017   1.750   1.858   0.451
 5706SOL    HW218018   1.615   1.768   0.434
 5707SOL     OW18019   1.197   6.886   6.958
 5707SOL    HW118020   1.170   6.850   6.868
 5707SOL    HW218021   1.118   6.930   7.001
 5708SOL     OW18022   5.280   6.918   1.913
 5708SOL    HW118023   5.254   6.924   2.010
 5708SOL    HW218024   5.221   6.851   1.868
 5709SOL     OW18025   0.964   5.920   3.229
 5709SOL    HW118026   0.899   5.996   3.231
 5709SOL    HW218027   0.915   5.835   3.207
 5710SOL     OW18028   2.533   3.534   5.379
 5710SOL    HW118029   2.622   3.561   5.343
 5710SOL    HW218030   2.467   3.608   5.362
 5711SOL     OW18031   4.948   0.528   3.068
 5711SOL    HW118032   4.976   0.437   3.038
 5711SOL    HW218033   4.863   0.554   3.022
 5712SOL     OW18034   0.992   6.638   5.437
 5712SOL    HW118035   0.901   6.647   5.396
 5712SOL    HW218036   0.983   6.599   5.529
 5713SOL     OW18037   0.974   2.288   1.206
 5713SOL    HW118038   0.880   2.317   1.187
 5713SOL    HW218039   0.973   2.195   1.244
 5714SOL     OW18040   1.639   6.715   6.774
 5714SOL    HW118041   1.541   6.700   6.791
 5714SOL    HW218042   1.690   6.699   6.859
 5715SOL     OW18043   0.904   5.638   2.994
 5715SOL    HW118044   0.809   5.663   3.014
 5715SOL    HW218045   0.946   5.708   2.937
 5716SOL     OW18046   0.687   4.117   5.195
 5716SOL    HW118047   0.717   4.059   5.271
 5716SOL    HW218048   0.588   4.126   5.197
 5717SOL     OW18049   1.936   5.318   6.969
 5717SOL    HW118050   1.921   5.258   6.890
 5717SOL    HW218051   1.849   5.335   7.014
 5718SOL     OW18052   1.787   4.426   6.291
 5718SOL    HW118053   1.725   4.502   6.272
 5718SOL    HW218054   1.851   4.415   6.215
 5719SOL     OW18055   2.459   0.860   5.612
 5719SOL    HW118056   2.447   0.779   5.554
 5719SOL    HW218057   2.552   0.861   5.649
 5720SOL     OW18058   0.335   5.274   4.742
 5720SOL    HW118059   0.415   5.334   4.748
 5720SOL    HW218060   0.362   5.186   4.703
 5721SOL     OW18061   0.550   3.808   0.381
 5721SOL    HW118062   0.573   3.740   0.450
 5721SOL    HW218063   0.539   3.897   0.424
 5722SOL     OW18064   5.332   1.342   5.070
 5722SOL    HW118065   5.363   1.434   5.046
 5722SOL    HW218066   5.233   1.334   5.053
 5723SOL     OW18067   4.407   4.324   0.574
 5723SOL    HW118068   4.315   4.285   0.573
 5723SOL    HW218069   4.404   4.415   0.533
 5724SOL     OW18070   3.926   2.405   5.335
 5724SOL    HW118071   3.977   2.459   5.268
 5724SOL    HW218072   3.856   2.462   5.378
 5725SOL     OW18073   5.019   5.707   3.495
 5725SOL    HW118074   5.021   5.635   3.564
 5725SOL    HW218075   4.962   5.783   3.527
 5726SOL     OW18076   6.325   3.013   3.938
 5726SOL    HW118077   6.275   2.995   3.853
 5726SOL    HW218078   6.364   2.928   3.973
 5727SOL     OW18079   5.991   3.499   3.112
 5727SOL    HW118080   6.021   3.472   3.204
 5727SOL    HW218081   5.984   3.599   3.107
 5728SOL     OW18082   4.988   1.892   6.417
 5728SOL    HW118083   5.017   1.913   6.510
 5728SOL    HW218084   4.965   1.796   6.409
 5729SOL     OW18085   1.199   1.612   1.310
 5729SOL    HW118086   1.215   1.599   1.407
 5729SOL    HW218087   1.101   1.624   1.293
 5730SOL     OW18088   4.719   5.718   5.301
 5730SOL    HW118089   4.751   5.627   5.329
 5730SOL    HW218090   4.637   5.742   5.353
 5731SOL     OW18091   1.802   6.679   3.696
 5731SOL    HW118092   1.861   6.636   3.628
 5731SOL    HW218093   1.855   6.742   3.752
 5732SOL     OW18094   5.912   4.928   5.032
 5732SOL    HW118095   5.981   4.977   5.084
 5732SOL    HW218096   5.847   4.885   5.096
 5733SOL     OW18097   3.728   1.099   5.791
 5733SOL    HW118098   3.703   1.007   5.822
 5733SOL    HW218099   3.722   1.104   5.692
 5734SOL     OW18100   0.962   6.555   5.930
 5734SOL    HW118101   1.015   6.619   5.985
 5734SOL    HW218102   0.882   6.602   5.893
 5735SOL     OW18103   4.028   0.993   2.054
 5735SOL    HW118104   4.117   0.958   2.084
 5735SOL    HW218105   3.955   0.938   2.094
 5736SOL     OW18106   5.292   4.346   6.911
 5736SOL    HW118107   5.310   4.437   6.947
 5736SOL    HW218108   5.332   4.277   6.972
 5737SOL     OW18109   5.459   6.079   0.998
 5737SOL    HW118110   5.461   6.018   1.077
 5737SOL    HW218111   5.550   6.116   0.982
 5738SOL     OW18112   3.694   1.511   6.617
 5738SOL    HW118113   3.647   1.424   6.599
 5738SOL    HW218114   3.652   1.556   6.695
 5739SOL     OW18115   1.581   6.881   5.667
 5739SOL    HW118116   1.596   6.783   5.676
 5739SOL    HW218117   1.499   6.897   5.612
 5740SOL     OW18118   4.239   3.388   1.043
 5740SOL    HW118119   4.234   3.425   1.136
 5740SOL    HW218120   4.147   3.363   1.012
 5741SOL     OW18121   6.807   3.555   3.850
 5741SOL    HW118122   6.710   3.545   3.828
 5741SOL    HW218123   6.851   3.615   3.784
 5742SOL     OW18124   4.291   6.807   3.317
 5742SOL    HW118125   4.247   6.889   3.279
 5742SOL    HW218126   4.236   6.727   3.293
 5743SOL     OW18127   3.578   5.610   5.446
 5743SOL    HW118128   3.529   5.529   5.476
 5743SOL    HW218129   3.564   5.684   5.512
 5744SOL     OW18130   5.634   0.963   2.895
 5744SOL    HW118131   5.550   0.931   2.851
 5744SOL    HW218132   5.619   0.973   2.993
 5745SOL     OW18133   2.438   1.247   4.142
 5745SOL    HW118134   2.369   1.316   4.163
 5745SOL    HW218135   2.496   1.279   4.067
 5746SOL     OW18136   4.862   0.041   2.577
 5746SOL    HW118137   4.844   0.038   2.675
 5746SOL    HW218138   4.958   0.065   2.561
 5747SOL     OW18139   0.226   6.153   1.714
 5747SOL    HW118140   0.301   6.208   1.752
 5747SOL    HW218141   0.147   6.159   1.774
 5748SOL     OW18142   1.188   0.294   1.195
 5748SOL    HW118143   1.167   0.388   1.168
 5748SOL    HW218144   1.104   0.243   1.209
 5749SOL     OW18145   1.416   6.179   4.614
 5749SOL    HW118146   1.377   6.089   4.633
 5749SOL    HW218147   1.516   6.172   4.612
 5750SOL     OW18148   6.357   5.131   5.607
 5750SOL    HW118149   6.382   5.079   5.689
 5750SOL    HW218150   6.383   5.080   5.525
 5751SOL     OW18151   1.558   3.692   4.591
 5751SOL    HW118152   1.630   3.643   4.542
 5751SOL    HW218153   1.472   3.685   4.540
 5752SOL     OW18154   5.348   0.234   1.043
 5752SOL    HW118155   5.393   0.281   1.119
 5752SOL    HW218156   5.401   0.154   1.016
 5753SOL     OW18157   3.233   3.270   4.724
 5753SOL    HW118158   3.175   3.222   4.790
 5753SOL    HW218159   3.299   3.206   4.685
 5754SOL     OW18160   0.867   5.790   1.563
 5754SOL    HW118161   0.958   5.764   1.595
 5754SOL    HW218162   0.833   5.720   1.499
 5755SOL     OW18163   1.606   2.040   5.408
 5755SOL    HW118164   1.565   2.089   5.332
 5755SOL    HW218165   1.563   2.068   5.494
 5756SOL     OW18166   0.023   0.250   3.213
 5756SOL    HW118167   6.979   0.322   3.221
 5756SOL    HW218168   0.036   0.226   3.117
 5757SOL     OW18169   0.417   5.371   3.902
 5757SOL    HW118170   0.496   5.362   3.841
 5757SOL    HW218171   0.375   5.461   3.889
 5758SOL     OW18172   2.309   0.847   2.923
 5758SOL    HW118173   2.396   0.807   2.893
 5758SOL    HW218174   2.310   0.945   2.905
 5759SOL     OW18175   4.780   0.746   0.606
 5759SOL    HW118176   4.766   0.816   0.537
 5759SOL    HW218177   4.817   0.664   0.563
 5760SOL     OW18178   6.557   2.544   1.849
 5760SOL    HW118179   6.569   2.642   1.837
 5760SOL    HW218180   6.537   2.501   1.761
 5761SOL     OW18181   5.552   5.244   5.410
 5761SOL    HW118182   5.584   5.335   5.384
 5761SOL    HW218183   5.541   5.188   5.328
 5762SOL     OW18184   4.563   4.210   0.783
 5762SOL    HW118185   4.499   4.265   0.731
 5762SOL    HW218186   4.632   4.270   0.826
 5763SOL     OW18187   5.945   6.415   0.649
 5763SOL    HW118188   5.869   6.467   0.688
 5763SOL    HW218189   5.984   6.466   0.572
 5764SOL     OW18190   4.059   5.356   4.087
 5764SOL    HW118191   4.051   5.266   4.044
 5764SOL    HW218192   4.089   5.346   4.181
 5765SOL     OW18193   6.417   3.735   0.656
 5765SOL    HW118194   6.384   3.757   0.748
 5765SOL    HW218195   6.354   3.670   0.614
 5766SOL     OW18196   1.887   1.590   4.975
 5766SOL    HW118197   1.896   1.687   4.998
 5766SOL    HW218198   1.791   1.563   4.981
 5767SOL     OW18199   2.704   0.321   0.580
 5767SOL    HW118200   2.724   0.342   0.675
 5767SOL    HW218201   2.790   0.306   0.530
 5768SOL     OW18202   0.913   0.007   3.601
 5768SOL    HW118203   0.874   7.022   3.693
 5768SOL    HW218204   0.839   0.000   3.533
 5769SOL     OW18205   2.820   6.045   4.880
 5769SOL    HW118206   2.728   6.067   4.911
 5769SOL    HW218207   2.820   5.955   4.837
 5770SOL     OW18208   6.805   6.821   6.745
 5770SOL    HW118209   6.851   6.770   6.673
 5770SOL    HW218210   6.857   6.812   6.831
 5771SOL     OW18211   2.216   0.064   3.941
 5771SOL    HW118212   2.154   0.056   3.863
 5771SOL    HW218213   2.224   0.160   3.968
 5772SOL     OW18214   5.397   1.226   1.499
 5772SOL    HW118215   5.300   1.246   1.511
 5772SOL    HW218216   5.450   1.277   1.567
 5773SOL     OW18217   4.113   0.959   3.064
 5773SOL    HW118218   4.133   0.962   2.966
 5773SOL    HW218219   4.091   1.051   3.096
 5774SOL     OW18220   2.382   0.170   4.572
 5774SOL    HW118221   2.432   0.207   4.493
 5774SOL    HW218222   2.416   0.078   4.593
 5775SOL     OW18223   1.168   6.597   2.921
 5775SOL    HW118224   1.116   6.598   2.836
 5775SOL    HW218225   1.209   6.507   2.934
 5776SOL     OW18226   1.408   0.247   3.659
 5776SOL    HW118227   1.453   0.159   3.643
 5776SOL    HW218228   1.429   0.309   3.584
 5777SOL     OW18229   1.073   6.909   3.863
 5777SOL    HW118230   1.125   6.948   3.787
 5777SOL    HW218231   1.115   6.938   3.949
 5778SOL     OW18232   1.350   0.289   0.487
 5778SOL    HW118233   1.403   0.247   0.561
 5778SOL    HW218234   1.391   0.265   0.399
 5779SOL     OW18235   4.317   2.555   0.181
 5779SOL    HW118236   4.243   2.618   0.205
 5779SOL    HW218237   4.405   2.601   0.192
 5780SOL     OW18238   6.066   6.166   4.278
 5780SOL    HW118239   6.066   6.149   4.377
 5780SOL    HW218240   6.041   6.262   4.261
 5781SOL     OW18241   6.643   4.639   4.382
 5781SOL    HW118242   6.670   4.596   4.468
 5781SOL    HW218243   6.583   4.717   4.400
 5782SOL     OW18244   1.857   1.889   0.596
 5782SOL    HW118245   1.805   1.960   0.644
 5782SOL    HW218246   1.867   1.809   0.655
 5783SOL     OW18247   0.780   0.952   1.852
 5783SOL    HW118248   0.764   1.051   1.857
 5783SOL    HW218249   0.874   0.932   1.879
 5784SOL     OW18250   0.747   6.632   5.314
 5784SOL    HW118251   0.700   6.718   5.338
 5784SOL    HW218252   0.686   6.576   5.258
 5785SOL     OW18253   1.721   2.758   0.531
 5785SOL    HW118254   1.742   2.686   0.597
 5785SOL    HW218255   1.758   2.845   0.563
 5786SOL     OW18256   7.017   3.792   0.473
 5786SOL    HW118257   6.975   3.866   0.526
 5786SOL    HW218258   0.084   3.820   0.444
 5787SOL     OW18259   2.264   2.451   4.871
 5787SOL    HW118260   2.226   2.363   4.841
 5787SOL    HW218261   2.334   2.435   4.940
 5788SOL     OW18262   2.789   1.365   2.116
 5788SOL    HW118263   2.718   1.415   2.164
 5788SOL    HW218264   2.830   1.423   2.046
 5789SOL     OW18265   3.862   4.686   0.360
 5789SOL    HW118266   3.887   4.782   0.345
 5789SOL    HW218267   3.815   4.652   0.278
 5790SOL     OW18268   1.526   4.409   4.593
 5790SOL    HW118269   1.481   4.380   4.677
 5790SOL    HW218270   1.601   4.347   4.572
 5791SOL     OW18271   4.256   0.943   2.227
 5791SOL    HW118272   4.317   0.870   2.257
 5791SOL    HW218273   4.223   0.994   2.306
 5792SOL     OW18274   7.000   2.722   2.784
 5792SOL    HW118275   6.903   2.740   2.773
 5792SOL    HW218276   0.008   2.662   2.711
 5793SOL     OW18277   4.957   0.642   3.760
 5793SOL    HW118278   5.038   0.693   3.728
 5793SOL    HW218279   4.979   0.595   3.845
 5794SOL     OW18280   3.434   1.854   0.363
 5794SOL    HW118281   3.362   1.915   0.329
 5794SOL    HW218282   3.392   1.778   0.414
 5795SOL     OW18283   6.927   6.549   0.458
 5795SOL    HW118284   6.937   6.649   0.464
 5795SOL    HW218285   6.894   6.514   0.545
 5796SOL     OW18286   3.940   1.251   0.109
 5796SOL    HW118287   3.886   1.323   0.153
 5796SOL    HW218288   4.004   1.212   0.176
 5797SOL     OW18289   4.707   2.318   5.541
 5797SOL    HW118290   4.724   2.335   5.444
 5797SOL    HW218291   4.715   2.221   5.560
 5798SOL     OW18292   0.595   4.275   5.448
 5798SOL    HW118293   0.562   4.253   5.356
 5798SOL    HW218294   0.680   4.327   5.442
 5799SOL     OW18295   6.082   1.091   3.022
 5799SOL    HW118296   6.168   1.138   3.045
 5799SOL    HW218297   6.011   1.122   3.085
 5800SOL     OW18298   5.816   6.517   1.300
 5800SOL    HW118299   5.779   6.425   1.302
 5800SOL    HW218300   5.794   6.564   1.385
 5801SOL     OW18301   2.073   1.942   3.868
 5801SOL    HW118302   1.974   1.925   3.870
 5801SOL    HW218303   2.105   1.944   3.773
 5802SOL     OW18304   1.244   4.396   1.035
 5802SOL    HW118305   1.149   4.428   1.040
 5802SOL    HW218306   1.296   4.435   1.111
 5803SOL     OW18307   1.764   4.947   2.280
 5803SOL    HW118308   1.689   4.995   2.324
 5803SOL    HW218309   1.833   4.921   2.348
 5804SOL     OW18310   0.339   5.124   3.864
 5804SOL    HW118311   0.356   5.220   3.884
 5804SOL    HW218312   0.409   5.068   3.910
 5805SOL     OW18313   2.415   3.697   6.121
 5805SOL    HW118314   2.388   3.602   6.139
 5805SOL    HW218315   2.375   3.727   6.034
 5806SOL     OW18316   0.331   6.092   5.229
 5806SOL    HW118317   0.389   6.011   5.238
 5806SOL    HW218318   0.371   6.168   5.280
 5807SOL     OW18319   0.524   3.670   2.127
 5807SOL    HW118320   0.611   3.711   2.098
 5807SOL    HW218321   0.451   3.702   2.067
 5808SOL     OW18322   5.445   5.145   4.900
 5808SOL    HW118323   5.493   5.218   4.950
 5808SOL    HW218324   5.442   5.063   4.957
 5809SOL     OW18325   6.134   2.000   4.768
 5809SOL    HW118326   6.195   1.938   4.720
 5809SOL    HW218327   6.089   2.060   4.702
 5810SOL     OW18328   3.721   1.752   4.360
 5810SOL    HW118329   3.794   1.690   4.387
 5810SOL    HW218330   3.633   1.715   4.390
 5811SOL     OW18331   2.928   0.219   5.889
 5811SOL    HW118332   3.022   0.199   5.863
 5811SOL    HW218333   2.895   0.299   5.838
 5812SOL     OW18334   6.196   2.068   3.978
 5812SOL    HW118335   6.154   2.138   4.035
 5812SOL    HW218336   6.250   2.006   4.035
 5813SOL     OW18337   1.906   1.903   1.093
 5813SOL    HW118338   1.915   1.996   1.059
 5813SOL    HW218339   1.810   1.882   1.108
 5814SOL     OW18340   6.243   4.592   1.218
 5814SOL    HW118341   6.330   4.547   1.199
 5814SOL    HW218342   6.175   4.563   1.150
 5815SOL     OW18343   3.700   2.017   4.363
 5815SOL    HW118344   3.714   2.029   4.264
 5815SOL    HW218345   3.722   1.923   4.388
 5816SOL     OW18346   4.563   6.033   6.980
 5816SOL    HW118347   4.612   6.120   6.994
 5816SOL    HW218348   4.477   6.051   6.934
 5817SOL     OW18349   5.639   3.817   6.035
 5817SOL    HW118350   5.636   3.761   6.118
 5817SOL    HW218351   5.712   3.783   5.975
 5818SOL     OW18352   6.745   5.805   4.623
 5818SOL    HW118353   6.715   5.814   4.528
 5818SOL    HW218354   6.735   5.893   4.670
 5819SOL     OW18355   3.837   6.473   0.274
 5819SOL    HW118356   3.856   6.375   0.273
 5819SOL    HW218357   3.867   6.511   0.362
 5820SOL     OW18358   3.964   5.638   4.062
 5820SOL    HW118359   4.024   5.712   4.033
 5820SOL    HW218360   4.018   5.557   4.082
 5821SOL     OW18361   0.127   0.074   2.093
 5821SOL    HW118362   0.049   0.018   2.119
 5821SOL    HW218363   0.194   0.018   2.044
 5822SOL     OW18364   0.883   2.821   2.211
 5822SOL    HW118365   0.948   2.816   2.286
 5822SOL    HW218366   0.923   2.778   2.130
 5823SOL     OW18367   1.353   1.185   5.609
 5823SOL    HW118368   1.390   1.093   5.616
 5823SOL    HW218369   1.298   1.205   5.690
 5824SOL     OW18370   6.230   4.911   2.689
 5824SOL    HW118371   6.170   4.900   2.610
 5824SOL    HW218372   6.286   4.993   2.678
 5825SOL     OW18373   2.403   2.038   5.104
 5825SOL    HW118374   2.325   2.034   5.042
 5825SOL    HW218375   2.468   1.966   5.080
 5826SOL     OW18376   0.158   5.174   5.556
 5826SOL    HW118377   0.098   5.128   5.620
 5826SOL    HW218378   0.104   5.233   5.495
 5827SOL     OW18379   1.862   4.448   4.615
 5827SOL    HW118380   1.951   4.440   4.569
 5827SOL    HW218381   1.808   4.518   4.569
 5828SOL     OW18382   6.870   2.967   1.823
 5828SOL    HW118383   6.786   2.968   1.877
 5828SOL    HW218384   6.919   2.881   1.839
 5829SOL     OW18385   2.199   1.258   3.210
 5829SOL    HW118386   2.242   1.269   3.121
 5829SOL    HW218387   2.144   1.174   3.210
 5830SOL     OW18388   4.838   0.066   5.288
 5830SOL    HW118389   4.864   0.095   5.379
 5830SOL    HW218390   4.906   0.002   5.252
 5831SOL     OW18391   0.172   0.545   4.832
 5831SOL    HW118392   0.075   0.572   4.838
 5831SOL    HW218393   0.193   0.517   4.739
 5832SOL     OW18394   3.904   4.680   5.941
 5832SOL    HW118395   3.831   4.711   5.880
 5832SOL    HW218396   3.928   4.754   6.004
 5833SOL     OW18397   4.250   3.372   5.265
 5833SOL    HW118398   4.343   3.401   5.287
 5833SOL    HW218399   4.195   3.367   5.348
 5834SOL     OW18400   6.009   3.275   0.029
 5834SOL    HW118401   5.937   3.311   6.993
 5834SOL    HW218402   6.048   3.192   7.014
 5835SOL     OW18403   4.873   3.262   4.165
 5835SOL    HW118404   4.854   3.292   4.258
 5835SOL    HW218405   4.952   3.311   4.129
 5836SOL     OW18406   3.501   6.272   2.819
 5836SOL    HW118407   3.464   6.361   2.846
 5836SOL    HW218408   3.480   6.255   2.723
 5837SOL     OW18409   4.010   4.800   6.353
 5837SOL    HW118410   4.055   4.735   6.414
 5837SOL    HW218411   4.059   4.803   6.266
 5838SOL     OW18412   2.807   2.102   6.526
 5838SOL    HW118413   2.826   2.007   6.503
 5838SOL    HW218414   2.714   2.126   6.496
 5839SOL     OW18415   0.163   2.110   2.607
 5839SOL    HW118416   0.134   2.015   2.601
 5839SOL    HW218417   0.257   2.115   2.639
 5840SOL     OW18418   0.927   5.583   6.413
 5840SOL    HW118419   0.852   5.571   6.478
 5840SOL    HW218420   0.916   5.669   6.364
 5841SOL     OW18421   4.635   1.938   2.414
 5841SOL    HW118422   4.669   1.846   2.429
 5841SOL    HW218423   4.616   1.951   2.316
 5842SOL     OW18424   4.432   3.198   1.113
 5842SOL    HW118425   4.390   3.107   1.119
 5842SOL    HW218426   4.369   3.261   1.067
 5843SOL     OW18427   2.097   3.793   2.778
 5843SOL    HW118428   2.007   3.765   2.744
 5843SOL    HW218429   2.091   3.884   2.819
 5844SOL     OW18430   1.152   6.736   6.024
 5844SOL    HW118431   1.070   6.776   6.065
 5844SOL    HW218432   1.232   6.761   6.079
 5845SOL     OW18433   0.919   0.644   2.522
 5845SOL    HW118434   0.893   0.643   2.425
 5845SOL    HW218435   1.009   0.688   2.532
 5846SOL     OW18436   0.203   2.369   3.618
 5846SOL    HW118437   0.278   2.305   3.601
 5846SOL    HW218438   0.117   2.319   3.620
 5847SOL     OW18439   2.434   2.215   1.903
 5847SOL    HW118440   2.456   2.295   1.847
 5847SOL    HW218441   2.518   2.177   1.941
 5848SOL     OW18442   2.387   5.050   2.934
 5848SOL    HW118443   2.344   5.136   2.906
 5848SOL    HW218444   2.326   5.002   2.998
 5849SOL     OW18445   0.244   6.762   6.616
 5849SOL    HW118446   0.316   6.832   6.607
 5849SOL    HW218447   0.190   6.759   6.532
 5850SOL     OW18448   0.154   4.017   2.468
 5850SOL    HW118449   0.208   3.996   2.387
 5850SOL    HW218450   0.066   3.971   2.462
 5851SOL     OW18451   6.021   3.758   3.094
 5851SOL    HW118452   6.051   3.815   3.171
 5851SOL    HW218453   5.966   3.813   3.032
 5852SOL     OW18454   5.787   6.471   3.162
 5852SOL    HW118455   5.792   6.425   3.073
 5852SOL    HW218456   5.879   6.500   3.190
 5853SOL     OW18457   3.584   5.527   4.320
 5853SOL    HW118458   3.625   5.608   4.279
 5853SOL    HW218459   3.649   5.484   4.382
 5854SOL     OW18460   6.023   4.562   5.660
 5854SOL    HW118461   5.961   4.639   5.673
 5854SOL    HW218462   6.055   4.561   5.566
 5855SOL     OW18463   0.764   0.850   4.633
 5855SOL    HW118464   0.788   0.907   4.711
 5855SOL    HW218465   0.818   0.765   4.636
 5856SOL     OW18466   2.365   5.815   3.936
 5856SOL    HW118467   2.394   5.721   3.953
 5856SOL    HW218468   2.277   5.832   3.979
 5857SOL     OW18469   6.429   2.636   5.551
 5857SOL    HW118470   6.439   2.724   5.599
 5857SOL    HW218471   6.498   2.572   5.585
 5858SOL     OW18472   2.192   2.310   1.981
 5858SOL    HW118473   2.287   2.289   1.956
 5858SOL    HW218474   2.164   2.251   2.056
 5859SOL     OW18475   5.836   6.402   1.675
 5859SOL    HW118476   5.795   6.440   1.758
 5859SOL    HW218477   5.771   6.341   1.630
 5860SOL     OW18478   1.579   3.794   2.094
 5860SOL    HW118479   1.660   3.849   2.075
 5860SOL    HW218480   1.521   3.790   2.012
 5861SOL     OW18481   4.632   1.380   4.551
 5861SOL    HW118482   4.720   1.348   4.517
 5861SOL    HW218483   4.647   1.450   4.622
 5862SOL     OW18484   4.830   5.016   2.676
 5862SOL    HW118485   4.878   5.072   2.608
 5862SOL    HW218486   4.734   5.009   2.651
 5863SOL     OW18487   2.870   0.732   4.756
 5863SOL    HW118488   2.921   0.646   4.753
 5863SOL    HW218489   2.860   0.768   4.663
 5864SOL     OW18490   3.739   3.524   1.387
 5864SOL    HW118491   3.742   3.624   1.397
 5864SOL    HW218492   3.702   3.484   1.471
 5865SOL     OW18493   5.787   0.301   5.546
 5865SOL    HW118494   5.781   0.355   5.462
 5865SOL    HW218495   5.697   0.263   5.568
 5866SOL     OW18496   4.489   5.429   0.552
 5866SOL    HW118497   4.468   5.392   0.462
 5866SOL    HW218498   4.518   5.524   0.544
 5867SOL     OW18499   0.490   4.094   1.236
 5867SOL    HW118500   0.445   4.086   1.147
 5867SOL    HW218501   0.521   4.004   1.266
 5868SOL     OW18502   0.172   1.039   5.050
 5868SOL    HW118503   0.112   1.051   4.972
 5868SOL    HW218504   0.175   1.123   5.105
 5869SOL     OW18505   3.276   6.275   3.466
 5869SOL    HW118506   3.207   6.333   3.508
 5869SOL    HW218507   3.355   6.267   3.527
 5870SOL     OW18508   5.394   5.998   4.887
 5870SOL    HW118509   5.391   6.008   4.986
 5870SOL    HW218510   5.487   5.974   4.859
 5871SOL     OW18511   4.375   3.110   0.711
 5871SOL    HW118512   4.343   3.049   0.638
 5871SOL    HW218513   4.304   3.119   0.781
 5872SOL     OW18514   4.319   5.103   0.932
 5872SOL    HW118515   4.389   5.153   0.881
 5872SOL    HW218516   4.240   5.163   0.948
 5873SOL     OW18517   2.375   2.509   1.319
 5873SOL    HW118518   2.283   2.482   1.346
 5873SOL    HW218519   2.371   2.587   1.257
 5874SOL     OW18520   2.911   3.665   0.447
 5874SOL    HW118521   2.842   3.684   0.378
 5874SOL    HW218522   2.915   3.741   0.512
 5875SOL     OW18523   3.994   1.470   0.339
 5875SOL    HW118524   4.031   1.377   0.326
 5875SOL    HW218525   4.009   1.499   0.433
 5876SOL     OW18526   2.950   3.163   6.794
 5876SOL    HW118527   2.982   3.072   6.822
 5876SOL    HW218528   3.021   3.206   6.738
 5877SOL     OW18529   0.562   6.778   0.775
 5877SOL    HW118530   0.602   6.859   0.818
 5877SOL    HW218531   0.522   6.803   0.687
 5878SOL     OW18532   5.310   4.898   3.294
 5878SOL    HW118533   5.288   4.888   3.391
 5878SOL    HW218534   5.410   4.904   3.283
 5879SOL     OW18535   2.053   3.143   5.943
 5879SOL    HW118536   1.959   3.146   5.980
 5879SOL    HW218537   2.050   3.140   5.844
 5880SOL     OW18538   4.609   4.661   6.714
 5880SOL    HW118539   4.622   4.564   6.734
 5880SOL    HW218540   4.688   4.712   6.748
 5881SOL     OW18541   1.135   7.005   1.797
 5881SOL    HW118542   1.182   0.041   1.732
 5881SOL    HW218543   1.037   0.001   1.797
 5882SOL     OW18544   1.178   0.114   6.166
 5882SOL    HW118545   1.168   0.052   6.245
 5882SOL    HW218546   1.098   0.174   6.161
 5883SOL     OW18547   0.838   1.327   0.515
 5883SOL    HW118548   0.788   1.401   0.469
 5883SOL    HW218549   0.852   1.252   0.451
 5884SOL     OW18550   5.256   0.658   5.004
 5884SOL    HW118551   5.220   0.726   4.940
 5884SOL    HW218552   5.181   0.604   5.041
 5885SOL     OW18553   0.141   5.690   2.206
 5885SOL    HW118554   0.216   5.643   2.252
 5885SOL    HW218555   0.055   5.645   2.228
 5886SOL     OW18556   1.267   2.440   4.068
 5886SOL    HW118557   1.315   2.445   4.155
 5886SOL    HW218558   1.226   2.529   4.047
 5887SOL     OW18559   2.682   2.163   2.013
 5887SOL    HW118560   2.687   2.085   1.951
 5887SOL    HW218561   2.770   2.211   2.014
 5888SOL     OW18562   2.040   6.390   1.645
 5888SOL    HW118563   1.987   6.421   1.725
 5888SOL    HW218564   1.977   6.363   1.572
 5889SOL     OW18565   6.302   1.790   6.734
 5889SOL    HW118566   6.213   1.829   6.710
 5889SOL    HW218567   6.319   1.804   6.831
 5890SOL     OW18568   2.144   7.003   3.001
 5890SOL    HW118569   2.067   0.001   3.061
 5890SOL    HW218570   2.223   6.977   3.056
 5891SOL     OW18571   2.276   4.605   0.408
 5891SOL    HW118572   2.344   4.599   0.481
 5891SOL    HW218573   2.316   4.652   0.329
 5892SOL     OW18574   6.793   5.231   2.362
 5892SOL    HW118575   6.801   5.320   2.406
 5892SOL    HW218576   6.883   5.202   2.328
 5893SOL     OW18577   2.548   4.791   1.580
 5893SOL    HW118578   2.597   4.754   1.502
 5893SOL    HW218579   2.614   4.821   1.650
 5894SOL     OW18580   1.216   5.566   5.381
 5894SOL    HW118581   1.220   5.470   5.409
 5894SOL    HW218582   1.141   5.579   5.315
 5895SOL     OW18583   5.828   3.849   3.354
 5895SOL    HW118584   5.772   3.833   3.272
 5895SOL    HW218585   5.854   3.762   3.395
 5896SOL     OW18586   5.202   1.917   0.554
 5896SOL    HW118587   5.232   1.827   0.583
 5896SOL    HW218588   5.265   1.954   0.486
 5897SOL     OW18589   3.819   1.562   1.507
 5897SOL    HW118590   3.830   1.499   1.584
 5897SOL    HW218591   3.747   1.527   1.447
 5898SOL     OW18592   2.201   1.593   5.469
 5898SOL    HW118593   2.122   1.547   5.429
 5898SOL    HW218594   2.171   1.670   5.525
 5899SOL     OW18595   6.550   5.884   6.884
 5899SOL    HW118596   6.650   5.886   6.894
 5899SOL    HW218597   6.518   5.974   6.852
 5900SOL     OW18598   0.173   5.142   2.890
 5900SOL    HW118599   0.247   5.209   2.884
 5900SOL    HW218600   0.210   5.050   2.880
 5901SOL     OW18601   2.514   1.593   0.518
 5901SOL    HW118602   2.487   1.675   0.468
 5901SOL    HW218603   2.600   1.558   0.482
 5902SOL     OW18604   5.319   3.659   5.205
 5902SOL    HW118605   5.355   3.592   5.140
 5902SOL    HW218606   5.396   3.702   5.254
 5903SOL     OW18607   4.550   3.523   6.694
 5903SOL    HW118608   4.637   3.510   6.742
 5903SOL    HW218609   4.567   3.527   6.595
 5904SOL     OW18610   0.791   4.594   1.235
 5904SOL    HW118611   0.697   4.606   1.268
 5904SOL    HW218612   0.836   4.683   1.230
 5905SOL     OW18613   6.025   1.098   4.327
 5905SOL    HW118614   5.994   1.086   4.233
 5905SOL    HW218615   6.080   1.018   4.354
 5906SOL     OW18616   4.753   2.029   5.060
 5906SOL    HW118617   4.712   1.951   5.014
 5906SOL    HW218618   4.807   2.082   4.995
 5907SOL     OW18619   1.595   6.809   0.339
 5907SOL    HW118620   1.694   6.823   0.340
 5907SOL    HW218621   1.575   6.717   0.305
 5908SOL     OW18622   6.448   4.332   6.717
 5908SOL    HW118623   6.424   4.310   6.812
 5908SOL    HW218624   6.507   4.260   6.680
 5909SOL     OW18625   0.002   5.414   6.485
 5909SOL    HW118626   0.010   5.447   6.391
 5909SOL    HW218627   6.936   5.372   6.498
 5910SOL     OW18628   0.554   4.563   0.879
 5910SOL    HW118629   0.600   4.475   0.865
 5910SOL    HW218630   0.481   4.574   0.812
 5911SOL     OW18631   6.745   5.479   6.065
 5911SOL    HW118632   6.753   5.578   6.048
 5911SOL    HW218633   6.808   5.430   6.004
 5912SOL     OW18634   5.831   3.367   6.869
 5912SOL    HW118635   5.768   3.290   6.863
 5912SOL    HW218636   5.830   3.418   6.783
 5913SOL     OW18637   2.824   2.640   6.073
 5913SOL    HW118638   2.748   2.703   6.054
 5913SOL    HW218639   2.836   2.633   6.172
 5914SOL     OW18640   2.485   5.758   6.408
 5914SOL    HW118641   2.493   5.851   6.445
 5914SOL    HW218642   2.400   5.716   6.441
 5915SOL     OW18643   6.539   3.816   1.926
 5915SOL    HW118644   6.526   3.768   1.840
 5915SOL    HW218645   6.599   3.895   1.913
 5916SOL     OW18646   4.577   6.629   5.787
 5916SOL    HW118647   4.478   6.638   5.776
 5916SOL    HW218648   4.620   6.718   5.771
 5917SOL     OW18649   4.117   3.252   4.210
 5917SOL    HW118650   4.085   3.158   4.220
 5917SOL    HW218651   4.124   3.295   4.300
 5918SOL     OW18652   2.380   3.762   5.323
 5918SOL    HW118653   2.302   3.791   5.377
 5918SOL    HW218654   2.405   3.834   5.258
 5919SOL     OW18655   3.006   2.542   0.405
 5919SOL    HW118656   2.992   2.458   0.352
 5919SOL    HW218657   2.971   2.620   0.353
 5920SOL     OW18658   3.428   0.108   0.065
 5920SOL    HW118659   3.471   0.087   0.153
 5920SOL    HW218660   3.359   0.039   0.045
 5921SOL     OW18661   3.796   5.447   5.310
 5921SOL    HW118662   3.854   5.505   5.253
 5921SOL    HW218663   3.716   5.499   5.339
 5922SOL     OW18664   6.140   5.012   4.107
 5922SOL    HW118665   6.131   5.058   4.196
 5922SOL    HW218666   6.211   4.943   4.112
 5923SOL     OW18667   5.469   0.774   2.284
 5923SOL    HW118668   5.501   0.856   2.237
 5923SOL    HW218669   5.431   0.800   2.373
 5924SOL     OW18670   6.185   2.203   5.445
 5924SOL    HW118671   6.096   2.247   5.457
 5924SOL    HW218672   6.255   2.272   5.426
 5925SOL     OW18673   4.070   5.951   3.307
 5925SOL    HW118674   4.145   5.913   3.361
 5925SOL    HW218675   4.031   6.030   3.356
 5926SOL     OW18676   3.816   5.358   2.045
 5926SOL    HW118677   3.914   5.350   2.025
 5926SOL    HW218678   3.792   5.297   2.120
 5927SOL     OW18679   1.674   4.261   3.272
 5927SOL    HW118680   1.665   4.318   3.354
 5927SOL    HW218681   1.770   4.250   3.250
 5928SOL     OW18682   3.263   0.282   1.922
 5928SOL    HW118683   3.301   0.257   2.010
 5928SOL    HW218684   3.336   0.292   1.855
 5929SOL     OW18685   0.630   6.780   5.595
 5929SOL    HW118686   0.718   6.763   5.639
 5929SOL    HW218687   0.644   6.835   5.513
 5930SOL     OW18688   6.604   0.899   3.254
 5930SOL    HW118689   6.700   0.892   3.282
 5930SOL    HW218690   6.545   0.893   3.334
 5931SOL     OW18691   5.495   4.999   2.985
 5931SOL    HW118692   5.519   5.067   2.916
 5931SOL    HW218693   5.395   4.993   2.992
 5932SOL     OW18694   2.550   6.130   0.827
 5932SOL    HW118695   2.457   6.144   0.861
 5932SOL    HW218696   2.558   6.170   0.736
 5933SOL     OW18697   0.062   5.201   3.305
 5933SOL    HW118698   0.029   5.189   3.211
 5933SOL    HW218699   0.089   5.297   3.318
 5934SOL     OW18700   4.101   3.688   4.180
 5934SOL    HW118701   4.035   3.764   4.186
 5934SOL    HW218702   4.098   3.634   4.264
 5935SOL     OW18703   4.112   3.829   4.791
 5935SOL    HW118704   4.032   3.868   4.836
 5935SOL    HW218705   4.190   3.891   4.801
 5936SOL     OW18706   3.881   3.526   0.100
 5936SOL    HW118707   3.916   3.453   0.159
 5936SOL    HW218708   3.909   3.615   0.136
 5937SOL     OW18709   0.724   4.717   2.050
 5937SOL    HW118710   0.738   4.816   2.060
 5937SOL    HW218711   0.627   4.699   2.035
 5938SOL     OW18712   1.384   5.664   3.940
 5938SOL    HW118713   1.397   5.727   3.864
 5938SOL    HW218714   1.292   5.676   3.978
 5939SOL     OW18715   3.230   0.460   3.405
 5939SOL    HW118716   3.195   0.378   3.452
 5939SOL    HW218717   3.154   0.520   3.381
 5940SOL     OW18718   4.275   6.029   2.266
 5940SOL    HW118719   4.228   5.962   2.322
 5940SOL    HW218720   4.325   6.093   2.326
 5941SOL     OW18721   6.593   3.789   2.253
 5941SOL    HW118722   6.649   3.754   2.328
 5941SOL    HW218723   6.635   3.766   2.165
 5942SOL     OW18724   4.727   2.665   6.758
 5942SOL    HW118725   4.759   2.752   6.793
 5942SOL    HW218726   4.627   2.666   6.750
 5943SOL     OW18727   3.985   4.956   0.725
 5943SOL    HW118728   3.896   4.977   0.685
 5943SOL    HW218729   3.980   4.869   0.775
 5944SOL     OW18730   5.302   1.876   1.263
 5944SOL    HW118731   5.283   1.844   1.170
 5944SOL    HW218732   5.228   1.846   1.324
 5945SOL     OW18733   6.817   5.406   5.201
 5945SOL    HW118734   6.803   5.335   5.131
 5945SOL    HW218735   6.732   5.456   5.215
 5946SOL     OW18736   3.461   3.154   5.683
 5946SOL    HW118737   3.474   3.086   5.611
 5946SOL    HW218738   3.550   3.178   5.723
 5947SOL     OW18739   3.939   3.080   1.781
 5947SOL    HW118740   3.916   3.107   1.874
 5947SOL    HW218741   3.992   3.153   1.737
 5948SOL     OW18742   3.681   4.997   3.779
 5948SOL    HW118743   3.659   5.007   3.875
 5948SOL    HW218744   3.777   4.968   3.770
 5949SOL     OW18745   3.587   3.401   1.213
 5949SOL    HW118746   3.660   3.450   1.262
 5949SOL    HW218747   3.621   3.311   1.186
 5950SOL     OW18748   5.571   3.139   5.201
 5950SOL    HW118749   5.525   3.144   5.290
 5950SOL    HW218750   5.504   3.118   5.130
 5951SOL     OW18751   0.857   5.618   4.807
 5951SOL    HW118752   0.858   5.678   4.887
 5951SOL    HW218753   0.774   5.562   4.809
 5952SOL     OW18754   5.549   5.466   3.870
 5952SOL    HW118755   5.613   5.469   3.793
 5952SOL    HW218756   5.465   5.421   3.841
 5953SOL     OW18757   0.163   2.834   5.553
 5953SOL    HW118758   0.109   2.900   5.606
 5953SOL    HW218759   0.260   2.857   5.561
 5954SOL     OW18760   0.087   4.741   5.860
 5954SOL    HW118761   0.111   4.735   5.763
 5954SOL    HW218762   0.032   4.662   5.885
 5955SOL     OW18763   5.320   5.867   2.564
 5955SOL    HW118764   5.405   5.839   2.518
 5955SOL    HW218765   5.277   5.787   2.605
 5956SOL     OW18766   3.678   1.813   0.455
 5956SOL    HW118767   3.673   1.864   0.542
 5956SOL    HW218768   3.585   1.797   0.421
 5957SOL     OW18769   4.665   0.490   5.097
 5957SOL    HW118770   4.736   0.554   5.067
 5957SOL    HW218771   4.592   0.487   5.030
 5958SOL     OW18772   6.236   6.596   3.066
 5958SOL    HW118773   6.168   6.565   2.999
 5958SOL    HW218774   6.215   6.689   3.095
 5959SOL     OW18775   3.764   1.530   5.369
 5959SOL    HW118776   3.667   1.510   5.353
 5959SOL    HW218777   3.772   1.612   5.426
 5960SOL     OW18778   4.085   6.347   4.677
 5960SOL    HW118779   4.119   6.422   4.734
 5960SOL    HW218780   4.074   6.265   4.733
 5961SOL     OW18781   4.841   0.832   4.072
 5961SOL    HW118782   4.861   0.781   3.988
 5961SOL    HW218783   4.750   0.808   4.105
 5962SOL     OW18784   5.076   5.766   2.170
 5962SOL    HW118785   5.036   5.761   2.262
 5962SOL    HW218786   5.123   5.681   2.150
 5963SOL     OW18787   3.241   2.914   5.291
 5963SOL    HW118788   3.339   2.931   5.303
 5963SOL    HW218789   3.214   2.835   5.346
 5964SOL     OW18790   0.554   5.227   5.683
 5964SOL    HW118791   0.529   5.164   5.609
 5964SOL    HW218792   0.505   5.201   5.766
 5965SOL     OW18793   1.708   2.047   6.103
 5965SOL    HW118794   1.658   2.063   6.188
 5965SOL    HW218795   1.646   2.053   6.025
 5966SOL     OW18796   3.266   5.622   5.040
 5966SOL    HW118797   3.184   5.664   5.003
 5966SOL    HW218798   3.304   5.680   5.112
 5967SOL     OW18799   4.164   6.382   1.242
 5967SOL    HW118800   4.221   6.310   1.282
 5967SOL    HW218801   4.069   6.352   1.241
 5968SOL     OW18802   5.062   1.118   2.752
 5968SOL    HW118803   4.966   1.142   2.741
 5968SOL    HW218804   5.120   1.193   2.720
 5969SOL     OW18805   6.731   1.217   5.854
 5969SOL    HW118806   6.747   1.188   5.759
 5969SOL    HW218807   6.674   1.149   5.900
 5970SOL     OW18808   0.424   4.697   2.419
 5970SOL    HW118809   0.347   4.711   2.482
 5970SOL    HW218810   0.504   4.748   2.453
 5971SOL     OW18811   2.158   0.692   3.099
 5971SOL    HW118812   2.206   0.757   3.040
 5971SOL    HW218813   2.221   0.657   3.169
 5972SOL     OW18814   5.065   6.428   0.457
 5972SOL    HW118815   4.998   6.469   0.395
 5972SOL    HW218816   5.099   6.343   0.419
 5973SOL     OW18817   1.963   5.143   2.489
 5973SOL    HW118818   2.044   5.158   2.433
 5973SOL    HW218819   1.900   5.220   2.478
 5974SOL     OW18820   5.516   4.791   6.504
 5974SOL    HW118821   5.483   4.699   6.485
 5974SOL    HW218822   5.615   4.794   6.495
 5975SOL     OW18823   3.154   2.240   0.517
 5975SOL    HW118824   3.132   2.219   0.612
 5975SOL    HW218825   3.074   2.281   0.472
 5976SOL     OW18826   2.961   3.852   4.602
 5976SOL    HW118827   2.864   3.833   4.616
 5976SOL    HW218828   3.014   3.811   4.676
 5977SOL     OW18829   1.847   5.180   1.660
 5977SOL    HW118830   1.885   5.098   1.703
 5977SOL    HW218831   1.784   5.153   1.587
 5978SOL     OW18832   4.969   5.055   3.369
 5978SOL    HW118833   4.995   5.063   3.273
 5978SOL    HW218834   4.970   4.958   3.395
 5979SOL     OW18835   6.288   0.222   3.057
 5979SOL    HW118836   6.323   0.316   3.054
 5979SOL    HW218837   6.364   0.158   3.042
 5980SOL     OW18838   3.946   3.812   0.101
 5980SOL    HW118839   3.891   3.794   0.019
 5980SOL    HW218840   3.886   3.813   0.181
 5981SOL     OW18841   6.349   0.622   2.208
 5981SOL    HW118842   6.436   0.579   2.183
 5981SOL    HW218843   6.279   0.551   2.220
 5982SOL     OW18844   6.580   2.580   0.277
 5982SOL    HW118845   6.577   2.619   0.185
 5982SOL    HW218846   6.566   2.653   0.344
 5983SOL     OW18847   2.112   1.592   4.823
 5983SOL    HW118848   2.092   1.599   4.726
 5983SOL    HW218849   2.026   1.599   4.875
 5984SOL     OW18850   6.734   6.850   5.037
 5984SOL    HW118851   6.715   6.941   5.073
 5984SOL    HW218852   6.717   6.848   4.938
 5985SOL     OW18853   5.614   3.168   4.018
 5985SOL    HW118854   5.628   3.091   3.955
 5985SOL    HW218855   5.689   3.171   4.084
 5986SOL     OW18856   2.896   3.396   3.330
 5986SOL    HW118857   2.977   3.337   3.334
 5986SOL    HW218858   2.865   3.405   3.236
 5987SOL     OW18859   4.050   1.361   4.571
 5987SOL    HW118860   4.046   1.295   4.646
 5987SOL    HW218861   4.139   1.407   4.572
 5988SOL     OW18862   4.620   6.218   5.227
 5988SOL    HW118863   4.672   6.235   5.143
 5988SOL    HW218864   4.656   6.275   5.300
 5989SOL     OW18865   2.946   5.875   6.630
 5989SOL    HW118866   3.033   5.922   6.646
 5989SOL    HW218867   2.882   5.898   6.703
 5990SOL     OW18868   3.585   4.257   0.747
 5990SOL    HW118869   3.602   4.352   0.718
 5990SOL    HW218870   3.578   4.199   0.666
 5991SOL     OW18871   4.435   5.147   5.291
 5991SOL    HW118872   4.383   5.213   5.236
 5991SOL    HW218873   4.532   5.156   5.270
 5992SOL     OW18874   3.679   1.058   3.786
 5992SOL    HW118875   3.681   0.971   3.735
 5992SOL    HW218876   3.769   1.076   3.826
 5993SOL     OW18877   3.481   6.705   6.233
 5993SOL    HW118878   3.529   6.692   6.320
 5993SOL    HW218879   3.517   6.787   6.188
 5994SOL     OW18880   6.378   1.564   1.811
 5994SOL    HW118881   6.426   1.518   1.886
 5994SOL    HW218882   6.288   1.522   1.798
 5995SOL     OW18883   6.277   4.043   2.519
 5995SOL    HW118884   6.323   4.131   2.526
 5995SOL    HW218885   6.257   4.008   2.611
 5996SOL     OW18886   0.869   5.709   0.567
 5996SOL    HW118887   0.875   5.674   0.660
 5996SOL    HW218888   0.856   5.808   0.569
 5997SOL     OW18889   0.681   6.700   2.487
 5997SOL    HW118890   0.752   6.687   2.556
 5997SOL    HW218891   0.713   6.666   2.399
 5998SOL     OW18892   5.651   2.842   1.834
 5998SOL    HW118893   5.698   2.865   1.749
 5998SOL    HW218894   5.705   2.877   1.912
 5999SOL     OW18895   1.000   2.008   2.327
 5999SOL    HW118896   0.911   2.034   2.364
 5999SOL    HW218897   0.999   2.017   2.228
 6000SOL     OW18898   3.927   6.668   1.658
 6000SOL    HW118899   3.892   6.596   1.718
 6000SOL    HW218900   3.947   6.630   1.568
 6001SOL     OW18901   0.542   3.802   6.109
 6001SOL    HW118902   0.463   3.771   6.057
 6001SOL    HW218903   0.613   3.834   6.047
 6002SOL     OW18904   0.265   6.895   1.137
 6002SOL    HW118905   0.183   6.950   1.126
 6002SOL    HW218906   0.307   6.880   1.048
 6003SOL     OW18907   6.515   1.952   4.538
 6003SOL    HW118908   6.556   1.960   4.447
 6003SOL    HW218909   6.521   2.040   4.585
 6004SOL     OW18910   6.852   4.722   2.962
 6004SOL    HW118911   6.784   4.659   2.926
 6004SOL    HW218912   6.905   4.761   2.887
 6005SOL     OW18913   4.633   4.882   4.840
 6005SOL    HW118914   4.624   4.972   4.884
 6005SOL    HW218915   4.706   4.831   4.883
 6006SOL     OW18916   3.172   6.966   6.972
 6006SOL    HW118917   3.205   6.873   6.957
 6006SOL    HW218918   3.165   7.014   6.885
 6007SOL     OW18919   5.001   3.600   4.370
 6007SOL    HW118920   5.061   3.568   4.297
 6007SOL    HW218921   5.044   3.581   4.459
 6008SOL     OW18922   1.873   5.547   6.392
 6008SOL    HW118923   1.868   5.577   6.487
 6008SOL    HW218924   1.966   5.517   6.371
 6009SOL     OW18925   2.989   0.926   4.537
 6009SOL    HW118926   3.087   0.943   4.546
 6009SOL    HW218927   2.941   1.013   4.525
 6010SOL     OW18928   1.387   4.006   2.251
 6010SOL    HW118929   1.470   4.044   2.292
 6010SOL    HW218930   1.397   3.907   2.240
 6011SOL     OW18931   4.395   2.411   2.580
 6011SOL    HW118932   4.322   2.343   2.568
 6011SOL    HW218933   4.447   2.419   2.495
 6012SOL     OW18934   6.395   1.735   0.617
 6012SOL    HW118935   6.375   1.700   0.708
 6012SOL    HW218936   6.349   1.823   0.604
 6013SOL     OW18937   5.039   1.849   3.059
 6013SOL    HW118938   4.943   1.825   3.075
 6013SOL    HW218939   5.091   1.766   3.038
 6014SOL     OW18940   4.263   1.814   0.565
 6014SOL    HW118941   4.356   1.779   0.554
 6014SOL    HW218942   4.249   1.842   0.660
 6015SOL     OW18943   5.754   2.046   5.968
 6015SOL    HW118944   5.807   2.053   6.053
 6015SOL    HW218945   5.788   2.111   5.901
 6016SOL     OW18946   7.022   1.075   6.828
 6016SOL    HW118947   6.933   1.098   6.868
 6016SOL    HW218948   7.023   1.102   6.731
 6017SOL     OW18949   6.469   4.651   2.491
 6017SOL    HW118950   6.423   4.564   2.477
 6017SOL    HW218951   6.482   4.668   2.589
 6018SOL     OW18952   3.505   1.862   0.083
 6018SOL    HW118953   3.588   1.817   0.050
 6018SOL    HW218954   3.517   1.887   0.179
 6019SOL     OW18955   5.454   1.654   4.395
 6019SOL    HW118956   5.449   1.701   4.307
 6019SOL    HW218957   5.542   1.607   4.403
 6020SOL     OW18958   1.631   6.384   2.008
 6020SOL    HW118959   1.646   6.291   1.974
 6020SOL    HW218960   1.588   6.439   1.937
 6021SOL     OW18961   3.863   0.478   2.417
 6021SOL    HW118962   3.828   0.433   2.335
 6021SOL    HW218963   3.900   0.567   2.393
 6022SOL     OW18964   4.467   0.757   4.677
 6022SOL    HW118965   4.515   0.844   4.685
 6022SOL    HW218966   4.386   0.769   4.619
 6023SOL     OW18967   6.235   1.448   2.672
 6023SOL    HW118968   6.162   1.496   2.720
 6023SOL    HW218969   6.197   1.397   2.595
 6024SOL     OW18970   0.298   4.236   2.941
 6024SOL    HW118971   0.364   4.168   2.973
 6024SOL    HW218972   0.304   4.244   2.842
 6025SOL     OW18973   3.545   0.870   2.131
 6025SOL    HW118974   3.525   0.967   2.117
 6025SOL    HW218975   3.512   0.818   2.052
 6026SOL     OW18976   0.007   3.803   3.855
 6026SOL    HW118977   0.039   3.891   3.890
 6026SOL    HW218978   0.073   3.732   3.876
 6027SOL     OW18979   2.010   4.255   5.480
 6027SOL    HW118980   2.021   4.246   5.579
 6027SOL    HW218981   2.096   4.231   5.435
 6028SOL     OW18982   0.999   3.652   0.353
 6028SOL    HW118983   1.017   3.745   0.384
 6028SOL    HW218984   1.080   3.596   0.366
 6029SOL     OW18985   2.331   6.050   5.840
 6029SOL    HW118986   2.341   6.146   5.868
 6029SOL    HW218987   2.410   5.998   5.871
 6030SOL     OW18988   3.617   6.746   2.748
 6030SOL    HW118989   3.688   6.764   2.815
 6030SOL    HW218990   3.554   6.824   2.744
 6031SOL     OW18991   4.025   4.809   4.182
 6031SOL    HW118992   3.972   4.724   4.193
 6031SOL    HW218993   4.104   4.791   4.123
 6032SOL     OW18994   1.669   3.444   2.967
 6032SOL    HW118995   1.581   3.475   3.003
 6032SOL    HW218996   1.743   3.478   3.025
 6033SOL     OW18997   2.606   2.238   2.462
 6033SOL    HW118998   2.706   2.231   2.456
 6033SOL    HW218999   2.580   2.333   2.481
 6034SOL     OW19000   1.702   6.065   4.923
 6034SOL    HW119001   1.680   6.040   5.018
 6034SOL    HW219002   1.650   6.147   4.897
 6035SOL     OW19003   6.031   1.004   3.605
 6035SOL    HW119004   6.126   1.033   3.615
 6035SOL    HW219005   5.989   0.997   3.695
 6036SOL     OW19006   0.183   6.093   4.173
 6036SOL    HW119007   0.280   6.113   4.155
 6036SOL    HW219008   0.129   6.176   4.157
 6037SOL     OW19009   4.161   4.649   6.523
 6037SOL    HW119010   4.261   4.654   6.510
 6037SOL    HW219011   4.138   4.679   6.615
 6038SOL     OW19012   1.149   3.521   6.199
 6038SOL    HW119013   1.060   3.565   6.185
 6038SOL    HW219014   1.175   3.530   6.296
 6039SOL     OW19015   3.194   2.985   2.829
 6039SOL    HW119016   3.233   3.004   2.919
 6039SOL    HW219017   3.097   3.007   2.829
 6040SOL     OW19018   0.484   1.793   6.716
 6040SOL    HW119019   0.391   1.768   6.743
 6040SOL    HW219020   0.493   1.892   6.716
 6041SOL     OW19021   2.458   1.559   5.426
 6041SOL    HW119022   2.441   1.466   5.393
 6041SOL    HW219023   2.374   1.595   5.467
 6042SOL     OW19024   5.058   5.247   1.911
 6042SOL    HW119025   5.057   5.326   1.850
 6042SOL    HW219026   5.057   5.163   1.856
 6043SOL     OW19027   1.091   4.935   5.097
 6043SOL    HW119028   1.080   4.848   5.146
 6043SOL    HW219029   1.098   4.917   4.999
 6044SOL     OW19030   1.027   2.219   0.908
 6044SOL    HW119031   1.045   2.285   0.835
 6044SOL    HW219032   1.016   2.268   0.995
 6045SOL     OW19033   5.759   6.147   1.181
 6045SOL    HW119034   5.698   6.205   1.236
 6045SOL    HW219035   5.765   6.056   1.224
 6046SOL     OW19036   2.896   1.921   0.792
 6046SOL    HW119037   2.807   1.908   0.837
 6046SOL    HW219038   2.933   1.832   0.766
 6047SOL     OW19039   6.516   1.208   2.347
 6047SOL    HW119040   6.493   1.136   2.281
 6047SOL    HW219041   6.486   1.297   2.312
 6048SOL     OW19042   4.737   6.412   3.809
 6048SOL    HW119043   4.664   6.345   3.822
 6048SOL    HW219044   4.707   6.482   3.744
 6049SOL     OW19045   5.247   4.170   5.505
 6049SOL    HW119046   5.271   4.145   5.599
 6049SOL    HW219047   5.163   4.224   5.505
 6050SOL     OW19048   3.171   4.316   5.680
 6050SOL    HW119049   3.260   4.341   5.641
 6050SOL    HW219050   3.126   4.250   5.619
 6051SOL     OW19051   2.695   1.649   3.744
 6051SOL    HW119052   2.695   1.584   3.668
 6051SOL    HW219053   2.759   1.618   3.814
 6052SOL     OW19054   6.585   6.564   0.293
 6052SOL    HW119055   6.574   6.468   0.320
 6052SOL    HW219056   6.538   6.622   0.359
 6053SOL     OW19057   3.606   1.007   7.009
 6053SOL    HW119058   3.671   1.082   6.996
 6053SOL    HW219059   3.599   0.955   6.924
 6054SOL     OW19060   2.684   4.343   0.451
 6054SOL    HW119061   2.713   4.316   0.359
 6054SOL    HW219062   2.674   4.262   0.508
 6055SOL     OW19063   5.488   1.401   5.836
 6055SOL    HW119064   5.472   1.333   5.764
 6055SOL    HW219065   5.449   1.489   5.808
 6056SOL     OW19066   5.357   3.123   5.026
 6056SOL    HW119067   5.307   3.098   5.109
 6056SOL    HW219068   5.382   3.040   4.976
 6057SOL     OW19069   5.415   2.765   4.534
 6057SOL    HW119070   5.322   2.787   4.562
 6057SOL    HW219071   5.441   2.822   4.456
 6058SOL     OW19072   5.166   2.642   2.500
 6058SOL    HW119073   5.193   2.658   2.405
 6058SOL    HW219074   5.067   2.627   2.506
 6059SOL     OW19075   4.716   6.032   5.504
 6059SOL    HW119076   4.730   6.035   5.406
 6059SOL    HW219077   4.786   5.972   5.546
 6060SOL     OW19078   2.809   4.163   6.081
 6060SOL    HW119079   2.849   4.078   6.117
 6060SOL    HW219080   2.879   4.213   6.030
 6061SOL     OW19081   4.347   2.464   6.931
 6061SOL    HW119082   4.304   2.503   7.012
 6061SOL    HW219083   4.394   2.537   6.880
 6062SOL     OW19084   2.257   0.519   4.467
 6062SOL    HW119085   2.348   0.501   4.430
 6062SOL    HW219086   2.207   0.578   4.404
 6063SOL     OW19087   3.974   1.425   6.770
 6063SOL    HW119088   3.914   1.472   6.835
 6063SOL    HW219089   4.031   1.359   6.818
 6064SOL     OW19090   2.697   6.091   2.311
 6064SOL    HW119091   2.761   6.157   2.271
 6064SOL    HW219092   2.604   6.111   2.280
 6065SOL     OW19093   5.642   0.331   2.451
 6065SOL    HW119094   5.742   0.336   2.442
 6065SOL    HW219095   5.618   0.257   2.513
 6066SOL     OW19096   4.537   1.697   0.415
 6066SOL    HW119097   4.551   1.680   0.318
 6066SOL    HW219098   4.480   1.624   0.454
 6067SOL     OW19099   5.516   2.408   6.550
 6067SOL    HW119100   5.443   2.372   6.609
 6067SOL    HW219101   5.604   2.398   6.596
 6068SOL     OW19102   5.847   2.624   4.619
 6068SOL    HW119103   5.837   2.704   4.677
 6068SOL    HW219104   5.843   2.652   4.523
 6069SOL     OW19105   0.375   3.612   5.316
 6069SOL    HW119106   0.370   3.517   5.347
 6069SOL    HW219107   0.388   3.672   5.395
 6070SOL     OW19108   2.130   1.587   5.953
 6070SOL    HW119109   2.192   1.656   5.992
 6070SOL    HW219110   2.133   1.505   6.011
 6071SOL     OW19111   4.894   5.706   4.841
 6071SOL    HW119112   4.818   5.715   4.905
 6071SOL    HW219113   4.897   5.612   4.806
 6072SOL     OW19114   0.277   0.582   1.925
 6072SOL    HW119115   0.210   0.629   1.869
 6072SOL    HW219116   0.268   0.613   2.020
 6073SOL     OW19117   6.733   4.113   0.494
 6073SOL    HW119118   6.813   4.097   0.552
 6073SOL    HW219119   6.651   4.082   0.542
 6074SOL     OW19120   0.919   6.666   4.384
 6074SOL    HW119121   0.977   6.694   4.307
 6074SOL    HW219122   0.960   6.586   4.429
 6075SOL     OW19123   0.270   2.126   6.597
 6075SOL    HW119124   0.258   2.226   6.598
 6075SOL    HW219125   0.352   2.102   6.648
 6076SOL     OW19126   2.606   5.838   5.236
 6076SOL    HW119127   2.701   5.822   5.210
 6076SOL    HW219128   2.568   5.911   5.179
 6077SOL     OW19129   4.897   5.668   1.979
 6077SOL    HW119130   4.945   5.684   1.893
 6077SOL    HW219131   4.949   5.709   2.055
 6078SOL     OW19132   3.937   4.827   1.975
 6078SOL    HW119133   3.837   4.834   1.970
 6078SOL    HW219134   3.971   4.776   1.896
 6079SOL     OW19135   3.043   3.571   5.895
 6079SOL    HW119136   3.057   3.616   5.807
 6079SOL    HW219137   3.029   3.473   5.881
 6080SOL     OW19138   0.267   1.510   2.146
 6080SOL    HW119139   0.233   1.420   2.122
 6080SOL    HW219140   0.242   1.532   2.241
 6081SOL     OW19141   6.182   3.589   4.730
 6081SOL    HW119142   6.162   3.665   4.792
 6081SOL    HW219143   6.270   3.548   4.756
 6082SOL     OW19144   3.499   1.679   3.729
 6082SOL    HW119145   3.596   1.662   3.744
 6082SOL    HW219146   3.463   1.734   3.805
 6083SOL     OW19147   0.576   6.081   6.233
 6083SOL    HW119148   0.600   6.133   6.315
 6083SOL    HW219149   0.572   5.983   6.255
 6084SOL     OW19150   0.300   5.642   3.862
 6084SOL    HW119151   0.359   5.721   3.878
 6084SOL    HW219152   0.224   5.644   3.926
 6085SOL     OW19153   6.998   4.527   0.160
 6085SOL    HW119154   6.910   4.513   0.114
 6085SOL    HW219155   7.000   4.473   0.245
 6086SOL     OW19156   2.942   1.392   5.401
 6086SOL    HW119157   2.936   1.472   5.460
 6086SOL    HW219158   2.851   1.353   5.388
 6087SOL     OW19159   5.056   6.369   6.397
 6087SOL    HW119160   4.987   6.423   6.348
 6087SOL    HW219161   5.120   6.431   6.443
 6088SOL     OW19162   6.413   5.892   4.519
 6088SOL    HW119163   6.486   5.903   4.451
 6088SOL    HW219164   6.411   5.797   4.550
 6089SOL     OW19165   0.607   3.439   1.170
 6089SOL    HW119166   0.620   3.351   1.217
 6089SOL    HW219167   0.679   3.503   1.197
 6090SOL     OW19168   1.516   6.389   6.075
 6090SOL    HW119169   1.589   6.446   6.038
 6090SOL    HW219170   1.447   6.447   6.118
 6091SOL     OW19171   1.384   1.859   2.642
 6091SOL    HW119172   1.479   1.841   2.617
 6091SOL    HW219173   1.331   1.878   2.559
 6092SOL     OW19174   2.988   0.172   3.155
 6092SOL    HW119175   2.892   0.171   3.125
 6092SOL    HW219176   3.005   0.094   3.215
 6093SOL     OW19177   1.178   2.440   2.932
 6093SOL    HW119178   1.202   2.401   2.843
 6093SOL    HW219179   1.129   2.525   2.919
 6094SOL     OW19180   3.789   1.084   0.732
 6094SOL    HW119181   3.827   1.005   0.780
 6094SOL    HW219182   3.692   1.070   0.715
 6095SOL     OW19183   5.069   2.675   6.448
 6095SOL    HW119184   5.023   2.656   6.534
 6095SOL    HW219185   5.086   2.590   6.399
 6096SOL     OW19186   5.924   0.385   4.143
 6096SOL    HW119187   5.898   0.290   4.163
 6096SOL    HW219188   5.913   0.402   4.045
 6097SOL     OW19189   1.460   0.420   2.159
 6097SOL    HW119190   1.493   0.326   2.167
 6097SOL    HW219191   1.437   0.439   2.063
 6098SOL     OW19192   1.328   2.384   5.948
 6098SOL    HW119193   1.412   2.437   5.956
 6098SOL    HW219194   1.264   2.411   6.020
 6099SOL     OW19195   6.427   6.012   0.087
 6099SOL    HW119196   6.474   5.939   0.039
 6099SOL    HW219197   6.339   6.030   0.043
 6100SOL     OW19198   5.831   2.775   6.687
 6100SOL    HW119199   5.834   2.727   6.774
 6100SOL    HW219200   5.917   2.761   6.638
 6101SOL     OW19201   6.405   1.773   5.326
 6101SOL    HW119202   6.385   1.861   5.368
 6101SOL    HW219203   6.333   1.707   5.350
 6102SOL     OW19204   4.214   0.991   3.866
 6102SOL    HW119205   4.251   1.044   3.790
 6102SOL    HW219206   4.124   0.954   3.841
 6103SOL     OW19207   0.144   1.100   3.490
 6103SOL    HW119208   0.184   1.188   3.464
 6103SOL    HW219209   0.045   1.111   3.504
 6104SOL     OW19210   6.621   2.743   6.075
 6104SOL    HW119211   6.670   2.726   5.989
 6104SOL    HW219212   6.600   2.655   6.119
 6105SOL     OW19213   2.946   6.828   6.268
 6105SOL    HW119214   2.943   6.893   6.345
 6105SOL    HW219215   2.881   6.858   6.198
 6106SOL     OW19216   1.363   4.690   5.677
 6106SOL    HW119217   1.372   4.733   5.767
 6106SOL    HW219218   1.316   4.753   5.615
 6107SOL     OW19219   2.574   5.277   4.403
 6107SOL    HW119220   2.498   5.228   4.445
 6107SOL    HW219221   2.591   5.363   4.452
 6108SOL     OW19222   0.365   2.405   3.259
 6108SOL    HW119223   0.391   2.309   3.261
 6108SOL    HW219224   0.415   2.452   3.186
 6109SOL     OW19225   5.525   3.072   6.548
 6109SOL    HW119226   5.558   2.986   6.511
 6109SOL    HW219227   5.511   3.063   6.646
 6110SOL     OW19228   3.509   3.338   0.023
 6110SOL    HW119229   3.530   3.320   6.951
 6110SOL    HW219230   3.561   3.418   0.054
 6111SOL     OW19231   1.924   4.803   2.484
 6111SOL    HW119232   1.986   4.798   2.406
 6111SOL    HW219233   1.864   4.723   2.484
 6112SOL     OW19234   3.342   1.261   3.063
 6112SOL    HW119235   3.407   1.318   3.112
 6112SOL    HW219236   3.260   1.247   3.119
 6113SOL     OW19237   0.086   0.656   5.735
 6113SOL    HW119238   0.096   0.557   5.749
 6113SOL    HW219239   0.175   0.695   5.712
 6114SOL     OW19240   4.976   4.591   1.109
 6114SOL    HW119241   4.905   4.523   1.131
 6114SOL    HW219242   5.010   4.575   1.017
 6115SOL     OW19243   5.490   5.931   2.815
 6115SOL    HW119244   5.430   5.916   2.737
 6115SOL    HW219245   5.529   6.023   2.810
 6116SOL     OW19246   2.880   1.272   1.298
 6116SOL    HW119247   2.833   1.311   1.219
 6116SOL    HW219248   2.834   1.302   1.382
 6117SOL     OW19249   0.288   0.342   5.580
 6117SOL    HW119250   0.268   0.391   5.496
 6117SOL    HW219251   0.240   0.385   5.657
 6118SOL     OW19252   6.808   1.236   1.791
 6118SOL    HW119253   6.786   1.141   1.770
 6118SOL    HW219254   6.816   1.247   1.890
 6119SOL     OW19255   0.705   3.423   3.837
 6119SOL    HW119256   0.618   3.388   3.873
 6119SOL    HW219257   0.749   3.480   3.906
 6120SOL     OW19258   3.721   6.882   3.426
 6120SOL    HW119259   3.678   6.969   3.449
 6120SOL    HW219260   3.670   6.807   3.468
 6121SOL     OW19261   0.198   2.741   4.138
 6121SOL    HW119262   0.190   2.763   4.235
 6121SOL    HW219263   0.255   2.659   4.128
 6122SOL     OW19264   3.243   6.568   1.711
 6122SOL    HW119265   3.211   6.552   1.618
 6122SOL    HW219266   3.165   6.579   1.772
 6123SOL     OW19267   6.513   0.472   0.230
 6123SOL    HW119268   6.568   0.553   0.252
 6123SOL    HW219269   6.551   0.427   0.149
 6124SOL     OW19270   3.492   0.469   5.626
 6124SOL    HW119271   3.491   0.409   5.547
 6124SOL    HW219272   3.481   0.415   5.709
 6125SOL     OW19273   2.618   5.900   1.112
 6125SOL    HW119274   2.524   5.885   1.079
 6125SOL    HW219275   2.681   5.898   1.034
 6126SOL     OW19276   6.038   6.503   4.457
 6126SOL    HW119277   6.109   6.436   4.477
 6126SOL    HW219278   6.001   6.487   4.366
 6127SOL     OW19279   2.126   6.965   2.208
 6127SOL    HW119280   2.205   6.998   2.258
 6127SOL    HW219281   2.044   7.015   2.239
 6128SOL     OW19282   6.688   3.627   0.663
 6128SOL    HW119283   6.597   3.664   0.681
 6128SOL    HW219284   6.689   3.586   0.572
 6129SOL     OW19285   5.987   4.566   3.426
 6129SOL    HW119286   5.965   4.611   3.512
 6129SOL    HW219287   5.930   4.486   3.413
 6130SOL     OW19288   5.824   1.961   3.938
 6130SOL    HW119289   5.733   1.920   3.928
 6130SOL    HW219290   5.891   1.888   3.956
 6131SOL     OW19291   6.894   1.451   5.642
 6131SOL    HW119292   6.974   1.511   5.632
 6131SOL    HW219293   6.922   1.364   5.683
 6132SOL     OW19294   4.675   1.060   0.655
 6132SOL    HW119295   4.584   1.065   0.612
 6132SOL    HW219296   4.678   0.980   0.716
 6133SOL     OW19297   1.025   3.021   2.669
 6133SOL    HW119298   0.976   3.082   2.732
 6133SOL    HW219299   1.003   2.926   2.690
 6134SOL     OW19300   3.322   4.240   6.999
 6134SOL    HW119301   3.362   4.206   0.060
 6134SOL    HW219302   3.340   4.176   6.925
 6135SOL     OW19303   0.024   6.617   2.124
 6135SOL    HW119304   7.002   6.545   2.176
 6135SOL    HW219305   0.070   6.680   2.186
 6136SOL     OW19306   0.673   2.169   1.933
 6136SOL    HW119307   0.668   2.255   1.882
 6136SOL    HW219308   0.711   2.097   1.875
 6137SOL     OW19309   4.519   1.468   5.253
 6137SOL    HW119310   4.435   1.423   5.222
 6137SOL    HW219311   4.516   1.479   5.352
 6138SOL     OW19312   3.920   6.476   2.800
 6138SOL    HW119313   3.870   6.393   2.824
 6138SOL    HW219314   3.887   6.512   2.713
 6139SOL     OW19315   2.156   3.233   4.598
 6139SOL    HW119316   2.110   3.270   4.679
 6139SOL    HW219317   2.170   3.135   4.608
 6140SOL     OW19318   0.583   6.429   1.541
 6140SOL    HW119319   0.514   6.425   1.467
 6140SOL    HW219320   0.653   6.359   1.524
 6141SOL     OW19321   6.139   6.437   5.344
 6141SOL    HW119322   6.199   6.427   5.265
 6141SOL    HW219323   6.044   6.421   5.317
 6142SOL     OW19324   6.979   5.233   0.919
 6142SOL    HW119325   6.923   5.302   0.873
 6142SOL    HW219326   7.003   5.265   1.010
 6143SOL     OW19327   6.270   4.887   6.905
 6143SOL    HW119328   6.231   4.838   6.827
 6143SOL    HW219329   6.336   4.828   6.952
 6144SOL     OW19330   6.321   4.867   2.350
 6144SOL    HW119331   6.362   4.890   2.262
 6144SOL    HW219332   6.392   4.829   2.410
 6145SOL     OW19333   4.762   6.164   4.115
 6145SOL    HW119334   4.833   6.094   4.115
 6145SOL    HW219335   4.708   6.158   4.032
 6146SOL     OW19336   3.775   1.293   3.651
 6146SOL    HW119337   3.678   1.301   3.673
 6146SOL    HW219338   3.829   1.302   3.735
 6147SOL     OW19339   1.697   4.190   4.035
 6147SOL    HW119340   1.680   4.123   4.107
 6147SOL    HW219341   1.789   4.178   3.999
 6148SOL     OW19342   6.957   0.294   4.864
 6148SOL    HW119343   6.965   0.386   4.903
 6148SOL    HW219344   0.017   0.271   4.814
 6149SOL     OW19345   3.583   4.886   3.114
 6149SOL    HW119346   3.603   4.917   3.021
 6149SOL    HW219347   3.566   4.788   3.114
 6150SOL     OW19348   4.064   5.054   6.824
 6150SOL    HW119349   4.153   5.009   6.822
 6150SOL    HW219350   4.010   5.024   6.745
 6151SOL     OW19351   6.094   4.037   4.492
 6151SOL    HW119352   6.007   4.081   4.469
 6151SOL    HW219353   6.103   3.953   4.438
 6152SOL     OW19354   5.791   5.086   5.298
 6152SOL    HW119355   5.856   5.157   5.325
 6152SOL    HW219356   5.744   5.050   5.379
 6153SOL     OW19357   4.408   3.839   1.643
 6153SOL    HW119358   4.335   3.834   1.711
 6153SOL    HW219359   4.483   3.779   1.671
 6154SOL     OW19360   5.121   1.572   2.364
 6154SOL    HW119361   5.059   1.620   2.301
 6154SOL    HW219362   5.078   1.488   2.396
 6155SOL     OW19363   1.628   2.343   4.428
 6155SOL    HW119364   1.580   2.311   4.346
 6155SOL    HW219365   1.588   2.429   4.459
 6156SOL     OW19366   4.558   5.015   2.596
 6156SOL    HW119367   4.554   4.940   2.530
 6156SOL    HW219368   4.476   5.013   2.653
 6157SOL     OW19369   1.039   1.450   3.930
 6157SOL    HW119370   1.011   1.477   4.022
 6157SOL    HW219371   1.107   1.515   3.895
 6158SOL     OW19372   4.327   0.855   6.371
 6158SOL    HW119373   4.284   0.868   6.281
 6158SOL    HW219374   4.426   0.865   6.362
 6159SOL     OW19375   4.501   2.416   0.426
 6159SOL    HW119376   4.595   2.403   0.392
 6159SOL    HW219377   4.444   2.342   0.391
 6160SOL     OW19378   5.726   6.010   0.596
 6160SOL    HW119379   5.677   6.042   0.515
 6160SOL    HW219380   5.823   5.996   0.573
 6161SOL     OW19381   6.249   1.984   6.066
 6161SOL    HW119382   6.197   1.953   6.146
 6161SOL    HW219383   6.323   1.919   6.047
 6162SOL     OW19384   0.871   5.488   4.222
 6162SOL    HW119385   0.839   5.550   4.151
 6162SOL    HW219386   0.897   5.540   4.303
 6163SOL     OW19387   5.121   5.993   1.615
 6163SOL    HW119388   5.052   6.056   1.649
 6163SOL    HW219389   5.095   5.960   1.524
 6164SOL     OW19390   1.835   3.470   1.739
 6164SOL    HW119391   1.906   3.429   1.796
 6164SOL    HW219392   1.827   3.568   1.761
 6165SOL     OW19393   3.764   0.134   6.358
 6165SOL    HW119394   3.841   0.117   6.418
 6165SOL    HW219395   3.781   0.218   6.305
 6166SOL     OW19396   3.853   0.776   5.301
 6166SOL    HW119397   3.854   0.807   5.396
 6166SOL    HW219398   3.941   0.795   5.259
 6167SOL     OW19399   6.875   4.453   2.181
 6167SOL    HW119400   6.834   4.368   2.213
 6167SOL    HW219401   6.806   4.525   2.179
 6168SOL     OW19402   0.322   3.949   0.917
 6168SOL    HW119403   0.304   4.025   0.980
 6168SOL    HW219404   0.235   3.907   0.891
 6169SOL     OW19405   0.805   3.504   2.644
 6169SOL    HW119406   0.842   3.475   2.556
 6169SOL    HW219407   0.767   3.596   2.635
 6170SOL     OW19408   0.562   3.507   4.941
 6170SOL    HW119409   0.605   3.531   4.854
 6170SOL    HW219410   0.574   3.583   5.006
 6171SOL     OW19411   0.537   1.372   0.239
 6171SOL    HW119412   0.490   1.328   0.316
 6171SOL    HW219413   0.576   1.302   0.179
 6172SOL     OW19414   1.444   2.995   2.724
 6172SOL    HW119415   1.403   2.924   2.666
 6172SOL    HW219416   1.476   2.953   2.809
 6173SOL     OW19417   6.468   5.609   3.552
 6173SOL    HW119418   6.417   5.606   3.466
 6173SOL    HW219419   6.472   5.517   3.591
 6174SOL     OW19420   4.609   5.074   3.971
 6174SOL    HW119421   4.603   5.169   3.939
 6174SOL    HW219422   4.685   5.028   3.924
 6175SOL     OW19423   3.615   0.820   4.289
 6175SOL    HW119424   3.606   0.919   4.301
 6175SOL    HW219425   3.640   0.779   4.377
 6176SOL     OW19426   4.433   4.058   5.408
 6176SOL    HW119427   4.525   4.017   5.409
 6176SOL    HW219428   4.373   4.002   5.351
 6177SOL     OW19429   5.062   2.223   1.593
 6177SOL    HW119430   5.159   2.245   1.588
 6177SOL    HW219431   5.043   2.144   1.534
 6178SOL     OW19432   4.918   3.720   2.016
 6178SOL    HW119433   4.853   3.755   2.083
 6178SOL    HW219434   5.004   3.699   2.062
 6179SOL     OW19435   6.621   4.754   2.017
 6179SOL    HW119436   6.669   4.698   1.949
 6179SOL    HW219437   6.619   4.706   2.104
 6180SOL     OW19438   3.578   4.774   0.786
 6180SOL    HW119439   3.483   4.781   0.756
 6180SOL    HW219440   3.639   4.808   0.713
 6181SOL     OW19441   4.746   6.415   5.745
 6181SOL    HW119442   4.702   6.325   5.740
 6181SOL    HW219443   4.677   6.487   5.746
 6182SOL     OW19444   4.534   2.688   6.503
 6182SOL    HW119445   4.616   2.654   6.457
 6182SOL    HW219446   4.470   2.724   6.435
 6183SOL     OW19447   2.283   1.990   1.842
 6183SOL    HW119448   2.346   1.933   1.895
 6183SOL    HW219449   2.329   2.074   1.815
 6184SOL     OW19450   3.058   0.201   6.158
 6184SOL    HW119451   3.020   0.138   6.090
 6184SOL    HW219452   3.003   0.284   6.162
 6185SOL     OW19453   1.950   4.555   5.819
 6185SOL    HW119454   2.012   4.517   5.751
 6185SOL    HW219455   1.944   4.493   5.897
 6186SOL     OW19456   6.769   0.937   1.773
 6186SOL    HW119457   6.691   0.953   1.834
 6186SOL    HW219458   6.853   0.967   1.818
 6187SOL     OW19459   4.895   3.033   4.997
 6187SOL    HW119460   4.813   3.079   5.032
 6187SOL    HW219461   4.975   3.088   5.021
 6188SOL     OW19462   1.433   1.824   5.511
 6188SOL    HW119463   1.424   1.738   5.461
 6188SOL    HW219464   1.530   1.841   5.530
 6189SOL     OW19465   3.425   5.451   2.473
 6189SOL    HW119466   3.368   5.369   2.472
 6189SOL    HW219467   3.509   5.434   2.422
 6190SOL     OW19468   6.441   3.061   5.300
 6190SOL    HW119469   6.472   2.968   5.280
 6190SOL    HW219470   6.417   3.068   5.397
 6191SOL     OW19471   2.459   3.123   5.720
 6191SOL    HW119472   2.376   3.167   5.686
 6191SOL    HW219473   2.538   3.182   5.702
 6192SOL     OW19474   2.523   1.978   6.176
 6192SOL    HW119475   2.544   2.074   6.161
 6192SOL    HW219476   2.424   1.963   6.165
 6193SOL     OW19477   5.030   6.104   0.924
 6193SOL    HW119478   5.106   6.160   0.955
 6193SOL    HW219479   5.035   6.013   0.965
 6194SOL     OW19480   6.452   0.342   6.492
 6194SOL    HW119481   6.484   0.291   6.412
 6194SOL    HW219482   6.367   0.302   6.526
 6195SOL     OW19483   5.947   6.504   4.935
 6195SOL    HW119484   5.876   6.523   5.003
 6195SOL    HW219485   5.906   6.502   4.844
 6196SOL     OW19486   4.524   4.411   2.392
 6196SOL    HW119487   4.535   4.454   2.302
 6196SOL    HW219488   4.460   4.465   2.446
 6197SOL     OW19489   2.543   5.298   2.586
 6197SOL    HW119490   2.624   5.300   2.644
 6197SOL    HW219491   2.491   5.215   2.604
 6198SOL     OW19492   5.288   6.313   0.032
 6198SOL    HW119493   5.284   6.321   6.957
 6198SOL    HW219494   5.374   6.268   0.058
 6199SOL     OW19495   0.310   1.070   0.425
 6199SOL    HW119496   0.391   1.126   0.440
 6199SOL    HW219497   0.323   1.014   0.343
 6200SOL     OW19498   0.994   1.706   3.539
 6200SOL    HW119499   0.969   1.777   3.474
 6200SOL    HW219500   0.994   1.617   3.493
 6201SOL     OW19501   0.776   3.610   4.029
 6201SOL    HW119502   0.827   3.696   4.027
 6201SOL    HW219503   0.709   3.613   4.103
 6202SOL     OW19504   5.884   1.371   2.553
 6202SOL    HW119505   5.901   1.300   2.621
 6202SOL    HW219506   5.839   1.449   2.596
 6203SOL     OW19507   5.927   5.576   2.036
 6203SOL    HW119508   5.924   5.500   1.972
 6203SOL    HW219509   6.015   5.578   2.082
 6204SOL     OW19510   1.194   6.344   5.103
 6204SOL    HW119511   1.199   6.382   5.196
 6204SOL    HW219512   1.262   6.271   5.094
 6205SOL     OW19513   5.222   4.216   1.517
 6205SOL    HW119514   5.153   4.277   1.478
 6205SOL    HW219515   5.185   4.124   1.523
 6206SOL     OW19516   5.579   1.883   3.256
 6206SOL    HW119517   5.499   1.877   3.316
 6206SOL    HW219518   5.651   1.935   3.302
 6207SOL     OW19519   1.637   6.001   5.174
 6207SOL    HW119520   1.554   5.956   5.207
 6207SOL    HW219521   1.678   6.054   5.248
 6208SOL     OW19522   3.284   2.312   5.705
 6208SOL    HW119523   3.266   2.264   5.619
 6208SOL    HW219524   3.284   2.411   5.689
 6209SOL     OW19525   3.340   5.258   0.645
 6209SOL    HW119526   3.257   5.310   0.627
 6209SOL    HW219527   3.369   5.210   0.562
 6210SOL     OW19528   5.440   3.743   2.766
 6210SOL    HW119529   5.344   3.715   2.766
 6210SOL    HW219530   5.498   3.664   2.748
 6211SOL     OW19531   4.305   6.043   6.053
 6211SOL    HW119532   4.399   6.014   6.040
 6211SOL    HW219533   4.302   6.142   6.067
 6212SOL     OW19534   2.625   4.959   4.424
 6212SOL    HW119535   2.578   4.983   4.339
 6212SOL    HW219536   2.645   5.042   4.475
 6213SOL     OW19537   4.912   6.841   0.003
 6213SOL    HW119538   4.849   6.837   0.080
 6213SOL    HW219539   4.917   6.751   6.983
 6214SOL     OW19540   5.757   5.563   5.684
 6214SOL    HW119541   5.666   5.566   5.642
 6214SOL    HW219542   5.748   5.555   5.783
 6215SOL     OW19543   4.194   3.238   6.354
 6215SOL    HW119544   4.235   3.251   6.264
 6215SOL    HW219545   4.265   3.235   6.424
 6216SOL     OW19546   5.956   2.440   3.057
 6216SOL    HW119547   5.964   2.533   3.092
 6216SOL    HW219548   5.931   2.443   2.960
 6217SOL     OW19549   0.974   5.109   2.224
 6217SOL    HW119550   0.997   5.064   2.309
 6217SOL    HW219551   1.056   5.118   2.167
 6218SOL     OW19552   3.882   6.550   0.553
 6218SOL    HW119553   3.941   6.476   0.584
 6218SOL    HW219554   3.827   6.584   0.630
 6219SOL     OW19555   2.046   0.857   5.386
 6219SOL    HW119556   1.996   0.836   5.470
 6219SOL    HW219557   1.982   0.877   5.312
 6220SOL     OW19558   3.308   1.087   6.751
 6220SOL    HW119559   3.370   1.087   6.829
 6220SOL    HW219560   3.227   1.141   6.772
 6221SOL     OW19561   6.039   6.660   0.021
 6221SOL    HW119562   6.038   6.611   6.959
 6221SOL    HW219563   6.087   6.747   0.010
 6222SOL     OW19564   6.022   0.717   2.271
 6222SOL    HW119565   6.026   0.688   2.366
 6222SOL    HW219566   6.095   0.673   2.220
 6223SOL     OW19567   0.953   5.394   3.609
 6223SOL    HW119568   1.017   5.328   3.648
 6223SOL    HW219569   0.993   5.486   3.614
 6224SOL     OW19570   4.327   1.306   5.590
 6224SOL    HW119571   4.425   1.319   5.570
 6224SOL    HW219572   4.287   1.393   5.616
 6225SOL     OW19573   3.937   2.067   6.445
 6225SOL    HW119574   4.035   2.066   6.464
 6225SOL    HW219575   3.893   1.991   6.492
 6226SOL     OW19576   1.190   1.666   3.877
 6226SOL    HW119577   1.134   1.729   3.931
 6226SOL    HW219578   1.273   1.713   3.846
 6227SOL     OW19579   3.140   4.524   5.382
 6227SOL    HW119580   3.102   4.504   5.292
 6227SOL    HW219581   3.187   4.443   5.417
 6228SOL     OW19582   0.605   2.205   4.152
 6228SOL    HW119583   0.582   2.242   4.061
 6228SOL    HW219584   0.636   2.279   4.211
 6229SOL     OW19585   7.018   2.811   5.271
 6229SOL    HW119586   0.056   2.762   5.331
 6229SOL    HW219587   6.959   2.870   5.326
 6230SOL     OW19588   1.083   2.161   3.566
 6230SOL    HW119589   0.994   2.150   3.521
 6230SOL    HW219590   1.078   2.120   3.658
 6231SOL     OW19591   5.314   5.322   0.310
 6231SOL    HW119592   5.337   5.403   0.256
 6231SOL    HW219593   5.310   5.346   0.407
 6232SOL     OW19594   5.737   1.295   0.857
 6232SOL    HW119595   5.691   1.355   0.791
 6232SOL    HW219596   5.709   1.200   0.841
 6233SOL     OW19597   0.235   3.349   2.195
 6233SOL    HW119598   0.229   3.342   2.096
 6233SOL    HW219599   0.329   3.329   2.225
 6234SOL     OW19600   0.446   0.020   5.365
 6234SOL    HW119601   0.462   0.057   5.456
 6234SOL    HW219602   0.406   0.091   5.307
 6235SOL     OW19603   0.060   0.777   1.780
 6235SOL    HW119604   0.118   0.826   1.715
 6235SOL    HW219605   0.031   0.840   1.852
 6236SOL     OW19606   6.911   4.482   0.488
 6236SOL    HW119607   6.854   4.426   0.427
 6236SOL    HW219608   6.913   4.440   0.579
 6237SOL     OW19609   3.060   6.920   0.228
 6237SOL    HW119610   3.105   6.851   0.285
 6237SOL    HW219611   3.089   6.907   0.133
 6238SOL     OW19612   3.780   6.557   3.382
 6238SOL    HW119613   3.784   6.508   3.295
 6238SOL    HW219614   3.836   6.639   3.377
 6239SOL     OW19615   3.489   0.137   1.489
 6239SOL    HW119616   3.465   0.216   1.545
 6239SOL    HW219617   3.443   0.056   1.525
 6240SOL     OW19618   3.189   4.138   4.792
 6240SOL    HW119619   3.102   4.180   4.817
 6240SOL    HW219620   3.196   4.047   4.832
 6241SOL     OW19621   4.135   0.120   3.696
 6241SOL    HW119622   4.062   0.127   3.764
 6241SOL    HW219623   4.126   0.034   3.647
 6242SOL     OW19624   2.159   1.464   3.670
 6242SOL    HW119625   2.102   1.545   3.683
 6242SOL    HW219626   2.190   1.429   3.758
 6243SOL     OW19627   6.711   0.747   5.474
 6243SOL    HW119628   6.644   0.751   5.400
 6243SOL    HW219629   6.783   0.814   5.458
 6244SOL     OW19630   5.148   3.894   3.014
 6244SOL    HW119631   5.232   3.840   3.020
 6244SOL    HW219632   5.134   3.922   2.919
 6245SOL     OW19633   0.887   5.228   1.772
 6245SOL    HW119634   0.982   5.214   1.744
 6245SOL    HW219635   0.884   5.262   1.866
 6246SOL     OW19636   0.568   0.244   4.543
 6246SOL    HW119637   0.644   0.216   4.603
 6246SOL    HW219638   0.587   0.214   4.450
 6247SOL     OW19639   1.254   5.618   3.202
 6247SOL    HW119640   1.310   5.666   3.270
 6247SOL    HW219641   1.314   5.565   3.142
 6248SOL     OW19642   3.612   3.570   0.113
 6248SOL    HW119643   3.574   3.594   0.202
 6248SOL    HW219644   3.711   3.560   0.121
 6249SOL     OW19645   6.910   2.660   1.613
 6249SOL    HW119646   6.861   2.590   1.562
 6249SOL    HW219647   6.997   2.679   1.567
 6250SOL     OW19648   0.073   6.660   0.954
 6250SOL    HW119649   0.161   6.701   0.929
 6250SOL    HW219650   0.062   6.665   1.053
 6251SOL     OW19651   3.774   5.884   4.416
 6251SOL    HW119652   3.822   5.926   4.339
 6251SOL    HW219653   3.783   5.942   4.497
 6252SOL     OW19654   2.887   5.019   0.029
 6252SOL    HW119655   2.799   5.030   0.077
 6252SOL    HW219656   2.957   5.073   0.076
 6253SOL     OW19657   2.621   4.948   4.878
 6253SOL    HW119658   2.543   4.997   4.919
 6253SOL    HW219659   2.622   4.854   4.912
 6254SOL     OW19660   0.969   6.079   1.281
 6254SOL    HW119661   0.970   6.070   1.181
 6254SOL    HW219662   1.019   6.161   1.307
 6255SOL     OW19663   1.466   2.780   0.757
 6255SOL    HW119664   1.402   2.853   0.778
 6255SOL    HW219665   1.544   2.786   0.819
 6256SOL     OW19666   4.745   5.585   2.378
 6256SOL    HW119667   4.731   5.572   2.476
 6256SOL    HW219668   4.842   5.573   2.357
 6257SOL     OW19669   3.981   3.531   0.421
 6257SOL    HW119670   3.944   3.444   0.456
 6257SOL    HW219671   3.905   3.591   0.396
 6258SOL     OW19672   3.527   0.139   5.618
 6258SOL    HW119673   3.540   0.200   5.697
 6258SOL    HW219674   3.430   0.139   5.592
 6259SOL     OW19675   1.556   1.583   5.715
 6259SOL    HW119676   1.571   1.564   5.618
 6259SOL    HW219677   1.586   1.505   5.770
 6260SOL     OW19678   1.886   0.361   1.099
 6260SOL    HW119679   1.857   0.265   1.094
 6260SOL    HW219680   1.806   0.420   1.104
 6261SOL     OW19681   5.148   6.897   1.408
 6261SOL    HW119682   5.138   6.853   1.318
 6261SOL    HW219683   5.129   6.995   1.399
 6262SOL     OW19684   0.421   6.424   3.027
 6262SOL    HW119685   0.408   6.359   3.102
 6262SOL    HW219686   0.404   6.517   3.060
 6263SOL     OW19687   6.743   6.506   4.774
 6263SOL    HW119688   6.667   6.558   4.735
 6263SOL    HW219689   6.778   6.442   4.705
 6264SOL     OW19690   0.900   6.929   1.626
 6264SOL    HW119691   0.866   6.893   1.538
 6264SOL    HW219692   0.881   6.862   1.698
 6265SOL     OW19693   4.130   2.533   0.468
 6265SOL    HW119694   4.085   2.455   0.512
 6265SOL    HW219695   4.079   2.617   0.488
 6266SOL     OW19696   3.757   6.407   3.178
 6266SOL    HW119697   3.813   6.450   3.107
 6266SOL    HW219698   3.741   6.311   3.154
 6267SOL     OW19699   1.218   6.512   4.892
 6267SOL    HW119700   1.196   6.604   4.925
 6267SOL    HW219701   1.208   6.447   4.967
 6268SOL     OW19702   3.397   0.142   2.126
 6268SOL    HW119703   3.495   0.138   2.144
 6268SOL    HW219704   3.351   0.186   2.203
 6269SOL     OW19705   5.624   6.328   1.338
 6269SOL    HW119706   5.535   6.370   1.353
 6269SOL    HW219707   5.645   6.265   1.413
 6270SOL     OW19708   0.363   6.349   6.919
 6270SOL    HW119709   0.409   6.270   6.879
 6270SOL    HW219710   0.426   6.397   6.980
 6271SOL     OW19711   5.909   2.658   6.281
 6271SOL    HW119712   5.990   2.601   6.289
 6271SOL    HW219713   5.828   2.605   6.304
 6272SOL     OW19714   0.297   0.052   6.641
 6272SOL    HW119715   0.312   0.151   6.647
 6272SOL    HW219716   0.328   0.019   6.552
 6273SOL     OW19717   0.809   6.188   3.250
 6273SOL    HW119718   0.794   6.274   3.201
 6273SOL    HW219719   0.744   6.182   3.326
 6274SOL     OW19720   2.548   6.710   4.456
 6274SOL    HW119721   2.640   6.678   4.434
 6274SOL    HW219722   2.491   6.632   4.482
 6275SOL     OW19723   2.585   6.205   0.527
 6275SOL    HW119724   2.540   6.282   0.574
 6275SOL    HW219725   2.623   6.237   0.440
 6276SOL     OW19726   3.595   5.723   3.654
 6276SOL    HW119727   3.653   5.678   3.722
 6276SOL    HW219728   3.554   5.655   3.594
 6277SOL     OW19729   4.976   2.005   1.450
 6277SOL    HW119730   4.908   2.007   1.377
 6277SOL    HW219731   4.990   1.910   1.480
 6278SOL     OW19732   3.527   0.338   5.861
 6278SOL    HW119733   3.506   0.288   5.946
 6278SOL    HW219734   3.594   0.409   5.880
 6279SOL     OW19735   3.648   5.820   0.447
 6279SOL    HW119736   3.645   5.780   0.538
 6279SOL    HW219737   3.667   5.918   0.453
 6280SOL     OW19738   0.064   1.131   6.553
 6280SOL    HW119739   0.013   1.171   6.477
 6280SOL    HW219740   0.146   1.085   6.518
 6281SOL     OW19741   5.654   4.770   3.928
 6281SOL    HW119742   5.741   4.757   3.880
 6281SOL    HW219743   5.672   4.783   4.025
 6282SOL     OW19744   5.683   3.506   4.963
 6282SOL    HW119745   5.671   3.482   4.867
 6282SOL    HW219746   5.666   3.604   4.975
 6283SOL     OW19747   0.992   5.321   4.552
 6283SOL    HW119748   0.903   5.302   4.510
 6283SOL    HW219749   1.011   5.254   4.623
 6284SOL     OW19750   1.185   5.282   6.639
 6284SOL    HW119751   1.271   5.247   6.677
 6284SOL    HW219752   1.111   5.270   6.706
 6285SOL     OW19753   1.626   3.629   3.617
 6285SOL    HW119754   1.690   3.657   3.545
 6285SOL    HW219755   1.651   3.537   3.648
 6286SOL     OW19756   6.804   3.515   4.547
 6286SOL    HW119757   6.738   3.589   4.531
 6286SOL    HW219758   6.862   3.538   4.625
 6287SOL     OW19759   4.326   4.896   5.432
 6287SOL    HW119760   4.280   4.821   5.384
 6287SOL    HW219761   4.359   4.963   5.365
 6288SOL     OW19762   4.102   3.755   0.852
 6288SOL    HW119763   4.012   3.759   0.809
 6288SOL    HW219764   4.115   3.665   0.895
 6289SOL     OW19765   2.272   4.072   6.703
 6289SOL    HW119766   2.364   4.056   6.666
 6289SOL    HW219767   2.237   4.158   6.666
 6290SOL     OW19768   6.752   4.970   6.435
 6290SOL    HW119769   6.721   4.878   6.457
 6290SOL    HW219770   6.741   5.030   6.515
 6291SOL     OW19771   3.555   3.137   3.033
 6291SOL    HW119772   3.606   3.121   2.949
 6291SOL    HW219773   3.614   3.182   3.100
 6292SOL     OW19774   1.836   2.630   5.123
 6292SOL    HW119775   1.900   2.597   5.053
 6292SOL    HW219776   1.786   2.709   5.088
 6293SOL     OW19777   4.498   1.967   0.501
 6293SOL    HW119778   4.575   1.982   0.564
 6293SOL    HW219779   4.508   1.878   0.457
 6294SOL     OW19780   3.840   0.296   3.427
 6294SOL    HW119781   3.881   0.314   3.516
 6294SOL    HW219782   3.837   0.380   3.373
 6295SOL     OW19783   5.414   5.041   4.649
 6295SOL    HW119784   5.430   5.091   4.733
 6295SOL    HW219785   5.376   5.103   4.580
 6296SOL     OW19786   0.687   4.015   5.763
 6296SOL    HW119787   0.725   3.980   5.849
 6296SOL    HW219788   0.758   4.066   5.714
 6297SOL     OW19789   6.132   0.008   5.237
 6297SOL    HW119790   6.038   7.003   5.253
 6297SOL    HW219791   6.144   0.032   5.141
 6298SOL     OW19792   6.480   4.672   7.006
 6298SOL    HW119793   6.429   4.596   0.022
 6298SOL    HW219794   6.528   4.640   6.924
 6299SOL     OW19795   5.542   2.446   2.486
 6299SOL    HW119796   5.486   2.476   2.563
 6299SOL    HW219797   5.582   2.357   2.507
 6300SOL     OW19798   4.347   1.489   6.382
 6300SOL    HW119799   4.254   1.478   6.419
 6300SOL    HW219800   4.343   1.485   6.282
 6301SOL     OW19801   3.275   6.621   6.385
 6301SOL    HW119802   3.315   6.667   6.306
 6301SOL    HW219803   3.296   6.523   6.380
 6302SOL     OW19804   2.164   1.870   5.126
 6302SOL    HW119805   2.241   1.814   5.156
 6302SOL    HW219806   2.165   1.956   5.177
 6303SOL     OW19807   1.321   6.972   5.535
 6303SOL    HW119808   1.286   6.915   5.461
 6303SOL    HW219809   1.301   6.929   5.623
 6304SOL     OW19810   4.003   2.004   3.466
 6304SOL    HW119811   4.079   2.057   3.429
 6304SOL    HW219812   3.960   1.951   3.393
 6305SOL     OW19813   6.227   6.079   6.902
 6305SOL    HW119814   6.198   6.175   6.891
 6305SOL    HW219815   6.168   6.021   6.846
 6306SOL     OW19816   0.517   3.242   3.807
 6306SOL    HW119817   0.493   3.264   3.713
 6306SOL    HW219818   0.435   3.209   3.855
 6307SOL     OW19819   3.651   3.234   4.286
 6307SOL    HW119820   3.582   3.227   4.214
 6307SOL    HW219821   3.722   3.298   4.258
 6308SOL     OW19822   0.707   1.810   5.949
 6308SOL    HW119823   0.681   1.907   5.947
 6308SOL    HW219824   0.765   1.793   6.029
 6309SOL     OW19825   0.652   6.732   4.005
 6309SOL    HW119826   0.640   6.711   4.102
 6309SOL    HW219827   0.696   6.654   3.959
 6310SOL     OW19828   1.922   6.818   3.003
 6310SOL    HW119829   1.925   6.850   2.909
 6310SOL    HW219830   1.890   6.891   3.063
 6311SOL     OW19831   4.990   0.992   6.781
 6311SOL    HW119832   4.952   1.069   6.730
 6311SOL    HW219833   5.077   0.964   6.739
 6312SOL     OW19834   2.011   6.856   6.546
 6312SOL    HW119835   1.989   6.900   6.459
 6312SOL    HW219836   2.070   6.777   6.529
 6313SOL     OW19837   5.501   0.121   3.889
 6313SOL    HW119838   5.483   0.041   3.945
 6313SOL    HW219839   5.596   0.120   3.859
 6314SOL     OW19840   3.646   7.022   1.318
 6314SOL    HW119841   3.573   0.037   1.373
 6314SOL    HW219842   3.715   6.981   1.378
 6315SOL     OW19843   1.992   2.568   4.908
 6315SOL    HW119844   2.084   2.530   4.904
 6315SOL    HW219845   1.967   2.607   4.819
 6316SOL     OW19846   5.018   1.929   5.862
 6316SOL    HW119847   5.033   1.922   5.960
 6316SOL    HW219848   5.017   2.026   5.835
 6317SOL     OW19849   5.445   3.991   2.894
 6317SOL    HW119850   5.434   3.893   2.877
 6317SOL    HW219851   5.394   4.043   2.827
 6318SOL     OW19852   6.065   0.387   6.876
 6318SOL    HW119853   5.995   0.318   6.894
 6318SOL    HW219854   6.023   0.477   6.871
 6319SOL     OW19855   5.334   2.184   4.971
 6319SOL    HW119856   5.397   2.233   4.911
 6319SOL    HW219857   5.253   2.241   4.987
 6320SOL     OW19858   0.042   0.471   3.656
 6320SOL    HW119859   7.008   0.418   3.595
 6320SOL    HW219860   0.086   0.545   3.604
 6321SOL     OW19861   5.291   3.875   0.405
 6321SOL    HW119862   5.235   3.956   0.425
 6321SOL    HW219863   5.377   3.905   0.364
 6322SOL     OW19864   2.551   1.830   0.680
 6322SOL    HW119865   2.560   1.732   0.659
 6322SOL    HW219866   2.607   1.852   0.760
 6323SOL     OW19867   1.791   3.419   1.459
 6323SOL    HW119868   1.821   3.504   1.415
 6323SOL    HW219869   1.809   3.424   1.557
 6324SOL     OW19870   4.551   1.665   0.871
 6324SOL    HW119871   4.555   1.601   0.794
 6324SOL    HW219872   4.548   1.614   0.957
 6325SOL     OW19873   1.516   2.592   2.825
 6325SOL    HW119874   1.514   2.678   2.876
 6325SOL    HW219875   1.486   2.517   2.885
 6326SOL     OW19876   4.778   5.451   5.358
 6326SOL    HW119877   4.734   5.405   5.281
 6326SOL    HW219878   4.852   5.394   5.393
 6327SOL     OW19879   0.474   1.673   3.223
 6327SOL    HW119880   0.553   1.616   3.247
 6327SOL    HW219881   0.491   1.767   3.253
 6328SOL     OW19882   5.049   3.953   6.940
 6328SOL    HW119883   5.021   3.960   0.012
 6328SOL    HW219884   5.129   3.894   6.933
 6329SOL     OW19885   0.869   2.836   4.799
 6329SOL    HW119886   0.825   2.898   4.734
 6329SOL    HW219887   0.904   2.756   4.750
 6330SOL     OW19888   5.622   0.577   3.213
 6330SOL    HW119889   5.525   0.556   3.210
 6330SOL    HW219890   5.675   0.492   3.201
 6331SOL     OW19891   6.535   2.946   4.819
 6331SOL    HW119892   6.495   2.869   4.869
 6331SOL    HW219893   6.619   2.916   4.775
 6332SOL     OW19894   1.385   2.034   1.720
 6332SOL    HW119895   1.389   2.130   1.749
 6332SOL    HW219896   1.475   1.992   1.735
 6333SOL     OW19897   4.794   0.201   6.940
 6333SOL    HW119898   4.837   0.289   6.917
 6333SOL    HW219899   4.727   0.177   6.870
 6334SOL     OW19900   2.583   1.504   1.786
 6334SOL    HW119901   2.535   1.477   1.703
 6334SOL    HW219902   2.611   1.422   1.836
 6335SOL     OW19903   4.833   1.425   0.906
 6335SOL    HW119904   4.929   1.403   0.922
 6335SOL    HW219905   4.823   1.525   0.901
 6336SOL     OW19906   0.214   4.309   6.456
 6336SOL    HW119907   0.124   4.269   6.475
 6336SOL    HW219908   0.211   4.407   6.477
 6337SOL     OW19909   4.384   5.766   5.069
 6337SOL    HW119910   4.444   5.716   5.006
 6337SOL    HW219911   4.289   5.746   5.047
 6338SOL     OW19912   2.713   1.481   4.376
 6338SOL    HW119913   2.760   1.406   4.330
 6338SOL    HW219914   2.771   1.518   4.449
 6339SOL     OW19915   1.126   3.564   3.132
 6339SOL    HW119916   1.121   3.542   3.230
 6339SOL    HW219917   1.127   3.479   3.079
 6340SOL     OW19918   2.170   3.675   1.593
 6340SOL    HW119919   2.161   3.671   1.494
 6340SOL    HW219920   2.240   3.742   1.618
 6341SOL     OW19921   0.846   3.375   3.315
 6341SOL    HW119922   0.938   3.345   3.290
 6341SOL    HW219923   0.812   3.319   3.391
 6342SOL     OW19924   3.446   1.454   1.485
 6342SOL    HW119925   3.424   1.534   1.541
 6342SOL    HW219926   3.362   1.406   1.461
 6343SOL     OW19927   3.957   6.523   6.777
 6343SOL    HW119928   3.898   6.523   6.858
 6343SOL    HW219929   3.947   6.610   6.729
 6344SOL     OW19930   6.130   2.736   3.556
 6344SOL    HW119931   6.075   2.655   3.535
 6344SOL    HW219932   6.100   2.775   3.643
 6345SOL     OW19933   4.694   3.267   1.712
 6345SOL    HW119934   4.771   3.245   1.653
 6345SOL    HW219935   4.669   3.187   1.767
 6346SOL     OW19936   6.781   4.107   5.292
 6346SOL    HW119937   6.861   4.165   5.278
 6346SOL    HW219938   6.769   4.047   5.213
 6347SOL     OW19939   2.950   1.992   2.368
 6347SOL    HW119940   3.024   1.929   2.391
 6347SOL    HW219941   2.863   1.944   2.367
 6348SOL     OW19942   0.969   1.592   6.040
 6348SOL    HW119943   1.067   1.610   6.050
 6348SOL    HW219944   0.929   1.572   6.130
 6349SOL     OW19945   1.505   0.182   0.244
 6349SOL    HW119946   1.500   0.218   0.151
 6349SOL    HW219947   1.487   0.084   0.243
 6350SOL     OW19948   0.761   5.187   2.783
 6350SOL    HW119949   0.798   5.241   2.707
 6350SOL    HW219950   0.835   5.136   2.827
 6351SOL     OW19951   6.207   4.267   3.630
 6351SOL    HW119952   6.223   4.363   3.652
 6351SOL    HW219953   6.175   4.259   3.536
 6352SOL     OW19954   2.942   1.182   4.006
 6352SOL    HW119955   3.000   1.218   3.933
 6352SOL    HW219956   2.881   1.111   3.970
 6353SOL     OW19957   2.678   5.058   0.178
 6353SOL    HW119958   2.612   5.036   0.250
 6353SOL    HW219959   2.641   5.033   0.089
 6354SOL     OW19960   4.506   5.548   2.679
 6354SOL    HW119961   4.476   5.642   2.690
 6354SOL    HW219962   4.457   5.505   2.604
 6355SOL     OW19963   3.204   5.878   0.658
 6355SOL    HW119964   3.273   5.865   0.730
 6355SOL    HW219965   3.137   5.804   0.663
 6356SOL     OW19966   5.517   4.918   0.023
 6356SOL    HW119967   5.583   4.862   0.072
 6356SOL    HW219968   5.425   4.900   0.059
 6357SOL     OW19969   5.766   2.922   1.591
 6357SOL    HW119970   5.776   3.018   1.615
 6357SOL    HW219971   5.792   2.908   1.496
 6358SOL     OW19972   0.697   1.948   6.903
 6358SOL    HW119973   0.699   1.861   6.853
 6358SOL    HW219974   0.790   1.984   6.911
 6359SOL     OW19975   5.661   6.989   0.577
 6359SOL    HW119976   5.739   6.990   0.640
 6359SOL    HW219977   5.578   7.013   0.627
 6360SOL     OW19978   7.014   3.036   3.758
 6360SOL    HW119979   0.032   2.998   3.840
 6360SOL    HW219980   7.014   3.136   3.764
 6361SOL     OW19981   0.694   1.091   0.600
 6361SOL    HW119982   0.784   1.094   0.556
 6361SOL    HW219983   0.663   1.184   0.619
 6362SOL     OW19984   1.534   6.426   6.827
 6362SOL    HW119985   1.515   6.329   6.818
 6362SOL    HW219986   1.631   6.443   6.809
 6363SOL     OW19987   2.423   4.771   3.801
 6363SOL    HW119988   2.496   4.766   3.869
 6363SOL    HW219989   2.336   4.745   3.843
 6364SOL     OW19990   2.169   2.200   4.837
 6364SOL    HW119991   2.086   2.207   4.782
 6364SOL    HW219992   2.197   2.104   4.843
 6365SOL     OW19993   6.193   5.533   5.126
 6365SOL    HW119994   6.179   5.549   5.223
 6365SOL    HW219995   6.105   5.527   5.079
 6366SOL     OW19996   6.536   6.649   4.661
 6366SOL    HW119997   6.484   6.718   4.713
 6366SOL    HW219998   6.490   6.633   4.574
 6367SOL     OW19999   3.339   1.842   2.679
 6367SOL    HW120000   3.367   1.891   2.761
 6367SOL    HW220001   3.414   1.842   2.613
 6368SOL     OW20002   4.670   4.446   4.465
 6368SOL    HW120003   4.580   4.490   4.465
 6368SOL    HW220004   4.700   4.432   4.559
 6369SOL     OW20005   2.263   6.289   5.539
 6369SOL    HW120006   2.163   6.296   5.534
 6369SOL    HW220007   2.290   6.193   5.541
 6370SOL     OW20008   4.790   3.927   3.545
 6370SOL    HW120009   4.788   4.010   3.489
 6370SOL    HW220010   4.776   3.847   3.486
 6371SOL     OW20011   5.592   3.899   1.842
 6371SOL    HW120012   5.576   3.996   1.826
 6371SOL    HW220013   5.671   3.887   1.902
 6372SOL     OW20014   0.394   0.870   2.372
 6372SOL    HW120015   0.323   0.930   2.409
 6372SOL    HW220016   0.481   0.918   2.370
 6373SOL     OW20017   5.936   4.190   2.151
 6373SOL    HW120018   5.932   4.198   2.250
 6373SOL    HW220019   6.024   4.152   2.123
 6374SOL     OW20020   4.264   2.989   0.500
 6374SOL    HW120021   4.180   2.991   0.445
 6374SOL    HW220022   4.325   2.918   0.464
 6375SOL     OW20023   1.095   2.806   2.375
 6375SOL    HW120024   1.130   2.893   2.339
 6375SOL    HW220025   1.167   2.760   2.427
 6376SOL     OW20026   4.352   1.710   5.929
 6376SOL    HW120027   4.333   1.682   5.835
 6376SOL    HW220028   4.431   1.771   5.930
 6377SOL     OW20029   6.971   0.869   5.836
 6377SOL    HW120030   7.023   0.787   5.813
 6377SOL    HW220031   6.881   0.864   5.793
 6378SOL     OW20032   4.765   5.639   3.354
 6378SOL    HW120033   4.702   5.706   3.315
 6378SOL    HW220034   4.850   5.684   3.380
 6379SOL     OW20035   1.219   4.589   5.248
 6379SOL    HW120036   1.236   4.520   5.319
 6379SOL    HW220037   1.273   4.670   5.268
 6380SOL     OW20038   0.745   2.805   4.501
 6380SOL    HW120039   0.768   2.897   4.534
 6380SOL    HW220040   0.651   2.783   4.527
 6381SOL     OW20041   3.835   2.677   0.483
 6381SOL    HW120042   3.815   2.774   0.474
 6381SOL    HW220043   3.853   2.655   0.578
 6382SOL     OW20044   2.522   1.579   1.454
 6382SOL    HW120045   2.424   1.574   1.476
 6382SOL    HW220046   2.534   1.604   1.359
 6383SOL     OW20047   1.349   2.712   2.609
 6383SOL    HW120048   1.373   2.690   2.514
 6383SOL    HW220049   1.391   2.645   2.670
 6384SOL     OW20050   5.950   1.992   2.373
 6384SOL    HW120051   5.990   1.979   2.282
 6384SOL    HW220052   5.863   2.040   2.364
 6385SOL     OW20053   6.600   3.931   1.228
 6385SOL    HW120054   6.549   3.854   1.188
 6385SOL    HW220055   6.651   3.978   1.156
 6386SOL     OW20056   1.493   4.170   0.477
 6386SOL    HW120057   1.427   4.157   0.550
 6386SOL    HW220058   1.585   4.147   0.510
 6387SOL     OW20059   6.355   1.360   0.676
 6387SOL    HW120060   6.429   1.423   0.701
 6387SOL    HW220061   6.308   1.394   0.595
 6388SOL     OW20062   6.781   4.851   2.600
 6388SOL    HW120063   6.716   4.819   2.670
 6388SOL    HW220064   6.765   4.948   2.582
 6389SOL     OW20065   1.876   6.741   0.622
 6389SOL    HW120066   1.909   6.711   0.712
 6389SOL    HW220067   1.826   6.827   0.632
 6390SOL     OW20068   6.328   0.433   6.783
 6390SOL    HW120069   6.366   0.517   6.823
 6390SOL    HW220070   6.232   0.424   6.810
 6391SOL     OW20071   1.624   1.552   6.157
 6391SOL    HW120072   1.667   1.639   6.180
 6391SOL    HW220073   1.540   1.540   6.210
 6392SOL     OW20074   3.374   6.025   3.820
 6392SOL    HW120075   3.406   6.053   3.910
 6392SOL    HW220076   3.358   6.106   3.763
 6393SOL     OW20077   5.589   6.575   1.758
 6393SOL    HW120078   5.543   6.612   1.678
 6393SOL    HW220079   5.526   6.517   1.810
 6394SOL     OW20080   1.199   4.801   1.169
 6394SOL    HW120081   1.114   4.830   1.126
 6394SOL    HW220082   1.187   4.713   1.213
 6395SOL     OW20083   0.037   3.709   2.601
 6395SOL    HW120084   0.112   3.644   2.611
 6395SOL    HW220085   7.021   3.728   2.691
 6396SOL     OW20086   6.534   3.492   6.395
 6396SOL    HW120087   6.614   3.447   6.356
 6396SOL    HW220088   6.451   3.444   6.365
 6397SOL     OW20089   6.245   1.119   2.226
 6397SOL    HW120090   6.296   1.035   2.244
 6397SOL    HW220091   6.167   1.098   2.166
 6398SOL     OW20092   1.243   6.568   1.419
 6398SOL    HW120093   1.326   6.610   1.384
 6398SOL    HW220094   1.253   6.552   1.518
 6399SOL     OW20095   1.747   0.550   0.086
 6399SOL    HW120096   1.824   0.596   0.130
 6399SOL    HW220097   1.760   0.451   0.092
 6400SOL     OW20098   2.019   5.517   2.699
 6400SOL    HW120099   2.112   5.482   2.710
 6400SOL    HW220100   2.020   5.616   2.707
 6401SOL     OW20101   4.743   4.642   3.117
 6401SOL    HW120102   4.790   4.705   3.055
 6401SOL    HW220103   4.660   4.608   3.074
 6402SOL     OW20104   1.583   2.891   3.631
 6402SOL    HW120105   1.548   2.890   3.537
 6402SOL    HW220106   1.526   2.952   3.687
 6403SOL     OW20107   5.567   6.274   4.872
 6403SOL    HW120108   5.641   6.325   4.829
 6403SOL    HW220109   5.574   6.177   4.847
 6404SOL     OW20110   3.909   1.491   2.381
 6404SOL    HW120111   3.847   1.420   2.417
 6404SOL    HW220112   3.916   1.565   2.447
 6405SOL     OW20113   4.813   1.766   3.971
 6405SOL    HW120114   4.826   1.861   3.999
 6405SOL    HW220115   4.755   1.762   3.890
 6406SOL     OW20116   1.251   3.149   2.612
 6406SOL    HW120117   1.167   3.101   2.634
 6406SOL    HW220118   1.322   3.126   2.679
 6407SOL     OW20119   1.939   6.275   3.381
 6407SOL    HW120120   2.014   6.327   3.340
 6407SOL    HW220121   1.862   6.335   3.398
 6408SOL     OW20122   6.797   0.686   1.274
 6408SOL    HW120123   6.705   0.711   1.302
 6408SOL    HW220124   6.797   0.593   1.238
 6409SOL     OW20125   6.638   5.198   3.427
 6409SOL    HW120126   6.565   5.162   3.369
 6409SOL    HW220127   6.709   5.129   3.440
 6410SOL     OW20128   2.302   1.285   6.175
 6410SOL    HW120129   2.319   1.347   6.098
 6410SOL    HW220130   2.204   1.264   6.180
 6411SOL     OW20131   0.460   3.044   1.945
 6411SOL    HW120132   0.531   3.043   2.015
 6411SOL    HW220133   0.477   2.972   1.878
 6412SOL     OW20134   3.035   1.194   6.457
 6412SOL    HW120135   3.028   1.110   6.404
 6412SOL    HW220136   2.978   1.265   6.414
 6413SOL     OW20137   4.165   4.921   4.398
 6413SOL    HW120138   4.158   4.853   4.471
 6413SOL    HW220139   4.105   4.895   4.322
 6414SOL     OW20140   0.063   6.525   6.776
 6414SOL    HW120141   0.045   6.551   6.681
 6414SOL    HW220142   7.012   6.469   6.810
 6415SOL     OW20143   1.463   3.147   3.284
 6415SOL    HW120144   1.414   3.138   3.371
 6415SOL    HW220145   1.540   3.211   3.296
 6416SOL     OW20146   3.184   6.861   6.486
 6416SOL    HW120147   3.180   6.929   6.413
 6416SOL    HW220148   3.224   6.776   6.450
 6417SOL     OW20149   5.450   2.315   1.017
 6417SOL    HW120150   5.510   2.390   1.047
 6417SOL    HW220151   5.443   2.247   1.089
 6418SOL     OW20152   5.100   4.299   2.395
 6418SOL    HW120153   5.081   4.269   2.489
 6418SOL    HW220154   5.061   4.390   2.380
 6419SOL     OW20155   0.724   6.247   5.287
 6419SOL    HW120156   0.757   6.176   5.350
 6419SOL    HW220157   0.702   6.206   5.199
 6420SOL     OW20158   1.602   2.111   4.024
 6420SOL    HW120159   1.589   2.210   4.018
 6420SOL    HW220160   1.520   2.064   3.994
 6421SOL     OW20161   5.244   0.515   0.833
 6421SOL    HW120162   5.302   0.595   0.843
 6421SOL    HW220163   5.153   0.534   0.869
 6422SOL     OW20164   6.882   1.785   5.871
 6422SOL    HW120165   6.782   1.786   5.870
 6422SOL    HW220166   6.917   1.876   5.846
 6423SOL     OW20167   4.093   5.916   4.358
 6423SOL    HW120168   4.053   5.962   4.279
 6423SOL    HW220169   4.193   5.923   4.353
 6424SOL     OW20170   0.750   3.240   4.841
 6424SOL    HW120171   0.771   3.334   4.815
 6424SOL    HW220172   0.715   3.238   4.935
 6425SOL     OW20173   0.478   5.101   2.736
 6425SOL    HW120174   0.565   5.132   2.775
 6425SOL    HW220175   0.448   5.167   2.667
 6426SOL     OW20176   5.512   5.290   4.105
 6426SOL    HW120177   5.569   5.334   4.175
 6426SOL    HW220178   5.526   5.337   4.018
 6427SOL     OW20179   3.101   4.010   3.138
 6427SOL    HW120180   3.117   4.024   3.236
 6427SOL    HW220181   3.158   4.073   3.086
 6428SOL     OW20182   5.230   2.743   0.063
 6428SOL    HW120183   5.186   2.826   0.027
 6428SOL    HW220184   5.238   2.750   0.163
 6429SOL     OW20185   1.509   0.625   5.416
 6429SOL    HW120186   1.493   0.597   5.321
 6429SOL    HW220187   1.530   0.723   5.419
 6430SOL     OW20188   6.863   0.536   5.275
 6430SOL    HW120189   6.897   0.578   5.360
 6430SOL    HW220190   6.807   0.602   5.225
 6431SOL     OW20191   4.237   5.287   2.894
 6431SOL    HW120192   4.320   5.265   2.842
 6431SOL    HW220193   4.221   5.214   2.961
 6432SOL     OW20194   3.596   3.838   6.337
 6432SOL    HW120195   3.642   3.926   6.348
 6432SOL    HW220196   3.510   3.851   6.288
 6433SOL     OW20197   3.018   5.433   0.045
 6433SOL    HW120198   3.042   5.503   7.002
 6433SOL    HW220199   2.929   5.454   0.085
 6434SOL     OW20200   2.567   6.676   6.336
 6434SOL    HW120201   2.481   6.726   6.331
 6434SOL    HW220202   2.632   6.727   6.392
 6435SOL     OW20203   6.217   0.039   0.701
 6435SOL    HW120204   6.293   0.011   0.644
 6435SOL    HW220205   6.218   7.010   0.786
 6436SOL     OW20206   0.752   3.270   3.561
 6436SOL    HW120207   0.730   3.281   3.657
 6436SOL    HW220208   0.822   3.199   3.551
 6437SOL     OW20209   0.611   1.895   5.339
 6437SOL    HW120210   0.527   1.950   5.339
 6437SOL    HW220211   0.688   1.951   5.369
 6438SOL     OW20212   1.032   5.141   6.233
 6438SOL    HW120213   0.965   5.087   6.283
 6438SOL    HW220214   1.118   5.142   6.284
 6439SOL     OW20215   6.514   1.107   3.071
 6439SOL    HW120216   6.484   1.069   2.983
 6439SOL    HW220217   6.578   1.043   3.114
 6440SOL     OW20218   2.336   1.056   6.839
 6440SOL    HW120219   2.347   0.965   6.879
 6440SOL    HW220220   2.311   1.047   6.743
 6441SOL     OW20221   0.058   0.922   2.946
 6441SOL    HW120222   6.999   0.976   2.932
 6441SOL    HW220223   0.134   0.983   2.969
 6442SOL     OW20224   2.488   2.342   4.632
 6442SOL    HW120225   2.569   2.307   4.586
 6442SOL    HW220226   2.513   2.377   4.722
 6443SOL     OW20227   3.623   2.060   6.017
 6443SOL    HW120228   3.686   2.092   6.089
 6443SOL    HW220229   3.585   2.139   5.970
 6444SOL     OW20230   0.396   2.465   5.117
 6444SOL    HW120231   0.415   2.377   5.161
 6444SOL    HW220232   0.483   2.508   5.092
 6445SOL     OW20233   3.315   3.251   2.818
 6445SOL    HW120234   3.282   3.163   2.783
 6445SOL    HW220235   3.247   3.290   2.880
 6446SOL     OW20236   1.027   1.906   0.093
 6446SOL    HW120237   1.053   1.811   0.074
 6446SOL    HW220238   1.051   1.929   0.187
 6447SOL     OW20239   6.883   4.301   1.915
 6447SOL    HW120240   6.952   4.243   1.872
 6447SOL    HW220241   6.926   4.359   1.985
 6448SOL     OW20242   4.825   5.243   1.649
 6448SOL    HW120243   4.732   5.260   1.618
 6448SOL    HW220244   4.870   5.329   1.672
 6449SOL     OW20245   2.031   5.529   1.318
 6449SOL    HW120246   2.112   5.587   1.327
 6449SOL    HW220247   2.045   5.445   1.371
 6450SOL     OW20248   0.961   4.150   0.375
 6450SOL    HW120249   0.880   4.198   0.343
 6450SOL    HW220250   1.010   4.112   0.296
 6451SOL     OW20251   3.255   1.779   6.327
 6451SOL    HW120252   3.311   1.784   6.244
 6451SOL    HW220253   3.161   1.756   6.303
 6452SOL     OW20254   4.890   3.867   2.557
 6452SOL    HW120255   4.977   3.912   2.534
 6452SOL    HW220256   4.830   3.933   2.603
 6453SOL     OW20257   3.317   6.664   1.082
 6453SOL    HW120258   3.395   6.712   1.122
 6453SOL    HW220259   3.256   6.731   1.039
 6454SOL     OW20260   0.158   1.640   2.379
 6454SOL    HW120261   0.093   1.691   2.323
 6454SOL    HW220262   0.109   1.590   2.450
 6455SOL     OW20263   6.136   3.919   3.311
 6455SOL    HW120264   6.209   3.905   3.378
 6455SOL    HW220265   6.057   3.961   3.355
 6456SOL     OW20266   0.881   0.442   2.943
 6456SOL    HW120267   0.861   0.377   2.870
 6456SOL    HW220268   0.814   0.429   3.017
 6457SOL     OW20269   4.653   0.127   2.016
 6457SOL    HW120270   4.658   0.054   1.948
 6457SOL    HW220271   4.691   0.095   2.103
 6458SOL     OW20272   1.597   5.026   4.237
 6458SOL    HW120273   1.503   4.993   4.246
 6458SOL    HW220274   1.616   5.092   4.309
 6459SOL     OW20275   5.792   2.192   2.810
 6459SOL    HW120276   5.706   2.171   2.856
 6459SOL    HW220277   5.804   2.292   2.807
 6460SOL     OW20278   6.184   5.525   5.828
 6460SOL    HW120279   6.151   5.484   5.913
 6460SOL    HW220280   6.283   5.536   5.832
 6461SOL     OW20281   3.444   4.617   0.318
 6461SOL    HW120282   3.518   4.611   0.251
 6461SOL    HW220283   3.396   4.530   0.323
 6462SOL     OW20284   1.155   3.279   4.356
 6462SOL    HW120285   1.188   3.190   4.386
 6462SOL    HW220286   1.056   3.274   4.339
 6463SOL     OW20287   5.245   0.272   0.364
 6463SOL    HW120288   5.301   0.207   0.312
 6463SOL    HW220289   5.220   0.348   0.304
 6464SOL     OW20290   0.845   5.792   5.037
 6464SOL    HW120291   0.787   5.827   5.110
 6464SOL    HW220292   0.939   5.821   5.052
 6465SOL     OW20293   5.889   2.330   2.145
 6465SOL    HW120294   5.858   2.294   2.057
 6465SOL    HW220295   5.978   2.373   2.134
 6466SOL     OW20296   6.738   2.883   6.669
 6466SOL    HW120297   6.737   2.784   6.684
 6466SOL    HW220298   6.657   2.910   6.616
 6467SOL     OW20299   4.223   1.285   0.629
 6467SOL    HW120300   4.182   1.255   0.715
 6467SOL    HW220301   4.175   1.366   0.595
 6468SOL     OW20302   3.821   6.129   1.028
 6468SOL    HW120303   3.745   6.108   1.089
 6468SOL    HW220304   3.907   6.096   1.068
 6469SOL     OW20305   2.874   2.141   3.914
 6469SOL    HW120306   2.843   2.122   3.821
 6469SOL    HW220307   2.890   2.054   3.962
 6470SOL     OW20308   5.813   2.459   0.660
 6470SOL    HW120309   5.790   2.450   0.756
 6470SOL    HW220310   5.745   2.517   0.614
 6471SOL     OW20311   0.764   6.351   4.576
 6471SOL    HW120312   0.759   6.252   4.593
 6471SOL    HW220313   0.808   6.396   4.654
 6472SOL     OW20314   6.527   5.867   2.360
 6472SOL    HW120315   6.525   5.960   2.323
 6472SOL    HW220316   6.619   5.846   2.392
 6473SOL     OW20317   1.892   1.920   4.685
 6473SOL    HW120318   1.793   1.921   4.698
 6473SOL    HW220319   1.937   1.911   4.774
 6474SOL     OW20320   3.924   5.336   5.545
 6474SOL    HW120321   4.020   5.339   5.518
 6474SOL    HW220322   3.868   5.382   5.476
 6475SOL     OW20323   5.632   5.059   3.657
 6475SOL    HW120324   5.688   5.001   3.598
 6475SOL    HW220325   5.666   5.055   3.751
 6476SOL     OW20326   4.185   2.807   6.873
 6476SOL    HW120327   4.186   2.811   6.973
 6476SOL    HW220328   4.145   2.891   6.837
 6477SOL     OW20329   6.820   5.392   0.760
 6477SOL    HW120330   6.799   5.311   0.706
 6477SOL    HW220331   6.897   5.441   0.719
 6478SOL     OW20332   2.670   6.127   1.578
 6478SOL    HW120333   2.605   6.203   1.566
 6478SOL    HW220334   2.757   6.163   1.610
 6479SOL     OW20335   3.214   5.290   4.352
 6479SOL    HW120336   3.269   5.366   4.387
 6479SOL    HW220337   3.120   5.298   4.386
 6480SOL     OW20338   2.293   1.535   0.178
 6480SOL    HW120339   2.197   1.529   0.208
 6480SOL    HW220340   2.301   1.503   0.084
 6481SOL     OW20341   3.193   2.400   1.748
 6481SOL    HW120342   3.106   2.418   1.793
 6481SOL    HW220343   3.177   2.382   1.651
 6482SOL     OW20344   6.571   2.023   5.666
 6482SOL    HW120345   6.504   2.055   5.733
 6482SOL    HW220346   6.583   1.924   5.676
 6483SOL     OW20347   1.037   5.971   3.970
 6483SOL    HW120348   0.954   5.916   3.965
 6483SOL    HW220349   1.014   6.068   3.956
 6484SOL     OW20350   2.715   1.784   2.593
 6484SOL    HW120351   2.744   1.877   2.617
 6484SOL    HW220352   2.684   1.783   2.497
 6485SOL     OW20353   2.267   5.945   4.490
 6485SOL    HW120354   2.357   5.985   4.477
 6485SOL    HW220355   2.236   5.903   4.404
 6486SOL     OW20356   0.675   4.725   2.853
 6486SOL    HW120357   0.757   4.711   2.798
 6486SOL    HW220358   0.607   4.655   2.831
 6487SOL     OW20359   1.250   5.680   4.344
 6487SOL    HW120360   1.293   5.603   4.296
 6487SOL    HW220361   1.288   5.766   4.309
 6488SOL     OW20362   4.807   5.968   5.246
 6488SOL    HW120363   4.759   5.882   5.265
 6488SOL    HW220364   4.789   5.997   5.152
 6489SOL     OW20365   3.213   3.174   6.297
 6489SOL    HW120366   3.124   3.136   6.273
 6489SOL    HW220367   3.208   3.274   6.298
 6490SOL     OW20368   2.568   1.602   6.494
 6490SOL    HW120369   2.625   1.537   6.443
 6490SOL    HW220370   2.567   1.690   6.448
 6491SOL     OW20371   2.220   0.618   1.360
 6491SOL    HW120372   2.238   0.600   1.457
 6491SOL    HW220373   2.242   0.713   1.339
 6492SOL     OW20374   3.896   3.898   4.196
 6492SOL    HW120375   3.867   3.980   4.147
 6492SOL    HW220376   3.820   3.834   4.202
 6493SOL     OW20377   1.623   4.648   6.181
 6493SOL    HW120378   1.599   4.628   6.086
 6493SOL    HW220379   1.624   4.747   6.195
 6494SOL     OW20380   6.158   6.170   2.563
 6494SOL    HW120381   6.161   6.236   2.488
 6494SOL    HW220382   6.225   6.196   2.632
 6495SOL     OW20383   6.790   7.006   4.637
 6495SOL    HW120384   6.736   0.018   4.713
 6495SOL    HW220385   6.826   6.916   4.661
 6496SOL     OW20386   5.033   6.755   1.643
 6496SOL    HW120387   5.070   6.789   1.557
 6496SOL    HW220388   4.957   6.692   1.624
 6497SOL     OW20389   0.938   1.224   1.527
 6497SOL    HW120390   0.971   1.261   1.440
 6497SOL    HW220391   0.958   1.288   1.600
 6498SOL     OW20392   0.679   3.838   4.205
 6498SOL    HW120393   0.649   3.879   4.119
 6498SOL    HW220394   0.633   3.883   4.282
 6499SOL     OW20395   5.577   3.574   4.399
 6499SOL    HW120396   5.575   3.670   4.373
 6499SOL    HW220397   5.489   3.547   4.436
 6500SOL     OW20398   0.355   4.159   2.127
 6500SOL    HW120399   0.444   4.191   2.093
 6500SOL    HW220400   0.316   4.228   2.188
 6501SOL     OW20401   0.146   1.633   0.825
 6501SOL    HW120402   0.217   1.683   0.873
 6501SOL    HW220403   0.186   1.555   0.777
 6502SOL     OW20404   6.528   3.765   1.655
 6502SOL    HW120405   6.545   3.668   1.673
 6502SOL    HW220406   6.595   3.799   1.589
 6503SOL     OW20407   6.135   0.881   4.731
 6503SOL    HW120408   6.036   0.864   4.734
 6503SOL    HW220409   6.156   0.959   4.791
 6504SOL     OW20410   4.454   6.542   6.603
 6504SOL    HW120411   4.522   6.479   6.565
 6504SOL    HW220412   4.467   6.549   6.702
 6505SOL     OW20413   5.324   6.687   6.822
 6505SOL    HW120414   5.303   6.783   6.839
 6505SOL    HW220415   5.400   6.680   6.758
 6506SOL     OW20416   0.061   3.288   3.613
 6506SOL    HW120417   7.007   3.251   3.563
 6506SOL    HW220418   0.117   3.212   3.647
 6507SOL     OW20419   2.654   5.805   6.162
 6507SOL    HW120420   2.589   5.791   6.236
 6507SOL    HW220421   2.707   5.722   6.148
 6508SOL     OW20422   1.867   0.125   2.529
 6508SOL    HW120423   1.819   0.196   2.580
 6508SOL    HW220424   1.930   0.078   2.590
 6509SOL     OW20425   5.008   1.262   5.475
 6509SOL    HW120426   4.963   1.307   5.398
 6509SOL    HW220427   5.107   1.272   5.467
 6510SOL     OW20428   4.397   5.690   6.676
 6510SOL    HW120429   4.487   5.682   6.632
 6510SOL    HW220430   4.409   5.719   6.771
 6511SOL     OW20431   3.990   0.757   5.803
 6511SOL    HW120432   3.944   0.783   5.887
 6511SOL    HW220433   4.064   0.694   5.823
 6512SOL     OW20434   3.036   6.382   2.810
 6512SOL    HW120435   3.114   6.377   2.872
 6512SOL    HW220436   2.986   6.295   2.811
 6513SOL     OW20437   2.348   6.287   4.100
 6513SOL    HW120438   2.434   6.260   4.057
 6513SOL    HW220439   2.332   6.384   4.084
 6514SOL     OW20440   5.887   0.766   4.837
 6514SOL    HW120441   5.881   0.686   4.896
 6514SOL    HW220442   5.800   0.815   4.837
 6515SOL     OW20443   2.004   3.996   2.400
 6515SOL    HW120444   1.926   3.988   2.462
 6515SOL    HW220445   2.046   3.906   2.389
 6516SOL     OW20446   6.593   3.248   2.085
 6516SOL    HW120447   6.689   3.262   2.106
 6516SOL    HW220448   6.539   3.250   2.170
 6517SOL     OW20449   0.543   2.054   0.631
 6517SOL    HW120450   0.499   2.133   0.673
 6517SOL    HW220451   0.603   2.086   0.557
 6518SOL     OW20452   6.648   0.558   2.369
 6518SOL    HW120453   6.733   0.520   2.406
 6518SOL    HW220454   6.667   0.601   2.280
 6519SOL     OW20455   0.621   0.778   3.435
 6519SOL    HW120456   0.540   0.836   3.426
 6519SOL    HW220457   0.647   0.744   3.344
 6520SOL     OW20458   6.922   5.839   6.301
 6520SOL    HW120459   6.922   5.756   6.356
 6520SOL    HW220460   6.868   5.824   6.218
 6521SOL     OW20461   1.461   2.826   2.964
 6521SOL    HW120462   1.548   2.828   3.013
 6521SOL    HW220463   1.389   2.793   3.026
 6522SOL     OW20464   2.542   4.682   5.298
 6522SOL    HW120465   2.561   4.779   5.313
 6522SOL    HW220466   2.564   4.657   5.204
 6523SOL     OW20467   4.308   6.787   0.086
 6523SOL    HW120468   4.360   6.726   0.147
 6523SOL    HW220469   4.272   6.734   0.009
 6524SOL     OW20470   2.729   2.392   1.706
 6524SOL    HW120471   2.796   2.382   1.779
 6524SOL    HW220472   2.776   2.415   1.621
 6525SOL     OW20473   2.479   5.536   3.650
 6525SOL    HW120474   2.422   5.602   3.600
 6525SOL    HW220475   2.576   5.559   3.636
 6526SOL     OW20476   0.435   0.133   1.210
 6526SOL    HW120477   0.419   0.036   1.225
 6526SOL    HW220478   0.390   0.186   1.283
 6527SOL     OW20479   0.685   2.086   0.381
 6527SOL    HW120480   0.629   2.029   0.320
 6527SOL    HW220481   0.640   2.174   0.393
 6528SOL     OW20482   6.928   1.523   6.255
 6528SOL    HW120483   6.887   1.605   6.296
 6528SOL    HW220484   6.927   1.532   6.155
 6529SOL     OW20485   0.809   0.381   2.521
 6529SOL    HW120486   0.713   0.399   2.543
 6529SOL    HW220487   0.858   0.468   2.513
 6530SOL     OW20488   0.674   1.932   0.984
 6530SOL    HW120489   0.623   1.990   1.048
 6530SOL    HW220490   0.705   1.987   0.907
 6531SOL     OW20491   4.452   3.658   5.571
 6531SOL    HW120492   4.470   3.608   5.486
 6531SOL    HW220493   4.408   3.745   5.551
 6532SOL     OW20494   2.124   1.230   0.907
 6532SOL    HW120495   2.160   1.234   0.813
 6532SOL    HW220496   2.024   1.232   0.904
 6533SOL     OW20497   4.124   6.154   0.312
 6533SOL    HW120498   4.061   6.123   0.383
 6533SOL    HW220499   4.217   6.127   0.336
 6534SOL     OW20500   5.100   5.027   1.724
 6534SOL    HW120501   5.127   4.931   1.726
 6534SOL    HW220502   5.152   5.074   1.652
 6535SOL     OW20503   6.101   4.626   4.525
 6535SOL    HW120504   6.145   4.536   4.519
 6535SOL    HW220505   6.018   4.618   4.579
 6536SOL     OW20506   0.342   1.976   5.378
 6536SOL    HW120507   0.342   1.882   5.343
 6536SOL    HW220508   0.256   2.021   5.355
 6537SOL     OW20509   6.829   4.833   4.424
 6537SOL    HW120510   6.872   4.859   4.338
 6537SOL    HW220511   6.763   4.760   4.408
 6538SOL     OW20512   1.418   3.759   5.719
 6538SOL    HW120513   1.470   3.751   5.634
 6538SOL    HW220514   1.479   3.782   5.794
 6539SOL     OW20515   4.909   0.690   6.675
 6539SOL    HW120516   4.993   0.717   6.629
 6539SOL    HW220517   4.837   0.670   6.608
 6540SOL     OW20518   2.458   2.531   6.040
 6540SOL    HW120519   2.531   2.482   5.993
 6540SOL    HW220520   2.373   2.479   6.033
 6541SOL     OW20521   5.096   2.450   5.807
 6541SOL    HW120522   5.179   2.410   5.847
 6541SOL    HW220523   5.066   2.526   5.864
 6542SOL     OW20524   1.194   3.356   4.835
 6542SOL    HW120525   1.220   3.423   4.765
 6542SOL    HW220526   1.128   3.292   4.796
 6543SOL     OW20527   3.840   2.535   6.018
 6543SOL    HW120528   3.836   2.451   5.965
 6543SOL    HW220529   3.827   2.514   6.115
 6544SOL     OW20530   0.344   6.590   2.112
 6544SOL    HW120531   0.369   6.686   2.122
 6544SOL    HW220532   0.325   6.571   2.015
 6545SOL     OW20533   3.812   7.018   0.558
 6545SOL    HW120534   3.882   6.993   0.625
 6545SOL    HW220535   3.744   0.053   0.601
 6546SOL     OW20536   4.075   4.011   6.757
 6546SOL    HW120537   4.128   4.041   6.678
 6546SOL    HW220538   4.133   3.958   6.818
 6547SOL     OW20539   4.698   0.562   5.802
 6547SOL    HW120540   4.720   0.658   5.819
 6547SOL    HW220541   4.604   0.555   5.768
 6548SOL     OW20542   1.200   3.252   6.984
 6548SOL    HW120543   1.210   3.340   0.006
 6548SOL    HW220544   1.239   3.180   0.018
 6549SOL     OW20545   4.903   0.301   2.079
 6549SOL    HW120546   4.877   0.206   2.060
 6549SOL    HW220547   4.955   0.337   2.002
 6550SOL     OW20548   0.108   6.968   3.506
 6550SOL    HW120549   0.130   7.022   3.587
 6550SOL    HW220550   0.073   6.879   3.533
 6551SOL     OW20551   2.650   3.408   1.796
 6551SOL    HW120552   2.660   3.497   1.751
 6551SOL    HW220553   2.554   3.391   1.816
 6552SOL     OW20554   2.341   0.253   0.654
 6552SOL    HW120555   2.320   0.176   0.594
 6552SOL    HW220556   2.398   0.318   0.604
 6553SOL     OW20557   0.918   1.647   2.940
 6553SOL    HW120558   0.888   1.561   2.982
 6553SOL    HW220559   1.013   1.639   2.911
 6554SOL     OW20560   2.557   0.922   5.220
 6554SOL    HW120561   2.478   0.979   5.196
 6554SOL    HW220562   2.641   0.971   5.199
 6555SOL     OW20563   5.903   1.688   4.029
 6555SOL    HW120564   5.822   1.644   4.066
 6555SOL    HW220565   5.977   1.684   4.096
 6556SOL     OW20566   6.128   3.087   2.521
 6556SOL    HW120567   6.082   3.168   2.559
 6556SOL    HW220568   6.081   3.005   2.553
 6557SOL     OW20569   2.677   0.676   2.430
 6557SOL    HW120570   2.633   0.635   2.350
 6557SOL    HW220571   2.612   0.678   2.506
 6558SOL     OW20572   5.636   5.568   0.220
 6558SOL    HW120573   5.671   5.479   0.250
 6558SOL    HW220574   5.661   5.638   0.286
 6559SOL     OW20575   0.069   3.578   6.012
 6559SOL    HW120576   0.092   3.621   5.925
 6559SOL    HW220577   0.139   3.599   6.080
 6560SOL     OW20578   3.839   4.514   1.001
 6560SOL    HW120579   3.899   4.584   0.964
 6560SOL    HW220580   3.747   4.526   0.965
 6561SOL     OW20581   3.911   4.481   1.275
 6561SOL    HW120582   3.860   4.467   1.191
 6561SOL    HW220583   4.010   4.480   1.256
 6562SOL     OW20584   5.619   2.491   1.166
 6562SOL    HW120585   5.595   2.584   1.193
 6562SOL    HW220586   5.678   2.450   1.236
 6563SOL     OW20587   5.108   0.418   5.566
 6563SOL    HW120588   5.102   0.448   5.661
 6563SOL    HW220589   5.017   0.412   5.526
 6564SOL     OW20590   6.119   3.131   2.154
 6564SOL    HW120591   6.138   3.226   2.128
 6564SOL    HW220592   6.132   3.072   2.074
 6565SOL     OW20593   6.393   6.332   3.073
 6565SOL    HW120594   6.489   6.305   3.070
 6565SOL    HW220595   6.386   6.431   3.083
 6566SOL     OW20596   3.077   5.361   1.762
 6566SOL    HW120597   3.034   5.451   1.764
 6566SOL    HW220598   3.150   5.358   1.830
 6567SOL     OW20599   4.870   0.774   1.698
 6567SOL    HW120600   4.832   0.687   1.729
 6567SOL    HW220601   4.862   0.842   1.770
 6568SOL     OW20602   4.012   2.145   3.094
 6568SOL    HW120603   3.926   2.183   3.129
 6568SOL    HW220604   4.086   2.212   3.108
 6569SOL     OW20605   1.469   3.507   6.542
 6569SOL    HW120606   1.512   3.503   6.633
 6569SOL    HW220607   1.538   3.529   6.473
 6570SOL     OW20608   3.552   0.807   2.803
 6570SOL    HW120609   3.639   0.856   2.806
 6570SOL    HW220610   3.560   0.722   2.856
 6571SOL     OW20611   2.973   4.824   2.448
 6571SOL    HW120612   2.979   4.782   2.357
 6571SOL    HW220613   2.972   4.752   2.518
 6572SOL     OW20614   0.219   3.648   3.911
 6572SOL    HW120615   0.196   3.555   3.938
 6572SOL    HW220616   0.291   3.683   3.971
 6573SOL     OW20617   1.796   1.102   3.000
 6573SOL    HW120618   1.730   1.052   2.945
 6573SOL    HW220619   1.749   1.172   3.053
 6574SOL     OW20620   2.535   6.216   3.339
 6574SOL    HW120621   2.515   6.122   3.310
 6574SOL    HW220622   2.482   6.281   3.285
 6575SOL     OW20623   0.482   6.744   3.066
 6575SOL    HW120624   0.463   6.789   3.153
 6575SOL    HW220625   0.580   6.750   3.046
 6576SOL     OW20626   3.062   5.624   0.752
 6576SOL    HW120627   3.050   5.545   0.691
 6576SOL    HW220628   2.982   5.633   0.811
 6577SOL     OW20629   1.597   1.771   3.931
 6577SOL    HW120630   1.551   1.844   3.980
 6577SOL    HW220631   1.684   1.804   3.894
 6578SOL     OW20632   0.851   6.268   1.963
 6578SOL    HW120633   0.872   6.194   2.027
 6578SOL    HW220634   0.897   6.250   1.875
 6579SOL     OW20635   0.002   2.435   4.287
 6579SOL    HW120636   7.006   2.382   4.204
 6579SOL    HW220637   0.098   2.464   4.284
 6580SOL     OW20638   1.026   1.464   0.688
 6580SOL    HW120639   0.955   1.404   0.652
 6580SOL    HW220640   1.063   1.521   0.614
 6581SOL     OW20641   1.578   0.672   1.010
 6581SOL    HW120642   1.515   0.594   1.001
 6581SOL    HW220643   1.649   0.650   1.077
 6582SOL     OW20644   6.827   0.274   2.839
 6582SOL    HW120645   6.789   0.283   2.931
 6582SOL    HW220646   6.752   0.257   2.774
 6583SOL     OW20647   5.295   6.254   5.305
 6583SOL    HW120648   5.202   6.231   5.334
 6583SOL    HW220649   5.358   6.245   5.382
 6584SOL     OW20650   3.684   2.324   0.642
 6584SOL    HW120651   3.606   2.276   0.681
 6584SOL    HW220652   3.653   2.409   0.600
 6585SOL     OW20653   6.725   6.495   6.819
 6585SOL    HW120654   6.648   6.439   6.788
 6585SOL    HW220655   6.690   6.576   6.866
 6586SOL     OW20656   6.771   2.020   6.089
 6586SOL    HW120657   6.865   1.989   6.105
 6586SOL    HW220658   6.709   1.976   6.154
 6587SOL     OW20659   1.654   4.371   6.561
 6587SOL    HW120660   1.729   4.334   6.506
 6587SOL    HW220661   1.607   4.442   6.509
 6588SOL     OW20662   0.427   3.583   1.339
 6588SOL    HW120663   0.474   3.521   1.277
 6588SOL    HW220664   0.443   3.556   1.433
 6589SOL     OW20665   4.751   0.945   2.348
 6589SOL    HW120666   4.668   1.001   2.338
 6589SOL    HW220667   4.821   0.997   2.395
 6590SOL     OW20668   0.666   6.884   5.346
 6590SOL    HW120669   0.734   6.919   5.281
 6590SOL    HW220670   0.587   6.946   5.348
 6591SOL     OW20671   5.480   6.599   3.515
 6591SOL    HW120672   5.457   6.692   3.485
 6591SOL    HW220673   5.572   6.576   3.485
 6592SOL     OW20674   4.735   0.252   2.507
 6592SOL    HW120675   4.658   0.259   2.570
 6592SOL    HW220676   4.779   0.163   2.518
 6593SOL     OW20677   2.875   2.250   2.346
 6593SOL    HW120678   2.878   2.287   2.253
 6593SOL    HW220679   2.918   2.160   2.347
 6594SOL     OW20680   3.516   1.573   5.613
 6594SOL    HW120681   3.599   1.623   5.585
 6594SOL    HW220682   3.449   1.578   5.539
 6595SOL     OW20683   1.351   3.455   5.547
 6595SOL    HW120684   1.431   3.420   5.499
 6595SOL    HW220685   1.371   3.460   5.645
 6596SOL     OW20686   3.798   6.321   3.544
 6596SOL    HW120687   3.780   6.404   3.493
 6596SOL    HW220688   3.713   6.271   3.559
 6597SOL     OW20689   1.953   5.143   2.158
 6597SOL    HW120690   2.014   5.155   2.080
 6597SOL    HW220691   1.940   5.046   2.176
 6598SOL     OW20692   2.050   4.811   4.266
 6598SOL    HW120693   2.022   4.902   4.237
 6598SOL    HW220694   2.134   4.818   4.321
 6599SOL     OW20695   4.660   6.275   6.936
 6599SOL    HW120696   4.608   6.337   6.995
 6599SOL    HW220697   4.751   6.313   6.920
 6600SOL     OW20698   3.887   6.721   4.639
 6600SOL    HW120699   3.971   6.764   4.605
 6600SOL    HW220700   3.867   6.755   4.731
 6601SOL     OW20701   0.432   2.077   3.331
 6601SOL    HW120702   0.487   2.047   3.254
 6601SOL    HW220703   0.378   2.000   3.365
 6602SOL     OW20704   1.960   0.579   1.580
 6602SOL    HW120705   1.934   0.530   1.497
 6602SOL    HW220706   1.878   0.606   1.630
 6603SOL     OW20707   0.645   2.924   4.232
 6603SOL    HW120708   0.593   2.922   4.317
 6603SOL    HW220709   0.582   2.911   4.155
 6604SOL     OW20710   1.811   0.196   1.490
 6604SOL    HW120711   1.908   0.185   1.468
 6604SOL    HW220712   1.792   0.156   1.580
 6605SOL     OW20713   5.805   5.933   2.538
 6605SOL    HW120714   5.862   5.872   2.484
 6605SOL    HW220715   5.820   5.916   2.636
 6606SOL     OW20716   6.703   4.539   2.838
 6606SOL    HW120717   6.727   4.486   2.757
 6606SOL    HW220718   6.621   4.499   2.880
 6607SOL     OW20719   6.805   5.253   3.663
 6607SOL    HW120720   6.730   5.188   3.659
 6607SOL    HW220721   6.782   5.335   3.611
 6608SOL     OW20722   0.257   0.170   0.466
 6608SOL    HW120723   0.295   0.209   0.550
 6608SOL    HW220724   0.162   0.199   0.456
 6609SOL     OW20725   5.214   0.977   6.364
 6609SOL    HW120726   5.245   1.068   6.390
 6609SOL    HW220727   5.206   0.972   6.264
 6610SOL     OW20728   2.413   6.775   0.136
 6610SOL    HW120729   2.335   6.837   0.119
 6610SOL    HW220730   2.379   6.690   0.177
 6611SOL     OW20731   5.153   3.104   3.204
 6611SOL    HW120732   5.139   3.164   3.125
 6611SOL    HW220733   5.065   3.062   3.229
 6612SOL     OW20734   0.017   2.394   6.192
 6612SOL    HW120735   6.995   2.446   6.263
 6612SOL    HW220736   0.008   2.296   6.211
 6613SOL     OW20737   5.583   6.806   5.478
 6613SOL    HW120738   5.558   6.893   5.435
 6613SOL    HW220739   5.508   6.775   5.536
 6614SOL     OW20740   4.420   6.941   0.659
 6614SOL    HW120741   4.460   6.869   0.717
 6614SOL    HW220742   4.434   0.006   0.703
 6615SOL     OW20743   1.944   5.499   0.579
 6615SOL    HW120744   1.989   5.559   0.644
 6615SOL    HW220745   1.890   5.430   0.628
 6616SOL     OW20746   4.770   0.103   6.142
 6616SOL    HW120747   4.806   0.011   6.131
 6616SOL    HW220748   4.685   0.112   6.090
 6617SOL     OW20749   4.663   6.172   3.478
 6617SOL    HW120750   4.609   6.241   3.525
 6617SOL    HW220751   4.732   6.217   3.421
 6618SOL     OW20752   1.286   1.341   2.573
 6618SOL    HW120753   1.287   1.298   2.664
 6618SOL    HW220754   1.233   1.426   2.577
 6619SOL     OW20755   4.679   6.943   3.630
 6619SOL    HW120756   4.588   6.932   3.589
 6619SOL    HW220757   4.699   0.016   3.641
 6620SOL     OW20758   2.120   3.594   4.635
 6620SOL    HW120759   2.120   3.628   4.729
 6620SOL    HW220760   2.123   3.494   4.636
 6621SOL     OW20761   3.701   2.578   5.374
 6621SOL    HW120762   3.619   2.605   5.423
 6621SOL    HW220763   3.710   2.633   5.291
 6622SOL     OW20764   6.343   5.568   2.003
 6622SOL    HW120765   6.305   5.550   1.913
 6622SOL    HW220766   6.279   5.540   2.074
 6623SOL     OW20767   3.520   4.205   4.706
 6623SOL    HW120768   3.568   4.176   4.623
 6623SOL    HW220769   3.422   4.195   4.693
 6624SOL     OW20770   0.549   3.583   5.625
 6624SOL    HW120771   0.568   3.485   5.636
 6624SOL    HW220772   0.608   3.620   5.554
 6625SOL     OW20773   5.192   2.012   5.166
 6625SOL    HW120774   5.221   1.947   5.236
 6625SOL    HW220775   5.264   2.080   5.152
 6626SOL     OW20776   3.611   6.905   5.804
 6626SOL    HW120777   3.669   6.935   5.729
 6626SOL    HW220778   3.637   6.812   5.832
 6627SOL     OW20779   2.101   6.589   4.241
 6627SOL    HW120780   2.061   6.677   4.268
 6627SOL    HW220781   2.030   6.532   4.201
 6628SOL     OW20782   5.242   4.692   3.704
 6628SOL    HW120783   5.284   4.677   3.793
 6628SOL    HW220784   5.143   4.681   3.710
 6629SOL     OW20785   4.799   5.550   6.228
 6629SOL    HW120786   4.743   5.589   6.154
 6629SOL    HW220787   4.775   5.595   6.314
 6630SOL     OW20788   3.515   1.851   1.680
 6630SOL    HW120789   3.454   1.773   1.686
 6630SOL    HW220790   3.521   1.897   1.769
 6631SOL     OW20791   2.205   5.577   4.348
 6631SOL    HW120792   2.279   5.635   4.383
 6631SOL    HW220793   2.172   5.517   4.420
 6632SOL     OW20794   1.581   1.202   1.002
 6632SOL    HW120795   1.543   1.111   0.984
 6632SOL    HW220796   1.523   1.250   1.068
 6633SOL     OW20797   2.833   4.718   5.888
 6633SOL    HW120798   2.808   4.808   5.851
 6633SOL    HW220799   2.846   4.653   5.813
 6634SOL     OW20800   4.642   1.701   5.152
 6634SOL    HW120801   4.610   1.608   5.171
 6634SOL    HW220802   4.740   1.699   5.132
 6635SOL     OW20803   4.723   4.103   3.334
 6635SOL    HW120804   4.697   4.057   3.249
 6635SOL    HW220805   4.810   4.151   3.321
 6636SOL     OW20806   3.671   1.523   0.368
 6636SOL    HW120807   3.753   1.580   0.370
 6636SOL    HW220808   3.614   1.543   0.448
 6637SOL     OW20809   2.559   6.994   6.216
 6637SOL    HW120810   2.492   6.973   6.288
 6637SOL    HW220811   2.617   6.915   6.199
 6638SOL     OW20812   3.108   3.732   3.324
 6638SOL    HW120813   3.140   3.649   3.278
 6638SOL    HW220814   3.066   3.793   3.257
 6639SOL     OW20815   3.329   3.818   6.847
 6639SOL    HW120816   3.297   3.794   6.755
 6639SOL    HW220817   3.402   3.756   6.874
 6640SOL     OW20818   0.001   2.187   4.552
 6640SOL    HW120819   0.053   2.215   4.471
 6640SOL    HW220820   0.024   2.093   4.576
 6641SOL     OW20821   3.552   1.715   6.757
 6641SOL    HW120822   3.509   1.700   6.846
 6641SOL    HW220823   3.483   1.745   6.691
 6642SOL     OW20824   2.156   5.635   6.084
 6642SOL    HW120825   2.201   5.577   6.152
 6642SOL    HW220826   2.221   5.657   6.011
 6643SOL     OW20827   6.691   0.148   0.203
 6643SOL    HW120828   6.637   0.108   0.277
 6643SOL    HW220829   6.737   0.075   0.153
 6644SOL     OW20830   2.095   6.077   2.882
 6644SOL    HW120831   2.018   6.088   2.945
 6644SOL    HW220832   2.167   6.143   2.905
 6645SOL     OW20833   5.731   3.338   0.873
 6645SOL    HW120834   5.638   3.363   0.845
 6645SOL    HW220835   5.727   3.252   0.924
 6646SOL     OW20836   4.200   1.119   5.443
 6646SOL    HW120837   4.235   1.185   5.509
 6646SOL    HW220838   4.262   1.040   5.440
 6647SOL     OW20839   4.529   6.525   0.658
 6647SOL    HW120840   4.562   6.566   0.743
 6647SOL    HW220841   4.434   6.498   0.669
 6648SOL     OW20842   3.311   6.254   4.693
 6648SOL    HW120843   3.382   6.185   4.708
 6648SOL    HW220844   3.244   6.248   4.768
 6649SOL     OW20845   5.614   3.068   6.210
 6649SOL    HW120846   5.588   2.991   6.268
 6649SOL    HW220847   5.665   3.033   6.131
 6650SOL     OW20848   3.602   1.483   4.958
 6650SOL    HW120849   3.579   1.482   5.055
 6650SOL    HW220850   3.692   1.442   4.945
 6651SOL     OW20851   1.814   1.752   6.413
 6651SOL    HW120852   1.802   1.748   6.314
 6651SOL    HW220853   1.732   1.716   6.458
 6652SOL     OW20854   0.522   4.962   0.040
 6652SOL    HW120855   0.575   5.042   0.013
 6652SOL    HW220856   0.424   4.985   0.036
 6653SOL     OW20857   4.625   3.007   0.714
 6653SOL    HW120858   4.533   3.046   0.718
 6653SOL    HW220859   4.681   3.045   0.787
 6654SOL     OW20860   0.863   5.698   2.570
 6654SOL    HW120861   0.956   5.671   2.592
 6654SOL    HW220862   0.851   5.703   2.470
 6655SOL     OW20863   0.211   6.067   2.168
 6655SOL    HW120864   0.199   6.050   2.266
 6655SOL    HW220865   0.195   6.164   2.149
 6656SOL     OW20866   5.222   1.988   2.938
 6656SOL    HW120867   5.152   1.942   2.993
 6656SOL    HW220868   5.290   1.920   2.908
 6657SOL     OW20869   5.950   3.095   4.815
 6657SOL    HW120870   5.888   3.134   4.884
 6657SOL    HW220871   6.005   3.168   4.775
 6658SOL     OW20872   6.182   6.843   5.960
 6658SOL    HW120873   6.272   6.832   6.003
 6658SOL    HW220874   6.136   6.754   5.955
 6659SOL     OW20875   0.973   3.394   1.413
 6659SOL    HW120876   1.026   3.406   1.497
 6659SOL    HW220877   0.923   3.307   1.418
 6660SOL     OW20878   2.061   5.296   1.467
 6660SOL    HW120879   2.144   5.244   1.488
 6660SOL    HW220880   1.982   5.253   1.511
 6661SOL     OW20881   2.703   0.713   5.332
 6661SOL    HW120882   2.667   0.805   5.317
 6661SOL    HW220883   2.681   0.656   5.253
 6662SOL     OW20884   1.714   0.762   0.777
 6662SOL    HW120885   1.808   0.778   0.808
 6662SOL    HW220886   1.658   0.733   0.855
 6663SOL     OW20887   0.584   6.453   4.820
 6663SOL    HW120888   0.494   6.420   4.848
 6663SOL    HW220889   0.644   6.376   4.802
 6664SOL     OW20890   2.106   0.085   0.853
 6664SOL    HW120891   2.142   7.019   0.830
 6664SOL    HW220892   2.102   0.142   0.771
 6665SOL     OW20893   1.735   6.858   5.336
 6665SOL    HW120894   1.735   6.927   5.408
 6665SOL    HW220895   1.773   6.897   5.252
 6666SOL     OW20896   6.438   5.003   5.846
 6666SOL    HW120897   6.498   4.929   5.817
 6666SOL    HW220898   6.477   5.048   5.927
 6667SOL     OW20899   6.833   6.838   5.681
 6667SOL    HW120900   6.760   6.897   5.646
 6667SOL    HW220901   6.857   6.771   5.611
 6668SOL     OW20902   6.555   5.993   1.116
 6668SOL    HW120903   6.463   5.994   1.076
 6668SOL    HW220904   6.564   6.070   1.180
 6669SOL     OW20905   3.265   2.347   1.467
 6669SOL    HW120906   3.339   2.286   1.494
 6669SOL    HW220907   3.220   2.312   1.385
 6670SOL     OW20908   3.686   0.872   5.921
 6670SOL    HW120909   3.609   0.911   5.972
 6670SOL    HW220910   3.746   0.823   5.985
 6671SOL     OW20911   5.683   6.772   6.943
 6671SOL    HW120912   5.649   6.716   7.018
 6671SOL    HW220913   5.776   6.743   6.920
 6672SOL     OW20914   0.559   2.982   0.173
 6672SOL    HW120915   0.510   2.958   0.257
 6672SOL    HW220916   0.553   2.906   0.108
 6673SOL     OW20917   4.767   4.088   3.764
 6673SOL    HW120918   4.756   4.030   3.683
 6673SOL    HW220919   4.739   4.038   3.846
 6674SOL     OW20920   0.697   3.575   7.000
 6674SOL    HW120921   0.668   3.646   0.040
 6674SOL    HW220922   0.794   3.586   6.980
 6675SOL     OW20923   6.147   2.631   0.015
 6675SOL    HW120924   6.177   2.612   0.109
 6675SOL    HW220925   6.189   2.565   6.977
 6676SOL     OW20926   0.481   3.279   3.524
 6676SOL    HW120927   0.578   3.255   3.526
 6676SOL    HW220928   0.452   3.293   3.430
 6677SOL     OW20929   0.907   0.648   6.823
 6677SOL    HW120930   0.963   0.641   6.740
 6677SOL    HW220931   0.908   0.561   6.871
 6678SOL     OW20932   2.661   4.778   0.491
 6678SOL    HW120933   2.596   4.702   0.503
 6678SOL    HW220934   2.754   4.745   0.507
 6679SOL     OW20935   3.919   1.162   3.926
 6679SOL    HW120936   3.948   1.067   3.909
 6679SOL    HW220937   3.997   1.213   3.964
 6680SOL     OW20938   4.467   6.548   6.873
 6680SOL    HW120939   4.374   6.575   6.897
 6680SOL    HW220940   4.508   6.497   6.949
 6681SOL     OW20941   4.775   5.524   0.919
 6681SOL    HW120942   4.685   5.559   0.946
 6681SOL    HW220943   4.767   5.427   0.895
 6682SOL     OW20944   2.499   5.009   6.990
 6682SOL    HW120945   2.516   5.051   6.901
 6682SOL    HW220946   2.425   5.058   0.012
 6683SOL     OW20947   6.384   3.551   5.376
 6683SOL    HW120948   6.293   3.517   5.351
 6683SOL    HW220949   6.445   3.473   5.390
 6684SOL     OW20950   4.126   6.588   1.943
 6684SOL    HW120951   4.101   6.672   1.894
 6684SOL    HW220952   4.205   6.606   2.002
 6685SOL     OW20953   4.735   2.842   5.873
 6685SOL    HW120954   4.807   2.823   5.805
 6685SOL    HW220955   4.774   2.894   5.949
 6686SOL     OW20956   5.583   6.130   3.756
 6686SOL    HW120957   5.581   6.228   3.775
 6686SOL    HW220958   5.648   6.112   3.682
 6687SOL     OW20959   0.717   2.586   2.038
 6687SOL    HW120960   0.810   2.567   2.069
 6687SOL    HW220961   0.718   2.616   1.943
 6688SOL     OW20962   3.796   4.578   0.638
 6688SOL    HW120963   3.843   4.612   0.556
 6688SOL    HW220964   3.698   4.594   0.629
 6689SOL     OW20965   4.087   3.667   5.911
 6689SOL    HW120966   4.095   3.761   5.945
 6689SOL    HW220967   4.168   3.615   5.937
 6690SOL     OW20968   0.931   6.692   0.822
 6690SOL    HW120969   0.880   6.714   0.738
 6690SOL    HW220970   0.905   6.601   0.853
 6691SOL     OW20971   2.091   0.452   2.333
 6691SOL    HW120972   2.064   0.396   2.255
 6691SOL    HW220973   2.092   0.548   2.306
 6692SOL     OW20974   4.107   3.616   2.166
 6692SOL    HW120975   4.082   3.537   2.109
 6692SOL    HW220976   4.206   3.621   2.174
 6693SOL     OW20977   4.307   2.252   4.689
 6693SOL    HW120978   4.277   2.159   4.708
 6693SOL    HW220979   4.286   2.311   4.767
 6694SOL     OW20980   4.483   6.638   1.242
 6694SOL    HW120981   4.438   6.575   1.305
 6694SOL    HW220982   4.415   6.698   1.200
 6695SOL     OW20983   2.648   2.238   6.950
 6695SOL    HW120984   2.578   2.310   6.949
 6695SOL    HW220985   2.620   2.165   6.888
 6696SOL     OW20986   3.766   2.959   3.622
 6696SOL    HW120987   3.707   2.879   3.627
 6696SOL    HW220988   3.789   2.989   3.715
 6697SOL     OW20989   4.513   2.171   3.290
 6697SOL    HW120990   4.484   2.118   3.210
 6697SOL    HW220991   4.526   2.110   3.368
 6698SOL     OW20992   3.233   3.074   1.030
 6698SOL    HW120993   3.233   3.146   0.960
 6698SOL    HW220994   3.182   2.995   0.997
 6699SOL     OW20995   2.231   6.709   5.490
 6699SOL    HW120996   2.159   6.772   5.519
 6699SOL    HW220997   2.200   6.614   5.501
 6700SOL     OW20998   6.760   1.393   1.171
 6700SOL    HW120999   6.665   1.422   1.186
 6700SOL    HW221000   6.762   1.318   1.106
 6701SOL     OW21001   5.367   6.106   1.645
 6701SOL    HW121002   5.278   6.059   1.634
 6701SOL    HW221003   5.390   6.111   1.742
 6702SOL     OW21004   2.038   2.445   2.233
 6702SOL    HW121005   2.089   2.360   2.240
 6702SOL    HW221006   2.065   2.507   2.307
 6703SOL     OW21007   0.805   0.487   0.655
 6703SOL    HW121008   0.713   0.491   0.693
 6703SOL    HW221009   0.814   0.556   0.583
 6704SOL     OW21010   4.101   2.265   4.312
 6704SOL    HW121011   4.067   2.173   4.296
 6704SOL    HW221012   4.047   2.331   4.258
 6705SOL     OW21013   6.126   2.939   0.901
 6705SOL    HW121014   6.192   3.012   0.882
 6705SOL    HW221015   6.037   2.964   0.865
 6706SOL     OW21016   1.281   5.366   0.629
 6706SOL    HW121017   1.200   5.317   0.662
 6706SOL    HW221018   1.268   5.464   0.640
 6707SOL     OW21019   5.152   6.456   3.266
 6707SOL    HW121020   5.118   6.522   3.333
 6707SOL    HW221021   5.243   6.425   3.294
 6708SOL     OW21022   5.436   5.366   1.320
 6708SOL    HW121023   5.418   5.321   1.407
 6708SOL    HW221024   5.351   5.373   1.268
 6709SOL     OW21025   0.647   5.327   2.998
 6709SOL    HW121026   0.709   5.259   2.959
 6709SOL    HW221027   0.663   5.416   2.956
 6710SOL     OW21028   4.132   0.869   7.021
 6710SOL    HW121029   4.180   0.957   7.023
 6710SOL    HW221030   4.160   0.814   0.075
 6711SOL     OW21031   4.566   6.406   5.973
 6711SOL    HW121032   4.656   6.388   6.014
 6711SOL    HW221033   4.565   6.498   5.934
 6712SOL     OW21034   5.826   3.392   1.474
 6712SOL    HW121035   5.886   3.439   1.539
 6712SOL    HW221036   5.747   3.450   1.453
 6713SOL     OW21037   1.358   0.638   3.235
 6713SOL    HW121038   1.268   0.680   3.225
 6713SOL    HW221039   1.382   0.633   3.332
 6714SOL     OW21040   6.092   1.720   0.473
 6714SOL    HW121041   6.014   1.695   0.531
 6714SOL    HW221042   6.096   1.819   0.463
 6715SOL     OW21043   1.517   0.587   1.598
 6715SOL    HW121044   1.583   0.632   1.538
 6715SOL    HW221045   1.424   0.613   1.572
 6716SOL     OW21046   0.757   5.752   2.274
 6716SOL    HW121047   0.836   5.783   2.221
 6716SOL    HW221048   0.674   5.795   2.238
 6717SOL     OW21049   2.493   2.060   6.560
 6717SOL    HW121050   2.511   2.157   6.579
 6717SOL    HW221051   2.398   2.050   6.530
 6718SOL     OW21052   4.872   0.162   0.817
 6718SOL    HW121053   4.781   0.165   0.858
 6718SOL    HW221054   4.879   0.083   0.756
 6719SOL     OW21055   2.303   0.043   0.423
 6719SOL    HW121056   2.392   0.001   0.405
 6719SOL    HW221057   2.298   0.132   0.377
 6720SOL     OW21058   2.712   0.856   3.234
 6720SOL    HW121059   2.648   0.793   3.278
 6720SOL    HW221060   2.662   0.921   3.177
 6721SOL     OW21061   7.011   6.736   0.713
 6721SOL    HW121062   0.037   6.689   0.785
 6721SOL    HW221063   0.050   6.788   0.657
 6722SOL     OW21064   0.112   2.944   0.088
 6722SOL    HW121065   0.061   2.903   0.164
 6722SOL    HW221066   0.088   3.041   0.081
 6723SOL     OW21067   1.333   6.783   5.163
 6723SOL    HW121068   1.379   6.823   5.083
 6723SOL    HW221069   1.400   6.736   5.220
 6724SOL     OW21070   2.206   2.724   6.281
 6724SOL    HW121071   2.145   2.654   6.319
 6724SOL    HW221072   2.153   2.788   6.225
 6725SOL     OW21073   6.930   2.267   2.405
 6725SOL    HW121074   6.910   2.349   2.459
 6725SOL    HW221075   0.004   2.263   2.387
 6726SOL     OW21076   0.538   2.358   3.931
 6726SOL    HW121077   0.636   2.373   3.919
 6726SOL    HW221078   0.491   2.446   3.944
 6727SOL     OW21079   0.359   4.640   5.616
 6727SOL    HW121080   0.431   4.611   5.553
 6727SOL    HW221081   0.285   4.684   5.565
 6728SOL     OW21082   3.998   2.218   2.739
 6728SOL    HW121083   3.983   2.132   2.690
 6728SOL    HW221084   3.910   2.259   2.762
 6729SOL     OW21085   0.147   1.312   0.358
 6729SOL    HW121086   0.075   1.292   0.424
 6729SOL    HW221087   0.216   1.240   0.361
 6730SOL     OW21088   2.089   0.050   1.130
 6730SOL    HW121089   2.110   0.123   1.194
 6730SOL    HW221090   2.117   0.076   1.038
 6731SOL     OW21091   1.514   6.785   0.610
 6731SOL    HW121092   1.564   6.803   0.525
 6731SOL    HW221093   1.557   6.835   0.685
 6732SOL     OW21094   5.698   4.960   4.695
 6732SOL    HW121095   5.675   4.886   4.759
 6732SOL    HW221096   5.616   5.014   4.676
 6733SOL     OW21097   3.894   5.722   6.044
 6733SOL    HW121098   3.941   5.744   5.958
 6733SOL    HW221099   3.961   5.715   6.118
 6734SOL     OW21100   5.864   2.277   5.827
 6734SOL    HW121101   5.785   2.290   5.767
 6734SOL    HW221102   5.881   2.361   5.878
 6735SOL     OW21103   5.843   3.384   4.583
 6735SOL    HW121104   5.772   3.396   4.653
 6735SOL    HW221105   5.823   3.443   4.505
 6736SOL     OW21106   2.896   3.882   6.047
 6736SOL    HW121107   2.828   3.832   6.101
 6736SOL    HW221108   2.977   3.825   6.034
 6737SOL     OW21109   1.273   2.976   0.812
 6737SOL    HW121110   1.214   2.912   0.861
 6737SOL    HW221111   1.302   3.049   0.873
 6738SOL     OW21112   2.034   5.514   4.153
 6738SOL    HW121113   1.941   5.550   4.158
 6738SOL    HW221114   2.091   5.561   4.221
 6739SOL     OW21115   5.918   6.296   3.808
 6739SOL    HW121116   5.949   6.327   3.718
 6739SOL    HW221117   5.826   6.330   3.826
 6740SOL     OW21118   6.618   0.470   5.500
 6740SOL    HW121119   6.659   0.561   5.504
 6740SOL    HW221120   6.603   0.436   5.592
 6741SOL     OW21121   3.514   2.262   5.420
 6741SOL    HW121122   3.550   2.313   5.499
 6741SOL    HW221123   3.574   2.276   5.341
 6742SOL     OW21124   5.693   5.319   3.541
 6742SOL    HW121125   5.722   5.314   3.445
 6742SOL    HW221126   5.671   5.228   3.574
 6743SOL     OW21127   3.756   4.176   6.204
 6743SOL    HW121128   3.807   4.259   6.179
 6743SOL    HW221129   3.665   4.180   6.164
 6744SOL     OW21130   0.361   6.157   4.972
 6744SOL    HW121131   0.322   6.133   5.060
 6744SOL    HW221132   0.303   6.122   4.899
 6745SOL     OW21133   6.737   6.147   3.454
 6745SOL    HW121134   6.746   6.050   3.433
 6745SOL    HW221135   6.823   6.182   3.491
 6746SOL     OW21136   1.160   0.298   3.756
 6746SOL    HW121137   1.258   0.305   3.737
 6746SOL    HW221138   1.110   0.291   3.669
 6747SOL     OW21139   5.828   0.694   7.011
 6747SOL    HW121140   5.873   0.690   0.076
 6747SOL    HW221141   5.796   0.788   6.994
 6748SOL     OW21142   3.463   1.644   2.888
 6748SOL    HW121143   3.436   1.740   2.882
 6748SOL    HW221144   3.524   1.631   2.966
 6749SOL     OW21145   3.944   4.283   0.953
 6749SOL    HW121146   3.975   4.276   0.858
 6749SOL    HW221147   3.894   4.369   0.965
 6750SOL     OW21148   3.357   1.928   4.435
 6750SOL    HW121149   3.327   1.845   4.483
 6750SOL    HW221150   3.366   2.003   4.502
 6751SOL     OW21151   4.901   0.893   3.544
 6751SOL    HW121152   4.970   0.881   3.473
 6751SOL    HW221153   4.870   0.804   3.577
 6752SOL     OW21154   2.403   0.263   2.528
 6752SOL    HW121155   2.331   0.282   2.595
 6752SOL    HW221156   2.493   0.276   2.572
 6753SOL     OW21157   3.683   1.547   5.949
 6753SOL    HW121158   3.761   1.607   5.935
 6753SOL    HW221159   3.645   1.562   6.040
 6754SOL     OW21160   6.893   0.822   1.020
 6754SOL    HW121161   6.933   0.764   0.950
 6754SOL    HW221162   6.868   0.767   1.099
 6755SOL     OW21163   3.942   3.353   1.304
 6755SOL    HW121164   3.893   3.438   1.323
 6755SOL    HW221165   4.021   3.346   1.365
 6756SOL     OW21166   3.690   6.434   5.731
 6756SOL    HW121167   3.606   6.381   5.715
 6756SOL    HW221168   3.762   6.372   5.763
 6757SOL     OW21169   3.456   2.121   0.192
 6757SOL    HW121170   3.453   2.073   0.104
 6757SOL    HW221171   3.541   2.098   0.239
 6758SOL     OW21172   6.056   2.925   1.957
 6758SOL    HW121173   6.108   2.844   1.984
 6758SOL    HW221174   6.067   2.940   1.859
 6759SOL     OW21175   0.524   3.431   2.697
 6759SOL    HW121176   0.494   3.386   2.613
 6759SOL    HW221177   0.622   3.414   2.711
 6760SOL     OW21178   6.620   3.412   2.517
 6760SOL    HW121179   6.695   3.358   2.477
 6760SOL    HW221180   6.547   3.350   2.546
 6761SOL     OW21181   6.361   2.794   4.978
 6761SOL    HW121182   6.301   2.817   4.902
 6761SOL    HW221183   6.380   2.696   4.978
 6762SOL     OW21184   0.679   4.448   4.146
 6762SOL    HW121185   0.661   4.497   4.060
 6762SOL    HW221186   0.593   4.411   4.182
 6763SOL     OW21187   6.195   5.072   3.837
 6763SOL    HW121188   6.162   5.051   3.929
 6763SOL    HW221189   6.293   5.053   3.832
 6764SOL     OW21190   2.234   5.735   1.655
 6764SOL    HW121191   2.135   5.720   1.657
 6764SOL    HW221192   2.258   5.780   1.569
 6765SOL     OW21193   5.554   4.857   3.205
 6765SOL    HW121194   5.634   4.798   3.202
 6765SOL    HW221195   5.552   4.915   3.124
 6766SOL     OW21196   5.663   6.402   5.601
 6766SOL    HW121197   5.612   6.458   5.667
 6766SOL    HW221198   5.737   6.354   5.649
 6767SOL     OW21199   2.771   0.454   1.725
 6767SOL    HW121200   2.769   0.434   1.823
 6767SOL    HW221201   2.814   0.378   1.676
 6768SOL     OW21202   2.206   0.652   5.268
 6768SOL    HW121203   2.259   0.686   5.190
 6768SOL    HW221204   2.157   0.728   5.311
 6769SOL     OW21205   3.688   1.034   0.242
 6769SOL    HW121206   3.675   1.127   0.279
 6769SOL    HW221207   3.660   1.033   0.146
 6770SOL     OW21208   6.935   0.557   2.395
 6770SOL    HW121209   6.933   0.653   2.425
 6770SOL    HW221210   0.002   0.534   2.364
 6771SOL     OW21211   5.020   2.098   3.172
 6771SOL    HW121212   5.079   2.091   3.253
 6771SOL    HW221213   5.013   2.009   3.128
 6772SOL     OW21214   3.665   1.821   3.106
 6772SOL    HW121215   3.670   1.721   3.105
 6772SOL    HW221216   3.632   1.852   3.195
 6773SOL     OW21217   6.690   5.116   2.628
 6773SOL    HW121218   6.707   5.174   2.708
 6773SOL    HW221219   6.713   5.167   2.545
 6774SOL     OW21220   1.082   2.677   5.654
 6774SOL    HW121221   1.150   2.739   5.616
 6774SOL    HW221222   1.104   2.583   5.629
 6775SOL     OW21223   2.345   2.662   1.804
 6775SOL    HW121224   2.369   2.759   1.805
 6775SOL    HW221225   2.248   2.651   1.782
 6776SOL     OW21226   4.608   5.054   0.039
 6776SOL    HW121227   4.557   4.977   0.002
 6776SOL    HW221228   4.699   5.023   0.068
 6777SOL     OW21229   4.627   4.605   0.418
 6777SOL    HW121230   4.658   4.572   0.508
 6777SOL    HW221231   4.527   4.614   0.420
 6778SOL     OW21232   5.912   5.034   1.782
 6778SOL    HW121233   5.905   5.024   1.683
 6778SOL    HW221234   5.978   4.967   1.818
 6779SOL     OW21235   6.181   5.635   6.723
 6779SOL    HW121236   6.123   5.565   6.681
 6779SOL    HW221237   6.263   5.592   6.760
 6780SOL     OW21238   1.228   3.026   2.049
 6780SOL    HW121239   1.166   3.048   2.124
 6780SOL    HW221240   1.322   3.043   2.077
 6781SOL     OW21241   6.708   1.306   4.434
 6781SOL    HW121242   6.770   1.228   4.443
 6781SOL    HW221243   6.674   1.333   4.524
 6782SOL     OW21244   6.876   0.798   3.787
 6782SOL    HW121245   6.956   0.776   3.731
 6782SOL    HW221246   6.904   0.851   3.867
 6783SOL     OW21247   6.431   2.172   5.880
 6783SOL    HW121248   6.349   2.196   5.827
 6783SOL    HW221249   6.407   2.107   5.952
 6784SOL     OW21250   2.255   3.634   1.069
 6784SOL    HW121251   2.226   3.674   0.982
 6784SOL    HW221252   2.317   3.697   1.116
 6785SOL     OW21253   5.748   4.923   3.434
 6785SOL    HW121254   5.840   4.894   3.406
 6785SOL    HW221255   5.692   4.939   3.353
 6786SOL     OW21256   1.909   2.055   0.100
 6786SOL    HW121257   1.927   2.145   0.061
 6786SOL    HW221258   1.991   2.023   0.149
 6787SOL     OW21259   1.713   2.779   1.273
 6787SOL    HW121260   1.696   2.711   1.345
 6787SOL    HW221261   1.756   2.859   1.313
 6788SOL     OW21262   2.379   4.599   1.210
 6788SOL    HW121263   2.381   4.538   1.289
 6788SOL    HW221264   2.296   4.655   1.212
 6789SOL     OW21265   6.721   5.506   3.643
 6789SOL    HW121266   6.647   5.568   3.621
 6789SOL    HW221267   6.753   5.525   3.736
 6790SOL     OW21268   0.694   3.994   1.487
 6790SOL    HW121269   0.784   3.960   1.513
 6790SOL    HW221270   0.672   3.963   1.394
 6791SOL     OW21271   3.997   2.323   1.303
 6791SOL    HW121272   4.093   2.323   1.330
 6791SOL    HW221273   3.990   2.328   1.204
 6792SOL     OW21274   6.451   5.854   5.208
 6792SOL    HW121275   6.354   5.847   5.185
 6792SOL    HW221276   6.486   5.943   5.178
 6793SOL     OW21277   1.107   1.937   1.011
 6793SOL    HW121278   1.105   2.033   0.986
 6793SOL    HW221279   1.169   1.888   0.950
 6794SOL     OW21280   5.106   1.882   6.170
 6794SOL    HW121281   5.169   1.809   6.145
 6794SOL    HW221282   5.078   1.871   6.265
 6795SOL     OW21283   2.332   6.769   1.602
 6795SOL    HW121284   2.308   6.673   1.615
 6795SOL    HW221285   2.430   6.781   1.615
 6796SOL     OW21286   6.689   0.420   2.006
 6796SOL    HW121287   6.676   0.507   1.957
 6796SOL    HW221288   6.647   0.347   1.953
 6797SOL     OW21289   5.862   2.263   1.882
 6797SOL    HW121290   5.849   2.354   1.841
 6797SOL    HW221291   5.794   2.200   1.845
 6798SOL     OW21292   4.766   0.002   2.256
 6798SOL    HW121293   4.787   0.018   2.353
 6798SOL    HW221294   4.807   6.939   2.228
 6799SOL     OW21295   6.085   6.204   1.485
 6799SOL    HW121296   5.991   6.232   1.505
 6799SOL    HW221297   6.124   6.266   1.416
 6800SOL     OW21298   1.725   3.810   1.473
 6800SOL    HW121299   1.722   3.814   1.573
 6800SOL    HW221300   1.787   3.737   1.445
 6801SOL     OW21301   0.699   0.083   3.094
 6801SOL    HW121302   0.765   0.158   3.090
 6801SOL    HW221303   0.723   0.022   3.171
 6802SOL     OW21304   3.346   5.878   0.973
 6802SOL    HW121305   3.371   5.796   0.921
 6802SOL    HW221306   3.379   5.868   1.067
 6803SOL     OW21307   4.800   3.034   6.056
 6803SOL    HW121308   4.792   3.133   6.047
 6803SOL    HW221309   4.772   3.006   6.148
 6804SOL     OW21310   3.534   5.135   3.602
 6804SOL    HW121311   3.593   5.090   3.668
 6804SOL    HW221312   3.481   5.206   3.648
 6805SOL     OW21313   6.827   4.647   6.267
 6805SOL    HW121314   6.838   4.561   6.219
 6805SOL    HW221315   6.878   4.719   6.220
 6806SOL     OW21316   5.890   0.379   3.870
 6806SOL    HW121317   5.922   0.447   3.804
 6806SOL    HW221318   5.851   0.301   3.822
 6807SOL     OW21319   3.102   3.085   0.092
 6807SOL    HW121320   3.085   3.055   0.186
 6807SOL    HW221321   3.155   3.015   0.044
 6808SOL     OW21322   6.828   2.109   5.009
 6808SOL    HW121323   6.735   2.109   5.045
 6808SOL    HW221324   6.826   2.103   4.910
 6809SOL     OW21325   0.852   2.845   1.657
 6809SOL    HW121326   0.889   2.926   1.703
 6809SOL    HW221327   0.857   2.857   1.558
 6810SOL     OW21328   2.129   0.802   2.326
 6810SOL    HW121329   2.152   0.900   2.323
 6810SOL    HW221330   2.049   0.785   2.269
 6811SOL     OW21331   5.950   3.574   1.175
 6811SOL    HW121332   5.969   3.649   1.112
 6811SOL    HW221333   5.852   3.552   1.173
 6812SOL     OW21334   3.278   3.408   3.566
 6812SOL    HW121335   3.269   3.476   3.493
 6812SOL    HW221336   3.235   3.443   3.650
 6813SOL     OW21337   5.036   2.285   2.690
 6813SOL    HW121338   4.970   2.226   2.645
 6813SOL    HW221339   5.123   2.236   2.702
 6814SOL     OW21340   3.012   1.419   5.953
 6814SOL    HW121341   3.066   1.453   5.876
 6814SOL    HW221342   3.066   1.423   6.036
 6815SOL     OW21343   3.344   6.920   1.373
 6815SOL    HW121344   3.421   6.859   1.350
 6815SOL    HW221345   3.313   6.899   1.465
 6816SOL     OW21346   0.241   0.348   0.129
 6816SOL    HW121347   0.260   0.250   0.134
 6816SOL    HW221348   0.192   0.367   0.044
 6817SOL     OW21349   1.554   1.929   3.278
 6817SOL    HW121350   1.562   1.993   3.355
 6817SOL    HW221351   1.521   1.978   3.198
 6818SOL     OW21352   3.116   5.691   2.173
 6818SOL    HW121353   3.083   5.641   2.253
 6818SOL    HW221354   3.062   5.774   2.161
 6819SOL     OW21355   5.560   0.821   4.084
 6819SOL    HW121356   5.535   0.733   4.126
 6819SOL    HW221357   5.576   0.808   3.987
 6820SOL     OW21358   2.267   5.582   2.814
 6820SOL    HW121359   2.277   5.623   2.724
 6820SOL    HW221360   2.356   5.576   2.859
 6821SOL     OW21361   3.962   2.095   4.656
 6821SOL    HW121362   4.023   2.174   4.647
 6821SOL    HW221363   3.998   2.018   4.603
 6822SOL     OW21364   5.681   2.600   6.908
 6822SOL    HW121365   5.581   2.598   6.906
 6822SOL    HW221366   5.713   2.579   7.000
 6823SOL     OW21367   3.974   3.081   5.116
 6823SOL    HW121368   4.043   3.012   5.138
 6823SOL    HW221369   4.019   3.169   5.103
 6824SOL     OW21370   0.863   2.185   6.422
 6824SOL    HW121371   0.909   2.260   6.376
 6824SOL    HW221372   0.853   2.206   6.519
 6825SOL     OW21373   5.067   6.576   2.068
 6825SOL    HW121374   5.116   6.578   1.980
 6825SOL    HW221375   5.131   6.552   2.141
 6826SOL     OW21376   1.816   4.111   2.992
 6826SOL    HW121377   1.793   4.016   3.009
 6826SOL    HW221378   1.749   4.151   2.930
 6827SOL     OW21379   4.576   5.370   6.154
 6827SOL    HW121380   4.564   5.445   6.089
 6827SOL    HW221381   4.556   5.283   6.107
 6828SOL     OW21382   2.920   2.035   1.407
 6828SOL    HW121383   2.876   2.041   1.497
 6828SOL    HW221384   3.013   2.001   1.417
 6829SOL     OW21385   4.351   6.881   4.168
 6829SOL    HW121386   4.399   6.962   4.201
 6829SOL    HW221387   4.382   6.800   4.217
 6830SOL     OW21388   5.180   0.916   3.983
 6830SOL    HW121389   5.095   0.946   4.026
 6830SOL    HW221390   5.209   0.829   4.022
 6831SOL     OW21391   1.507   0.972   0.089
 6831SOL    HW121392   1.602   0.995   0.106
 6831SOL    HW221393   1.479   0.898   0.150
 6832SOL     OW21394   2.765   4.305   1.238
 6832SOL    HW121395   2.721   4.236   1.295
 6832SOL    HW221396   2.770   4.391   1.288
 6833SOL     OW21397   3.691   4.568   6.284
 6833SOL    HW121398   3.605   4.531   6.320
 6833SOL    HW221399   3.767   4.537   6.342
 6834SOL     OW21400   5.176   6.577   0.886
 6834SOL    HW121401   5.132   6.633   0.816
 6834SOL    HW221402   5.233   6.507   0.841
 6835SOL     OW21403   3.952   0.085   4.258
 6835SOL    HW121404   3.890   0.114   4.331
 6835SOL    HW221405   4.028   0.034   4.299
 6836SOL     OW21406   2.752   5.467   0.152
 6836SOL    HW121407   2.680   5.466   0.084
 6836SOL    HW221408   2.741   5.389   0.214
 6837SOL     OW21409   0.735   2.003   2.353
 6837SOL    HW121410   0.723   1.992   2.254
 6837SOL    HW221411   0.653   1.970   2.400
 6838SOL     OW21412   2.974   6.324   0.320
 6838SOL    HW121413   3.073   6.325   0.315
 6838SOL    HW221414   2.945   6.340   0.414
 6839SOL     OW21415   5.076   0.888   0.199
 6839SOL    HW121416   5.171   0.906   0.226
 6839SOL    HW221417   5.041   0.809   0.250
 6840SOL     OW21418   3.365   0.868   4.834
 6840SOL    HW121419   3.410   0.934   4.773
 6840SOL    HW221420   3.389   0.889   4.929
 6841SOL     OW21421   4.405   4.090   6.734
 6841SOL    HW121422   4.363   4.001   6.716
 6841SOL    HW221423   4.497   4.076   6.771
 6842SOL     OW21424   2.415   4.058   0.880
 6842SOL    HW121425   2.394   4.059   0.977
 6842SOL    HW221426   2.431   3.964   0.850
 6843SOL     OW21427   6.191   6.753   1.189
 6843SOL    HW121428   6.137   6.686   1.138
 6843SOL    HW221429   6.288   6.744   1.164
 6844SOL     OW21430   5.482   0.579   4.211
 6844SOL    HW121431   5.493   0.481   4.192
 6844SOL    HW221432   5.548   0.607   4.281
 6845SOL     OW21433   6.565   3.446   3.185
 6845SOL    HW121434   6.508   3.365   3.176
 6845SOL    HW221435   6.510   3.522   3.219
 6846SOL     OW21436   3.813   3.235   0.229
 6846SOL    HW121437   3.716   3.224   0.206
 6846SOL    HW221438   3.869   3.178   0.169
 6847SOL     OW21439   0.153   3.276   4.460
 6847SOL    HW121440   0.174   3.251   4.554
 6847SOL    HW221441   0.088   3.210   4.422
 6848SOL     OW21442   4.986   4.648   3.686
 6848SOL    HW121443   4.975   4.621   3.781
 6848SOL    HW221444   4.904   4.695   3.654
 6849SOL     OW21445   4.867   4.431   5.397
 6849SOL    HW121446   4.787   4.489   5.381
 6849SOL    HW221447   4.950   4.481   5.371
 6850SOL     OW21448   5.574   3.409   3.041
 6850SOL    HW121449   5.500   3.397   2.976
 6850SOL    HW221450   5.543   3.384   3.132
 6851SOL     OW21451   0.057   2.068   3.276
 6851SOL    HW121452   6.997   2.050   3.225
 6851SOL    HW221453   0.095   2.156   3.250
 6852SOL     OW21454   2.643   4.716   1.316
 6852SOL    HW121455   2.681   4.776   1.244
 6852SOL    HW221456   2.560   4.673   1.283
 6853SOL     OW21457   5.608   4.568   0.056
 6853SOL    HW121458   5.652   4.652   0.024
 6853SOL    HW221459   5.677   4.499   0.076
 6854SOL     OW21460   4.952   0.672   5.309
 6854SOL    HW121461   4.916   0.605   5.374
 6854SOL    HW221462   4.966   0.760   5.356
 6855SOL     OW21463   3.900   6.448   3.965
 6855SOL    HW121464   3.983   6.503   3.972
 6855SOL    HW221465   3.911   6.379   3.893
 6856SOL     OW21466   0.163   2.227   4.767
 6856SOL    HW121467   0.147   2.296   4.838
 6856SOL    HW221468   0.093   2.234   4.697
 6857SOL     OW21469   1.709   2.659   6.378
 6857SOL    HW121470   1.629   2.673   6.319
 6857SOL    HW221471   1.708   2.566   6.415
 6858SOL     OW21472   4.124   3.859   1.978
 6858SOL    HW121473   4.076   3.836   2.062
 6858SOL    HW221474   4.141   3.958   1.976
 6859SOL     OW21475   1.128   1.184   1.757
 6859SOL    HW121476   1.128   1.094   1.713
 6859SOL    HW221477   1.211   1.195   1.812
 6860SOL     OW21478   0.408   5.306   1.314
 6860SOL    HW121479   0.485   5.262   1.269
 6860SOL    HW221480   0.440   5.384   1.366
 6861SOL     OW21481   4.475   3.998   0.001
 6861SOL    HW121482   4.403   4.067   7.011
 6861SOL    HW221483   4.564   4.042   7.020
 6862SOL     OW21484   0.864   5.675   5.456
 6862SOL    HW121485   0.809   5.752   5.490
 6862SOL    HW221486   0.932   5.709   5.391
 6863SOL     OW21487   6.315   6.614   6.140
 6863SOL    HW121488   6.375   6.534   6.151
 6863SOL    HW221489   6.249   6.596   6.067
 6864SOL     OW21490   2.275   4.763   5.043
 6864SOL    HW121491   2.371   4.747   5.020
 6864SOL    HW221492   2.217   4.725   4.971
 6865SOL     OW21493   0.629   6.669   4.247
 6865SOL    HW121494   0.726   6.665   4.267
 6865SOL    HW221495   0.580   6.707   4.325
 6866SOL     OW21496   5.738   5.532   3.055
 6866SOL    HW121497   5.836   5.515   3.067
 6866SOL    HW221498   5.724   5.581   2.969
 6867SOL     OW21499   1.852   3.869   2.104
 6867SOL    HW121500   1.894   3.959   2.115
 6867SOL    HW221501   1.909   3.800   2.148
 6868SOL     OW21502   1.958   6.482   6.303
 6868SOL    HW121503   1.980   6.386   6.319
 6868SOL    HW221504   1.966   6.502   6.205
 6869SOL     OW21505   4.589   0.803   6.098
 6869SOL    HW121506   4.514   0.744   6.069
 6869SOL    HW221507   4.640   0.833   6.017
 6870SOL     OW21508   0.093   4.419   1.129
 6870SOL    HW121509   0.114   4.487   1.058
 6870SOL    HW221510   0.132   4.448   1.216
 6871SOL     OW21511   6.046   4.305   2.992
 6871SOL    HW121512   5.978   4.348   2.933
 6871SOL    HW221513   6.106   4.247   2.937
 6872SOL     OW21514   0.096   2.619   1.401
 6872SOL    HW121515   0.171   2.679   1.375
 6872SOL    HW221516   0.131   2.541   1.454
 6873SOL     OW21517   0.164   3.402   4.007
 6873SOL    HW121518   0.240   3.338   3.995
 6873SOL    HW221519   0.160   3.432   4.103
 6874SOL     OW21520   6.957   5.185   3.039
 6874SOL    HW121521   0.011   5.151   2.987
 6874SOL    HW221522   6.893   5.230   2.977
 6875SOL     OW21523   2.238   2.363   2.527
 6875SOL    HW121524   2.244   2.287   2.593
 6875SOL    HW221525   2.329   2.403   2.514
 6876SOL     OW21526   4.424   6.926   3.556
 6876SOL    HW121527   4.375   6.896   3.475
 6876SOL    HW221528   4.395   6.871   3.635
 6877SOL     OW21529   3.041   4.332   1.475
 6877SOL    HW121530   2.978   4.393   1.426
 6877SOL    HW221531   3.078   4.380   1.555
 6878SOL     OW21532   3.366   1.580   4.184
 6878SOL    HW121533   3.382   1.673   4.149
 6878SOL    HW221534   3.383   1.578   4.282
 6879SOL     OW21535   1.339   2.989   0.387
 6879SOL    HW121536   1.399   3.023   0.460
 6879SOL    HW221537   1.280   3.064   0.355
 6880SOL     OW21538   1.460   5.406   5.583
 6880SOL    HW121539   1.447   5.458   5.667
 6880SOL    HW221540   1.535   5.341   5.595
 6881SOL     OW21541   1.254   4.042   1.578
 6881SOL    HW121542   1.340   4.009   1.539
 6881SOL    HW221543   1.235   4.135   1.544
 6882SOL     OW21544   2.901   0.781   0.203
 6882SOL    HW121545   2.833   0.855   0.209
 6882SOL    HW221546   2.855   0.696   0.179
 6883SOL     OW21547   5.110   2.418   0.193
 6883SOL    HW121548   5.200   2.381   0.171
 6883SOL    HW221549   5.067   2.453   0.109
 6884SOL     OW21550   1.030   4.270   3.230
 6884SOL    HW121551   1.104   4.256   3.164
 6884SOL    HW221552   0.944   4.284   3.180
 6885SOL     OW21553   4.745   4.757   3.608
 6885SOL    HW121554   4.661   4.792   3.648
 6885SOL    HW221555   4.730   4.736   3.511
 6886SOL     OW21556   6.707   1.099   4.697
 6886SOL    HW121557   6.789   1.044   4.705
 6886SOL    HW221558   6.627   1.039   4.687
 6887SOL     OW21559   4.674   5.636   6.621
 6887SOL    HW121560   4.713   5.671   6.706
 6887SOL    HW221561   4.680   5.536   6.621
 6888SOL     OW21562   5.472   5.436   6.329
 6888SOL    HW121563   5.531   5.372   6.379
 6888SOL    HW221564   5.423   5.387   6.257
 6889SOL     OW21565   1.167   2.851   5.891
 6889SOL    HW121566   1.107   2.778   5.857
 6889SOL    HW221567   1.156   2.861   5.989
 6890SOL     OW21568   4.007   6.392   2.119
 6890SOL    HW121569   4.054   6.457   2.060
 6890SOL    HW221570   3.970   6.439   2.199
 6891SOL     OW21571   2.106   4.406   1.925
 6891SOL    HW121572   2.064   4.321   1.957
 6891SOL    HW221573   2.055   4.441   1.847
 6892SOL     OW21574   3.547   1.852   4.164
 6892SOL    HW121575   3.543   1.940   4.211
 6892SOL    HW221576   3.622   1.798   4.201
 6893SOL     OW21577   4.525   4.152   0.300
 6893SOL    HW121578   4.567   4.116   0.216
 6893SOL    HW221579   4.454   4.218   0.276
 6894SOL     OW21580   5.925   4.636   1.290
 6894SOL    HW121581   6.006   4.676   1.246
 6894SOL    HW221582   5.843   4.667   1.243
 6895SOL     OW21583   2.376   4.965   1.446
 6895SOL    HW121584   2.380   4.970   1.346
 6895SOL    HW221585   2.442   4.897   1.478
 6896SOL     OW21586   2.688   1.873   4.149
 6896SOL    HW121587   2.612   1.884   4.084
 6896SOL    HW221588   2.678   1.786   4.197
 6897SOL     OW21589   4.903   3.783   4.813
 6897SOL    HW121590   5.001   3.779   4.832
 6897SOL    HW221591   4.856   3.707   4.858
 6898SOL     OW21592   3.999   1.580   1.231
 6898SOL    HW121593   3.932   1.587   1.306
 6898SOL    HW221594   3.966   1.633   1.153
 6899SOL     OW21595   4.357   6.209   1.960
 6899SOL    HW121596   4.406   6.222   2.046
 6899SOL    HW221597   4.414   6.239   1.883
 6900SOL     OW21598   6.492   5.345   4.405
 6900SOL    HW121599   6.559   5.308   4.469
 6900SOL    HW221600   6.526   5.431   4.367
 6901SOL     OW21601   6.296   6.281   6.396
 6901SOL    HW121602   6.229   6.243   6.332
 6901SOL    HW221603   6.341   6.206   6.445
 6902SOL     OW21604   6.487   5.427   6.037
 6902SOL    HW121605   6.586   5.423   6.043
 6902SOL    HW221606   6.460   5.470   5.951
 6903SOL     OW21607   3.275   5.008   5.120
 6903SOL    HW121608   3.228   5.090   5.153
 6903SOL    HW221609   3.208   4.938   5.097
 6904SOL     OW21610   6.140   0.489   6.019
 6904SOL    HW121611   6.236   0.512   6.035
 6904SOL    HW221612   6.092   0.485   6.106
 6905SOL     OW21613   5.560   6.015   6.964
 6905SOL    HW121614   5.508   6.044   6.884
 6905SOL    HW221615   5.656   6.002   6.940
 6906SOL     OW21616   3.713   1.490   3.935
 6906SOL    HW121617   3.726   1.482   4.034
 6906SOL    HW221618   3.715   1.587   3.909
 6907SOL     OW21619   5.804   2.504   1.393
 6907SOL    HW121620   5.732   2.517   1.460
 6907SOL    HW221621   5.863   2.428   1.421
 6908SOL     OW21622   1.852   5.859   6.361
 6908SOL    HW121623   1.895   5.871   6.451
 6908SOL    HW221624   1.766   5.808   6.372
 6909SOL     OW21625   4.935   3.911   0.827
 6909SOL    HW121626   4.974   3.857   0.902
 6909SOL    HW221627   4.986   3.892   0.743
 6910SOL     OW21628   1.334   3.619   3.569
 6910SOL    HW121629   1.288   3.570   3.494
 6910SOL    HW221630   1.408   3.674   3.532
 6911SOL     OW21631   4.316   6.780   3.761
 6911SOL    HW121632   4.241   6.799   3.824
 6911SOL    HW221633   4.330   6.681   3.755
 6912SOL     OW21634   2.553   3.353   5.885
 6912SOL    HW121635   2.621   3.380   5.953
 6912SOL    HW221636   2.571   3.259   5.856
 6913SOL     OW21637   5.857   6.137   4.611
 6913SOL    HW121638   5.893   6.053   4.571
 6913SOL    HW221639   5.877   6.138   4.709
 6914SOL     OW21640   5.486   4.249   3.781
 6914SOL    HW121641   5.400   4.289   3.751
 6914SOL    HW221642   5.504   4.275   3.876
 6915SOL     OW21643   6.595   2.807   1.780
 6915SOL    HW121644   6.613   2.831   1.685
 6915SOL    HW221645   6.614   2.885   1.839
 6916SOL     OW21646   5.339   1.421   0.431
 6916SOL    HW121647   5.352   1.441   0.334
 6916SOL    HW221648   5.266   1.353   0.441
 6917SOL     OW21649   3.957   6.807   0.960
 6917SOL    HW121650   3.903   6.869   1.018
 6917SOL    HW221651   3.992   6.732   1.016
 6918SOL     OW21652   0.558   2.445   4.323
 6918SOL    HW121653   0.463   2.457   4.295
 6918SOL    HW221654   0.611   2.526   4.299
 6919SOL     OW21655   5.701   5.406   4.290
 6919SOL    HW121656   5.773   5.378   4.227
 6919SOL    HW221657   5.716   5.362   4.379
 6920SOL     OW21658   4.542   0.107   5.667
 6920SOL    HW121659   4.494   0.184   5.626
 6920SOL    HW221660   4.613   0.140   5.729
 6921SOL     OW21661   4.470   5.988   4.043
 6921SOL    HW121662   4.519   5.912   4.085
 6921SOL    HW221663   4.393   6.014   4.101
 6922SOL     OW21664   2.053   5.602   5.693
 6922SOL    HW121665   2.107   5.518   5.701
 6922SOL    HW221666   1.982   5.590   5.624
 6923SOL     OW21667   5.035   5.596   2.474
 6923SOL    HW121668   5.015   5.610   2.570
 6923SOL    HW221669   5.109   5.530   2.465
 6924SOL     OW21670   2.010   4.725   0.322
 6924SOL    HW121671   1.924   4.674   0.317
 6924SOL    HW221672   2.072   4.680   0.386
 6925SOL     OW21673   4.975   5.881   4.448
 6925SOL    HW121674   4.879   5.855   4.464
 6925SOL    HW221675   5.034   5.804   4.471
 6926SOL     OW21676   2.702   2.603   0.715
 6926SOL    HW121677   2.739   2.696   0.722
 6926SOL    HW221678   2.756   2.542   0.773
 6927SOL     OW21679   3.642   2.936   6.164
 6927SOL    HW121680   3.644   2.947   6.264
 6927SOL    HW221681   3.578   2.863   6.140
 6928SOL     OW21682   5.593   5.611   1.255
 6928SOL    HW121683   5.602   5.634   1.158
 6928SOL    HW221684   5.547   5.522   1.264
 6929SOL     OW21685   4.799   5.864   2.247
 6929SOL    HW121686   4.709   5.894   2.216
 6929SOL    HW221687   4.788   5.783   2.306
 6930SOL     OW21688   1.806   1.018   1.714
 6930SOL    HW121689   1.843   0.926   1.725
 6930SOL    HW221690   1.879   1.079   1.683
 6931SOL     OW21691   1.514   1.030   2.494
 6931SOL    HW121692   1.576   1.049   2.570
 6931SOL    HW221693   1.559   1.055   2.408
 6932SOL     OW21694   4.369   0.150   0.377
 6932SOL    HW121695   4.365   0.222   0.446
 6932SOL    HW221696   4.291   0.159   0.315
 6933SOL     OW21697   3.514   6.229   5.745
 6933SOL    HW121698   3.431   6.237   5.799
 6933SOL    HW221699   3.497   6.169   5.667
 6934SOL     OW21700   4.769   3.322   6.336
 6934SOL    HW121701   4.689   3.369   6.374
 6934SOL    HW221702   4.852   3.367   6.368
 6935SOL     OW21703   4.640   5.918   2.543
 6935SOL    HW121704   4.600   5.881   2.627
 6935SOL    HW221705   4.667   5.843   2.483
 6936SOL     OW21706   6.297   3.103   4.246
 6936SOL    HW121707   6.341   3.061   4.326
 6936SOL    HW221708   6.344   3.072   4.163
 6937SOL     OW21709   5.988   6.194   1.053
 6937SOL    HW121710   5.902   6.181   1.103
 6937SOL    HW221711   5.976   6.165   0.958
 6938SOL     OW21712   6.708   2.640   4.937
 6938SOL    HW121713   6.640   2.613   5.005
 6938SOL    HW221714   6.771   2.706   4.978
 6939SOL     OW21715   0.300   5.227   2.386
 6939SOL    HW121716   0.290   5.139   2.431
 6939SOL    HW221717   0.304   5.300   2.455
 6940SOL     OW21718   3.933   0.615   0.228
 6940SOL    HW121719   3.846   0.606   0.180
 6940SOL    HW221720   3.945   0.709   0.259
 6941SOL     OW21721   3.040   3.954   1.942
 6941SOL    HW121722   3.046   4.004   2.028
 6941SOL    HW221723   3.044   4.019   1.866
 6942SOL     OW21724   5.840   6.699   2.596
 6942SOL    HW121725   5.829   6.622   2.533
 6942SOL    HW221726   5.938   6.713   2.614
 6943SOL     OW21727   3.973   5.719   0.991
 6943SOL    HW121728   4.059   5.677   1.020
 6943SOL    HW221729   3.907   5.647   0.970
 6944SOL     OW21730   1.172   4.895   6.329
 6944SOL    HW121731   1.229   4.964   6.282
 6944SOL    HW221732   1.094   4.872   6.271
 6945SOL     OW21733   6.887   1.648   0.613
 6945SOL    HW121734   6.940   1.730   0.631
 6945SOL    HW221735   6.899   1.583   0.688
 6946SOL     OW21736   4.266   6.955   1.311
 6946SOL    HW121737   4.251   6.879   1.374
 6946SOL    HW221738   4.180   6.980   1.267
 6947SOL     OW21739   3.552   5.223   0.036
 6947SOL    HW121740   3.566   5.186   6.968
 6947SOL    HW221741   3.637   5.265   0.069
 6948SOL     OW21742   1.112   6.366   0.840
 6948SOL    HW121743   1.193   6.308   0.832
 6948SOL    HW221744   1.114   6.415   0.927
 6949SOL     OW21745   3.646   0.135   3.535
 6949SOL    HW121746   3.728   0.165   3.488
 6949SOL    HW221747   3.606   0.212   3.585
 6950SOL     OW21748   1.786   1.235   4.820
 6950SOL    HW121749   1.881   1.264   4.831
 6950SOL    HW221750   1.743   1.229   4.910
 6951SOL     OW21751   0.216   5.663   5.765
 6951SOL    HW121752   0.215   5.579   5.820
 6951SOL    HW221753   0.252   5.642   5.674
 6952SOL     OW21754   0.973   5.278   3.347
 6952SOL    HW121755   1.017   5.189   3.349
 6952SOL    HW221756   0.962   5.313   3.441
 6953SOL     OW21757   4.812   6.557   0.992
 6953SOL    HW121758   4.863   6.572   1.076
 6953SOL    HW221759   4.801   6.459   0.977
 6954SOL     OW21760   0.825   4.172   1.919
 6954SOL    HW121761   0.837   4.160   1.820
 6954SOL    HW221762   0.849   4.266   1.944
 6955SOL     OW21763   5.293   1.131   2.222
 6955SOL    HW121764   5.357   1.167   2.154
 6955SOL    HW221765   5.251   1.047   2.186
 6956SOL     OW21766   4.848   5.922   3.554
 6956SOL    HW121767   4.783   5.920   3.630
 6956SOL    HW221768   4.802   5.956   3.472
 6957SOL     OW21769   6.586   6.287   0.297
 6957SOL    HW121770   6.486   6.289   0.289
 6957SOL    HW221771   6.612   6.284   0.393
 6958SOL     OW21772   4.109   3.319   5.049
 6958SOL    HW121773   4.191   3.325   5.106
 6958SOL    HW221774   4.092   3.408   5.006
 6959SOL     OW21775   2.132   3.250   2.915
 6959SOL    HW121776   2.044   3.242   2.962
 6959SOL    HW221777   2.172   3.340   2.933
 6960SOL     OW21778   2.050   4.093   1.411
 6960SOL    HW121779   2.078   4.028   1.339
 6960SOL    HW221780   2.102   4.074   1.494
 6961SOL     OW21781   6.140   0.424   4.876
 6961SOL    HW121782   6.159   0.372   4.959
 6961SOL    HW221783   6.150   0.522   4.896
 6962SOL     OW21784   4.308   5.799   1.341
 6962SOL    HW121785   4.329   5.779   1.437
 6962SOL    HW221786   4.392   5.803   1.288
 6963SOL     OW21787   5.320   5.786   0.731
 6963SOL    HW121788   5.410   5.829   0.730
 6963SOL    HW221789   5.264   5.824   0.657
 6964SOL     OW21790   3.811   1.384   5.697
 6964SOL    HW121791   3.762   1.325   5.633
 6964SOL    HW221792   3.838   1.468   5.651
 6965SOL     OW21793   2.145   1.227   0.011
 6965SOL    HW121794   2.083   1.291   6.989
 6965SOL    HW221795   2.191   1.170   6.966
 6966SOL     OW21796   0.480   1.083   2.765
 6966SOL    HW121797   0.546   1.154   2.791
 6966SOL    HW221798   0.516   1.032   2.686
 6967SOL     OW21799   3.239   0.892   5.865
 6967SOL    HW121800   3.155   0.887   5.920
 6967SOL    HW221801   3.223   0.949   5.785
 6968SOL     OW21802   3.460   1.118   3.939
 6968SOL    HW121803   3.442   1.182   4.013
 6968SOL    HW221804   3.559   1.114   3.922
 6969SOL     OW21805   2.942   2.462   1.497
 6969SOL    HW121806   3.022   2.522   1.501
 6969SOL    HW221807   2.917   2.448   1.401
 6970SOL     OW21808   3.875   3.886   5.675
 6970SOL    HW121809   3.932   3.846   5.603
 6970SOL    HW221810   3.908   3.856   5.764
 6971SOL     OW21811   6.568   4.726   0.544
 6971SOL    HW121812   6.502   4.801   0.534
 6971SOL    HW221813   6.602   4.723   0.638
 6972SOL     OW21814   5.238   4.349   3.247
 6972SOL    HW121815   5.164   4.411   3.270
 6972SOL    HW221816   5.325   4.387   3.279
 6973SOL     OW21817   0.413   2.665   3.349
 6973SOL    HW121818   0.484   2.681   3.280
 6973SOL    HW221819   0.359   2.585   3.323
 6974SOL     OW21820   2.959   3.797   2.451
 6974SOL    HW121821   2.930   3.773   2.358
 6974SOL    HW221822   3.039   3.858   2.446
 6975SOL     OW21823   1.504   6.408   4.989
 6975SOL    HW121824   1.423   6.459   4.959
 6975SOL    HW221825   1.559   6.382   4.910
 6976SOL     OW21826   6.684   4.757   5.892
 6976SOL    HW121827   6.675   4.765   5.793
 6976SOL    HW221828   6.764   4.808   5.923
 6977SOL     OW21829   3.355   3.111   0.743
 6977SOL    HW121830   3.405   3.130   0.827
 6977SOL    HW221831   3.351   3.012   0.728
 6978SOL     OW21832   4.940   2.360   2.002
 6978SOL    HW121833   4.948   2.361   1.902
 6978SOL    HW221834   4.876   2.288   2.029
 6979SOL     OW21835   1.007   4.198   1.410
 6979SOL    HW121836   1.083   4.247   1.452
 6979SOL    HW221837   1.034   4.102   1.395
 6980SOL     OW21838   2.065   0.837   3.418
 6980SOL    HW121839   1.992   0.774   3.392
 6980SOL    HW221840   2.102   0.881   3.335
 6981SOL     OW21841   3.472   3.999   5.779
 6981SOL    HW121842   3.513   3.916   5.740
 6981SOL    HW221843   3.389   3.975   5.828
 6982SOL     OW21844   1.292   1.301   4.427
 6982SOL    HW121845   1.206   1.325   4.472
 6982SOL    HW221846   1.276   1.285   4.330
 6983SOL     OW21847   4.652   1.581   4.756
 6983SOL    HW121848   4.602   1.661   4.723
 6983SOL    HW221849   4.721   1.611   4.822
 6984SOL     OW21850   2.246   1.619   3.375
 6984SOL    HW121851   2.242   1.602   3.473
 6984SOL    HW221852   2.153   1.614   3.336
 6985SOL     OW21853   5.901   5.298   0.899
 6985SOL    HW121854   5.904   5.199   0.884
 6985SOL    HW221855   5.994   5.334   0.903
 6986SOL     OW21856   2.986   0.225   6.611
 6986SOL    HW121857   3.068   0.275   6.639
 6986SOL    HW221858   2.922   0.288   6.566
 6987SOL     OW21859   6.524   1.469   6.145
 6987SOL    HW121860   6.568   1.388   6.106
 6987SOL    HW221861   6.457   1.440   6.214
 6988SOL     OW21862   1.125   0.121   6.634
 6988SOL    HW121863   1.203   0.059   6.647
 6988SOL    HW221864   1.073   0.093   6.553
 6989SOL     OW21865   0.459   4.584   2.797
 6989SOL    HW121866   0.448   4.538   2.708
 6989SOL    HW221867   0.370   4.612   2.831
 6990SOL     OW21868   4.174   3.123   0.904
 6990SOL    HW121869   4.176   3.035   0.952
 6990SOL    HW221870   4.110   3.185   0.950
 6991SOL     OW21871   4.607   4.348   3.436
 6991SOL    HW121872   4.629   4.253   3.412
 6991SOL    HW221873   4.689   4.393   3.470
 6992SOL     OW21874   5.862   0.347   6.636
 6992SOL    HW121875   5.800   0.425   6.641
 6992SOL    HW221876   5.846   0.287   6.714
 6993SOL     OW21877   5.891   0.116   2.351
 6993SOL    HW121878   5.891   0.142   2.254
 6993SOL    HW221879   5.901   0.197   2.408
 6994SOL     OW21880   0.406   2.108   3.864
 6994SOL    HW121881   0.437   2.203   3.876
 6994SOL    HW221882   0.361   2.099   3.775
 6995SOL     OW21883   0.706   3.897   6.434
 6995SOL    HW121884   0.713   3.934   6.341
 6995SOL    HW221885   0.617   3.852   6.445
 6996SOL     OW21886   2.310   0.274   0.292
 6996SOL    HW121887   2.325   0.288   0.194
 6996SOL    HW221888   2.348   0.351   0.343
 6997SOL     OW21889   0.393   5.291   5.015
 6997SOL    HW121890   0.476   5.292   5.071
 6997SOL    HW221891   0.385   5.203   4.969
 6998SOL     OW21892   1.547   1.615   1.296
 6998SOL    HW121893   1.590   1.529   1.324
 6998SOL    HW221894   1.478   1.596   1.226
 6999SOL     OW21895   1.836   2.903   6.073
 6999SOL    HW121896   1.777   2.954   6.011
 6999SOL    HW221897   1.816   2.930   6.167
 7000SOL     OW21898   6.186   6.360   2.359
 7000SOL    HW121899   6.142   6.308   2.285
 7000SOL    HW221900   6.121   6.428   2.394
 7001SOL     OW21901   1.197   3.281   5.269
 7001SOL    HW121902   1.167   3.341   5.196
 7001SOL    HW221903   1.263   3.215   5.233
 7002SOL     OW21904   1.780   5.617   4.574
 7002SOL    HW121905   1.792   5.671   4.491
 7002SOL    HW221906   1.734   5.672   4.644
 7003SOL     OW21907   4.247   6.090   1.287
 7003SOL    HW121908   4.325   6.144   1.315
 7003SOL    HW221909   4.246   6.003   1.336
 7004SOL     OW21910   0.451   5.888   1.007
 7004SOL    HW121911   0.434   5.972   0.955
 7004SOL    HW221912   0.370   5.829   1.003
 7005SOL     OW21913   0.999   0.260   0.900
 7005SOL    HW121914   1.080   0.312   0.927
 7005SOL    HW221915   0.920   0.291   0.953
 7006SOL     OW21916   5.563   5.817   3.517
 7006SOL    HW121917   5.589   5.739   3.574
 7006SOL    HW221918   5.467   5.807   3.489
 7007SOL     OW21919   3.930   0.831   4.170
 7007SOL    HW121920   3.844   0.878   4.147
 7007SOL    HW221921   3.942   0.753   4.109
 7008SOL     OW21922   0.608   4.430   4.517
 7008SOL    HW121923   0.572   4.401   4.606
 7008SOL    HW221924   0.555   4.388   4.444
 7009SOL     OW21925   3.985   6.540   2.376
 7009SOL    HW121926   4.028   6.622   2.338
 7009SOL    HW221927   3.914   6.567   2.441
 7010SOL     OW21928   5.335   3.958   3.657
 7010SOL    HW121929   5.357   3.897   3.733
 7010SOL    HW221930   5.400   3.943   3.583
 7011SOL     OW21931   3.721   6.903   6.747
 7011SOL    HW121932   3.698   6.899   6.844
 7011SOL    HW221933   3.638   6.919   6.693
 7012SOL     OW21934   0.955   1.674   1.200
 7012SOL    HW121935   0.936   1.682   1.102
 7012SOL    HW221936   0.909   1.747   1.250
 7013SOL     OW21937   1.105   6.779   6.712
 7013SOL    HW121938   1.148   6.690   6.704
 7013SOL    HW221939   1.063   6.805   6.625
 7014SOL     OW21940   5.243   3.209   0.236
 7014SOL    HW121941   5.329   3.174   0.200
 7014SOL    HW221942   5.245   3.309   0.234
 7015SOL     OW21943   5.920   4.331   1.301
 7015SOL    HW121944   5.833   4.327   1.351
 7015SOL    HW221945   5.949   4.426   1.293
 7016SOL     OW21946   4.176   4.719   1.368
 7016SOL    HW121947   4.239   4.709   1.445
 7016SOL    HW221948   4.115   4.796   1.384
 7017SOL     OW21949   3.003   5.334   3.311
 7017SOL    HW121950   3.093   5.296   3.291
 7017SOL    HW221951   3.002   5.432   3.288
 7018SOL     OW21952   5.269   3.666   4.252
 7018SOL    HW121953   5.298   3.659   4.347
 7018SOL    HW221954   5.307   3.589   4.200
 7019SOL     OW21955   3.509   4.475   0.592
 7019SOL    HW121956   3.448   4.552   0.569
 7019SOL    HW221957   3.548   4.437   0.509
 7020SOL     OW21958   6.899   3.765   5.029
 7020SOL    HW121959   6.867   3.748   4.935
 7020SOL    HW221960   6.968   3.698   5.054
 7021SOL     OW21961   1.841   2.452   4.191
 7021SOL    HW121962   1.926   2.415   4.154
 7021SOL    HW221963   1.826   2.415   4.283
 7022SOL     OW21964   4.830   6.554   6.612
 7022SOL    HW121965   4.888   6.626   6.572
 7022SOL    HW221966   4.789   6.500   6.539
 7023SOL     OW21967   0.809   3.143   2.133
 7023SOL    HW121968   0.736   3.073   2.131
 7023SOL    HW221969   0.889   3.106   2.180
 7024SOL     OW21970   2.953   3.569   4.460
 7024SOL    HW121971   2.945   3.514   4.543
 7024SOL    HW221972   2.986   3.512   4.385
 7025SOL     OW21973   4.013   1.291   1.236
 7025SOL    HW121974   4.073   1.335   1.169
 7025SOL    HW221975   3.919   1.291   1.202
 7026SOL     OW21976   3.520   2.105   2.256
 7026SOL    HW121977   3.569   2.141   2.177
 7026SOL    HW221978   3.450   2.040   2.226
 7027SOL     OW21979   2.678   5.883   4.457
 7027SOL    HW121980   2.628   5.967   4.436
 7027SOL    HW221981   2.656   5.813   4.389
 7028SOL     OW21982   3.888   0.970   3.510
 7028SOL    HW121983   3.801   1.012   3.482
 7028SOL    HW221984   3.912   0.898   3.446
 7029SOL     OW21985   4.443   4.294   5.549
 7029SOL    HW121986   4.431   4.204   5.507
 7029SOL    HW221987   4.358   4.322   5.593
 7030SOL     OW21988   0.056   0.695   4.484
 7030SOL    HW121989   0.136   0.755   4.478
 7030SOL    HW221990   0.020   0.678   4.393
 7031SOL     OW21991   3.874   6.207   0.187
 7031SOL    HW121992   3.962   6.168   0.214
 7031SOL    HW221993   3.847   6.172   0.097
 7032SOL     OW21994   3.893   1.426   3.425
 7032SOL    HW121995   3.851   1.357   3.366
 7032SOL    HW221996   3.871   1.407   3.520
 7033SOL     OW21997   1.214   2.695   3.286
 7033SOL    HW121998   1.191   2.786   3.253
 7033SOL    HW221999   1.295   2.701   3.346
 7034SOL     OW22000   6.964   1.264   2.693
 7034SOL    HW122001   6.887   1.229   2.639
 7034SOL    HW222002   6.929   1.307   2.776
 7035SOL     OW22003   1.434   0.115   0.718
 7035SOL    HW122004   1.517   0.162   0.688
 7035SOL    HW222005   1.417   0.135   0.814
 7036SOL     OW22006   6.947   1.144   2.181
 7036SOL    HW122007   6.953   1.082   2.259
 7036SOL    HW222008   0.012   1.185   2.163
 7037SOL     OW22009   1.201   0.994   6.670
 7037SOL    HW122010   1.143   1.075   6.657
 7037SOL    HW222011   1.238   0.965   6.582
 7038SOL     OW22012   2.428   4.696   4.744
 7038SOL    HW122013   2.490   4.714   4.668
 7038SOL    HW222014   2.369   4.619   4.721
 7039SOL     OW22015   0.150   5.934   3.132
 7039SOL    HW122016   0.124   5.961   3.224
 7039SOL    HW222017   0.078   5.959   3.068
 7040SOL     OW22018   4.924   2.770   5.683
 7040SOL    HW122019   4.911   2.867   5.662
 7040SOL    HW222020   4.977   2.762   5.768
 7041SOL     OW22021   7.020   1.538   2.563
 7041SOL    HW122022   6.929   1.579   2.565
 7041SOL    HW222023   0.003   1.467   2.633
 7042SOL     OW22024   4.526   6.448   4.451
 7042SOL    HW122025   4.428   6.450   4.431
 7042SOL    HW222026   4.562   6.356   4.433
 7043SOL     OW22027   2.378   4.843   3.529
 7043SOL    HW122028   2.374   4.942   3.546
 7043SOL    HW222029   2.400   4.796   3.614
 7044SOL     OW22030   5.619   5.492   5.306
 7044SOL    HW122031   5.535   5.534   5.340
 7044SOL    HW222032   5.603   5.457   5.213
 7045SOL     OW22033   5.067   6.008   2.399
 7045SOL    HW122034   5.164   6.030   2.402
 7045SOL    HW222035   5.033   5.996   2.493
 7046SOL     OW22036   3.601   1.484   3.413
 7046SOL    HW122037   3.521   1.496   3.472
 7046SOL    HW222038   3.678   1.536   3.451
 7047SOL     OW22039   6.677   0.742   2.133
 7047SOL    HW122040   6.607   0.810   2.110
 7047SOL    HW222041   6.716   0.705   2.048
 7048SOL     OW22042   5.863   6.566   4.653
 7048SOL    HW122043   5.926   6.567   4.575
 7048SOL    HW222044   5.779   6.519   4.627
 7049SOL     OW22045   3.709   2.102   1.208
 7049SOL    HW122046   3.691   2.201   1.206
 7049SOL    HW222047   3.740   2.076   1.300
 7050SOL     OW22048   4.015   3.742   1.200
 7050SOL    HW122049   4.082   3.803   1.157
 7050SOL    HW222050   4.053   3.704   1.284
 7051SOL     OW22051   6.700   6.510   1.437
 7051SOL    HW122052   6.747   6.433   1.481
 7051SOL    HW222053   6.634   6.549   1.500
 7052SOL     OW22054   6.537   0.973   4.079
 7052SOL    HW122055   6.620   0.952   4.132
 7052SOL    HW222056   6.522   1.071   4.077
 7053SOL     OW22057   1.344   3.708   4.427
 7053SOL    HW122058   1.304   3.654   4.352
 7053SOL    HW222059   1.354   3.803   4.397
 7054SOL     OW22060   6.906   6.940   0.905
 7054SOL    HW122061   6.936   6.886   0.827
 7054SOL    HW222062   6.926   6.890   0.989
 7055SOL     OW22063   2.739   0.604   0.063
 7055SOL    HW122064   2.741   0.505   0.047
 7055SOL    HW222065   2.789   0.651   7.014
 7056SOL     OW22066   6.911   5.093   1.363
 7056SOL    HW122067   6.944   5.163   1.299
 7056SOL    HW222068   6.950   5.111   1.454
 7057SOL     OW22069   2.951   5.007   3.844
 7057SOL    HW122070   3.008   5.025   3.925
 7057SOL    HW222071   2.889   4.931   3.863
 7058SOL     OW22072   5.285   2.138   6.152
 7058SOL    HW122073   5.205   2.081   6.134
 7058SOL    HW222074   5.365   2.079   6.165
 7059SOL     OW22075   1.386   1.058   3.989
 7059SOL    HW122076   1.460   1.043   4.055
 7059SOL    HW222077   1.346   0.971   3.963
 7060SOL     OW22078   3.330   0.135   0.730
 7060SOL    HW122079   3.323   0.118   0.828
 7060SOL    HW222080   3.258   0.199   0.702
 7061SOL     OW22081   6.945   2.665   3.844
 7061SOL    HW122082   6.848   2.674   3.824
 7061SOL    HW222083   6.996   2.734   3.793
 7062SOL     OW22084   3.729   2.267   5.242
 7062SOL    HW122085   3.806   2.325   5.270
 7062SOL    HW222086   3.764   2.183   5.201
 7063SOL     OW22087   1.252   0.185   1.627
 7063SOL    HW122088   1.211   0.263   1.674
 7063SOL    HW222089   1.352   0.190   1.634
 7064SOL     OW22090   4.142   1.965   6.606
 7064SOL    HW122091   4.180   1.873   6.593
 7064SOL    HW222092   4.217   2.030   6.617
 7065SOL     OW22093   3.045   4.035   5.054
 7065SOL    HW122094   3.085   3.979   4.981
 7065SOL    HW222095   3.118   4.085   5.101
 7066SOL     OW22096   4.337   6.622   5.692
 7066SOL    HW122097   4.295   6.542   5.736
 7066SOL    HW222098   4.284   6.704   5.715
 7067SOL     OW22099   0.906   3.595   5.615
 7067SOL    HW122100   1.001   3.609   5.587
 7067SOL    HW222101   0.895   3.503   5.651
 7068SOL     OW22102   5.525   4.209   4.464
 7068SOL    HW122103   5.543   4.162   4.377
 7068SOL    HW222104   5.607   4.258   4.492
 7069SOL     OW22105   5.831   1.563   5.489
 7069SOL    HW122106   5.818   1.515   5.403
 7069SOL    HW222107   5.785   1.513   5.563
 7070SOL     OW22108   1.220   6.258   4.010
 7070SOL    HW122109   1.138   6.213   3.973
 7070SOL    HW222110   1.242   6.338   3.954
 7071SOL     OW22111   4.023   5.757   6.946
 7071SOL    HW122112   4.087   5.775   6.871
 7071SOL    HW222113   4.016   5.658   6.961
 7072SOL     OW22114   2.355   4.790   0.222
 7072SOL    HW122115   2.295   4.794   0.142
 7072SOL    HW222116   2.448   4.768   0.193
 7073SOL     OW22117   3.798   0.474   3.049
 7073SOL    HW122118   3.897   0.486   3.061
 7073SOL    HW222119   3.780   0.379   3.022
 7074SOL     OW22120   6.471   2.702   2.944
 7074SOL    HW122121   6.560   2.732   2.978
 7074SOL    HW222122   6.480   2.665   2.852
 7075SOL     OW22123   2.720   5.138   4.656
 7075SOL    HW122124   2.690   5.088   4.737
 7075SOL    HW222125   2.721   5.236   4.676
 7076SOL     OW22126   5.647   2.832   0.552
 7076SOL    HW122127   5.647   2.932   0.550
 7076SOL    HW222128   5.741   2.798   0.559
 7077SOL     OW22129   2.181   4.007   3.725
 7077SOL    HW122130   2.184   3.909   3.708
 7077SOL    HW222131   2.157   4.024   3.820
 7078SOL     OW22132   6.293   6.131   1.105
 7078SOL    HW122133   6.198   6.163   1.110
 7078SOL    HW222134   6.354   6.210   1.111
 7079SOL     OW22135   1.079   6.817   3.482
 7079SOL    HW122136   1.024   6.891   3.522
 7079SOL    HW222137   1.079   6.826   3.382
 7080SOL     OW22138   3.956   1.825   4.150
 7080SOL    HW122139   3.878   1.773   4.184
 7080SOL    HW222140   3.941   1.849   4.054
 7081SOL     OW22141   1.022   5.529   0.182
 7081SOL    HW122142   1.044   5.547   0.278
 7081SOL    HW222143   1.102   5.549   0.125
 7082SOL     OW22144   6.710   4.331   0.335
 7082SOL    HW122145   6.719   4.249   0.391
 7082SOL    HW222146   6.716   4.307   0.239
 7083SOL     OW22147   0.181   1.249   2.095
 7083SOL    HW122148   0.213   1.203   2.178
 7083SOL    HW222149   0.210   1.197   2.014
 7084SOL     OW22150   1.061   5.264   5.658
 7084SOL    HW122151   1.128   5.266   5.584
 7084SOL    HW222152   1.001   5.344   5.651
 7085SOL     OW22153   6.613   2.356   2.583
 7085SOL    HW122154   6.660   2.405   2.510
 7085SOL    HW222155   6.677   2.291   2.625
 7086SOL     OW22156   5.559   0.891   6.163
 7086SOL    HW122157   5.560   0.822   6.091
 7086SOL    HW222158   5.647   0.937   6.167
 7087SOL     OW22159   5.657   4.102   2.650
 7087SOL    HW122160   5.651   4.122   2.748
 7087SOL    HW222161   5.701   4.013   2.637
 7088SOL     OW22162   5.084   2.636   5.486
 7088SOL    HW122163   5.059   2.672   5.576
 7088SOL    HW222164   5.148   2.699   5.442
 7089SOL     OW22165   2.108   3.532   3.278
 7089SOL    HW122166   2.094   3.594   3.201
 7089SOL    HW222167   2.145   3.583   3.356
 7090SOL     OW22168   2.372   1.792   0.298
 7090SOL    HW122169   2.381   1.701   0.255
 7090SOL    HW222170   2.352   1.860   0.227
 7091SOL     OW22171   0.584   0.864   1.496
 7091SOL    HW122172   0.571   0.861   1.595
 7091SOL    HW222173   0.660   0.805   1.470
 7092SOL     OW22174   3.842   3.095   5.571
 7092SOL    HW122175   3.839   3.149   5.655
 7092SOL    HW222176   3.821   3.154   5.493
 7093SOL     OW22177   3.345   4.252   1.728
 7093SOL    HW122178   3.341   4.222   1.632
 7093SOL    HW222179   3.386   4.181   1.783
 7094SOL     OW22180   1.217   0.377   5.530
 7094SOL    HW122181   1.200   0.321   5.449
 7094SOL    HW222182   1.221   0.319   5.611
 7095SOL     OW22183   3.439   4.644   5.779
 7095SOL    HW122184   3.433   4.743   5.765
 7095SOL    HW222185   3.350   4.609   5.808
 7096SOL     OW22186   6.316   0.207   1.834
 7096SOL    HW122187   6.299   0.133   1.770
 7096SOL    HW222188   6.405   0.249   1.814
 7097SOL     OW22189   5.412   0.786   1.511
 7097SOL    HW122190   5.383   0.866   1.563
 7097SOL    HW222191   5.358   0.707   1.538
 7098SOL     OW22192   1.408   5.862   5.784
 7098SOL    HW122193   1.454   5.924   5.848
 7098SOL    HW222194   1.334   5.910   5.737
 7099SOL     OW22195   3.654   2.111   4.607
 7099SOL    HW122196   3.657   2.084   4.511
 7099SOL    HW222197   3.740   2.156   4.631
 7100SOL     OW22198   6.257   3.121   0.596
 7100SOL    HW122199   6.264   3.131   0.695
 7100SOL    HW222200   6.348   3.105   0.557
 7101SOL     OW22201   2.394   0.750   5.076
 7101SOL    HW122202   2.434   0.796   4.997
 7101SOL    HW222203   2.436   0.783   5.160
 7102SOL     OW22204   5.562   0.074   0.802
 7102SOL    HW122205   5.541   0.171   0.813
 7102SOL    HW222206   5.544   0.027   0.888
 7103SOL     OW22207   5.708   5.172   1.429
 7103SOL    HW122208   5.745   5.237   1.363
 7103SOL    HW222209   5.772   5.096   1.441
 7104SOL     OW22210   6.042   3.419   2.356
 7104SOL    HW122211   6.135   3.431   2.323
 7104SOL    HW222212   6.004   3.334   2.319
 7105SOL     OW22213   3.452   3.187   5.039
 7105SOL    HW122214   3.406   3.110   4.996
 7105SOL    HW222215   3.459   3.263   4.974
 7106SOL     OW22216   3.525   3.092   1.508
 7106SOL    HW122217   3.489   3.178   1.470
 7106SOL    HW222218   3.449   3.029   1.525
 7107SOL     OW22219   4.026   0.633   0.852
 7107SOL    HW122220   4.011   0.579   0.769
 7107SOL    HW222221   3.971   0.595   0.926
 7108SOL     OW22222   3.023   5.553   2.706
 7108SOL    HW122223   2.938   5.520   2.666
 7108SOL    HW222224   3.060   5.628   2.650
 7109SOL     OW22225   1.783   1.177   6.923
 7109SOL    HW122226   1.846   1.254   6.911
 7109SOL    HW222227   1.744   1.152   6.834
 7110SOL     OW22228   3.103   6.061   4.312
 7110SOL    HW122229   3.066   6.078   4.221
 7110SOL    HW222230   3.035   6.086   4.381
 7111SOL     OW22231   1.795   2.100   4.240
 7111SOL    HW122232   1.725   2.105   4.168
 7111SOL    HW222233   1.884   2.084   4.198
 7112SOL     OW22234   1.918   4.836   4.514
 7112SOL    HW122235   1.950   4.930   4.505
 7112SOL    HW222236   1.914   4.794   4.423
 7113SOL     OW22237   3.253   4.147   5.162
 7113SOL    HW122238   3.299   4.140   5.251
 7113SOL    HW222239   3.321   4.146   5.089
 7114SOL     OW22240   4.432   5.019   1.441
 7114SOL    HW122241   4.385   5.034   1.529
 7114SOL    HW222242   4.366   5.027   1.367
 7115SOL     OW22243   5.483   3.497   6.691
 7115SOL    HW122244   5.504   3.460   6.601
 7115SOL    HW222245   5.489   3.597   6.689
 7116SOL     OW22246   5.434   4.216   3.087
 7116SOL    HW122247   5.342   4.232   3.125
 7116SOL    HW222248   5.429   4.145   3.017
 7117SOL     OW22249   0.193   6.704   4.769
 7117SOL    HW122250   0.170   6.773   4.701
 7117SOL    HW222251   0.225   6.621   4.723
 7118SOL     OW22252   3.865   4.120   5.528
 7118SOL    HW122253   3.842   4.044   5.589
 7118SOL    HW222254   3.883   4.202   5.582
 7119SOL     OW22255   5.324   0.841   5.316
 7119SOL    HW122256   5.421   0.821   5.303
 7119SOL    HW222257   5.281   0.766   5.366
 7120SOL     OW22258   3.804   1.795   1.617
 7120SOL    HW122259   3.712   1.816   1.649
 7120SOL    HW222260   3.808   1.700   1.586
 7121SOL     OW22261   0.584   6.847   2.721
 7121SOL    HW122262   0.500   6.902   2.724
 7121SOL    HW222263   0.657   6.901   2.679
 7122SOL     OW22264   1.651   0.574   5.696
 7122SOL    HW122265   1.631   0.599   5.791
 7122SOL    HW222266   1.651   0.657   5.639
 7123SOL     OW22267   0.568   5.387   3.662
 7123SOL    HW122268   0.494   5.403   3.597
 7123SOL    HW222269   0.595   5.291   3.659
 7124SOL     OW22270   0.734   2.630   1.744
 7124SOL    HW122271   0.772   2.722   1.739
 7124SOL    HW222272   0.780   2.571   1.677
 7125SOL     OW22273   1.454   1.086   1.334
 7125SOL    HW122274   1.415   1.001   1.298
 7125SOL    HW222275   1.404   1.164   1.298
 7126SOL     OW22276   4.411   6.230   0.454
 7126SOL    HW122277   4.463   6.181   0.384
 7126SOL    HW222278   4.428   6.189   0.544
 7127SOL     OW22279   2.603   6.354   6.071
 7127SOL    HW122280   2.505   6.343   6.055
 7127SOL    HW222281   2.653   6.329   5.988
 7128SOL     OW22282   3.806   3.820   6.899
 7128SOL    HW122283   3.756   3.742   6.860
 7128SOL    HW222284   3.814   3.892   6.829
 7129SOL     OW22285   1.676   1.167   1.464
 7129SOL    HW122286   1.589   1.147   1.419
 7129SOL    HW222287   1.696   1.094   1.530
 7130SOL     OW22288   3.728   6.621   4.351
 7130SOL    HW122289   3.803   6.569   4.393
 7130SOL    HW222290   3.643   6.569   4.359
 7131SOL     OW22291   3.110   0.758   1.549
 7131SOL    HW122292   3.124   0.679   1.609
 7131SOL    HW222293   3.162   0.836   1.585
 7132SOL     OW22294   4.890   4.114   0.291
 7132SOL    HW122295   4.854   4.090   0.381
 7132SOL    HW222296   4.959   4.047   0.264
 7133SOL     OW22297   4.459   4.601   4.447
 7133SOL    HW122298   4.501   4.633   4.362
 7133SOL    HW222299   4.465   4.673   4.516
 7134SOL     OW22300   4.992   6.610   2.520
 7134SOL    HW122301   4.954   6.622   2.612
 7134SOL    HW222302   5.092   6.608   2.524
 7135SOL     OW22303   2.200   2.910   2.921
 7135SOL    HW122304   2.259   2.830   2.923
 7135SOL    HW222305   2.242   2.984   2.974
 7136SOL     OW22306   3.235   2.136   1.211
 7136SOL    HW122307   3.286   2.090   1.139
 7136SOL    HW222308   3.261   2.099   1.300
 7137SOL     OW22309   2.830   1.926   0.517
 7137SOL    HW122310   2.851   1.937   0.614
 7137SOL    HW222311   2.754   1.985   0.492
 7138SOL     OW22312   2.053   1.688   1.250
 7138SOL    HW122313   2.084   1.734   1.333
 7138SOL    HW222314   2.026   1.757   1.182
 7139SOL     OW22315   5.565   4.802   2.234
 7139SOL    HW122316   5.631   4.757   2.173
 7139SOL    HW222317   5.613   4.868   2.291
 7140SOL     OW22318   6.112   4.048   1.006
 7140SOL    HW122319   6.052   3.974   0.976
 7140SOL    HW222320   6.070   4.136   0.984
 7141SOL     OW22321   4.426   6.968   1.032
 7141SOL    HW122322   4.392   6.961   1.126
 7141SOL    HW222323   4.366   0.002   0.978
 7142SOL     OW22324   3.523   0.055   3.851
 7142SOL    HW122325   3.476   6.995   3.824
 7142SOL    HW222326   3.525   0.062   3.950
 7143SOL     OW22327   2.051   4.036   0.327
 7143SOL    HW122328   2.112   4.022   0.249
 7143SOL    HW222329   2.092   4.102   0.390
 7144SOL     OW22330   0.978   0.828   3.462
 7144SOL    HW122331   1.049   0.884   3.505
 7144SOL    HW222332   0.894   0.832   3.516
 7145SOL     OW22333   4.223   0.949   6.604
 7145SOL    HW122334   4.264   0.912   6.521
 7145SOL    HW222335   4.274   1.029   6.634
 7146SOL     OW22336   1.724   1.362   5.975
 7146SOL    HW122337   1.665   1.416   6.035
 7146SOL    HW222338   1.763   1.286   6.027
 7147SOL     OW22339   6.496   5.827   2.962
 7147SOL    HW122340   6.437   5.875   3.027
 7147SOL    HW222341   6.591   5.839   2.989
 7148SOL     OW22342   6.257   5.901   1.852
 7148SOL    HW122343   6.165   5.868   1.872
 7148SOL    HW222344   6.313   5.894   1.935
 7149SOL     OW22345   0.818   5.115   3.988
 7149SOL    HW122346   0.833   5.100   3.890
 7149SOL    HW222347   0.890   5.174   4.024
 7150SOL     OW22348   3.367   2.968   0.369
 7150SOL    HW122349   3.312   2.889   0.395
 7150SOL    HW222350   3.347   3.044   0.431
 7151SOL     OW22351   2.902   6.708   1.142
 7151SOL    HW122352   2.957   6.783   1.181
 7151SOL    HW222353   2.805   6.733   1.146
 7152SOL     OW22354   6.174   0.771   6.499
 7152SOL    HW122355   6.246   0.769   6.430
 7152SOL    HW222356   6.148   0.678   6.524
 7153SOL     OW22357   3.577   5.252   1.889
 7153SOL    HW122358   3.605   5.157   1.872
 7153SOL    HW222359   3.617   5.283   1.976
 7154SOL     OW22360   4.203   0.004   3.138
 7154SOL    HW122361   4.246   7.015   3.048
 7154SOL    HW222362   4.229   0.094   3.173
 7155SOL     OW22363   3.134   3.102   1.282
 7155SOL    HW122364   3.198   3.159   1.332
 7155SOL    HW222365   3.171   3.083   1.191
 7156SOL     OW22366   4.890   3.424   2.611
 7156SOL    HW122367   4.884   3.518   2.644
 7156SOL    HW222368   4.855   3.420   2.517
 7157SOL     OW22369   6.826   4.663   1.831
 7157SOL    HW122370   6.816   4.567   1.803
 7157SOL    HW222371   6.856   4.718   1.753
 7158SOL     OW22372   0.269   6.924   2.960
 7158SOL    HW122373   0.315   7.012   2.949
 7158SOL    HW222374   0.333   6.857   2.998
 7159SOL     OW22375   1.140   4.655   4.177
 7159SOL    HW122376   1.112   4.560   4.182
 7159SOL    HW222377   1.230   4.665   4.218
 7160SOL     OW22378   5.809   6.235   2.447
 7160SOL    HW122379   5.745   6.260   2.374
 7160SOL    HW222380   5.809   6.136   2.458
 7161SOL     OW22381   3.471   3.953   2.849
 7161SOL    HW122382   3.419   3.916   2.773
 7161SOL    HW222383   3.485   3.882   2.918
 7162SOL     OW22384   0.512   4.970   6.714
 7162SOL    HW122385   0.522   4.898   6.784
 7162SOL    HW222386   0.463   5.048   6.753
 7163SOL     OW22387   2.653   0.304   2.613
 7163SOL    HW122388   2.726   0.280   2.549
 7163SOL    HW222389   2.671   0.394   2.652
 7164SOL     OW22390   1.829   0.663   5.069
 7164SOL    HW122391   1.799   0.712   4.987
 7164SOL    HW222392   1.758   0.598   5.095
 7165SOL     OW22393   5.965   5.890   1.911
 7165SOL    HW122394   5.949   5.877   2.009
 7165SOL    HW222395   5.922   5.815   1.860
 7166SOL     OW22396   5.396   1.132   6.714
 7166SOL    HW122397   5.341   1.048   6.707
 7166SOL    HW222398   5.336   1.210   6.726
 7167SOL     OW22399   4.937   2.831   5.205
 7167SOL    HW122400   4.973   2.918   5.235
 7167SOL    HW222401   4.848   2.845   5.161
 7168SOL     OW22402   3.002   1.844   2.775
 7168SOL    HW122403   3.047   1.787   2.707
 7168SOL    HW222404   3.070   1.896   2.827
 7169SOL     OW22405   0.557   4.031   4.362
 7169SOL    HW122406   0.469   4.035   4.409
 7169SOL    HW222407   0.631   4.039   4.429
 7170SOL     OW22408   3.970   6.245   2.446
 7170SOL    HW122409   3.999   6.340   2.436
 7170SOL    HW222410   3.945   6.227   2.541
 7171SOL     OW22411   6.356   3.793   0.907
 7171SOL    HW122412   6.402   3.730   0.969
 7171SOL    HW222413   6.389   3.886   0.923
 7172SOL     OW22414   1.904   1.629   5.416
 7172SOL    HW122415   1.883   1.724   5.438
 7172SOL    HW222416   1.882   1.571   5.494
 7173SOL     OW22417   6.576   5.240   0.026
 7173SOL    HW122418   6.494   5.184   0.037
 7173SOL    HW222419   6.554   5.335   0.045
 7174SOL     OW22420   6.913   4.973   0.614
 7174SOL    HW122421   6.992   5.008   0.565
 7174SOL    HW222422   6.880   4.890   0.569
 7175SOL     OW22423   6.827   3.520   5.484
 7175SOL    HW122424   6.893   3.521   5.559
 7175SOL    HW222425   6.836   3.435   5.433
 7176SOL     OW22426   6.983   1.336   4.644
 7176SOL    HW122427   6.911   1.401   4.670
 7176SOL    HW222428   6.948   1.275   4.572
 7177SOL     OW22429   1.536   5.093   5.286
 7177SOL    HW122430   1.514   5.071   5.381
 7177SOL    HW222431   1.471   5.048   5.225
 7178SOL     OW22432   0.751   1.038   6.173
 7178SOL    HW122433   0.673   1.090   6.208
 7178SOL    HW222434   0.793   1.089   6.098
 7179SOL     OW22435   1.874   3.639   4.505
 7179SOL    HW122436   1.940   3.615   4.577
 7179SOL    HW222437   1.865   3.563   4.441
 7180SOL     OW22438   2.174   3.655   0.797
 7180SOL    HW122439   2.233   3.662   0.716
 7180SOL    HW222440   2.098   3.720   0.788
 7181SOL     OW22441   2.358   1.431   6.576
 7181SOL    HW122442   2.416   1.498   6.530
 7181SOL    HW222443   2.400   1.404   6.663
 7182SOL     OW22444   0.863   3.748   3.397
 7182SOL    HW122445   0.920   3.773   3.475
 7182SOL    HW222446   0.779   3.804   3.399
 7183SOL     OW22447   2.041   6.236   2.143
 7183SOL    HW122448   2.128   6.283   2.161
 7183SOL    HW222449   2.022   6.238   2.044
 7184SOL     OW22450   6.363   0.753   4.105
 7184SOL    HW122451   6.419   0.834   4.091
 7184SOL    HW222452   6.410   0.690   4.167
 7185SOL     OW22453   5.218   0.669   5.494
 7185SOL    HW122454   5.179   0.581   5.468
 7185SOL    HW222455   5.287   0.656   5.565
 7186SOL     OW22456   0.308   1.375   1.107
 7186SOL    HW122457   0.285   1.279   1.123
 7186SOL    HW222458   0.257   1.433   1.170
 7187SOL     OW22459   2.781   3.767   5.294
 7187SOL    HW122460   2.757   3.742   5.387
 7187SOL    HW222461   2.739   3.855   5.271
 7188SOL     OW22462   4.893   5.354   0.060
 7188SOL    HW122463   4.839   5.334   7.003
 7188SOL    HW222464   4.840   5.413   0.121
 7189SOL     OW22465   6.098   3.239   5.533
 7189SOL    HW122466   6.108   3.171   5.459
 7189SOL    HW222467   6.031   3.308   5.505
 7190SOL     OW22468   6.036   5.926   1.592
 7190SOL    HW122469   5.940   5.939   1.621
 7190SOL    HW222470   6.068   6.009   1.546
 7191SOL     OW22471   0.215   4.386   3.144
 7191SOL    HW122472   0.233   4.333   3.227
 7191SOL    HW222473   0.233   4.328   3.064
 7192SOL     OW22474   1.194   4.189   6.498
 7192SOL    HW122475   1.246   4.181   6.583
 7192SOL    HW222476   1.219   4.114   6.437
 7193SOL     OW22477   2.761   1.699   2.854
 7193SOL    HW122478   2.727   1.715   2.762
 7193SOL    HW222479   2.855   1.731   2.861
 7194SOL     OW22480   2.115   2.795   0.346
 7194SOL    HW122481   2.065   2.782   0.261
 7194SOL    HW222482   2.113   2.891   0.372
 7195SOL     OW22483   6.338   4.468   6.493
 7195SOL    HW122484   6.250   4.422   6.481
 7195SOL    HW222485   6.385   4.430   6.572
 7196SOL     OW22486   3.050   4.116   1.724
 7196SOL    HW122487   3.106   4.197   1.703
 7196SOL    HW222488   3.052   4.054   1.646
 7197SOL     OW22489   0.762   3.732   5.426
 7197SOL    HW122490   0.806   3.699   5.510
 7197SOL    HW222491   0.716   3.818   5.444
 7198SOL     OW22492   0.904   0.840   7.003
 7198SOL    HW122493   0.875   0.783   6.926
 7198SOL    HW222494   0.925   0.782   0.057
 7199SOL     OW22495   1.398   6.957   2.897
 7199SOL    HW122496   1.357   6.949   2.806
 7199SOL    HW222497   1.334   7.001   2.959
 7200SOL     OW22498   1.788   3.420   6.993
 7200SOL    HW122499   1.827   3.366   6.918
 7200SOL    HW222500   1.835   3.397   0.054
 7201SOL     OW22501   0.410   5.416   4.170
 7201SOL    HW122502   0.336   5.383   4.228
 7201SOL    HW222503   0.419   5.356   4.090
 7202SOL     OW22504   5.223   6.497   6.580
 7202SOL    HW122505   5.178   6.585   6.567
 7202SOL    HW222506   5.317   6.502   6.546
 7203SOL     OW22507   0.212   1.192   1.825
 7203SOL    HW122508   0.295   1.156   1.782
 7203SOL    HW222509   0.186   1.277   1.779
 7204SOL     OW22510   6.963   1.290   6.359
 7204SOL    HW122511   6.901   1.226   6.313
 7204SOL    HW222512   6.949   1.382   6.323
 7205SOL     OW22513   1.584   3.860   4.843
 7205SOL    HW122514   1.580   3.801   4.762
 7205SOL    HW222515   1.666   3.917   4.840
 7206SOL     OW22516   1.358   1.484   1.821
 7206SOL    HW122517   1.313   1.405   1.860
 7206SOL    HW222518   1.441   1.505   1.872
 7207SOL     OW22519   2.781   1.136   4.510
 7207SOL    HW122520   2.727   1.116   4.428
 7207SOL    HW222521   2.735   1.206   4.564
 7208SOL     OW22522   4.729   0.453   3.928
 7208SOL    HW122523   4.683   0.534   3.966
 7208SOL    HW222524   4.764   0.396   4.002
 7209SOL     OW22525   2.254   2.763   2.228
 7209SOL    HW122526   2.317   2.818   2.283
 7209SOL    HW222527   2.307   2.697   2.174
 7210SOL     OW22528   3.718   2.083   3.978
 7210SOL    HW122529   3.733   2.081   3.879
 7210SOL    HW222530   3.786   2.142   4.021
 7211SOL     OW22531   2.816   6.232   5.161
 7211SOL    HW122532   2.841   6.312   5.106
 7211SOL    HW222533   2.735   6.188   5.121
 7212SOL     OW22534   0.509   6.126   5.918
 7212SOL    HW122535   0.508   6.098   6.014
 7212SOL    HW222536   0.533   6.222   5.910
 7213SOL     OW22537   3.375   6.105   6.100
 7213SOL    HW122538   3.301   6.075   6.160
 7213SOL    HW222539   3.426   6.025   6.067
 7214SOL     OW22540   6.505   1.110   5.416
 7214SOL    HW122541   6.452   1.064   5.345
 7214SOL    HW222542   6.444   1.130   5.494
 7215SOL     OW22543   5.793   2.636   4.347
 7215SOL    HW122544   5.777   2.538   4.333
 7215SOL    HW222545   5.714   2.688   4.315
 7216SOL     OW22546   3.067   6.322   2.504
 7216SOL    HW122547   3.068   6.338   2.603
 7216SOL    HW222548   3.000   6.251   2.482
 7217SOL     OW22549   1.901   3.391   3.409
 7217SOL    HW122550   1.993   3.388   3.369
 7217SOL    HW222551   1.872   3.487   3.419
 7218SOL     OW22552   6.786   2.815   4.517
 7218SOL    HW122553   6.846   2.739   4.491
 7218SOL    HW222554   6.830   2.868   4.589
 7219SOL     OW22555   2.862   0.037   2.039
 7219SOL    HW122556   2.766   0.063   2.044
 7219SOL    HW222557   2.919   0.119   2.027
 7220SOL     OW22558   6.233   4.190   3.904
 7220SOL    HW122559   6.330   4.177   3.925
 7220SOL    HW222560   6.223   4.222   3.810
 7221SOL     OW22561   3.738   6.054   4.683
 7221SOL    HW122562   3.808   6.104   4.733
 7221SOL    HW222563   3.655   6.110   4.677
 7222SOL     OW22564   5.753   6.851   3.494
 7222SOL    HW122565   5.678   6.885   3.550
 7222SOL    HW222566   5.830   6.824   3.552
 7223SOL     OW22567   2.813   0.751   1.135
 7223SOL    HW122568   2.823   0.682   1.207
 7223SOL    HW222569   2.860   0.835   1.162
 7224SOL     OW22570   4.919   2.848   4.819
 7224SOL    HW122571   4.910   2.924   4.883
 7224SOL    HW222572   5.009   2.806   4.830
 7225SOL     OW22573   1.675   6.533   0.848
 7225SOL    HW122574   1.585   6.521   0.889
 7225SOL    HW222575   1.665   6.557   0.751
 7226SOL     OW22576   5.874   6.801   1.150
 7226SOL    HW122577   5.796   6.812   1.212
 7226SOL    HW222578   5.947   6.751   1.197
 7227SOL     OW22579   2.559   1.799   2.098
 7227SOL    HW122580   2.490   1.732   2.070
 7227SOL    HW222581   2.594   1.847   2.018
 7228SOL     OW22582   1.327   1.097   2.850
 7228SOL    HW122583   1.337   1.027   2.920
 7228SOL    HW222584   1.298   1.055   2.764
 7229SOL     OW22585   0.806   6.775   4.610
 7229SOL    HW122586   0.847   6.748   4.697
 7229SOL    HW222587   0.846   6.721   4.536
 7230SOL     OW22588   3.107   6.074   3.715
 7230SOL    HW122589   3.157   6.023   3.785
 7230SOL    HW222590   3.138   6.045   3.625
 7231SOL     OW22591   4.394   0.686   6.824
 7231SOL    HW122592   4.408   0.616   6.894
 7231SOL    HW222593   4.296   0.702   6.813
 7232SOL     OW22594   4.714   5.982   2.909
 7232SOL    HW122595   4.633   6.030   2.944
 7232SOL    HW222596   4.796   6.018   2.954
 7233SOL     OW22597   1.105   1.003   5.241
 7233SOL    HW122598   1.179   0.952   5.284
 7233SOL    HW222599   1.133   1.098   5.228
 7234SOL     OW22600   5.860   2.887   3.104
 7234SOL    HW122601   5.857   2.974   3.055
 7234SOL    HW222602   5.790   2.825   3.067
 7235SOL     OW22603   6.199   4.141   2.067
 7235SOL    HW122604   6.196   4.177   1.974
 7235SOL    HW222605   6.293   4.136   2.098
 7236SOL     OW22606   2.676   2.345   2.837
 7236SOL    HW122607   2.635   2.259   2.806
 7236SOL    HW222608   2.758   2.325   2.890
 7237SOL     OW22609   3.996   0.105   5.995
 7237SOL    HW122610   3.947   0.088   5.909
 7237SOL    HW222611   3.938   0.076   6.071
 7238SOL     OW22612   4.599   2.268   6.015
 7238SOL    HW122613   4.622   2.173   6.037
 7238SOL    HW222614   4.682   2.324   6.022
 7239SOL     OW22615   1.134   2.860   1.848
 7239SOL    HW122616   1.203   2.896   1.909
 7239SOL    HW222617   1.060   2.926   1.837
 7240SOL     OW22618   0.391   0.981   6.431
 7240SOL    HW122619   0.347   0.909   6.377
 7240SOL    HW222620   0.421   0.943   6.519
 7241SOL     OW22621   2.509   0.209   0.863
 7241SOL    HW122622   2.439   0.220   0.793
 7241SOL    HW222623   2.582   0.276   0.849
 7242SOL     OW22624   6.694   5.600   6.288
 7242SOL    HW122625   6.720   5.548   6.206
 7242SOL    HW222626   6.598   5.583   6.309
 7243SOL     OW22627   0.025   4.479   5.956
 7243SOL    HW122628   7.004   4.432   5.880
 7243SOL    HW222629   7.014   4.442   6.042
 7244SOL     OW22630   0.187   0.642   1.110
 7244SOL    HW122631   0.158   0.551   1.141
 7244SOL    HW222632   0.255   0.678   1.174
 7245SOL     OW22633   1.045   3.193   5.470
 7245SOL    HW122634   1.099   3.223   5.391
 7245SOL    HW222635   1.105   3.144   5.533
 7246SOL     OW22636   1.712   0.067   3.517
 7246SOL    HW122637   1.662   0.110   3.442
 7246SOL    HW222638   1.647   0.031   3.583
 7247SOL     OW22639   2.687   1.554   5.143
 7247SOL    HW122640   2.688   1.612   5.225
 7247SOL    HW222641   2.657   1.462   5.168
 7248SOL     OW22642   3.389   0.881   2.589
 7248SOL    HW122643   3.438   0.855   2.673
 7248SOL    HW222644   3.388   0.981   2.581
 7249SOL     OW22645   5.201   4.763   1.689
 7249SOL    HW122646   5.270   4.714   1.636
 7249SOL    HW222647   5.226   4.761   1.786
 7250SOL     OW22648   5.411   5.711   5.792
 7250SOL    HW122649   5.384   5.807   5.778
 7250SOL    HW222650   5.465   5.680   5.713
 7251SOL     OW22651   0.958   6.708   4.827
 7251SOL    HW122652   0.898   6.749   4.896
 7251SOL    HW222653   1.045   6.757   4.826
 7252SOL     OW22654   3.247   3.597   1.802
 7252SOL    HW122655   3.261   3.545   1.718
 7252SOL    HW222656   3.149   3.608   1.818
 7253SOL     OW22657   1.654   5.560   6.685
 7253SOL    HW122658   1.737   5.593   6.729
 7253SOL    HW222659   1.576   5.574   6.745
 7254SOL     OW22660   5.707   5.259   4.535
 7254SOL    HW122661   5.803   5.233   4.525
 7254SOL    HW222662   5.695   5.311   4.620
 7255SOL     OW22663   4.542   3.752   0.122
 7255SOL    HW122664   4.530   3.676   0.059
 7255SOL    HW222665   4.490   3.831   0.089
 7256SOL     OW22666   3.100   5.878   5.070
 7256SOL    HW122667   3.021   5.842   5.120
 7256SOL    HW222668   3.136   5.958   5.117
 7257SOL     OW22669   0.150   1.964   3.711
 7257SOL    HW122670   0.134   1.951   3.808
 7257SOL    HW222671   0.063   1.957   3.661
 7258SOL     OW22672   4.819   2.279   3.081
 7258SOL    HW122673   4.750   2.277   3.154
 7258SOL    HW222674   4.886   2.207   3.097
 7259SOL     OW22675   1.596   3.474   1.955
 7259SOL    HW122676   1.663   3.543   1.926
 7259SOL    HW222677   1.588   3.405   1.883
 7260SOL     OW22678   5.710   1.928   1.993
 7260SOL    HW122679   5.790   1.905   2.049
 7260SOL    HW222680   5.640   1.858   2.005
 7261SOL     OW22681   1.288   4.609   1.954
 7261SOL    HW122682   1.220   4.579   2.021
 7261SOL    HW222683   1.345   4.681   1.994
 7262SOL     OW22684   5.761   2.448   6.405
 7262SOL    HW122685   5.666   2.429   6.427
 7262SOL    HW222686   5.817   2.440   6.487
 7263SOL     OW22687   0.285   6.973   6.929
 7263SOL    HW122688   0.378   6.936   6.934
 7263SOL    HW222689   0.268   7.008   6.838
 7264SOL     OW22690   5.168   1.484   0.844
 7264SOL    HW122691   5.227   1.512   0.919
 7264SOL    HW222692   5.145   1.387   0.854
 7265SOL     OW22693   5.392   5.040   6.408
 7265SOL    HW122694   5.449   5.103   6.460
 7265SOL    HW222695   5.425   4.946   6.420
 7266SOL     OW22696   5.638   0.542   2.901
 7266SOL    HW122697   5.563   0.593   2.944
 7266SOL    HW222698   5.713   0.605   2.881
 7267SOL     OW22699   6.558   6.124   5.198
 7267SOL    HW122700   6.585   6.214   5.234
 7267SOL    HW222701   6.602   6.109   5.110
 7268SOL     OW22702   6.552   5.609   4.344
 7268SOL    HW122703   6.651   5.602   4.332
 7268SOL    HW222704   6.516   5.682   4.285
 7269SOL     OW22705   1.504   6.070   5.933
 7269SOL    HW122706   1.588   6.033   5.974
 7269SOL    HW222707   1.471   6.146   5.988
 7270SOL     OW22708   1.047   2.775   5.334
 7270SOL    HW122709   1.121   2.818   5.385
 7270SOL    HW222710   0.962   2.826   5.349
 7271SOL     OW22711   1.625   4.807   3.924
 7271SOL    HW122712   1.527   4.789   3.927
 7271SOL    HW222713   1.641   4.906   3.924
 7272SOL     OW22714   6.115   5.519   2.498
 7272SOL    HW122715   6.149   5.603   2.457
 7272SOL    HW222716   6.146   5.513   2.593
 7273SOL     OW22717   6.460   4.086   0.834
 7273SOL    HW122718   6.435   4.181   0.818
 7273SOL    HW222719   6.541   4.082   0.894
 7274SOL     OW22720   0.365   5.217   6.414
 7274SOL    HW122721   0.322   5.218   6.504
 7274SOL    HW222722   0.314   5.277   6.352
 7275SOL     OW22723   0.012   5.464   2.856
 7275SOL    HW122724   0.031   5.561   2.842
 7275SOL    HW222725   0.092   5.410   2.830
 7276SOL     OW22726   4.802   0.802   3.177
 7276SOL    HW122727   4.777   0.706   3.162
 7276SOL    HW222728   4.874   0.807   3.246
 7277SOL     OW22729   5.048   0.383   4.418
 7277SOL    HW122730   5.098   0.369   4.503
 7277SOL    HW222731   5.103   0.349   4.341
 7278SOL     OW22732   4.044   2.761   1.163
 7278SOL    HW122733   4.134   2.735   1.128
 7278SOL    HW222734   4.031   2.724   1.254
 7279SOL     OW22735   3.987   5.018   6.552
 7279SOL    HW122736   3.985   4.929   6.506
 7279SOL    HW222737   3.894   5.053   6.562
 7280SOL     OW22738   0.283   1.644   3.777
 7280SOL    HW122739   0.380   1.660   3.790
 7280SOL    HW222740   0.231   1.699   3.843
 7281SOL     OW22741   2.607   1.700   6.753
 7281SOL    HW122742   2.679   1.637   6.781
 7281SOL    HW222743   2.588   1.688   6.655
 7282SOL     OW22744   5.557   5.279   3.179
 7282SOL    HW122745   5.518   5.335   3.106
 7282SOL    HW222746   5.486   5.220   3.217
 7283SOL     OW22747   4.410   1.448   2.592
 7283SOL    HW122748   4.368   1.397   2.517
 7283SOL    HW222749   4.362   1.429   2.677
 7284SOL     OW22750   0.353   2.567   6.473
 7284SOL    HW122751   0.377   2.644   6.533
 7284SOL    HW222752   0.347   2.600   6.378
 7285SOL     OW22753   5.026   3.148   2.293
 7285SOL    HW122754   5.101   3.214   2.285
 7285SOL    HW222755   4.994   3.123   2.201
 7286SOL     OW22756   2.898   1.023   0.589
 7286SOL    HW122757   2.849   1.059   0.509
 7286SOL    HW222758   2.940   0.935   0.566
 7287SOL     OW22759   0.092   2.579   5.824
 7287SOL    HW122760   0.161   2.506   5.815
 7287SOL    HW222761   0.025   2.570   5.750
 7288SOL     OW22762   2.990   1.064   0.837
 7288SOL    HW122763   3.009   0.974   0.875
 7288SOL    HW222764   2.964   1.055   0.740
 7289SOL     OW22765   4.900   2.955   4.565
 7289SOL    HW122766   4.906   2.910   4.654
 7289SOL    HW222767   4.909   3.054   4.577
 7290SOL     OW22768   3.725   0.115   5.228
 7290SOL    HW122769   3.717   0.041   5.294
 7290SOL    HW222770   3.818   0.116   5.190
 7291SOL     OW22771   2.172   6.605   0.840
 7291SOL    HW122772   2.080   6.580   0.870
 7291SOL    HW222773   2.239   6.562   0.900
 7292SOL     OW22774   3.658   1.099   3.481
 7292SOL    HW122775   3.681   1.133   3.572
 7292SOL    HW222776   3.565   1.062   3.480
 7293SOL     OW22777   1.112   1.875   4.705
 7293SOL    HW122778   1.023   1.915   4.680
 7293SOL    HW222779   1.126   1.884   4.803
 7294SOL     OW22780   2.799   5.005   6.681
 7294SOL    HW122781   2.859   5.060   6.738
 7294SOL    HW222782   2.805   5.037   6.586
 7295SOL     OW22783   0.319   2.886   0.729
 7295SOL    HW122784   0.242   2.895   0.793
 7295SOL    HW222785   0.401   2.926   0.769
 7296SOL     OW22786   3.316   5.623   1.978
 7296SOL    HW122787   3.349   5.531   1.955
 7296SOL    HW222788   3.232   5.616   2.031
 7297SOL     OW22789   3.781   6.853   1.857
 7297SOL    HW122790   3.737   6.830   1.944
 7297SOL    HW222791   3.810   6.769   1.810
 7298SOL     OW22792   5.362   4.598   5.504
 7298SOL    HW122793   5.322   4.631   5.589
 7298SOL    HW222794   5.417   4.516   5.523
 7299SOL     OW22795   0.939   2.081   0.502
 7299SOL    HW122796   0.852   2.072   0.454
 7299SOL    HW222797   0.951   2.175   0.533
 7300SOL     OW22798   0.122   6.059   3.372
 7300SOL    HW122799   0.062   6.010   3.435
 7300SOL    HW222800   0.205   6.086   3.420
 7301SOL     OW22801   5.398   1.017   5.074
 7301SOL    HW122802   5.303   1.006   5.101
 7301SOL    HW222803   5.402   1.042   4.977
 7302SOL     OW22804   1.025   2.276   5.369
 7302SOL    HW122805   0.968   2.345   5.323
 7302SOL    HW222806   1.120   2.306   5.368
 7303SOL     OW22807   3.643   0.569   0.172
 7303SOL    HW122808   3.613   0.500   0.239
 7303SOL    HW222809   3.563   0.605   0.124
 7304SOL     OW22810   3.980   5.116   1.170
 7304SOL    HW122811   4.042   5.154   1.102
 7304SOL    HW222812   3.903   5.072   1.125
 7305SOL     OW22813   4.633   1.243   0.212
 7305SOL    HW122814   4.665   1.337   0.224
 7305SOL    HW222815   4.706   1.179   0.236
 7306SOL     OW22816   4.954   1.684   0.845
 7306SOL    HW122817   4.944   1.738   0.762
 7306SOL    HW222818   5.044   1.641   0.846
 7307SOL     OW22819   2.417   6.597   2.347
 7307SOL    HW122820   2.414   6.668   2.418
 7307SOL    HW222821   2.489   6.618   2.282
 7308SOL     OW22822   0.007   2.988   5.708
 7308SOL    HW122823   7.008   3.084   5.692
 7308SOL    HW222824   6.983   2.954   5.788
 7309SOL     OW22825   4.423   5.750   1.584
 7309SOL    HW122826   4.479   5.833   1.587
 7309SOL    HW222827   4.381   5.736   1.674
 7310SOL     OW22828   2.428   4.163   1.343
 7310SOL    HW122829   2.408   4.246   1.395
 7310SOL    HW222830   2.507   4.117   1.383
 7311SOL     OW22831   2.546   1.916   1.608
 7311SOL    HW122832   2.504   1.832   1.642
 7311SOL    HW222833   2.578   1.902   1.515
 7312SOL     OW22834   0.643   3.343   4.457
 7312SOL    HW122835   0.609   3.437   4.454
 7312SOL    HW222836   0.743   3.343   4.460
 7313SOL     OW22837   2.420   1.321   6.811
 7313SOL    HW122838   2.512   1.331   6.848
 7313SOL    HW222839   2.394   1.224   6.814
 7314SOL     OW22840   0.032   5.814   5.896
 7314SOL    HW122841   0.098   5.777   5.832
 7314SOL    HW222842   6.986   5.865   5.846
 7315SOL     OW22843   6.558   7.020   2.423
 7315SOL    HW122844   6.576   0.047   2.339
 7315SOL    HW222845   6.506   6.937   2.402
 7316SOL     OW22846   2.601   3.956   6.343
 7316SOL    HW122847   2.687   4.006   6.355
 7316SOL    HW222848   2.618   3.873   6.291
 7317SOL     OW22849   4.890   1.488   3.005
 7317SOL    HW122850   4.925   1.541   2.927
 7317SOL    HW222851   4.933   1.398   3.006
 7318SOL     OW22852   2.192   0.894   1.375
 7318SOL    HW122853   2.100   0.898   1.335
 7318SOL    HW222854   2.195   0.953   1.456
 7319SOL     OW22855   0.287   4.065   6.487
 7319SOL    HW122856   0.282   4.165   6.481
 7319SOL    HW222857   0.196   4.026   6.478
 7320SOL     OW22858   6.771   3.746   2.446
 7320SOL    HW122859   6.755   3.726   2.543
 7320SOL    HW222860   6.817   3.668   2.403
 7321SOL     OW22861   2.173   0.654   5.976
 7321SOL    HW122862   2.175   0.752   5.993
 7321SOL    HW222863   2.137   0.607   6.056
 7322SOL     OW22864   6.903   2.736   3.162
 7322SOL    HW122865   6.844   2.797   3.109
 7322SOL    HW222866   6.884   2.641   3.137
 7323SOL     OW22867   1.595   2.126   2.044
 7323SOL    HW122868   1.616   2.095   1.951
 7323SOL    HW222869   1.655   2.203   2.067
 7324SOL     OW22870   4.557   6.224   2.161
 7324SOL    HW122871   4.633   6.160   2.152
 7324SOL    HW222872   4.537   6.239   2.258
 7325SOL     OW22873   3.199   6.815   0.418
 7325SOL    HW122874   3.272   6.872   0.454
 7325SOL    HW222875   3.149   6.773   0.493
 7326SOL     OW22876   3.452   6.052   5.550
 7326SOL    HW122877   3.480   6.029   5.457
 7326SOL    HW222878   3.368   6.003   5.573
 7327SOL     OW22879   5.910   1.425   6.418
 7327SOL    HW122880   5.943   1.459   6.507
 7327SOL    HW222881   5.966   1.348   6.390
 7328SOL     OW22882   3.098   1.017   6.246
 7328SOL    HW122883   3.076   0.923   6.274
 7328SOL    HW222884   3.195   1.035   6.264
 7329SOL     OW22885   6.417   4.005   1.671
 7329SOL    HW122886   6.404   4.030   1.575
 7329SOL    HW222887   6.443   3.908   1.677
 7330SOL     OW22888   2.476   2.616   0.186
 7330SOL    HW122889   2.383   2.587   0.161
 7330SOL    HW222890   2.495   2.586   0.280
 7331SOL     OW22891   5.157   6.587   1.827
 7331SOL    HW122892   5.117   6.661   1.774
 7331SOL    HW222893   5.202   6.522   1.765
 7332SOL     OW22894   2.375   6.257   0.289
 7332SOL    HW122895   2.393   6.341   0.238
 7332SOL    HW222896   2.427   6.181   0.248
 7333SOL     OW22897   0.425   2.988   2.311
 7333SOL    HW122898   0.477   3.048   2.249
 7333SOL    HW222899   0.487   2.947   2.377
 7334SOL     OW22900   2.682   5.531   5.853
 7334SOL    HW122901   2.773   5.552   5.817
 7334SOL    HW222902   2.648   5.610   5.904
 7335SOL     OW22903   1.856   2.461   2.890
 7335SOL    HW122904   1.924   2.491   2.824
 7335SOL    HW222905   1.856   2.362   2.895
 7336SOL     OW22906   1.649   6.751   2.804
 7336SOL    HW122907   1.560   6.728   2.765
 7336SOL    HW222908   1.686   6.671   2.852
 7337SOL     OW22909   6.908   3.270   2.022
 7337SOL    HW122910   6.929   3.195   2.085
 7337SOL    HW222911   6.956   3.255   1.936
 7338SOL     OW22912   6.340   1.847   1.816
 7338SOL    HW122913   6.417   1.898   1.853
 7338SOL    HW222914   6.364   1.750   1.811
 7339SOL     OW22915   5.884   6.840   4.098
 7339SOL    HW122916   5.912   6.813   4.189
 7339SOL    HW222917   5.844   6.762   4.050
 7340SOL     OW22918   3.012   1.597   1.317
 7340SOL    HW122919   2.984   1.621   1.410
 7340SOL    HW222920   2.972   1.662   1.252
 7341SOL     OW22921   0.437   3.289   6.440
 7341SOL    HW122922   0.432   3.275   6.341
 7341SOL    HW222923   0.473   3.380   6.459
 7342SOL     OW22924   0.518   2.063   1.174
 7342SOL    HW122925   0.473   2.138   1.222
 7342SOL    HW222926   0.476   1.976   1.202
 7343SOL     OW22927   6.071   3.735   0.971
 7343SOL    HW122928   6.160   3.767   0.939
 7343SOL    HW222929   6.029   3.679   0.900
 7344SOL     OW22930   0.926   1.193   6.535
 7344SOL    HW122931   0.844   1.228   6.581
 7344SOL    HW222932   0.900   1.123   6.469
 7345SOL     OW22933   4.203   4.534   5.949
 7345SOL    HW122934   4.271   4.568   5.885
 7345SOL    HW222935   4.121   4.591   5.944
 7346SOL     OW22936   4.088   5.426   2.034
 7346SOL    HW122937   4.092   5.524   2.010
 7346SOL    HW222938   4.180   5.394   2.056
 7347SOL     OW22939   1.197   1.284   0.806
 7347SOL    HW122940   1.240   1.222   0.741
 7347SOL    HW222941   1.113   1.321   0.767
 7348SOL     OW22942   1.145   4.143   4.119
 7348SOL    HW122943   1.236   4.126   4.080
 7348SOL    HW222944   1.119   4.064   4.175
 7349SOL     OW22945   4.804   1.157   1.429
 7349SOL    HW122946   4.806   1.058   1.447
 7349SOL    HW222947   4.769   1.173   1.337
 7350SOL     OW22948   2.890   2.210   5.531
 7350SOL    HW122949   2.965   2.195   5.467
 7350SOL    HW222950   2.897   2.301   5.570
 7351SOL     OW22951   5.635   5.802   4.653
 7351SOL    HW122952   5.583   5.876   4.610
 7351SOL    HW222953   5.678   5.746   4.583
 7352SOL     OW22954   1.916   1.403   2.805
 7352SOL    HW122955   1.823   1.438   2.799
 7352SOL    HW222956   1.920   1.310   2.767
 7353SOL     OW22957   0.096   0.396   5.770
 7353SOL    HW122958   0.106   0.391   5.869
 7353SOL    HW222959   0.029   0.328   5.740
 7354SOL     OW22960   1.002   1.658   4.317
 7354SOL    HW122961   0.943   1.695   4.388
 7354SOL    HW222962   1.087   1.624   4.359
 7355SOL     OW22963   1.280   0.675   1.185
 7355SOL    HW122964   1.325   0.756   1.146
 7355SOL    HW222965   1.230   0.628   1.113
 7356SOL     OW22966   3.768   3.642   6.549
 7356SOL    HW122967   3.865   3.669   6.542
 7356SOL    HW222968   3.712   3.710   6.502
 7357SOL     OW22969   3.005   6.663   1.822
 7357SOL    HW122970   2.998   6.646   1.921
 7357SOL    HW222971   2.956   6.747   1.800
 7358SOL     OW22972   6.440   3.072   2.491
 7358SOL    HW122973   6.340   3.071   2.482
 7358SOL    HW222974   6.481   3.092   2.402
 7359SOL     OW22975   4.167   2.117   5.666
 7359SOL    HW122976   4.139   2.170   5.746
 7359SOL    HW222977   4.225   2.172   5.607
 7360SOL     OW22978   2.973   3.388   5.456
 7360SOL    HW122979   3.065   3.365   5.424
 7360SOL    HW222980   2.960   3.352   5.548
 7361SOL     OW22981   5.134   0.743   2.293
 7361SOL    HW122982   5.199   0.767   2.366
 7361SOL    HW222983   5.127   0.819   2.229
 7362SOL     OW22984   1.500   6.025   6.352
 7362SOL    HW122985   1.400   6.021   6.359
 7362SOL    HW222986   1.539   5.936   6.374
 7363SOL     OW22987   4.556   1.818   1.247
 7363SOL    HW122988   4.483   1.784   1.307
 7363SOL    HW222989   4.522   1.896   1.194
 7364SOL     OW22990   4.749   0.531   1.805
 7364SOL    HW122991   4.653   0.519   1.832
 7364SOL    HW222992   4.786   0.444   1.774
 7365SOL     OW22993   0.475   6.088   1.986
 7365SOL    HW122994   0.471   6.120   1.891
 7365SOL    HW222995   0.383   6.062   2.016
 7366SOL     OW22996   2.049   6.648   6.072
 7366SOL    HW122997   2.105   6.585   6.018
 7366SOL    HW222998   2.052   6.739   6.031
 7367SOL     OW22999   4.706   2.906   1.277
 7367SOL    HW123000   4.663   2.816   1.285
 7367SOL    HW223001   4.732   2.939   1.368
 7368SOL     OW23002   3.857   2.982   2.729
 7368SOL    HW123003   3.773   3.032   2.753
 7368SOL    HW223004   3.915   3.041   2.673
 7369SOL     OW23005   3.044   2.161   0.757
 7369SOL    HW123006   2.987   2.082   0.781
 7369SOL    HW223007   3.028   2.235   0.822
 7370SOL     OW23008   2.307   1.442   5.117
 7370SOL    HW123009   2.215   1.458   5.151
 7370SOL    HW223010   2.312   1.465   5.020
 7371SOL     OW23011   2.471   6.857   3.413
 7371SOL    HW123012   2.541   6.820   3.351
 7371SOL    HW223013   2.437   6.944   3.377
 7372SOL     OW23014   4.233   0.547   4.334
 7372SOL    HW123015   4.237   0.488   4.253
 7372SOL    HW223016   4.204   0.493   4.413
 7373SOL     OW23017   5.950   1.348   4.124
 7373SOL    HW123018   5.895   1.274   4.161
 7373SOL    HW223019   5.890   1.421   4.091
 7374SOL     OW23020   2.585   1.829   4.979
 7374SOL    HW123021   2.578   1.764   4.904
 7374SOL    HW223022   2.665   1.807   5.036
 7375SOL     OW23023   2.212   2.219   2.275
 7375SOL    HW123024   2.304   2.180   2.274
 7375SOL    HW223025   2.200   2.273   2.359
 7376SOL     OW23026   1.645   1.840   1.108
 7376SOL    HW123027   1.598   1.800   1.186
 7376SOL    HW223028   1.645   1.775   1.032
 7377SOL     OW23029   5.214   5.024   0.387
 7377SOL    HW123030   5.209   5.044   0.485
 7377SOL    HW223031   5.277   5.088   0.343
 7378SOL     OW23032   0.625   0.396   5.353
 7378SOL    HW123033   0.529   0.370   5.350
 7378SOL    HW223034   0.681   0.315   5.371
 7379SOL     OW23035   3.597   1.626   2.289
 7379SOL    HW123036   3.662   1.558   2.254
 7379SOL    HW223037   3.594   1.704   2.227
 7380SOL     OW23038   0.211   4.334   3.862
 7380SOL    HW123039   0.251   4.389   3.788
 7380SOL    HW223040   0.174   4.249   3.823
 7381SOL     OW23041   4.497   3.306   0.565
 7381SOL    HW123042   4.475   3.381   0.629
 7381SOL    HW223043   4.456   3.221   0.598
 7382SOL     OW23044   0.438   1.180   4.797
 7382SOL    HW123045   0.387   1.173   4.711
 7382SOL    HW223046   0.459   1.088   4.831
 7383SOL     OW23047   2.906   6.549   0.927
 7383SOL    HW123048   2.908   6.618   0.999
 7383SOL    HW223049   2.931   6.591   0.839
 7384SOL     OW23050   6.945   6.495   2.630
 7384SOL    HW123051   6.894   6.480   2.545
 7384SOL    HW223052   0.004   6.546   2.610
 7385SOL     OW23053   3.196   5.270   2.150
 7385SOL    HW123054   3.141   5.336   2.200
 7385SOL    HW223055   3.139   5.194   2.119
 7386SOL     OW23056   6.858   2.678   0.041
 7386SOL    HW123057   6.854   2.730   0.126
 7386SOL    HW223058   6.953   2.655   0.020
 7387SOL     OW23059   6.420   5.053   5.356
 7387SOL    HW123060   6.416   5.055   5.256
 7387SOL    HW223061   6.513   5.071   5.386
 7388SOL     OW23062   1.207   5.108   2.055
 7388SOL    HW123063   1.305   5.098   2.066
 7388SOL    HW223064   1.185   5.129   1.960
 7389SOL     OW23065   6.039   3.848   6.196
 7389SOL    HW123066   6.078   3.929   6.152
 7389SOL    HW223067   6.007   3.872   6.288
 7390SOL     OW23068   1.753   2.425   2.311
 7390SOL    HW123069   1.839   2.459   2.272
 7390SOL    HW223070   1.741   2.463   2.403
 7391SOL     OW23071   4.166   3.420   3.517
 7391SOL    HW123072   4.212   3.493   3.466
 7391SOL    HW223073   4.183   3.431   3.615
 7392SOL     OW23074   3.311   6.104   6.517
 7392SOL    HW123075   3.388   6.114   6.581
 7392SOL    HW223076   3.226   6.097   6.568
 7393SOL     OW23077   6.458   4.781   3.087
 7393SOL    HW123078   6.459   4.791   3.186
 7393SOL    HW223079   6.365   4.791   3.053
 7394SOL     OW23080   1.997   3.161   5.671
 7394SOL    HW123081   1.908   3.147   5.628
 7394SOL    HW223082   2.063   3.193   5.603
 7395SOL     OW23083   1.901   3.648   1.339
 7395SOL    HW123084   1.894   3.710   1.261
 7395SOL    HW223085   1.990   3.601   1.336
 7396SOL     OW23086   2.203   6.393   1.279
 7396SOL    HW123087   2.228   6.489   1.271
 7396SOL    HW223088   2.126   6.373   1.219
 7397SOL     OW23089   4.762   5.857   4.652
 7397SOL    HW123090   4.682   5.876   4.709
 7397SOL    HW223091   4.828   5.803   4.705
 7398SOL     OW23092   1.131   4.921   3.063
 7398SOL    HW123093   1.097   4.844   3.117
 7398SOL    HW223094   1.218   4.952   3.100
 7399SOL     OW23095   0.574   2.423   4.589
 7399SOL    HW123096   0.521   2.339   4.600
 7399SOL    HW223097   0.582   2.445   4.492
 7400SOL     OW23098   4.055   2.966   5.953
 7400SOL    HW123099   4.117   2.976   5.875
 7400SOL    HW223100   3.961   2.964   5.921
 7401SOL     OW23101   1.076   2.960   3.584
 7401SOL    HW123102   0.994   2.981   3.636
 7401SOL    HW223103   1.123   2.882   3.626
 7402SOL     OW23104   3.560   4.381   5.902
 7402SOL    HW123105   3.535   4.475   5.879
 7402SOL    HW223106   3.479   4.331   5.935
 7403SOL     OW23107   1.351   4.356   2.376
 7403SOL    HW123108   1.297   4.429   2.417
 7403SOL    HW223109   1.292   4.276   2.361
 7404SOL     OW23110   3.081   4.726   1.799
 7404SOL    HW123111   3.143   4.680   1.736
 7404SOL    HW223112   3.013   4.662   1.832
 7405SOL     OW23113   3.782   5.082   4.294
 7405SOL    HW123114   3.871   5.121   4.318
 7405SOL    HW223115   3.710   5.142   4.327
 7406SOL     OW23116   0.554   1.883   3.957
 7406SOL    HW123117   0.641   1.907   3.999
 7406SOL    HW223118   0.522   1.958   3.899
 7407SOL     OW23119   0.843   6.950   5.152
 7407SOL    HW123120   0.938   6.976   5.131
 7407SOL    HW223121   0.803   6.904   5.074
 7408SOL     OW23122   3.527   4.111   6.069
 7408SOL    HW123123   3.517   4.129   5.971
 7408SOL    HW223124   3.452   4.053   6.100
 7409SOL     OW23125   5.337   3.357   6.888
 7409SOL    HW123126   5.306   3.408   6.968
 7409SOL    HW223127   5.383   3.420   6.824
 7410SOL     OW23128   0.781   0.678   0.468
 7410SOL    HW123129   0.694   0.707   0.427
 7410SOL    HW223130   0.844   0.756   0.469
 7411SOL     OW23131   2.249   1.175   0.252
 7411SOL    HW123132   2.345   1.188   0.229
 7411SOL    HW223133   2.192   1.204   0.175
 7412SOL     OW23134   4.222   0.294   1.124
 7412SOL    HW123135   4.290   0.258   1.188
 7412SOL    HW223136   4.241   0.391   1.106
 7413SOL     OW23137   4.366   4.991   3.906
 7413SOL    HW123138   4.460   5.025   3.912
 7413SOL    HW223139   4.311   5.057   3.856
 7414SOL     OW23140   1.893   0.720   3.123
 7414SOL    HW123141   1.871   0.682   3.213
 7414SOL    HW223142   1.986   0.694   3.098
 7415SOL     OW23143   2.127   4.279   4.543
 7415SOL    HW123144   2.104   4.224   4.462
 7415SOL    HW223145   2.174   4.222   4.610
 7416SOL     OW23146   2.394   0.439   2.097
 7416SOL    HW123147   2.398   0.467   2.192
 7416SOL    HW223148   2.450   0.500   2.041
 7417SOL     OW23149   2.240   2.219   1.289
 7417SOL    HW123150   2.246   2.253   1.383
 7417SOL    HW223151   2.303   2.271   1.231
 7418SOL     OW23152   1.654   5.374   0.051
 7418SOL    HW123153   1.668   5.295   0.111
 7418SOL    HW223154   1.584   5.352   7.007
 7419SOL     OW23155   6.734   3.987   4.207
 7419SOL    HW123156   6.720   4.079   4.170
 7419SOL    HW223157   6.767   3.926   4.135
 7420SOL     OW23158   0.233   6.469   1.375
 7420SOL    HW123159   0.192   6.389   1.419
 7420SOL    HW223160   0.163   6.516   1.320
 7421SOL     OW23161   4.419   3.606   0.994
 7421SOL    HW123162   4.465   3.639   1.076
 7421SOL    HW223163   4.355   3.533   1.017
 7422SOL     OW23164   0.075   4.576   2.102
 7422SOL    HW123165   0.006   4.515   2.141
 7422SOL    HW223166   0.105   4.641   2.172
 7423SOL     OW23167   5.776   2.686   5.752
 7423SOL    HW123168   5.842   2.657   5.682
 7423SOL    HW223169   5.763   2.785   5.747
 7424SOL     OW23170   0.130   1.459   5.999
 7424SOL    HW123171   0.151   1.459   5.901
 7424SOL    HW223172   0.042   1.415   6.015
 7425SOL     OW23173   4.901   0.206   0.282
 7425SOL    HW123174   4.910   0.133   0.214
 7425SOL    HW223175   4.990   0.228   0.320
 7426SOL     OW23176   2.856   1.895   5.056
 7426SOL    HW123177   2.868   1.905   5.155
 7426SOL    HW223178   2.850   1.985   5.013
 7427SOL     OW23179   5.004   1.018   4.196
 7427SOL    HW123180   5.061   1.003   4.277
 7427SOL    HW223181   4.949   0.936   4.178
 7428SOL     OW23182   4.123   0.971   4.966
 7428SOL    HW123183   4.085   1.019   5.045
 7428SOL    HW223184   4.220   0.996   4.955
 7429SOL     OW23185   0.658   6.228   3.808
 7429SOL    HW123186   0.706   6.181   3.733
 7429SOL    HW223187   0.719   6.295   3.850
 7430SOL     OW23188   0.639   3.848   1.246
 7430SOL    HW123189   0.671   3.764   1.291
 7430SOL    HW223190   0.623   3.830   1.149
 7431SOL     OW23191   0.736   2.315   2.998
 7431SOL    HW123192   0.783   2.236   3.038
 7431SOL    HW223193   0.789   2.351   2.921
 7432SOL     OW23194   1.868   0.616   3.378
 7432SOL    HW123195   1.907   0.541   3.431
 7432SOL    HW223196   1.815   0.676   3.438
 7433SOL     OW23197   4.039   6.221   6.456
 7433SOL    HW123198   4.118   6.281   6.445
 7433SOL    HW223199   3.965   6.272   6.499
 7434SOL     OW23200   4.984   5.284   5.407
 7434SOL    HW123201   4.937   5.198   5.427
 7434SOL    HW223202   5.082   5.266   5.392
 7435SOL     OW23203   4.539   6.213   1.034
 7435SOL    HW123204   4.620   6.245   0.984
 7435SOL    HW223205   4.464   6.276   1.017
 7436SOL     OW23206   4.525   4.192   6.502
 7436SOL    HW123207   4.463   4.146   6.566
 7436SOL    HW223208   4.524   4.144   6.414
 7437SOL     OW23209   2.710   6.247   0.284
 7437SOL    HW123210   2.680   6.192   0.206
 7437SOL    HW223211   2.810   6.246   0.289
 7438SOL     OW23212   0.716   6.673   0.246
 7438SOL    HW123213   0.649   6.639   0.311
 7438SOL    HW223214   0.777   6.599   0.219
 7439SOL     OW23215   1.740   6.727   6.244
 7439SOL    HW123216   1.648   6.696   6.267
 7439SOL    HW223217   1.799   6.717   6.324
 7440SOL     OW23218   6.706   2.724   3.782
 7440SOL    HW123219   6.697   2.820   3.754
 7440SOL    HW223220   6.616   2.683   3.789
 7441SOL     OW23221   5.798   0.548   4.660
 7441SOL    HW123222   5.870   0.491   4.619
 7441SOL    HW223223   5.840   0.616   4.720
 7442SOL     OW23224   6.007   1.628   7.021
 7442SOL    HW123225   5.990   1.656   0.092
 7442SOL    HW223226   6.100   1.593   7.013
 7443SOL     OW23227   6.118   5.769   1.389
 7443SOL    HW123228   6.216   5.765   1.408
 7443SOL    HW223229   6.079   5.852   1.429
 7444SOL     OW23230   5.307   2.190   0.112
 7444SOL    HW123231   5.296   2.095   0.140
 7444SOL    HW223232   5.241   2.212   0.041
 7445SOL     OW23233   3.235   0.266   1.189
 7445SOL    HW123234   3.281   0.323   1.258
 7445SOL    HW223235   3.137   0.263   1.208
 7446SOL     OW23236   5.663   2.908   0.116
 7446SOL    HW123237   5.733   2.896   0.186
 7446SOL    HW223238   5.621   2.820   0.096
 7447SOL     OW23239   6.669   4.509   6.773
 7447SOL    HW123240   6.763   4.489   6.800
 7447SOL    HW223241   6.617   4.423   6.766
 7448SOL     OW23242   6.207   6.521   4.789
 7448SOL    HW123243   6.208   6.421   4.791
 7448SOL    HW223244   6.205   6.556   4.883
 7449SOL     OW23245   0.684   5.076   0.934
 7449SOL    HW123246   0.665   4.995   0.879
 7449SOL    HW223247   0.716   5.150   0.876
 7450SOL     OW23248   5.535   2.314   4.840
 7450SOL    HW123249   5.623   2.305   4.886
 7450SOL    HW223250   5.536   2.393   4.779
 7451SOL     OW23251   6.319   6.264   2.794
 7451SOL    HW123252   6.339   6.329   2.866
 7451SOL    HW223253   6.404   6.224   2.760
 7452SOL     OW23254   5.794   5.953   4.233
 7452SOL    HW123255   5.757   6.041   4.260
 7452SOL    HW223256   5.843   5.912   4.310
 7453SOL     OW23257   5.149   4.937   4.650
 7453SOL    HW123258   5.132   4.979   4.560
 7453SOL    HW223259   5.237   4.970   4.685
 7454SOL     OW23260   1.928   2.180   1.039
 7454SOL    HW123261   1.988   2.253   1.006
 7454SOL    HW223262   1.838   2.219   1.062
 7455SOL     OW23263   6.611   2.998   1.943
 7455SOL    HW123264   6.546   2.952   2.004
 7455SOL    HW223265   6.622   3.093   1.972
 7456SOL     OW23266   2.099   1.290   4.845
 7456SOL    HW123267   2.103   1.389   4.856
 7456SOL    HW223268   2.099   1.246   4.935
 7457SOL     OW23269   2.953   0.453   4.996
 7457SOL    HW123270   2.983   0.545   5.018
 7457SOL    HW223271   2.918   0.408   5.078
 7458SOL     OW23272   1.747   0.253   5.818
 7458SOL    HW123273   1.794   0.322   5.763
 7458SOL    HW223274   1.809   0.176   5.834
 7459SOL     OW23275   5.514   1.145   2.416
 7459SOL    HW123276   5.543   1.050   2.430
 7459SOL    HW223277   5.466   1.152   2.329
 7460SOL     OW23278   0.580   5.754   0.275
 7460SOL    HW123279   0.599   5.850   0.255
 7460SOL    HW223280   0.644   5.696   0.225
 7461SOL     OW23281   5.681   0.073   6.692
 7461SOL    HW123282   5.765   0.024   6.717
 7461SOL    HW223283   5.673   0.157   6.745
 7462SOL     OW23284   1.299   4.766   2.493
 7462SOL    HW123285   1.314   4.809   2.404
 7462SOL    HW223286   1.224   4.701   2.486
 7463SOL     OW23287   2.655   4.120   6.970
 7463SOL    HW123288   2.736   4.144   0.000
 7463SOL    HW223289   2.671   4.143   6.874
 7464SOL     OW23290   5.771   6.947   5.844
 7464SOL    HW123291   5.803   6.969   5.752
 7464SOL    HW223292   5.823   7.000   5.911
 7465SOL     OW23293   2.674   5.340   6.602
 7465SOL    HW123294   2.629   5.394   6.531
 7465SOL    HW223295   2.738   5.399   6.653
 7466SOL     OW23296   6.758   0.736   5.136
 7466SOL    HW123297   6.792   0.829   5.122
 7466SOL    HW223298   6.671   0.724   5.087
 7467SOL     OW23299   0.489   2.315   5.847
 7467SOL    HW123300   0.407   2.262   5.866
 7467SOL    HW223301   0.516   2.367   5.928
 7468SOL     OW23302   5.476   2.970   3.829
 7468SOL    HW123303   5.489   2.909   3.907
 7468SOL    HW223304   5.506   2.924   3.746
 7469SOL     OW23305   0.098   0.553   6.434
 7469SOL    HW123306   0.065   0.575   6.526
 7469SOL    HW223307   0.171   0.485   6.440
 7470SOL     OW23308   5.371   3.338   3.521
 7470SOL    HW123309   5.406   3.294   3.603
 7470SOL    HW223310   5.271   3.335   3.522
 7471SOL     OW23311   5.189   6.484   6.080
 7471SOL    HW123312   5.231   6.404   6.124
 7471SOL    HW223313   5.261   6.542   6.042
 7472SOL     OW23314   6.758   1.180   5.602
 7472SOL    HW123315   6.678   1.133   5.565
 7472SOL    HW223316   6.815   1.213   5.527
 7473SOL     OW23317   5.298   5.330   3.853
 7473SOL    HW123318   5.228   5.279   3.903
 7473SOL    HW223319   5.259   5.416   3.819
 7474SOL     OW23320   6.855   1.826   6.355
 7474SOL    HW123321   6.777   1.788   6.304
 7474SOL    HW223322   6.824   1.906   6.406
 7475SOL     OW23323   4.237   2.470   1.797
 7475SOL    HW123324   4.169   2.435   1.732
 7475SOL    HW223325   4.265   2.562   1.770
 7476SOL     OW23326   3.042   1.051   3.023
 7476SOL    HW123327   3.008   1.059   3.117
 7476SOL    HW223328   3.139   1.025   3.025
 7477SOL     OW23329   6.401   2.525   4.998
 7477SOL    HW123330   6.392   2.453   4.930
 7477SOL    HW223331   6.386   2.486   5.089
 7478SOL     OW23332   6.201   3.884   5.555
 7478SOL    HW123333   6.289   3.842   5.578
 7478SOL    HW223334   6.127   3.825   5.586
 7479SOL     OW23335   4.357   2.383   2.021
 7479SOL    HW123336   4.310   2.418   1.940
 7479SOL    HW223337   4.293   2.384   2.099
 7480SOL     OW23338   1.550   5.075   2.377
 7480SOL    HW123339   1.534   4.984   2.415
 7480SOL    HW223340   1.479   5.137   2.410
 7481SOL     OW23341   5.855   5.006   0.836
 7481SOL    HW123342   5.947   5.024   0.801
 7481SOL    HW223343   5.787   5.042   0.771
 7482SOL     OW23344   4.538   2.564   2.774
 7482SOL    HW123345   4.526   2.662   2.764
 7482SOL    HW223346   4.487   2.517   2.702
 7483SOL     OW23347   4.915   3.394   4.838
 7483SOL    HW123348   4.971   3.341   4.902
 7483SOL    HW223349   4.841   3.439   4.889
 7484SOL     OW23350   1.855   5.958   4.694
 7484SOL    HW123351   1.955   5.956   4.705
 7484SOL    HW223352   1.812   5.972   4.783
 7485SOL     OW23353   2.656   0.631   4.885
 7485SOL    HW123354   2.582   0.607   4.822
 7485SOL    HW223355   2.736   0.660   4.833
 7486SOL     OW23356   1.179   6.526   6.934
 7486SOL    HW123357   1.207   6.568   6.847
 7486SOL    HW223358   1.253   6.535   7.000
 7487SOL     OW23359   2.917   0.775   3.093
 7487SOL    HW123360   2.991   0.838   3.117
 7487SOL    HW223361   2.832   0.806   3.136
 7488SOL     OW23362   2.181   5.369   5.001
 7488SOL    HW123363   2.095   5.326   4.976
 7488SOL    HW223364   2.208   5.340   5.093
 7489SOL     OW23365   6.426   3.083   6.618
 7489SOL    HW123366   6.468   3.126   6.698
 7489SOL    HW223367   6.351   3.140   6.586
 7490SOL     OW23368   1.441   0.408   3.461
 7490SOL    HW123369   1.520   0.413   3.399
 7490SOL    HW223370   1.426   0.498   3.502
 7491SOL     OW23371   4.216   3.286   6.705
 7491SOL    HW123372   4.220   3.282   6.804
 7491SOL    HW223373   4.221   3.193   6.667
 7492SOL     OW23374   2.421   0.711   3.771
 7492SOL    HW123375   2.403   0.808   3.757
 7492SOL    HW223376   2.512   0.689   3.737
 7493SOL     OW23377   0.302   2.377   6.232
 7493SOL    HW123378   0.312   2.433   6.314
 7493SOL    HW223379   0.210   2.390   6.194
 7494SOL     OW23380   5.947   1.424   3.317
 7494SOL    HW123381   5.862   1.432   3.369
 7494SOL    HW223382   5.982   1.515   3.295
 7495SOL     OW23383   1.161   3.143   6.313
 7495SOL    HW123384   1.191   3.156   6.408
 7495SOL    HW223385   1.078   3.195   6.296
 7496SOL     OW23386   6.251   3.603   3.852
 7496SOL    HW123387   6.239   3.671   3.925
 7496SOL    HW223388   6.210   3.516   3.879
 7497SOL     OW23389   1.544   4.717   1.379
 7497SOL    HW123390   1.525   4.810   1.411
 7497SOL    HW223391   1.533   4.652   1.454
 7498SOL     OW23392   3.337   0.925   4.436
 7498SOL    HW123393   3.426   0.971   4.432
 7498SOL    HW223394   3.306   0.904   4.343
 7499SOL     OW23395   4.458   2.421   3.254
 7499SOL    HW123396   4.479   2.324   3.262
 7499SOL    HW223397   4.511   2.460   3.178
 7500SOL     OW23398   3.815   5.836   3.144
 7500SOL    HW123399   3.775   5.761   3.197
 7500SOL    HW223400   3.888   5.879   3.197
 7501SOL     OW23401   5.255   4.417   3.911
 7501SOL    HW123402   5.219   4.384   3.999
 7501SOL    HW223403   5.313   4.497   3.927
 7502SOL     OW23404   3.364   0.386   4.506
 7502SOL    HW123405   3.311   0.471   4.508
 7502SOL    HW223406   3.301   0.308   4.508
 7503SOL     OW23407   2.622   6.723   1.210
 7503SOL    HW123408   2.632   6.634   1.256
 7503SOL    HW223409   2.526   6.749   1.210
 7504SOL     OW23410   0.570   6.123   3.417
 7504SOL    HW123411   0.652   6.078   3.454
 7504SOL    HW223412   0.503   6.135   3.490
 7505SOL     OW23413   1.479   2.255   6.322
 7505SOL    HW123414   1.543   2.328   6.344
 7505SOL    HW223415   1.510   2.170   6.364
 7506SOL     OW23416   5.174   2.560   4.118
 7506SOL    HW123417   5.158   2.574   4.021
 7506SOL    HW223418   5.154   2.645   4.168
 7507SOL     OW23419   5.996   1.665   2.700
 7507SOL    HW123420   6.054   1.714   2.636
 7507SOL    HW223421   5.902   1.666   2.667
 7508SOL     OW23422   2.234   5.391   0.579
 7508SOL    HW123423   2.139   5.361   0.589
 7508SOL    HW223424   2.250   5.418   0.484
 7509SOL     OW23425   5.979   3.987   0.557
 7509SOL    HW123426   6.014   3.897   0.581
 7509SOL    HW223427   5.897   4.007   0.611
 7510SOL     OW23428   3.792   3.523   4.821
 7510SOL    HW123429   3.816   3.563   4.733
 7510SOL    HW223430   3.790   3.423   4.812
 7511SOL     OW23431   3.219   6.000   3.489
 7511SOL    HW123432   3.213   6.097   3.465
 7511SOL    HW223433   3.282   5.954   3.425
 7512SOL     OW23434   2.688   1.078   6.505
 7512SOL    HW123435   2.699   1.144   6.580
 7512SOL    HW223436   2.672   1.127   6.420
 7513SOL     OW23437   1.290   0.944   2.044
 7513SOL    HW123438   1.327   0.894   1.966
 7513SOL    HW223439   1.292   0.885   2.125
 7514SOL     OW23440   2.484   4.747   2.807
 7514SOL    HW123441   2.403   4.693   2.784
 7514SOL    HW223442   2.460   4.844   2.809
 7515SOL     OW23443   6.494   4.887   4.407
 7515SOL    HW123444   6.440   4.902   4.491
 7515SOL    HW223445   6.506   4.974   4.360
 7516SOL     OW23446   0.308   5.358   5.992
 7516SOL    HW123447   0.306   5.261   5.969
 7516SOL    HW223448   0.355   5.409   5.920
 7517SOL     OW23449   0.914   2.391   0.217
 7517SOL    HW123450   0.851   2.319   0.247
 7517SOL    HW223451   0.877   2.435   0.135
 7518SOL     OW23452   5.101   3.405   4.089
 7518SOL    HW123453   5.082   3.371   3.997
 7518SOL    HW223454   5.197   3.435   4.094
 7519SOL     OW23455   6.822   6.416   5.008
 7519SOL    HW123456   6.803   6.319   4.996
 7519SOL    HW223457   6.807   6.464   4.922
 7520SOL     OW23458   2.328   0.405   2.774
 7520SOL    HW123459   2.301   0.399   2.870
 7520SOL    HW223460   2.307   0.497   2.740
 7521SOL     OW23461   5.304   2.602   5.280
 7521SOL    HW123462   5.289   2.504   5.280
 7521SOL    HW223463   5.386   2.623   5.333
 7522SOL     OW23464   1.345   0.798   6.104
 7522SOL    HW123465   1.388   0.743   6.175
 7522SOL    HW223466   1.361   0.756   6.015
 7523SOL     OW23467   5.022   0.775   6.423
 7523SOL    HW123468   5.075   0.860   6.423
 7523SOL    HW223469   5.052   0.716   6.349
 7524SOL     OW23470   0.861   2.570   5.290
 7524SOL    HW123471   0.924   2.631   5.337
 7524SOL    HW223472   0.776   2.564   5.342
 7525SOL     OW23473   4.047   6.907   0.218
 7525SOL    HW123474   4.124   6.846   0.196
 7525SOL    HW223475   3.979   6.858   0.271
 7526SOL     OW23476   2.624   3.155   1.707
 7526SOL    HW123477   2.639   3.249   1.740
 7526SOL    HW223478   2.702   3.099   1.732
 7527SOL     OW23479   3.299   5.877   4.254
 7527SOL    HW123480   3.244   5.950   4.296
 7527SOL    HW223481   3.245   5.833   4.182
 7528SOL     OW23482   6.117   1.894   6.334
 7528SOL    HW123483   6.175   1.813   6.330
 7528SOL    HW223484   6.102   1.920   6.429
 7529SOL     OW23485   5.596   1.841   4.846
 7529SOL    HW123486   5.551   1.796   4.768
 7529SOL    HW223487   5.685   1.798   4.861
 7530SOL     OW23488   6.261   2.209   2.242
 7530SOL    HW123489   6.351   2.199   2.198
 7530SOL    HW223490   6.255   2.300   2.283
 7531SOL     OW23491   5.360   3.191   4.140
 7531SOL    HW123492   5.330   3.275   4.095
 7531SOL    HW223493   5.442   3.156   4.095
 7532SOL     OW23494   4.825   6.047   0.513
 7532SOL    HW123495   4.901   6.099   0.552
 7532SOL    HW223496   4.844   6.025   0.418
 7533SOL     OW23497   3.534   2.010   1.925
 7533SOL    HW123498   3.590   2.070   1.982
 7533SOL    HW223499   3.480   2.064   1.861
 7534SOL     OW23500   4.954   5.966   4.196
 7534SOL    HW123501   4.965   5.924   4.286
 7534SOL    HW223502   5.041   6.005   4.166
 7535SOL     OW23503   1.751   6.604   5.003
 7535SOL    HW123504   1.690   6.527   4.987
 7535SOL    HW223505   1.794   6.595   5.093
 7536SOL     OW23506   4.976   5.171   4.137
 7536SOL    HW123507   5.065   5.166   4.093
 7536SOL    HW223508   4.925   5.250   4.101
 7537SOL     OW23509   1.792   4.913   2.811
 7537SOL    HW123510   1.753   4.825   2.785
 7537SOL    HW223511   1.730   4.986   2.782
 7538SOL     OW23512   1.970   2.455   1.567
 7538SOL    HW123513   1.912   2.392   1.514
 7538SOL    HW223514   1.948   2.447   1.664
 7539SOL     OW23515   1.408   4.058   4.036
 7539SOL    HW123516   1.462   3.985   4.076
 7539SOL    HW223517   1.462   4.142   4.030
 7540SOL     OW23518   4.172   0.147   4.669
 7540SOL    HW123519   4.127   0.072   4.718
 7540SOL    HW223520   4.268   0.151   4.694
 7541SOL     OW23521   0.421   3.949   5.724
 7541SOL    HW123522   0.518   3.959   5.748
 7541SOL    HW223523   0.382   4.039   5.706
 7542SOL     OW23524   6.884   6.139   0.434
 7542SOL    HW123525   6.955   6.178   0.376
 7542SOL    HW223526   6.867   6.201   0.511
 7543SOL     OW23527   3.515   1.247   5.334
 7543SOL    HW123528   3.439   1.258   5.271
 7543SOL    HW223529   3.556   1.157   5.322
 7544SOL     OW23530   6.493   2.406   4.546
 7544SOL    HW123531   6.572   2.388   4.487
 7544SOL    HW223532   6.494   2.502   4.573
 7545SOL     OW23533   0.958   6.118   6.349
 7545SOL    HW123534   0.889   6.079   6.411
 7545SOL    HW223535   0.938   6.090   6.255
 7546SOL     OW23536   4.797   2.218   1.042
 7546SOL    HW123537   4.775   2.311   1.014
 7546SOL    HW223538   4.778   2.206   1.139
 7547SOL     OW23539   5.148   1.168   1.272
 7547SOL    HW123540   5.104   1.186   1.184
 7547SOL    HW223541   5.091   1.202   1.346
 7548SOL     OW23542   4.816   2.422   6.030
 7548SOL    HW123543   4.783   2.437   5.936
 7548SOL    HW223544   4.892   2.483   6.049
 7549SOL     OW23545   3.715   3.310   6.259
 7549SOL    HW123546   3.670   3.399   6.257
 7549SOL    HW223547   3.801   3.317   6.311
 7550SOL     OW23548   1.643   4.225   3.556
 7550SOL    HW123549   1.674   4.145   3.607
 7550SOL    HW223550   1.550   4.210   3.523
 7551SOL     OW23551   5.854   2.920   5.255
 7551SOL    HW123552   5.821   2.845   5.198
 7551SOL    HW223553   5.785   2.992   5.260
 7552SOL     OW23554   1.865   5.946   4.174
 7552SOL    HW123555   1.848   5.935   4.272
 7552SOL    HW223556   1.802   5.888   4.122
 7553SOL     OW23557   4.888   6.838   5.528
 7553SOL    HW123558   4.895   6.785   5.444
 7553SOL    HW223559   4.932   6.927   5.515
 7554SOL     OW23560   4.834   0.959   6.422
 7554SOL    HW123561   4.892   0.878   6.425
 7554SOL    HW223562   4.853   1.018   6.501
 7555SOL     OW23563   3.107   5.458   6.442
 7555SOL    HW123564   3.022   5.511   6.448
 7555SOL    HW223565   3.104   5.382   6.507
 7556SOL     OW23566   2.635   1.771   0.146
 7556SOL    HW123567   2.569   1.796   0.075
 7556SOL    HW223568   2.690   1.851   0.170
 7557SOL     OW23569   5.047   0.585   6.185
 7557SOL    HW123570   5.032   0.488   6.164
 7557SOL    HW223571   4.970   0.639   6.151
 7558SOL     OW23572   2.177   3.062   4.278
 7558SOL    HW123573   2.215   2.993   4.217
 7558SOL    HW223574   2.197   3.038   4.373
 7559SOL     OW23575   3.773   2.966   5.912
 7559SOL    HW123576   3.732   2.961   6.003
 7559SOL    HW223577   3.745   3.051   5.868
 7560SOL     OW23578   5.697   0.077   0.335
 7560SOL    HW123579   5.791   0.066   0.303
 7560SOL    HW223580   5.680   0.016   0.412
 7561SOL     OW23581   6.881   2.947   5.975
 7561SOL    HW123582   6.893   2.931   6.073
 7561SOL    HW223583   6.822   3.026   5.961
 7562SOL     OW23584   0.523   4.569   5.413
 7562SOL    HW123585   0.495   4.486   5.363
 7562SOL    HW223586   0.560   4.636   5.348
 7563SOL     OW23587   2.884   6.258   1.682
 7563SOL    HW123588   2.930   6.308   1.609
 7563SOL    HW223589   2.916   6.163   1.683
 7564SOL     OW23590   3.783   0.140   4.497
 7564SOL    HW123591   3.782   0.146   4.597
 7564SOL    HW223592   3.763   0.046   4.470
 7565SOL     OW23593   5.209   3.777   6.180
 7565SOL    HW123594   5.241   3.784   6.085
 7565SOL    HW223595   5.288   3.772   6.241
 7566SOL     OW23596   5.616   5.207   2.048
 7566SOL    HW123597   5.678   5.163   2.112
 7566SOL    HW223598   5.634   5.174   1.955
 7567SOL     OW23599   1.564   1.085   6.094
 7567SOL    HW123600   1.490   1.134   6.048
 7567SOL    HW223601   1.558   1.101   6.193
 7568SOL     OW23602   5.738   4.454   2.244
 7568SOL    HW123603   5.820   4.478   2.297
 7568SOL    HW223604   5.707   4.535   2.193
 7569SOL     OW23605   2.701   4.637   6.143
 7569SOL    HW123606   2.759   4.651   6.063
 7569SOL    HW223607   2.605   4.635   6.114
 7570SOL     OW23608   5.598   3.876   4.395
 7570SOL    HW123609   5.600   3.928   4.309
 7570SOL    HW223610   5.507   3.882   4.436
 7571SOL     OW23611   4.888   3.716   3.383
 7571SOL    HW123612   4.882   3.664   3.298
 7571SOL    HW223613   4.880   3.653   3.461
 7572SOL     OW23614   5.109   0.748   3.106
 7572SOL    HW123615   5.143   0.808   3.033
 7572SOL    HW223616   5.084   0.660   3.067
 7573SOL     OW23617   6.440   0.651   5.328
 7573SOL    HW123618   6.367   0.676   5.391
 7573SOL    HW223619   6.484   0.567   5.359
 7574SOL     OW23620   5.631   1.063   4.703
 7574SOL    HW123621   5.630   1.036   4.606
 7574SOL    HW223622   5.537   1.078   4.734
 7575SOL     OW23623   5.412   0.089   0.226
 7575SOL    HW123624   5.499   0.081   0.274
 7575SOL    HW223625   5.428   0.118   0.132
 7576SOL     OW23626   5.106   2.998   0.290
 7576SOL    HW123627   5.015   3.033   0.314
 7576SOL    HW223628   5.169   3.075   0.281
 7577SOL     OW23629   0.632   6.241   6.487
 7577SOL    HW123630   0.642   6.312   6.557
 7577SOL    HW223631   0.579   6.165   6.524
 7578SOL     OW23632   2.600   5.212   2.304
 7578SOL    HW123633   2.563   5.281   2.242
 7578SOL    HW223634   2.573   5.233   2.398
 7579SOL     OW23635   0.168   1.504   1.305
 7579SOL    HW123636   0.184   1.586   1.359
 7579SOL    HW223637   0.097   1.522   1.237
 7580SOL     OW23638   0.651   3.902   3.541
 7580SOL    HW123639   0.556   3.904   3.509
 7580SOL    HW223640   0.666   3.820   3.596
 7581SOL     OW23641   0.890   1.943   1.545
 7581SOL    HW123642   0.986   1.962   1.567
 7581SOL    HW223643   0.871   1.973   1.452
 7582SOL     OW23644   3.982   1.956   3.901
 7582SOL    HW123645   3.969   2.009   3.817
 7582SOL    HW223646   4.056   1.891   3.888
 7583SOL     OW23647   5.356   2.966   2.064
 7583SOL    HW123648   5.323   3.058   2.043
 7583SOL    HW223649   5.286   2.899   2.039
 7584SOL     OW23650   1.667   0.442   2.987
 7584SOL    HW123651   1.702   0.516   2.929
 7584SOL    HW223652   1.568   0.450   2.993
 7585SOL     OW23653   1.577   2.514   5.978
 7585SOL    HW123654   1.650   2.551   5.921
 7585SOL    HW223655   1.613   2.439   6.033
 7586SOL     OW23656   1.990   6.539   3.572
 7586SOL    HW123657   2.053   6.544   3.649
 7586SOL    HW223658   1.991   6.446   3.534
 7587SOL     OW23659   3.055   1.476   6.876
 7587SOL    HW123660   3.113   1.397   6.855
 7587SOL    HW223661   3.098   1.559   6.842
 7588SOL     OW23662   2.252   2.282   3.504
 7588SOL    HW123663   2.178   2.265   3.569
 7588SOL    HW223664   2.240   2.373   3.464
 7589SOL     OW23665   0.502   0.405   2.845
 7589SOL    HW123666   0.521   0.397   2.747
 7589SOL    HW223667   0.451   0.490   2.861
 7590SOL     OW23668   5.177   1.661   7.017
 7590SOL    HW123669   5.093   1.676   0.044
 7590SOL    HW223670   5.196   1.563   7.014
 7591SOL     OW23671   5.331   4.217   0.140
 7591SOL    HW123672   5.232   4.231   0.143
 7591SOL    HW223673   5.375   4.277   0.207
 7592SOL     OW23674   6.098   5.094   4.368
 7592SOL    HW123675   6.174   5.153   4.395
 7592SOL    HW223676   6.114   5.001   4.399
 7593SOL     OW23677   6.536   3.177   6.837
 7593SOL    HW123678   6.636   3.170   6.837
 7593SOL    HW223679   6.499   3.124   6.914
 7594SOL     OW23680   1.891   4.929   1.712
 7594SOL    HW123681   1.813   4.872   1.685
 7594SOL    HW223682   1.950   4.878   1.774
 7595SOL     OW23683   6.395   3.089   6.261
 7595SOL    HW123684   6.436   3.048   6.180
 7595SOL    HW223685   6.310   3.041   6.283
 7596SOL     OW23686   3.237   6.858   4.368
 7596SOL    HW123687   3.189   6.771   4.385
 7596SOL    HW223688   3.255   6.904   4.455
 7597SOL     OW23689   2.126   6.638   3.078
 7597SOL    HW123690   2.142   6.589   2.993
 7597SOL    HW223691   2.063   6.713   3.062
 7598SOL     OW23692   6.171   0.467   3.706
 7598SOL    HW123693   6.216   0.554   3.692
 7598SOL    HW223694   6.218   0.395   3.655
 7599SOL     OW23695   5.352   2.234   1.579
 7599SOL    HW123696   5.420   2.234   1.506
 7599SOL    HW223697   5.384   2.293   1.654
 7600SOL     OW23698   0.925   0.764   3.933
 7600SOL    HW123699   0.887   0.730   3.847
 7600SOL    HW223700   0.856   0.758   4.005
 7601SOL     OW23701   2.556   4.701   2.081
 7601SOL    HW123702   2.492   4.644   2.030
 7601SOL    HW223703   2.650   4.672   2.063
 7602SOL     OW23704   1.388   3.224   6.768
 7602SOL    HW123705   1.327   3.233   6.846
 7602SOL    HW223706   1.448   3.304   6.763
 7603SOL     OW23707   2.337   6.353   6.758
 7603SOL    HW123708   2.356   6.255   6.767
 7603SOL    HW223709   2.244   6.366   6.724
 7604SOL     OW23710   0.949   2.145   4.996
 7604SOL    HW123711   0.924   2.238   5.024
 7604SOL    HW223712   1.037   2.148   4.947
 7605SOL     OW23713   1.462   0.565   0.436
 7605SOL    HW123714   1.545   0.555   0.492
 7605SOL    HW223715   1.406   0.482   0.445
 7606SOL     OW23716   5.467   2.888   4.932
 7606SOL    HW123717   5.398   2.845   4.990
 7606SOL    HW223718   5.474   2.838   4.846
 7607SOL     OW23719   4.752   5.480   0.252
 7607SOL    HW123720   4.738   5.573   0.219
 7607SOL    HW223721   4.757   5.480   0.351
 7608SOL     OW23722   5.514   2.706   0.958
 7608SOL    HW123723   5.441   2.648   0.993
 7608SOL    HW223724   5.504   2.717   0.859
 7609SOL     OW23725   1.424   3.329   4.314
 7609SOL    HW123726   1.339   3.313   4.364
 7609SOL    HW223727   1.407   3.392   4.238
 7610SOL     OW23728   4.077   4.883   6.079
 7610SOL    HW123729   4.167   4.864   6.041
 7610SOL    HW223730   4.024   4.938   6.014
 7611SOL     OW23731   4.930   4.121   1.137
 7611SOL    HW123732   4.979   4.176   1.069
 7611SOL    HW223733   4.996   4.073   1.195
 7612SOL     OW23734   4.752   2.926   3.010
 7612SOL    HW123735   4.804   2.874   2.943
 7612SOL    HW223736   4.697   2.996   2.963
 7613SOL     OW23737   0.330   1.921   1.315
 7613SOL    HW123738   0.350   1.954   1.407
 7613SOL    HW223739   0.338   1.822   1.313
 7614SOL     OW23740   5.337   3.425   1.328
 7614SOL    HW123741   5.405   3.428   1.402
 7614SOL    HW223742   5.246   3.417   1.366
 7615SOL     OW23743   4.810   4.163   6.482
 7615SOL    HW123744   4.718   4.198   6.496
 7615SOL    HW223745   4.868   4.192   6.558
 7616SOL     OW23746   0.058   6.713   4.319
 7616SOL    HW123747   0.067   6.651   4.397
 7616SOL    HW223748   0.148   6.752   4.297
 7617SOL     OW23749   5.124   6.440   3.565
 7617SOL    HW123750   5.165   6.364   3.513
 7617SOL    HW223751   5.072   6.498   3.503
 7618SOL     OW23752   0.958   3.003   6.689
 7618SOL    HW123753   0.937   2.986   6.593
 7618SOL    HW223754   0.955   3.101   6.707
 7619SOL     OW23755   0.078   2.834   4.370
 7619SOL    HW123756   0.011   2.908   4.364
 7619SOL    HW223757   0.069   2.788   4.458
 7620SOL     OW23758   4.241   5.457   1.540
 7620SOL    HW123759   4.242   5.396   1.619
 7620SOL    HW223760   4.201   5.545   1.566
 7621SOL     OW23761   0.423   0.993   1.161
 7621SOL    HW123762   0.476   0.922   1.207
 7621SOL    HW223763   0.330   0.959   1.145
 7622SOL     OW23764   4.964   4.651   6.220
 7622SOL    HW123765   5.019   4.727   6.254
 7622SOL    HW223766   4.890   4.631   6.285
 7623SOL     OW23767   4.508   4.647   1.137
 7623SOL    HW123768   4.513   4.661   1.039
 7623SOL    HW223769   4.596   4.669   1.179
 7624SOL     OW23770   0.005   3.535   3.506
 7624SOL    HW123771   0.028   3.442   3.534
 7624SOL    HW223772   0.085   3.594   3.518
 7625SOL     OW23773   6.262   1.519   7.009
 7625SOL    HW123774   6.301   1.530   0.076
 7625SOL    HW223775   6.308   1.445   6.961
 7626SOL     OW23776   6.329   0.711   5.907
 7626SOL    HW123777   6.321   0.644   5.833
 7626SOL    HW223778   6.363   0.666   5.989
 7627SOL     OW23779   3.306   2.316   0.293
 7627SOL    HW123780   3.360   2.238   0.264
 7627SOL    HW223781   3.244   2.288   0.367
 7628SOL     OW23782   3.748   2.932   1.604
 7628SOL    HW123783   3.828   2.968   1.653
 7628SOL    HW223784   3.690   3.009   1.575
 7629SOL     OW23785   0.320   3.828   3.208
 7629SOL    HW123786   0.225   3.849   3.231
 7629SOL    HW223787   0.345   3.740   3.247
 7630SOL     OW23788   1.391   0.474   6.959
 7630SOL    HW123789   1.434   0.471   0.025
 7630SOL    HW223790   1.431   0.548   6.905
 7631SOL     OW23791   1.143   1.641   5.425
 7631SOL    HW123792   1.219   1.610   5.367
 7631SOL    HW223793   1.140   1.741   5.426
 7632SOL     OW23794   4.225   4.514   0.801
 7632SOL    HW123795   4.308   4.564   0.775
 7632SOL    HW223796   4.249   4.439   0.863
 7633SOL     OW23797   5.286   0.535   1.623
 7633SOL    HW123798   5.332   0.528   1.712
 7633SOL    HW223799   5.207   0.596   1.631
 7634SOL     OW23800   2.533   1.237   1.440
 7634SOL    HW123801   2.620   1.287   1.443
 7634SOL    HW223802   2.524   1.192   1.351
 7635SOL     OW23803   3.224   5.063   4.488
 7635SOL    HW123804   3.157   5.079   4.561
 7635SOL    HW223805   3.228   5.144   4.430
 7636SOL     OW23806   0.951   3.528   3.755
 7636SOL    HW123807   0.945   3.620   3.717
 7636SOL    HW223808   0.861   3.486   3.758
 7637SOL     OW23809   2.496   5.909   2.974
 7637SOL    HW123810   2.398   5.894   2.962
 7637SOL    HW223811   2.539   5.824   3.006
 7638SOL     OW23812   1.667   5.480   2.848
 7638SOL    HW123813   1.648   5.510   2.755
 7638SOL    HW223814   1.734   5.540   2.890
 7639SOL     OW23815   0.830   1.326   0.885
 7639SOL    HW123816   0.756   1.389   0.860
 7639SOL    HW223817   0.905   1.378   0.925
 7640SOL     OW23818   2.336   2.927   6.757
 7640SOL    HW123819   2.333   2.850   6.694
 7640SOL    HW223820   2.289   3.006   6.717
 7641SOL     OW23821   6.897   3.766   2.807
 7641SOL    HW123822   6.889   3.861   2.777
 7641SOL    HW223823   6.813   3.717   2.784
 7642SOL     OW23824   4.989   1.009   2.510
 7642SOL    HW123825   5.009   0.990   2.606
 7642SOL    HW223826   5.065   1.062   2.471
 7643SOL     OW23827   4.935   1.647   2.744
 7643SOL    HW123828   5.031   1.637   2.718
 7643SOL    HW223829   4.878   1.589   2.686
 7644SOL     OW23830   5.063   2.811   1.963
 7644SOL    HW123831   5.037   2.746   2.034
 7644SOL    HW223832   5.023   2.901   1.983
 7645SOL     OW23833   4.794   3.584   5.987
 7645SOL    HW123834   4.866   3.519   5.960
 7645SOL    HW223835   4.706   3.551   5.954
 7646SOL     OW23836   0.399   2.616   4.001
 7646SOL    HW123837   0.466   2.689   4.002
 7646SOL    HW223838   0.330   2.633   3.930
 7647SOL     OW23839   0.219   2.721   4.640
 7647SOL    HW123840   0.157   2.664   4.693
 7647SOL    HW223841   0.183   2.814   4.635
 7648SOL     OW23842   2.526   1.523   2.541
 7648SOL    HW123843   2.610   1.575   2.524
 7648SOL    HW223844   2.545   1.425   2.532
 7649SOL     OW23845   1.592   1.124   4.187
 7649SOL    HW123846   1.591   1.212   4.236
 7649SOL    HW223847   1.685   1.089   4.184
 7650SOL     OW23848   5.895   0.466   1.010
 7650SOL    HW123849   5.951   0.439   1.089
 7650SOL    HW223850   5.880   0.565   1.011
 7651SOL     OW23851   2.418   6.484   4.541
 7651SOL    HW123852   2.429   6.413   4.611
 7651SOL    HW223853   2.321   6.505   4.530
 7652SOL     OW23854   5.458   1.922   5.083
 7652SOL    HW123855   5.520   1.897   5.008
 7652SOL    HW223856   5.379   1.971   5.046
 7653SOL     OW23857   1.497   1.741   0.603
 7653SOL    HW123858   1.446   1.826   0.597
 7653SOL    HW223859   1.436   1.668   0.634
 7654SOL     OW23860   5.078   3.039   4.127
 7654SOL    HW123861   5.134   3.118   4.152
 7654SOL    HW223862   4.982   3.068   4.117
 7655SOL     OW23863   3.818   6.961   3.802
 7655SOL    HW123864   3.724   6.974   3.771
 7655SOL    HW223865   3.865   6.897   3.741
 7656SOL     OW23866   4.602   3.542   6.430
 7656SOL    HW123867   4.531   3.472   6.425
 7656SOL    HW223868   4.581   3.615   6.365
 7657SOL     OW23869   2.264   2.348   3.833
 7657SOL    HW123870   2.348   2.300   3.862
 7657SOL    HW223871   2.187   2.315   3.888
 7658SOL     OW23872   2.572   0.640   0.794
 7658SOL    HW123873   2.478   0.631   0.827
 7658SOL    HW223874   2.574   0.619   0.696
 7659SOL     OW23875   4.601   4.465   0.145
 7659SOL    HW123876   4.630   4.516   0.226
 7659SOL    HW223877   4.655   4.381   0.137
 7660SOL     OW23878   6.536   5.915   4.094
 7660SOL    HW123879   6.504   6.010   4.093
 7660SOL    HW223880   6.464   5.855   4.059
 7661SOL     OW23881   5.424   2.318   5.577
 7661SOL    HW123882   5.524   2.316   5.590
 7661SOL    HW223883   5.389   2.408   5.604
 7662SOL     OW23884   0.791   2.491   3.208
 7662SOL    HW123885   0.888   2.475   3.223
 7662SOL    HW223886   0.760   2.437   3.129
 7663SOL     OW23887   5.299   5.289   6.143
 7663SOL    HW123888   5.361   5.266   6.069
 7663SOL    HW223889   5.229   5.218   6.151
 7664SOL     OW23890   4.245   1.328   2.399
 7664SOL    HW123891   4.228   1.241   2.444
 7664SOL    HW223892   4.180   1.340   2.324
 7665SOL     OW23893   5.638   0.934   5.160
 7665SOL    HW123894   5.700   0.983   5.099
 7665SOL    HW223895   5.546   0.970   5.150
 7666SOL     OW23896   0.471   4.624   3.556
 7666SOL    HW123897   0.479   4.696   3.626
 7666SOL    HW223898   0.561   4.586   3.537
 7667SOL     OW23899   4.222   0.630   2.308
 7667SOL    HW123900   4.234   0.620   2.210
 7667SOL    HW223901   4.299   0.681   2.347
 7668SOL     OW23902   2.573   5.030   0.972
 7668SOL    HW123903   2.563   5.034   0.873
 7668SOL    HW223904   2.670   5.033   0.996
 7669SOL     OW23905   4.425   0.942   5.414
 7669SOL    HW123906   4.421   1.010   5.341
 7669SOL    HW223907   4.499   0.877   5.395
 7670SOL     OW23908   1.046   5.541   0.457
 7670SOL    HW123909   1.047   5.476   0.534
 7670SOL    HW223910   0.983   5.615   0.477
 7671SOL     OW23911   3.970   0.746   2.378
 7671SOL    HW123912   3.921   0.770   2.294
 7671SOL    HW223913   4.064   0.721   2.355
 7672SOL     OW23914   6.707   5.514   3.332
 7672SOL    HW123915   6.743   5.491   3.423
 7672SOL    HW223916   6.647   5.440   3.301
 7673SOL     OW23917   1.903   5.392   2.241
 7673SOL    HW123918   1.889   5.297   2.211
 7673SOL    HW223919   1.907   5.452   2.161
 7674SOL     OW23920   4.607   0.680   3.996
 7674SOL    HW123921   4.576   0.722   4.081
 7674SOL    HW223922   4.545   0.705   3.922
 7675SOL     OW23923   5.271   6.210   3.352
 7675SOL    HW123924   5.270   6.144   3.277
 7675SOL    HW223925   5.202   6.184   3.420
 7676SOL     OW23926   3.300   2.274   6.374
 7676SOL    HW123927   3.334   2.321   6.293
 7676SOL    HW223928   3.368   2.207   6.405
 7677SOL     OW23929   0.605   4.384   1.141
 7677SOL    HW123930   0.631   4.480   1.133
 7677SOL    HW223931   0.624   4.337   1.055
 7678SOL     OW23932   2.014   2.828   5.256
 7678SOL    HW123933   2.026   2.808   5.353
 7678SOL    HW223934   1.962   2.755   5.212
 7679SOL     OW23935   1.816   5.289   5.981
 7679SOL    HW123936   1.777   5.379   5.999
 7679SOL    HW223937   1.884   5.296   5.908
 7680SOL     OW23938   1.703   0.542   0.558
 7680SOL    HW123939   1.794   0.526   0.521
 7680SOL    HW223940   1.707   0.616   0.626
 7681SOL     OW23941   3.038   1.276   0.328
 7681SOL    HW123942   3.046   1.375   0.335
 7681SOL    HW223943   3.077   1.245   0.242
 7682SOL     OW23944   4.491   0.670   2.085
 7682SOL    HW123945   4.444   0.738   2.028
 7682SOL    HW223946   4.573   0.710   2.124
 7683SOL     OW23947   0.192   1.534   4.754
 7683SOL    HW123948   0.207   1.598   4.679
 7683SOL    HW223949   0.131   1.461   4.724
 7684SOL     OW23950   4.146   2.058   1.005
 7684SOL    HW123951   4.117   2.154   1.005
 7684SOL    HW223952   4.066   1.999   1.018
 7685SOL     OW23953   3.024   1.721   6.134
 7685SOL    HW123954   3.088   1.753   6.064
 7685SOL    HW223955   2.932   1.711   6.095
 7686SOL     OW23956   6.720   6.820   4.206
 7686SOL    HW123957   6.693   6.732   4.245
 7686SOL    HW223958   6.700   6.893   4.272
 7687SOL     OW23959   5.273   5.402   4.527
 7687SOL    HW123960   5.363   5.437   4.501
 7687SOL    HW223961   5.260   5.411   4.626
 7688SOL     OW23962   0.461   5.777   5.957
 7688SOL    HW123963   0.406   5.831   6.021
 7688SOL    HW223964   0.402   5.711   5.910
 7689SOL     OW23965   5.329   6.247   2.915
 7689SOL    HW123966   5.315   6.207   2.824
 7689SOL    HW223967   5.287   6.338   2.918
 7690SOL     OW23968   5.067   5.470   0.712
 7690SOL    HW123969   5.047   5.541   0.780
 7690SOL    HW223970   5.096   5.387   0.758
 7691SOL     OW23971   5.628   4.212   2.179
 7691SOL    HW123972   5.543   4.260   2.201
 7691SOL    HW223973   5.705   4.277   2.185
 7692SOL     OW23974   0.725   6.008   1.927
 7692SOL    HW123975   0.639   6.038   1.969
 7692SOL    HW223976   0.800   6.020   1.993
 7693SOL     OW23977   2.974   0.369   1.222
 7693SOL    HW123978   2.882   0.374   1.182
 7693SOL    HW223979   2.981   0.286   1.277
 7694SOL     OW23980   5.741   2.725   3.757
 7694SOL    HW123981   5.739   2.628   3.734
 7694SOL    HW223982   5.757   2.735   3.855
 7695SOL     OW23983   5.915   0.857   1.424
 7695SOL    HW123984   5.821   0.824   1.418
 7695SOL    HW223985   5.937   0.911   1.343
 7696SOL     OW23986   6.690   1.702   6.171
 7696SOL    HW123987   6.656   1.609   6.178
 7696SOL    HW223988   6.646   1.748   6.094
 7697SOL     OW23989   3.162   0.800   2.456
 7697SOL    HW123990   3.255   0.832   2.477
 7697SOL    HW223991   3.131   0.843   2.371
 7698SOL     OW23992   6.232   1.403   5.087
 7698SOL    HW123993   6.331   1.416   5.077
 7698SOL    HW223994   6.190   1.401   4.996
 7699SOL     OW23995   2.554   5.481   6.408
 7699SOL    HW123996   2.528   5.577   6.394
 7699SOL    HW223997   2.536   5.429   6.325
 7700SOL     OW23998   4.300   5.816   3.353
 7700SOL    HW123999   4.293   5.725   3.392
 7700SOL    HW224000   4.312   5.809   3.254
 7701SOL     OW24001   0.432   2.648   6.906
 7701SOL    HW124002   0.351   2.706   6.897
 7701SOL    HW224003   0.406   2.559   6.945
 7702SOL     OW24004   4.695   5.712   5.033
 7702SOL    HW124005   4.703   5.696   5.131
 7702SOL    HW224006   4.626   5.650   4.995
 7703SOL     OW24007   6.484   6.409   5.904
 7703SOL    HW124008   6.462   6.424   5.808
 7703SOL    HW224009   6.553   6.475   5.933
 7704SOL     OW24010   5.706   1.401   3.459
 7704SOL    HW124011   5.700   1.394   3.559
 7704SOL    HW224012   5.635   1.345   3.418
 7705SOL     OW24013   2.336   5.827   1.414
 7705SOL    HW124014   2.261   5.889   1.393
 7705SOL    HW224015   2.366   5.781   1.331
 7706SOL     OW24016   3.961   3.019   4.170
 7706SOL    HW124017   3.924   3.008   4.077
 7706SOL    HW224018   3.887   3.009   4.236
 7707SOL     OW24019   0.527   4.555   6.660
 7707SOL    HW124020   0.527   4.641   6.711
 7707SOL    HW224021   0.553   4.573   6.565
 7708SOL     OW24022   1.710   6.422   4.354
 7708SOL    HW124023   1.771   6.349   4.322
 7708SOL    HW224024   1.615   6.392   4.344
 7709SOL     OW24025   6.881   4.979   1.958
 7709SOL    HW124026   6.938   4.909   1.914
 7709SOL    HW224027   6.803   5.000   1.899
 7710SOL     OW24028   1.337   2.287   0.887
 7710SOL    HW124029   1.359   2.366   0.944
 7710SOL    HW224030   1.354   2.203   0.937
 7711SOL     OW24031   5.487   5.678   5.538
 7711SOL    HW124032   5.467   5.776   5.540
 7711SOL    HW224033   5.423   5.632   5.476
 7712SOL     OW24034   6.009   4.807   0.636
 7712SOL    HW124035   5.910   4.815   0.629
 7712SOL    HW224036   6.034   4.710   0.641
 7713SOL     OW24037   1.787   2.987   0.674
 7713SOL    HW124038   1.763   3.075   0.714
 7713SOL    HW224039   1.879   2.960   0.703
 7714SOL     OW24040   0.387   5.818   4.891
 7714SOL    HW124041   0.307   5.857   4.845
 7714SOL    HW224042   0.376   5.719   4.900
 7715SOL     OW24043   2.593   2.321   6.336
 7715SOL    HW124044   2.504   2.365   6.345
 7715SOL    HW224045   2.601   2.280   6.245
 7716SOL     OW24046   6.651   5.094   0.311
 7716SOL    HW124047   6.719   5.128   0.246
 7716SOL    HW224048   6.590   5.030   0.265
 7717SOL     OW24049   1.180   2.013   5.158
 7717SOL    HW124050   1.180   2.018   5.258
 7717SOL    HW224051   1.092   2.046   5.123
 7718SOL     OW24052   6.662   4.152   3.273
 7718SOL    HW124053   6.563   4.160   3.278
 7718SOL    HW224054   6.693   4.083   3.338
 7719SOL     OW24055   1.124   4.045   4.770
 7719SOL    HW124056   1.095   3.951   4.787
 7719SOL    HW224057   1.044   4.101   4.750
 7720SOL     OW24058   6.179   2.261   5.757
 7720SOL    HW124059   6.088   2.230   5.785
 7720SOL    HW224060   6.183   2.361   5.761
 7721SOL     OW24061   0.554   6.460   2.296
 7721SOL    HW124062   0.482   6.527   2.315
 7721SOL    HW224063   0.547   6.430   2.201
 7722SOL     OW24064   1.843   4.633   3.900
 7722SOL    HW124065   1.753   4.676   3.910
 7722SOL    HW224066   1.834   4.550   3.844
 7723SOL     OW24067   4.279   3.573   6.627
 7723SOL    HW124068   4.336   3.501   6.667
 7723SOL    HW224069   4.184   3.542   6.623
 7724SOL     OW24070   3.141   4.391   0.138
 7724SOL    HW124071   3.204   4.344   0.077
 7724SOL    HW224072   3.088   4.458   0.085
 7725SOL     OW24073   6.248   1.953   2.694
 7725SOL    HW124074   6.283   1.941   2.601
 7725SOL    HW224075   6.151   1.928   2.697
 7726SOL     OW24076   1.494   3.761   6.370
 7726SOL    HW124077   1.544   3.840   6.406
 7726SOL    HW224078   1.400   3.763   6.404
 7727SOL     OW24079   5.801   2.956   2.034
 7727SOL    HW124080   5.796   2.931   2.131
 7727SOL    HW224081   5.894   2.944   2.001
 7728SOL     OW24082   2.264   2.886   4.818
 7728SOL    HW124083   2.301   2.801   4.780
 7728SOL    HW224084   2.308   2.906   4.905
 7729SOL     OW24085   5.616   1.501   2.170
 7729SOL    HW124086   5.683   1.479   2.240
 7729SOL    HW224087   5.524   1.496   2.208
 7730SOL     OW24088   0.206   4.599   6.594
 7730SOL    HW124089   0.259   4.548   6.661
 7730SOL    HW224090   0.234   4.694   6.593
 7731SOL     OW24091   6.867   0.335   0.278
 7731SOL    HW124092   6.773   0.301   0.288
 7731SOL    HW224093   6.924   0.263   0.238
 7732SOL     OW24094   4.009   0.627   0.499
 7732SOL    HW124095   4.106   0.644   0.483
 7732SOL    HW224096   3.964   0.608   0.411
 7733SOL     OW24097   6.140   5.563   2.195
 7733SOL    HW124098   6.099   5.477   2.227
 7733SOL    HW224099   6.212   5.592   2.258
 7734SOL     OW24100   1.949   4.777   4.793
 7734SOL    HW124101   1.944   4.772   4.693
 7734SOL    HW224102   1.859   4.804   4.829
 7735SOL     OW24103   6.027   5.884   6.733
 7735SOL    HW124104   6.062   5.792   6.751
 7735SOL    HW224105   6.051   5.911   6.640
 7736SOL     OW24106   2.128   3.394   0.415
 7736SOL    HW124107   2.161   3.337   0.340
 7736SOL    HW224108   2.084   3.336   0.484
 7737SOL     OW24109   3.642   6.523   1.879
 7737SOL    HW124110   3.678   6.523   1.973
 7737SOL    HW224111   3.712   6.489   1.817
 7738SOL     OW24112   2.725   5.278   0.340
 7738SOL    HW124113   2.704   5.195   0.288
 7738SOL    HW224114   2.815   5.269   0.383
 7739SOL     OW24115   1.901   1.922   1.650
 7739SOL    HW124116   1.981   1.976   1.626
 7739SOL    HW224117   1.843   1.909   1.570
 7740SOL     OW24118   1.748   0.814   2.367
 7740SOL    HW124119   1.715   0.791   2.459
 7740SOL    HW224120   1.732   0.911   2.350
 7741SOL     OW24121   0.161   3.675   5.114
 7741SOL    HW124122   0.205   3.715   5.034
 7741SOL    HW224123   0.227   3.620   5.165
 7742SOL     OW24124   4.611   1.821   3.783
 7742SOL    HW124125   4.521   1.820   3.740
 7742SOL    HW224126   4.676   1.772   3.725
 7743SOL     OW24127   4.922   1.437   6.842
 7743SOL    HW124128   4.909   1.417   6.939
 7743SOL    HW224129   4.996   1.380   6.805
 7744SOL     OW24130   1.313   6.224   3.334
 7744SOL    HW124131   1.410   6.233   3.312
 7744SOL    HW224132   1.283   6.130   3.314
 7745SOL     OW24133   2.589   0.055   0.472
 7745SOL    HW124134   2.591   0.133   0.535
 7745SOL    HW224135   2.679   0.009   0.472
 7746SOL     OW24136   1.204   6.772   0.805
 7746SOL    HW124137   1.105   6.757   0.807
 7746SOL    HW224138   1.227   6.828   0.725
 7747SOL     OW24139   6.892   5.993   1.487
 7747SOL    HW124140   6.975   6.045   1.469
 7747SOL    HW224141   6.887   5.916   1.423
 7748SOL     OW24142   3.605   4.115   3.810
 7748SOL    HW124143   3.630   4.071   3.724
 7748SOL    HW224144   3.506   4.131   3.812
 7749SOL     OW24145   3.989   3.895   3.624
 7749SOL    HW124146   3.892   3.921   3.627
 7749SOL    HW224147   4.025   3.893   3.717
 7750SOL     OW24148   6.459   6.092   6.500
 7750SOL    HW124149   6.528   6.074   6.570
 7750SOL    HW224150   6.457   6.017   6.434
 7751SOL     OW24151   0.589   2.396   2.623
 7751SOL    HW124152   0.556   2.438   2.539
 7751SOL    HW224153   0.687   2.415   2.633
 7752SOL     OW24154   5.686   5.976   5.414
 7752SOL    HW124155   5.727   5.894   5.453
 7752SOL    HW224156   5.611   5.950   5.353
 7753SOL     OW24157   2.806   0.946   4.029
 7753SOL    HW124158   2.801   0.895   4.115
 7753SOL    HW224159   2.726   0.923   3.972
 7754SOL     OW24160   5.528   6.908   1.801
 7754SOL    HW124161   5.579   6.841   1.855
 7754SOL    HW224162   5.431   6.905   1.827
 7755SOL     OW24163   1.153   2.041   5.671
 7755SOL    HW124164   1.139   2.139   5.687
 7755SOL    HW224165   1.085   1.989   5.722
 7756SOL     OW24166   3.267   5.211   2.447
 7756SOL    HW124167   3.240   5.187   2.354
 7756SOL    HW224168   3.194   5.187   2.511
 7757SOL     OW24169   5.176   6.345   4.003
 7757SOL    HW124170   5.174   6.418   3.935
 7757SOL    HW224171   5.104   6.361   4.071
 7758SOL     OW24172   1.887   1.979   6.836
 7758SOL    HW124173   1.925   1.897   6.793
 7758SOL    HW224174   1.913   1.982   6.932
 7759SOL     OW24175   1.209   1.506   4.766
 7759SOL    HW124176   1.258   1.419   4.772
 7759SOL    HW224177   1.148   1.515   4.845
 7760SOL     OW24178   5.846   2.865   2.320
 7760SOL    HW124179   5.782   2.790   2.330
 7760SOL    HW224180   5.812   2.946   2.369
 7761SOL     OW24181   1.664   0.121   6.369
 7761SOL    HW124182   1.711   0.095   6.284
 7761SOL    HW224183   1.579   0.069   6.378
 7762SOL     OW24184   4.098   0.942   4.343
 7762SOL    HW124185   4.142   1.025   4.309
 7762SOL    HW224186   4.041   0.902   4.271
 7763SOL     OW24187   1.249   1.386   1.556
 7763SOL    HW124188   1.197   1.454   1.608
 7763SOL    HW224189   1.342   1.379   1.594
 7764SOL     OW24190   3.610   2.883   2.873
 7764SOL    HW124191   3.586   2.976   2.845
 7764SOL    HW224192   3.704   2.862   2.844
 7765SOL     OW24193   5.960   2.996   4.164
 7765SOL    HW124194   5.944   2.963   4.071
 7765SOL    HW224195   5.980   2.919   4.225
 7766SOL     OW24196   4.956   1.990   0.448
 7766SOL    HW124197   4.907   2.060   0.501
 7766SOL    HW224198   5.046   1.974   0.490
 7767SOL     OW24199   3.943   6.263   3.765
 7767SOL    HW124200   3.910   6.281   3.673
 7767SOL    HW224201   3.959   6.165   3.777
 7768SOL     OW24202   4.460   5.186   2.374
 7768SOL    HW124203   4.388   5.142   2.427
 7768SOL    HW224204   4.546   5.137   2.386
 7769SOL     OW24205   4.796   2.159   2.086
 7769SOL    HW124206   4.706   2.116   2.081
 7769SOL    HW224207   4.831   2.153   2.180
 7770SOL     OW24208   1.217   3.811   2.761
 7770SOL    HW124209   1.182   3.787   2.670
 7770SOL    HW224210   1.312   3.782   2.769
 7771SOL     OW24211   2.353   2.708   5.119
 7771SOL    HW124212   2.447   2.695   5.150
 7771SOL    HW224213   2.346   2.796   5.072
 7772SOL     OW24214   4.848   1.089   3.713
 7772SOL    HW124215   4.763   1.065   3.759
 7772SOL    HW224216   4.866   1.022   3.640
 7773SOL     OW24217   3.060   5.383   5.654
 7773SOL    HW124218   3.083   5.289   5.629
 7773SOL    HW224219   3.056   5.439   5.571
 7774SOL     OW24220   6.385   2.640   6.443
 7774SOL    HW124221   6.359   2.589   6.525
 7774SOL    HW224222   6.441   2.719   6.469
 7775SOL     OW24223   4.127   6.571   2.948
 7775SOL    HW124224   4.045   6.543   2.898
 7775SOL    HW224225   4.167   6.651   2.903
 7776SOL     OW24226   3.274   3.770   6.593
 7776SOL    HW124227   3.292   3.851   6.537
 7776SOL    HW224228   3.176   3.752   6.594
 7777SOL     OW24229   2.080   1.137   5.060
 7777SOL    HW124230   2.017   1.075   5.015
 7777SOL    HW224231   2.040   1.169   5.146
 7778SOL     OW24232   4.705   6.207   0.192
 7778SOL    HW124233   4.785   6.146   0.194
 7778SOL    HW224234   4.626   6.161   0.231
 7779SOL     OW24235   3.163   2.912   0.554
 7779SOL    HW124236   3.211   2.825   0.569
 7779SOL    HW224237   3.080   2.895   0.500
 7780SOL     OW24238   1.623   5.238   4.770
 7780SOL    HW124239   1.716   5.205   4.788
 7780SOL    HW224240   1.616   5.335   4.792
 7781SOL     OW24241   1.684   5.077   6.913
 7781SOL    HW124242   1.629   5.005   6.870
 7781SOL    HW224243   1.668   5.076   7.012
 7782SOL     OW24244   1.314   4.300   5.897
 7782SOL    HW124245   1.284   4.364   5.968
 7782SOL    HW224246   1.337   4.350   5.814
 7783SOL     OW24247   1.851   5.589   5.470
 7783SOL    HW124248   1.776   5.627   5.525
 7783SOL    HW224249   1.878   5.655   5.400
 7784SOL     OW24250   2.936   2.871   6.864
 7784SOL    HW124251   2.923   2.772   6.871
 7784SOL    HW224252   2.854   2.917   6.898
 7785SOL     OW24253   1.634   6.664   4.351
 7785SOL    HW124254   1.538   6.639   4.354
 7785SOL    HW224255   1.690   6.581   4.341
 7786SOL     OW24256   3.140   6.067   6.722
 7786SOL    HW124257   3.088   6.145   6.757
 7786SOL    HW224258   3.191   6.025   6.796
 7787SOL     OW24259   2.501   2.889   5.795
 7787SOL    HW124260   2.469   2.984   5.794
 7787SOL    HW224261   2.481   2.848   5.884
 7788SOL     OW24262   1.808   6.815   1.670
 7788SOL    HW124263   1.907   6.820   1.687
 7788SOL    HW224264   1.792   6.783   1.577
 7789SOL     OW24265   2.960   0.269   0.441
 7789SOL    HW124266   3.021   0.255   0.363
 7789SOL    HW224267   3.010   0.318   0.513
 7790SOL     OW24268   5.721   4.980   2.376
 7790SOL    HW124269   5.680   5.026   2.455
 7790SOL    HW224270   5.807   5.024   2.352
 7791SOL     OW24271   2.781   6.612   3.926
 7791SOL    HW124272   2.744   6.680   3.990
 7791SOL    HW224273   2.867   6.575   3.962
 7792SOL     OW24274   1.666   5.117   6.145
 7792SOL    HW124275   1.709   5.193   6.095
 7792SOL    HW224276   1.619   5.058   6.079
 7793SOL     OW24277   2.614   0.552   6.593
 7793SOL    HW124278   2.570   0.536   6.681
 7793SOL    HW224279   2.652   0.645   6.591
 7794SOL     OW24280   5.374   5.088   3.767
 7794SOL    HW124281   5.333   5.176   3.790
 7794SOL    HW224282   5.446   5.102   3.699
 7795SOL     OW24283   1.899   3.687   5.175
 7795SOL    HW124284   1.846   3.603   5.162
 7795SOL    HW224285   1.993   3.663   5.199
 7796SOL     OW24286   3.219   3.754   3.595
 7796SOL    HW124287   3.195   3.769   3.499
 7796SOL    HW224288   3.192   3.834   3.648
 7797SOL     OW24289   0.834   6.627   3.135
 7797SOL    HW124290   0.758   6.643   3.197
 7797SOL    HW224291   0.806   6.650   3.041
 7798SOL     OW24292   1.348   4.862   5.876
 7798SOL    HW124293   1.353   4.956   5.844
 7798SOL    HW224294   1.264   4.848   5.928
 7799SOL     OW24295   0.140   6.478   1.661
 7799SOL    HW124296   0.201   6.484   1.740
 7799SOL    HW224297   0.053   6.438   1.690
 7800SOL     OW24298   1.646   5.236   0.507
 7800SOL    HW124299   1.564   5.191   0.544
 7800SOL    HW224300   1.720   5.169   0.499
 7801SOL     OW24301   1.989   2.245   1.790
 7801SOL    HW124302   2.056   2.275   1.858
 7801SOL    HW224303   2.032   2.182   1.726
 7802SOL     OW24304   5.567   2.218   1.403
 7802SOL    HW124305   5.639   2.151   1.419
 7802SOL    HW224306   5.598   2.308   1.431
 7803SOL     OW24307   4.458   2.569   6.063
 7803SOL    HW124308   4.496   2.578   5.970
 7803SOL    HW224309   4.363   2.539   6.058
 7804SOL     OW24310   5.447   1.240   4.494
 7804SOL    HW124311   5.414   1.233   4.400
 7804SOL    HW224312   5.404   1.319   4.539
 7805SOL     OW24313   5.328   1.580   1.049
 7805SOL    HW124314   5.409   1.637   1.036
 7805SOL    HW224315   5.285   1.602   1.136
 7806SOL     OW24316   5.886   2.306   6.181
 7806SOL    HW124317   5.884   2.344   6.088
 7806SOL    HW224318   5.841   2.369   6.244
 7807SOL     OW24319   0.136   4.209   5.560
 7807SOL    HW124320   0.151   4.253   5.649
 7807SOL    HW224321   0.149   4.110   5.570
 7808SOL     OW24322   0.066   2.948   4.634
 7808SOL    HW124323   6.991   2.960   4.633
 7808SOL    HW224324   0.111   3.036   4.647
 7809SOL     OW24325   2.407   5.558   4.726
 7809SOL    HW124326   2.332   5.613   4.763
 7809SOL    HW224327   2.370   5.479   4.676
 7810SOL     OW24328   3.493   0.089   5.077
 7810SOL    HW124329   3.506   0.030   4.997
 7810SOL    HW224330   3.582   0.107   5.120
 7811SOL     OW24331   0.637   5.090   3.532
 7811SOL    HW124332   0.550   5.061   3.571
 7811SOL    HW224333   0.621   5.132   3.442
 7812SOL     OW24334   1.553   1.759   3.542
 7812SOL    HW124335   1.474   1.758   3.604
 7812SOL    HW224336   1.604   1.844   3.555
 7813SOL     OW24337   4.079   2.592   6.750
 7813SOL    HW124338   4.100   2.675   6.801
 7813SOL    HW224339   4.111   2.512   6.802
 7814SOL     OW24340   6.667   3.226   3.938
 7814SOL    HW124341   6.594   3.292   3.957
 7814SOL    HW224342   6.750   3.254   3.986
 7815SOL     OW24343   4.941   0.460   6.460
 7815SOL    HW124344   4.857   0.512   6.447
 7815SOL    HW224345   4.918   0.371   6.500
 7816SOL     OW24346   1.398   2.696   6.576
 7816SOL    HW124347   1.396   2.791   6.545
 7816SOL    HW224348   1.491   2.671   6.603
 7817SOL     OW24349   5.403   4.204   3.420
 7817SOL    HW124350   5.306   4.200   3.395
 7817SOL    HW224351   5.416   4.157   3.507
 7818SOL     OW24352   4.078   1.221   3.133
 7818SOL    HW124353   4.124   1.309   3.137
 7818SOL    HW224354   4.076   1.180   3.225
 7819SOL     OW24355   6.373   2.895   2.074
 7819SOL    HW124356   6.325   2.955   2.138
 7819SOL    HW224357   6.313   2.819   2.049
 7820SOL     OW24358   0.876   2.303   4.628
 7820SOL    HW124359   0.838   2.349   4.709
 7820SOL    HW224360   0.847   2.352   4.546
 7821SOL     OW24361   5.229   6.229   1.029
 7821SOL    HW124362   5.264   6.323   1.040
 7821SOL    HW224363   5.307   6.166   1.020
 7822SOL     OW24364   0.724   0.573   5.518
 7822SOL    HW124365   0.657   0.522   5.464
 7822SOL    HW224366   0.710   0.671   5.504
 7823SOL     OW24367   2.666   4.026   5.328
 7823SOL    HW124368   2.635   4.015   5.422
 7823SOL    HW224369   2.588   4.016   5.266
 7824SOL     OW24370   5.775   1.644   4.558
 7824SOL    HW124371   5.716   1.716   4.594
 7824SOL    HW224372   5.858   1.684   4.519
 7825SOL     OW24373   1.048   2.660   0.770
 7825SOL    HW124374   1.056   2.561   0.755
 7825SOL    HW224375   1.105   2.708   0.704
 7826SOL     OW24376   6.125   1.264   1.106
 7826SOL    HW124377   6.025   1.267   1.107
 7826SOL    HW224378   6.157   1.262   1.011
 7827SOL     OW24379   1.925   5.912   1.013
 7827SOL    HW124380   1.842   5.873   0.972
 7827SOL    HW224381   1.900   5.963   1.095
 7828SOL     OW24382   6.349   4.484   0.147
 7828SOL    HW124383   6.319   4.491   0.242
 7828SOL    HW224384   6.276   4.442   0.092
 7829SOL     OW24385   2.219   3.287   1.690
 7829SOL    HW124386   2.279   3.323   1.761
 7829SOL    HW224387   2.125   3.289   1.722
 7830SOL     OW24388   2.508   5.106   5.465
 7830SOL    HW124389   2.542   5.105   5.371
 7830SOL    HW224390   2.525   5.017   5.508
 7831SOL     OW24391   1.405   0.156   1.338
 7831SOL    HW124392   1.397   0.124   1.432
 7831SOL    HW224393   1.314   0.165   1.298
 7832SOL     OW24394   6.170   0.867   4.429
 7832SOL    HW124395   6.199   0.869   4.524
 7832SOL    HW224396   6.187   0.775   4.391
 7833SOL     OW24397   0.868   0.696   5.153
 7833SOL    HW124398   0.919   0.666   5.234
 7833SOL    HW224399   0.795   0.632   5.134
 7834SOL     OW24400   6.489   1.429   3.527
 7834SOL    HW124401   6.401   1.381   3.536
 7834SOL    HW224402   6.522   1.456   3.617
 7835SOL     OW24403   3.604   1.994   5.393
 7835SOL    HW124404   3.596   2.086   5.432
 7835SOL    HW224405   3.527   1.979   5.330
 7836SOL     OW24406   3.377   3.437   4.895
 7836SOL    HW124407   3.440   3.476   4.828
 7836SOL    HW224408   3.312   3.376   4.849
 7837SOL     OW24409   4.571   5.481   0.008
 7837SOL    HW124410   4.576   5.423   0.089
 7837SOL    HW224411   4.572   5.424   6.950
 7838SOL     OW24412   4.008   6.892   0.701
 7838SOL    HW124413   4.060   6.823   0.651
 7838SOL    HW224414   3.986   6.858   0.792
 7839SOL     OW24415   5.782   4.300   4.661
 7839SOL    HW124416   5.876   4.285   4.692
 7839SOL    HW224417   5.763   4.399   4.660
 7840SOL     OW24418   6.751   3.367   4.247
 7840SOL    HW124419   6.843   3.378   4.283
 7840SOL    HW224420   6.730   3.270   4.237
 7841SOL     OW24421   3.832   1.806   5.941
 7841SOL    HW124422   3.808   1.899   5.914
 7841SOL    HW224423   3.865   1.807   6.036
 7842SOL     OW24424   2.333   1.687   2.690
 7842SOL    HW124425   2.367   1.688   2.785
 7842SOL    HW224426   2.383   1.618   2.638
 7843SOL     OW24427   0.733   5.826   3.107
 7843SOL    HW124428   0.726   5.890   3.031
 7843SOL    HW224429   0.660   5.845   3.174
 7844SOL     OW24430   2.940   0.619   2.405
 7844SOL    HW124431   3.005   0.691   2.432
 7844SOL    HW224432   2.847   0.651   2.420
 7845SOL     OW24433   5.124   1.950   2.418
 7845SOL    HW124434   5.123   1.933   2.516
 7845SOL    HW224435   5.211   1.994   2.393
 7846SOL     OW24436   0.304   2.583   0.987
 7846SOL    HW124437   0.204   2.590   0.987
 7846SOL    HW224438   0.331   2.490   1.012
 7847SOL     OW24439   6.627   1.218   3.434
 7847SOL    HW124440   6.574   1.135   3.417
 7847SOL    HW224441   6.565   1.292   3.459
 7848SOL     OW24442   3.371   5.104   0.402
 7848SOL    HW124443   3.334   5.106   0.310
 7848SOL    HW224444   3.471   5.112   0.398
 7849SOL     OW24445   6.540   4.237   4.644
 7849SOL    HW124446   6.484   4.232   4.727
 7849SOL    HW224447   6.486   4.207   4.566
 7850SOL     OW24448   0.492   1.460   3.632
 7850SOL    HW124449   0.459   1.501   3.717
 7850SOL    HW224450   0.586   1.490   3.615
 7851SOL     OW24451   0.025   1.911   1.469
 7851SOL    HW124452   0.078   1.827   1.485
 7851SOL    HW224453   0.033   1.971   1.549
 7852SOL     OW24454   3.171   1.885   0.198
 7852SOL    HW124455   3.112   1.811   0.163
 7852SOL    HW224456   3.143   1.972   0.158
 7853SOL     OW24457   5.089   2.831   1.160
 7853SOL    HW124458   5.128   2.919   1.188
 7853SOL    HW224459   5.074   2.774   1.240
 7854SOL     OW24460   3.301   3.057   5.967
 7854SOL    HW124461   3.307   3.108   5.882
 7854SOL    HW224462   3.382   3.076   6.023
 7855SOL     OW24463   4.467   6.589   4.934
 7855SOL    HW124464   4.422   6.550   5.015
 7855SOL    HW224465   4.473   6.519   4.863
 7856SOL     OW24466   6.665   5.718   5.211
 7856SOL    HW124467   6.642   5.622   5.198
 7856SOL    HW224468   6.581   5.773   5.210
 7857SOL     OW24469   4.516   2.879   0.490
 7857SOL    HW124470   4.553   2.915   0.576
 7857SOL    HW224471   4.481   2.787   0.505
 7858SOL     OW24472   6.835   6.335   4.546
 7858SOL    HW124473   6.869   6.243   4.564
 7858SOL    HW224474   6.786   6.336   4.459
 7859SOL     OW24475   4.451   3.330   6.483
 7859SOL    HW124476   4.475   3.233   6.478
 7859SOL    HW224477   4.403   3.348   6.569
 7860SOL     OW24478   4.598   1.235   4.024
 7860SOL    HW124479   4.548   1.151   4.048
 7860SOL    HW224480   4.547   1.314   4.058
 7861SOL     OW24481   3.294   4.567   1.562
 7861SOL    HW124482   3.339   4.639   1.615
 7861SOL    HW224483   3.241   4.508   1.623
 7862SOL     OW24484   2.265   4.892   2.151
 7862SOL    HW124485   2.247   4.979   2.104
 7862SOL    HW224486   2.179   4.842   2.161
 7863SOL     OW24487   0.088   3.754   4.214
 7863SOL    HW124488   0.005   3.699   4.198
 7863SOL    HW224489   0.151   3.740   4.138
 7864SOL     OW24490   0.689   4.958   5.380
 7864SOL    HW124491   0.784   4.955   5.347
 7864SOL    HW224492   0.688   4.986   5.476
 7865SOL     OW24493   6.405   6.169   4.096
 7865SOL    HW124494   6.309   6.184   4.074
 7865SOL    HW224495   6.461   6.237   4.049
 7866SOL     OW24496   0.954   0.407   5.423
 7866SOL    HW124497   0.878   0.472   5.421
 7866SOL    HW224498   1.033   0.450   5.468
 7867SOL     OW24499   6.151   5.895   3.353
 7867SOL    HW124500   6.215   5.949   3.407
 7867SOL    HW224501   6.078   5.955   3.318
 7868SOL     OW24502   4.520   5.812   1.176
 7868SOL    HW124503   4.547   5.751   1.102
 7868SOL    HW224504   4.571   5.898   1.169
 7869SOL     OW24505   5.183   4.137   6.269
 7869SOL    HW124506   5.162   4.105   6.177
 7869SOL    HW224507   5.159   4.066   6.336
 7870SOL     OW24508   5.357   6.077   4.403
 7870SOL    HW124509   5.331   6.034   4.317
 7870SOL    HW224510   5.275   6.108   4.451
 7871SOL     OW24511   4.872   2.383   1.719
 7871SOL    HW124512   4.773   2.372   1.715
 7871SOL    HW224513   4.916   2.312   1.665
 7872SOL     OW24514   2.090   3.957   3.164
 7872SOL    HW124515   2.132   4.032   3.214
 7872SOL    HW224516   2.082   3.982   3.067
 7873SOL     OW24517   6.160   6.921   6.973
 7873SOL    HW124518   6.229   6.954   6.909
 7873SOL    HW224519   6.128   6.997   0.005
 7874SOL     OW24520   5.071   2.353   0.736
 7874SOL    HW124521   5.093   2.352   0.639
 7874SOL    HW224522   5.027   2.267   0.761
 7875SOL     OW24523   4.434   2.662   6.773
 7875SOL    HW124524   4.443   2.676   6.674
 7875SOL    HW224525   4.385   2.740   6.812
 7876SOL     OW24526   1.218   6.410   3.164
 7876SOL    HW124527   1.234   6.325   3.215
 7876SOL    HW224528   1.231   6.488   3.226
 7877SOL     OW24529   0.657   1.771   2.611
 7877SOL    HW124530   0.734   1.836   2.612
 7877SOL    HW224531   0.647   1.729   2.701
 7878SOL     OW24532   4.920   4.477   4.283
 7878SOL    HW124533   4.968   4.564   4.296
 7878SOL    HW224534   4.854   4.465   4.356
 7879SOL     OW24535   3.639   5.261   3.052
 7879SOL    HW124536   3.580   5.265   2.971
 7879SOL    HW224537   3.705   5.187   3.042
 7880SOL     OW24538   1.988   4.167   1.939
 7880SOL    HW124539   1.994   4.067   1.948
 7880SOL    HW224540   1.954   4.190   1.848
 7881SOL     OW24541   5.667   4.529   5.110
 7881SOL    HW124542   5.570   4.514   5.124
 7881SOL    HW224543   5.692   4.621   5.141
 7882SOL     OW24544   1.682   3.907   1.754
 7882SOL    HW124545   1.719   3.998   1.769
 7882SOL    HW224546   1.588   3.903   1.788
 7883SOL     OW24547   1.232   0.375   6.725
 7883SOL    HW124548   1.232   0.275   6.718
 7883SOL    HW224549   1.283   0.402   6.807
 7884SOL     OW24550   1.852   3.964   4.939
 7884SOL    HW124551   1.828   4.048   4.890
 7884SOL    HW224552   1.804   3.962   5.026
 7885SOL     OW24553   6.616   5.558   0.986
 7885SOL    HW124554   6.540   5.511   1.031
 7885SOL    HW224555   6.686   5.492   0.961
 7886SOL     OW24556   4.183   5.812   6.731
 7886SOL    HW124557   4.271   5.780   6.696
 7886SOL    HW224558   4.149   5.886   6.673
 7887SOL     OW24559   3.186   2.589   6.022
 7887SOL    HW124560   3.261   2.652   6.000
 7887SOL    HW224561   3.145   2.556   5.937
 7888SOL     OW24562   6.294   0.529   5.696
 7888SOL    HW124563   6.223   0.478   5.647
 7888SOL    HW224564   6.373   0.470   5.712
 7889SOL     OW24565   1.903   4.385   2.436
 7889SOL    HW124566   1.937   4.369   2.344
 7889SOL    HW224567   1.838   4.314   2.461
 7890SOL     OW24568   1.845   3.261   2.683
 7890SOL    HW124569   1.788   3.243   2.602
 7890SOL    HW224570   1.835   3.357   2.710
 7891SOL     OW24571   1.667   3.333   3.302
 7891SOL    HW124572   1.655   3.403   3.231
 7891SOL    HW224573   1.764   3.324   3.324
 7892SOL     OW24574   2.105   2.344   4.240
 7892SOL    HW124575   2.055   2.321   4.324
 7892SOL    HW224576   2.137   2.260   4.197
 7893SOL     OW24577   6.765   6.606   2.823
 7893SOL    HW124578   6.826   6.565   2.755
 7893SOL    HW224579   6.782   6.564   2.912
 7894SOL     OW24580   2.746   6.907   1.339
 7894SOL    HW124581   2.819   6.857   1.383
 7894SOL    HW224582   2.674   6.844   1.310
 7895SOL     OW24583   6.488   1.376   5.611
 7895SOL    HW124584   6.587   1.364   5.620
 7895SOL    HW224585   6.458   1.335   5.524
 7896SOL     OW24586   4.786   3.503   6.829
 7896SOL    HW124587   4.852   3.427   6.836
 7896SOL    HW224588   4.819   3.580   6.884
 7897SOL     OW24589   2.779   4.149   6.368
 7897SOL    HW124590   2.838   4.204   6.427
 7897SOL    HW224591   2.804   4.164   6.272
 7898SOL     OW24592   5.239   1.752   3.749
 7898SOL    HW124593   5.208   1.838   3.707
 7898SOL    HW224594   5.265   1.688   3.678
 7899SOL     OW24595   5.906   1.142   1.841
 7899SOL    HW124596   5.871   1.050   1.854
 7899SOL    HW224597   5.846   1.208   1.885
 7900SOL     OW24598   1.304   5.904   1.539
 7900SOL    HW124599   1.295   6.002   1.552
 7900SOL    HW224600   1.322   5.885   1.442
 7901SOL     OW24601   4.594   0.843   6.365
 7901SOL    HW124602   4.600   0.823   6.267
 7901SOL    HW224603   4.677   0.890   6.395
 7902SOL     OW24604   5.397   5.500   1.646
 7902SOL    HW124605   5.470   5.433   1.636
 7902SOL    HW224606   5.342   5.478   1.727
 7903SOL     OW24607   6.066   1.920   0.828
 7903SOL    HW124608   6.055   1.823   0.852
 7903SOL    HW224609   5.978   1.956   0.797
 7904SOL     OW24610   5.723   0.191   3.451
 7904SOL    HW124611   5.754   0.167   3.543
 7904SOL    HW224612   5.727   0.110   3.392
 7905SOL     OW24613   4.545   2.390   0.106
 7905SOL    HW124614   4.559   2.318   0.174
 7905SOL    HW224615   4.448   2.401   0.089
 7906SOL     OW24616   0.414   5.653   0.487
 7906SOL    HW124617   0.483   5.675   0.419
 7906SOL    HW224618   0.455   5.655   0.578
 7907SOL     OW24619   5.936   1.645   3.742
 7907SOL    HW124620   5.910   1.675   3.833
 7907SOL    HW224621   6.035   1.633   3.738
 7908SOL     OW24622   0.563   1.220   4.354
 7908SOL    HW124623   0.580   1.315   4.328
 7908SOL    HW224624   0.641   1.186   4.407
 7909SOL     OW24625   5.483   3.737   4.897
 7909SOL    HW124626   5.527   3.739   4.808
 7909SOL    HW224627   5.455   3.830   4.923
 7910SOL     OW24628   2.890   2.928   5.567
 7910SOL    HW124629   2.875   3.007   5.625
 7910SOL    HW224630   2.886   2.956   5.471
 7911SOL     OW24631   1.584   3.195   6.415
 7911SOL    HW124632   1.494   3.218   6.451
 7911SOL    HW224633   1.629   3.277   6.381
 7912SOL     OW24634   0.230   5.508   0.324
 7912SOL    HW124635   0.311   5.536   0.375
 7912SOL    HW224636   0.154   5.570   0.346
 7913SOL     OW24637   1.440   5.117   0.990
 7913SOL    HW124638   1.446   5.164   0.902
 7913SOL    HW224639   1.488   5.030   0.986
 7914SOL     OW24640   0.199   4.611   6.216
 7914SOL    HW124641   0.182   4.698   6.169
 7914SOL    HW224642   0.112   4.562   6.229
 7915SOL     OW24643   4.757   2.877   2.473
 7915SOL    HW124644   4.779   2.973   2.490
 7915SOL    HW224645   4.779   2.854   2.378
 7916SOL     OW24646   6.438   3.764   5.689
 7916SOL    HW124647   6.406   3.670   5.701
 7916SOL    HW224648   6.418   3.818   5.771
 7917SOL     OW24649   3.050   3.174   3.802
 7917SOL    HW124650   3.009   3.252   3.755
 7917SOL    HW224651   3.079   3.106   3.736
 7918SOL     OW24652   0.428   1.619   0.552
 7918SOL    HW124653   0.435   1.708   0.596
 7918SOL    HW224654   0.342   1.575   0.578
 7919SOL     OW24655   0.789   4.386   3.092
 7919SOL    HW124656   0.730   4.392   3.011
 7919SOL    HW224657   0.734   4.391   3.175
 7920SOL     OW24658   1.067   5.274   1.237
 7920SOL    HW124659   1.063   5.370   1.265
 7920SOL    HW224660   1.132   5.226   1.296
 7921SOL     OW24661   4.089   5.665   0.562
 7921SOL    HW124662   4.187   5.647   0.555
 7921SOL    HW224663   4.073   5.737   0.631
 7922SOL     OW24664   6.337   5.717   0.652
 7922SOL    HW124665   6.389   5.766   0.722
 7922SOL    HW224666   6.368   5.622   0.647
 7923SOL     OW24667   3.193   0.217   2.298
 7923SOL    HW124668   3.159   0.277   2.371
 7923SOL    HW224669   3.151   0.242   2.211
 7924SOL     OW24670   3.887   6.071   2.676
 7924SOL    HW124671   3.807   6.051   2.620
 7924SOL    HW224672   3.860   6.126   2.755
 7925SOL     OW24673   0.751   1.776   6.284
 7925SOL    HW124674   0.707   1.865   6.266
 7925SOL    HW224675   0.682   1.711   6.315
 7926SOL     OW24676   4.787   1.174   4.732
 7926SOL    HW124677   4.876   1.181   4.777
 7926SOL    HW224678   4.784   1.238   4.655
 7927SOL     OW24679   3.919   5.628   4.328
 7927SOL    HW124680   3.865   5.693   4.382
 7927SOL    HW224681   3.922   5.659   4.233
 7928SOL     OW24682   1.474   3.042   4.149
 7928SOL    HW124683   1.416   2.989   4.211
 7928SOL    HW224684   1.461   3.140   4.168
 7929SOL     OW24685   4.180   4.163   5.614
 7929SOL    HW124686   4.082   4.183   5.611
 7929SOL    HW224687   4.212   4.165   5.708
 7930SOL     OW24688   4.692   5.642   3.880
 7930SOL    HW124689   4.706   5.613   3.785
 7930SOL    HW224690   4.608   5.600   3.915
 7931SOL     OW24691   1.256   1.761   6.298
 7931SOL    HW124692   1.246   1.682   6.358
 7931SOL    HW224693   1.194   1.833   6.326
 7932SOL     OW24694   2.992   6.641   0.314
 7932SOL    HW124695   2.899   6.609   0.333
 7932SOL    HW224696   3.054   6.605   0.385
 7933SOL     OW24697   0.090   6.798   0.335
 7933SOL    HW124698   0.030   6.873   0.363
 7933SOL    HW224699   0.119   6.813   0.240
 7934SOL     OW24700   2.251   4.617   6.784
 7934SOL    HW124701   2.341   4.633   6.742
 7934SOL    HW224702   2.214   4.530   6.751
 7935SOL     OW24703   5.630   5.494   6.975
 7935SOL    HW124704   5.623   5.484   0.050
 7935SOL    HW224705   5.546   5.534   6.939
 7936SOL     OW24706   3.519   5.031   2.542
 7936SOL    HW124707   3.448   4.991   2.484
 7936SOL    HW224708   3.510   5.131   2.541
 7937SOL     OW24709   5.995   6.919   3.816
 7937SOL    HW124710   5.989   6.914   3.916
 7937SOL    HW224711   5.967   6.831   3.777
 7938SOL     OW24712   5.921   4.806   5.675
 7938SOL    HW124713   5.833   4.851   5.688
 7938SOL    HW224714   5.977   4.818   5.757
 7939SOL     OW24715   0.664   2.113   5.993
 7939SOL    HW124716   0.583   2.169   5.973
 7939SOL    HW224717   0.651   2.066   6.080
 7940SOL     OW24718   1.755   4.373   2.796
 7940SOL    HW124719   1.846   4.374   2.838
 7940SOL    HW224720   1.686   4.366   2.868
 7941SOL     OW24721   6.995   0.155   1.014
 7941SOL    HW124722   6.958   0.082   0.956
 7941SOL    HW224723   0.021   0.115   1.090
 7942SOL     OW24724   6.597   6.214   2.597
 7942SOL    HW124725   6.654   6.215   2.679
 7942SOL    HW224726   6.651   6.181   2.519
 7943SOL     OW24727   5.899   2.222   0.480
 7943SOL    HW124728   5.859   2.303   0.522
 7943SOL    HW224729   5.956   2.249   0.403
 7944SOL     OW24730   0.392   3.263   0.994
 7944SOL    HW124731   0.326   3.213   0.938
 7944SOL    HW224732   0.404   3.355   0.957
 7945SOL     OW24733   5.283   6.729   2.870
 7945SOL    HW124734   5.338   6.806   2.838
 7945SOL    HW224735   5.227   6.757   2.948
 7946SOL     OW24736   2.425   2.627   5.600
 7946SOL    HW124737   2.460   2.719   5.583
 7946SOL    HW224738   2.467   2.563   5.536
 7947SOL     OW24739   3.814   2.834   6.597
 7947SOL    HW124740   3.754   2.887   6.537
 7947SOL    HW224741   3.759   2.769   6.650
 7948SOL     OW24742   0.491   6.461   1.273
 7948SOL    HW124743   0.515   6.535   1.210
 7948SOL    HW224744   0.398   6.476   1.308
 7949SOL     OW24745   4.407   4.589   3.886
 7949SOL    HW124746   4.379   4.573   3.792
 7949SOL    HW224747   4.505   4.612   3.889
 7950SOL     OW24748   4.988   5.503   3.693
 7950SOL    HW124749   5.004   5.407   3.673
 7950SOL    HW224750   5.053   5.535   3.762
 7951SOL     OW24751   1.852   3.824   1.130
 7951SOL    HW124752   1.778   3.778   1.081
 7951SOL    HW224753   1.850   3.922   1.108
 7952SOL     OW24754   0.631   3.491   6.448
 7952SOL    HW124755   0.679   3.543   6.519
 7952SOL    HW224756   0.638   3.539   6.361
 7953SOL     OW24757   2.281   2.787   3.341
 7953SOL    HW124758   2.208   2.763   3.276
 7953SOL    HW224759   2.367   2.800   3.291
 7954SOL     OW24760   4.573   4.505   5.391
 7954SOL    HW124761   4.576   4.581   5.457
 7954SOL    HW224762   4.552   4.420   5.440
 7955SOL     OW24763   1.342   6.847   6.189
 7955SOL    HW124764   1.301   6.905   6.260
 7955SOL    HW224765   1.384   6.905   6.119
 7956SOL     OW24766   1.500   6.285   2.472
 7956SOL    HW124767   1.489   6.384   2.463
 7956SOL    HW224768   1.510   6.244   2.381
 7957SOL     OW24769   2.333   1.111   0.499
 7957SOL    HW124770   2.294   1.135   0.410
 7957SOL    HW224771   2.300   1.175   0.569
 7958SOL     OW24772   3.185   5.706   4.462
 7958SOL    HW124773   3.096   5.743   4.435
 7958SOL    HW224774   3.255   5.739   4.398
 7959SOL     OW24775   4.346   5.354   1.314
 7959SOL    HW124776   4.313   5.260   1.308
 7959SOL    HW224777   4.328   5.390   1.406
 7960SOL     OW24778   3.815   1.704   1.013
 7960SOL    HW124779   3.872   1.786   1.017
 7960SOL    HW224780   3.743   1.710   1.082
 7961SOL     OW24781   0.794   6.234   0.117
 7961SOL    HW124782   0.862   6.164   0.097
 7961SOL    HW224783   0.762   6.275   0.031
 7962SOL     OW24784   1.809   0.282   0.330
 7962SOL    HW124785   1.745   0.297   0.255
 7962SOL    HW224786   1.865   0.364   0.343
 7963SOL     OW24787   6.645   0.450   3.719
 7963SOL    HW124788   6.561   0.488   3.681
 7963SOL    HW224789   6.638   0.444   3.819
 7964SOL     OW24790   6.487   5.348   3.609
 7964SOL    HW124791   6.465   5.281   3.679
 7964SOL    HW224792   6.537   5.304   3.535
 7965SOL     OW24793   3.480   2.789   6.436
 7965SOL    HW124794   3.515   2.709   6.387
 7965SOL    HW224795   3.428   2.846   6.373
 7966SOL     OW24796   0.607   3.082   5.527
 7966SOL    HW124797   0.668   3.070   5.448
 7966SOL    HW224798   0.578   2.992   5.560
 7967SOL     OW24799   3.024   6.546   4.041
 7967SOL    HW124800   3.037   6.478   4.114
 7967SOL    HW224801   3.049   6.636   4.076
 7968SOL     OW24802   1.851   2.536   3.313
 7968SOL    HW124803   1.877   2.442   3.332
 7968SOL    HW224804   1.784   2.538   3.240
 7969SOL     OW24805   4.428   6.986   2.378
 7969SOL    HW124806   4.496   7.012   2.310
 7969SOL    HW224807   4.341   0.005   2.356
 7970SOL     OW24808   0.218   3.045   2.913
 7970SOL    HW124809   0.278   2.974   2.877
 7970SOL    HW224810   0.264   3.134   2.906
 7971SOL     OW24811   3.597   1.584   0.843
 7971SOL    HW124812   3.675   1.629   0.886
 7971SOL    HW224813   3.617   1.487   0.831
 7972SOL     OW24814   0.869   4.182   1.640
 7972SOL    HW124815   0.803   4.150   1.572
 7972SOL    HW224816   0.956   4.202   1.595
 7973SOL     OW24817   5.382   3.333   2.861
 7973SOL    HW124818   5.298   3.368   2.902
 7973SOL    HW224819   5.419   3.400   2.797
 7974SOL     OW24820   5.664   0.403   4.852
 7974SOL    HW124821   5.606   0.459   4.912
 7974SOL    HW224822   5.709   0.462   4.785
 7975SOL     OW24823   5.792   0.614   3.549
 7975SOL    HW124824   5.841   0.621   3.636
 7975SOL    HW224825   5.811   0.696   3.494
 7976SOL     OW24826   0.744   0.385   5.722
 7976SOL    HW124827   0.652   0.406   5.754
 7976SOL    HW224828   0.756   0.419   5.629
 7977SOL     OW24829   4.643   5.611   1.948
 7977SOL    HW124830   4.742   5.622   1.961
 7977SOL    HW224831   4.604   5.570   2.030
 7978SOL     OW24832   5.596   3.631   6.256
 7978SOL    HW124833   5.510   3.658   6.300
 7978SOL    HW224834   5.591   3.535   6.229
 7979SOL     OW24835   3.553   0.742   5.655
 7979SOL    HW124836   3.580   0.790   5.738
 7979SOL    HW224837   3.542   0.645   5.675
 7980SOL     OW24838   2.803   6.072   0.054
 7980SOL    HW124839   2.785   6.149   7.018
 7980SOL    HW224840   2.900   6.068   0.076
 7981SOL     OW24841   0.545   6.025   2.514
 7981SOL    HW124842   0.589   5.987   2.433
 7981SOL    HW224843   0.476   6.093   2.487
 7982SOL     OW24844   6.593   1.807   0.145
 7982SOL    HW124845   6.573   1.724   0.197
 7982SOL    HW224846   6.588   1.887   0.205
 7983SOL     OW24847   5.413   1.856   2.619
 7983SOL    HW124848   5.367   1.936   2.659
 7983SOL    HW224849   5.496   1.837   2.670
 7984SOL     OW24850   1.618   2.350   1.563
 7984SOL    HW124851   1.567   2.316   1.484
 7984SOL    HW224852   1.700   2.398   1.531
 7985SOL     OW24853   2.377   0.347   3.605
 7985SOL    HW124854   2.302   0.344   3.671
 7985SOL    HW224855   2.340   0.350   3.512
 7986SOL     OW24856   3.203   0.859   6.633
 7986SOL    HW124857   3.249   0.948   6.643
 7986SOL    HW224858   3.262   0.797   6.581
 7987SOL     OW24859   1.077   3.353   6.550
 7987SOL    HW124860   1.007   3.349   6.480
 7987SOL    HW224861   1.039   3.324   6.638
 7988SOL     OW24862   1.621   1.993   4.727
 7988SOL    HW124863   1.642   2.017   4.632
 7988SOL    HW224864   1.565   1.911   4.730
 7989SOL     OW24865   3.228   2.257   5.397
 7989SOL    HW124866   3.326   2.274   5.394
 7989SOL    HW224867   3.185   2.299   5.317
 7990SOL     OW24868   5.991   4.007   3.871
 7990SOL    HW124869   6.088   4.018   3.895
 7990SOL    HW224870   5.981   3.927   3.812
 7991SOL     OW24871   6.442   0.654   5.050
 7991SOL    HW124872   6.351   0.666   5.011
 7991SOL    HW224873   6.433   0.627   5.146
 7992SOL     OW24874   1.367   6.544   0.621
 7992SOL    HW124875   1.327   6.528   0.711
 7992SOL    HW224876   1.413   6.633   0.620
 7993SOL     OW24877   1.532   6.126   6.814
 7993SOL    HW124878   1.614   6.137   6.758
 7993SOL    HW224879   1.556   6.085   6.902
 7994SOL     OW24880   4.723   0.608   2.977
 7994SOL    HW124881   4.743   0.695   2.934
 7994SOL    HW224882   4.711   0.538   2.907
 7995SOL     OW24883   4.232   5.294   3.543
 7995SOL    HW124884   4.331   5.291   3.542
 7995SOL    HW224885   4.200   5.380   3.504
 7996SOL     OW24886   3.132   6.880   4.849
 7996SOL    HW124887   3.177   6.866   4.938
 7996SOL    HW224888   3.087   6.969   4.848
 7997SOL     OW24889   0.275   1.402   0.715
 7997SOL    HW124890   0.267   1.387   0.616
 7997SOL    HW224891   0.359   1.359   0.748
 7998SOL     OW24892   4.106   5.305   0.973
 7998SOL    HW124893   4.066   5.359   0.899
 7998SOL    HW224894   4.128   5.365   1.050
 7999SOL     OW24895   1.476   0.608   6.338
 7999SOL    HW124896   1.467   0.509   6.350
 7999SOL    HW224897   1.572   0.631   6.323
 8000SOL     OW24898   5.413   0.917   6.958
 8000SOL    HW124899   5.377   0.912   0.027
 8000SOL    HW224900   5.497   0.972   6.958
 8001SOL     OW24901   3.484   6.349   1.318
 8001SOL    HW124902   3.512   6.346   1.222
 8001SOL    HW224903   3.402   6.292   1.331
 8002SOL     OW24904   0.568   2.607   5.756
 8002SOL    HW124905   0.640   2.600   5.687
 8002SOL    HW224906   0.542   2.515   5.786
 8003SOL     OW24907   2.200   4.714   1.943
 8003SOL    HW124908   2.112   4.670   1.962
 8003SOL    HW224909   2.255   4.716   2.027
 8004SOL     OW24910   1.587   4.290   3.003
 8004SOL    HW124911   1.614   4.301   3.098
 8004SOL    HW224912   1.505   4.344   2.985
 8005SOL     OW24913   3.685   1.788   2.100
 8005SOL    HW124914   3.635   1.867   2.065
 8005SOL    HW224915   3.745   1.817   2.175
 8006SOL     OW24916   2.750   6.611   0.562
 8006SOL    HW124917   2.743   6.577   0.468
 8006SOL    HW224918   2.682   6.564   0.619
 8007SOL     OW24919   1.427   7.015   4.318
 8007SOL    HW124920   1.369   6.976   4.246
 8007SOL    HW224921   1.406   0.088   4.329
 8008SOL     OW24922   4.705   6.872   6.018
 8008SOL    HW124923   4.618   6.877   5.967
 8008SOL    HW224924   4.781   6.863   5.953
 8009SOL     OW24925   6.374   0.467   3.333
 8009SOL    HW124926   6.408   0.386   3.381
 8009SOL    HW224927   6.411   0.469   3.240
 8010SOL     OW24928   1.208   1.849   0.350
 8010SOL    HW124929   1.246   1.813   0.265
 8010SOL    HW224930   1.241   1.942   0.364
 8011SOL     OW24931   2.434   3.005   1.287
 8011SOL    HW124932   2.360   2.990   1.221
 8011SOL    HW224933   2.395   3.035   1.374
 8012SOL     OW24934   2.313   6.058   1.592
 8012SOL    HW124935   2.374   5.979   1.601
 8012SOL    HW224936   2.339   6.128   1.658
 8013SOL     OW24937   0.553   5.150   4.585
 8013SOL    HW124938   0.586   5.236   4.545
 8013SOL    HW224939   0.552   5.079   4.515
 8014SOL     OW24940   0.935   6.378   5.375
 8014SOL    HW124941   0.985   6.462   5.355
 8014SOL    HW224942   0.866   6.362   5.304
 8015SOL     OW24943   2.880   1.354   0.006
 8015SOL    HW124944   2.911   1.427   6.969
 8015SOL    HW224945   2.956   1.292   0.024
 8016SOL     OW24946   4.378   0.565   6.482
 8016SOL    HW124947   4.398   0.537   6.388
 8016SOL    HW224948   4.353   0.662   6.483
 8017SOL     OW24949   0.032   5.314   5.993
 8017SOL    HW124950   0.044   5.236   6.054
 8017SOL    HW224951   0.121   5.353   5.970
 8018SOL     OW24952   4.140   2.698   6.236
 8018SOL    HW124953   4.133   2.712   6.335
 8018SOL    HW224954   4.054   2.725   6.192
 8019SOL     OW24955   2.089   3.734   6.998
 8019SOL    HW124956   2.141   3.768   0.052
 8019SOL    HW224957   2.063   3.810   6.938
 8020SOL     OW24958   6.245   5.913   0.479
 8020SOL    HW124959   6.272   5.821   0.509
 8020SOL    HW224960   6.202   5.908   0.389
 8021SOL     OW24961   1.332   2.292   2.164
 8021SOL    HW124962   1.367   2.206   2.126
 8021SOL    HW224963   1.395   2.366   2.142
 8022SOL     OW24964   4.233   0.402   2.486
 8022SOL    HW124965   4.230   0.491   2.440
 8022SOL    HW224966   4.315   0.395   2.542
 8023SOL     OW24967   5.662   6.093   3.497
 8023SOL    HW124968   5.610   6.007   3.502
 8023SOL    HW224969   5.612   6.158   3.439
 8024SOL     OW24970   2.862   4.768   0.091
 8024SOL    HW124971   2.856   4.862   0.057
 8024SOL    HW224972   2.925   4.715   0.035
 8025SOL     OW24973   2.915   5.921   5.821
 8025SOL    HW124974   2.924   5.943   5.918
 8025SOL    HW224975   2.992   5.959   5.770
 8026SOL     OW24976   0.562   4.767   6.882
 8026SOL    HW124977   0.554   4.815   6.969
 8026SOL    HW224978   0.656   4.735   6.870
 8027SOL     OW24979   4.212   1.988   5.289
 8027SOL    HW124980   4.282   1.919   5.272
 8027SOL    HW224981   4.123   1.944   5.300
 8028SOL     OW24982   3.407   4.900   5.743
 8028SOL    HW124983   3.491   4.924   5.695
 8028SOL    HW224984   3.347   4.980   5.747
 8029SOL     OW24985   5.658   3.677   0.299
 8029SOL    HW124986   5.677   3.692   0.396
 8029SOL    HW224987   5.702   3.592   0.270
 8030SOL     OW24988   5.596   4.431   6.702
 8030SOL    HW124989   5.511   4.442   6.754
 8030SOL    HW224990   5.673   4.425   6.766
 8031SOL     OW24991   4.851   6.094   2.598
 8031SOL    HW124992   4.824   6.188   2.613
 8031SOL    HW224993   4.771   6.039   2.575
 8032SOL     OW24994   5.772   4.323   5.846
 8032SOL    HW124995   5.690   4.279   5.811
 8032SOL    HW224996   5.747   4.406   5.895
 8033SOL     OW24997   4.965   3.299   6.820
 8033SOL    HW124998   5.024   3.283   6.741
 8033SOL    HW224999   5.018   3.343   6.893
 8034SOL     OW25000   6.100   1.276   5.291
 8034SOL    HW125001   6.142   1.313   5.208
 8034SOL    HW225002   6.009   1.314   5.303
 8035SOL     OW25003   4.388   0.269   4.977
 8035SOL    HW125004   4.392   0.347   4.914
 8035SOL    HW225005   4.394   0.184   4.925
 8036SOL     OW25006   0.655   3.755   2.609
 8036SOL    HW125007   0.692   3.787   2.522
 8036SOL    HW225008   0.555   3.760   2.606
 8037SOL     OW25009   1.217   4.059   2.452
 8037SOL    HW125010   1.175   3.979   2.494
 8037SOL    HW225011   1.251   4.035   2.361
 8038SOL     OW25012   4.753   1.200   2.770
 8038SOL    HW125013   4.710   1.208   2.860
 8038SOL    HW225014   4.692   1.149   2.709
 8039SOL     OW25015   1.351   0.020   3.249
 8039SOL    HW125016   1.265   6.992   3.248
 8039SOL    HW225017   1.332   0.115   3.274
 8040SOL     OW25018   1.760   5.781   0.816
 8040SOL    HW125019   1.662   5.800   0.818
 8040SOL    HW225020   1.775   5.684   0.831
 8041SOL     OW25021   3.040   2.089   2.097
 8041SOL    HW125022   2.998   2.032   2.169
 8041SOL    HW225023   3.019   2.185   2.114
 8042SOL     OW25024   3.646   3.410   3.077
 8042SOL    HW125025   3.601   3.371   3.157
 8042SOL    HW225026   3.689   3.497   3.103
 8043SOL     OW25027   3.852   6.346   0.890
 8043SOL    HW125028   3.845   6.271   0.956
 8043SOL    HW225029   3.844   6.433   0.937
 8044SOL     OW25030   3.199   3.716   0.903
 8044SOL    HW125031   3.202   3.650   0.827
 8044SOL    HW225032   3.160   3.672   0.983
 8045SOL     OW25033   5.396   0.495   1.931
 8045SOL    HW125034   5.386   0.398   1.951
 8045SOL    HW225035   5.439   0.541   2.008
 8046SOL     OW25036   7.020   5.008   6.752
 8046SOL    HW125037   0.003   4.916   6.789
 8046SOL    HW225038   6.996   5.072   6.825
 8047SOL     OW25039   3.987   5.022   5.172
 8047SOL    HW125040   3.949   4.991   5.258
 8047SOL    HW225041   4.052   4.954   5.137
 8048SOL     OW25042   4.964   0.858   6.044
 8048SOL    HW125043   4.972   0.939   6.101
 8048SOL    HW225044   5.054   0.827   6.015
 8049SOL     OW25045   1.293   0.608   1.446
 8049SOL    HW125046   1.196   0.590   1.460
 8049SOL    HW225047   1.309   0.634   1.351
 8050SOL     OW25048   0.442   4.706   2.005
 8050SOL    HW125049   0.426   4.624   1.951
 8050SOL    HW225050   0.390   4.782   1.966
 8051SOL     OW25051   4.882   6.059   3.296
 8051SOL    HW125052   4.940   6.104   3.363
 8051SOL    HW225053   4.920   6.073   3.204
 8052SOL     OW25054   3.576   1.280   1.683
 8052SOL    HW125055   3.533   1.328   1.607
 8052SOL    HW225056   3.673   1.305   1.689
 8053SOL     OW25057   4.015   3.816   2.808
 8053SOL    HW125058   3.977   3.874   2.879
 8053SOL    HW225059   4.085   3.866   2.757
 8054SOL     OW25060   5.600   6.483   4.683
 8054SOL    HW125061   5.547   6.411   4.639
 8054SOL    HW225062   5.537   6.552   4.720
 8055SOL     OW25063   0.473   0.266   6.269
 8055SOL    HW125064   0.539   0.340   6.264
 8055SOL    HW225065   0.512   0.184   6.225
 8056SOL     OW25066   4.162   1.532   4.031
 8056SOL    HW125067   4.169   1.535   4.131
 8056SOL    HW225068   4.141   1.624   3.996
 8057SOL     OW25069   2.293   2.128   2.681
 8057SOL    HW125070   2.388   2.132   2.714
 8057SOL    HW225071   2.237   2.078   2.747
 8058SOL     OW25072   3.500   0.340   2.773
 8058SOL    HW125073   3.431   0.300   2.833
 8058SOL    HW225074   3.461   0.420   2.727
 8059SOL     OW25075   4.354   2.295   4.422
 8059SOL    HW125076   4.347   2.302   4.521
 8059SOL    HW225077   4.263   2.283   4.383
 8060SOL     OW25078   0.345   1.211   4.132
 8060SOL    HW125079   0.394   1.164   4.205
 8060SOL    HW225080   0.352   1.310   4.145
 8061SOL     OW25081   6.264   7.012   1.648
 8061SOL    HW125082   6.184   6.952   1.646
 8061SOL    HW225083   6.297   0.001   1.554
 8062SOL     OW25084   2.904   4.861   4.453
 8062SOL    HW125085   2.925   4.871   4.550
 8062SOL    HW225086   2.805   4.868   4.439
 8063SOL     OW25087   2.042   2.975   0.771
 8063SOL    HW125088   2.141   2.975   0.752
 8063SOL    HW225089   2.027   2.962   0.869
 8064SOL     OW25090   0.199   5.274   1.769
 8064SOL    HW125091   0.185   5.245   1.864
 8064SOL    HW225092   0.295   5.260   1.744
 8065SOL     OW25093   4.406   6.606   4.079
 8065SOL    HW125094   4.414   6.544   4.001
 8065SOL    HW225095   4.340   6.679   4.057
 8066SOL     OW25096   0.871   1.452   6.251
 8066SOL    HW125097   0.860   1.513   6.329
 8066SOL    HW225098   0.955   1.399   6.262
 8067SOL     OW25099   4.689   2.956   1.630
 8067SOL    HW125100   4.643   2.981   1.716
 8067SOL    HW225101   4.649   3.007   1.554
 8068SOL     OW25102   6.183   5.200   6.575
 8068SOL    HW125103   6.152   5.187   6.481
 8068SOL    HW225104   6.185   5.112   6.622
 8069SOL     OW25105   1.924   5.992   1.284
 8069SOL    HW125106   1.871   5.915   1.319
 8069SOL    HW225107   1.997   6.015   1.349
 8070SOL     OW25108   2.301   3.596   0.560
 8070SOL    HW125109   2.236   3.541   0.507
 8070SOL    HW225110   2.374   3.537   0.594
 8071SOL     OW25111   2.972   6.406   4.994
 8071SOL    HW125112   3.054   6.422   4.939
 8071SOL    HW225113   2.975   6.463   5.076
 8072SOL     OW25114   3.369   1.067   0.147
 8072SOL    HW125115   3.460   1.053   0.110
 8072SOL    HW225116   3.319   0.980   0.146
 8073SOL     OW25117   4.421   6.815   6.327
 8073SOL    HW125118   4.330   6.793   6.292
 8073SOL    HW225119   4.420   6.808   6.427
 8074SOL     OW25120   2.968   2.927   6.602
 8074SOL    HW125121   3.033   2.999   6.579
 8074SOL    HW225122   2.967   2.915   6.702
 8075SOL     OW25123   6.569   0.837   1.378
 8075SOL    HW125124   6.611   0.889   1.453
 8075SOL    HW225125   6.474   0.866   1.367
 8076SOL     OW25126   4.447   2.246   5.645
 8076SOL    HW125127   4.529   2.294   5.613
 8076SOL    HW225128   4.459   2.147   5.632
 8077SOL     OW25129   1.150   6.002   1.837
 8077SOL    HW125130   1.235   6.043   1.869
 8077SOL    HW225131   1.110   6.059   1.765
 8078SOL     OW25132   5.995   1.565   0.829
 8078SOL    HW125133   5.940   1.582   0.747
 8078SOL    HW225134   6.020   1.468   0.833
 8079SOL     OW25135   4.984   1.479   3.607
 8079SOL    HW125136   4.934   1.461   3.692
 8079SOL    HW225137   5.082   1.479   3.627
 8080SOL     OW25138   0.690   4.081   0.124
 8080SOL    HW125139   0.593   4.099   0.142
 8080SOL    HW225140   0.702   3.987   0.092
 8081SOL     OW25141   4.955   0.230   5.051
 8081SOL    HW125142   4.955   0.315   5.103
 8081SOL    HW225143   4.861   0.208   5.024
 8082SOL     OW25144   5.890   0.651   1.834
 8082SOL    HW125145   5.985   0.650   1.803
 8082SOL    HW225146   5.883   0.604   1.922
 8083SOL     OW25147   5.269   2.664   2.241
 8083SOL    HW125148   5.326   2.745   2.232
 8083SOL    HW225149   5.213   2.652   2.159
 8084SOL     OW25150   5.464   7.018   1.043
 8084SOL    HW125151   5.405   6.938   1.027
 8084SOL    HW225152   5.543   6.990   1.098
 8085SOL     OW25153   5.934   0.145   2.817
 8085SOL    HW125154   6.018   0.092   2.802
 8085SOL    HW225155   5.855   0.084   2.816
 8086SOL     OW25156   4.394   0.726   3.820
 8086SOL    HW125157   4.339   0.665   3.762
 8086SOL    HW225158   4.347   0.813   3.829
 8087SOL     OW25159   2.172   1.847   1.447
 8087SOL    HW125160   2.168   1.780   1.521
 8087SOL    HW225161   2.130   1.933   1.477
 8088SOL     OW25162   5.865   1.762   1.771
 8088SOL    HW125163   5.852   1.742   1.674
 8088SOL    HW225164   5.777   1.783   1.813
 8089SOL     OW25165   5.466   2.709   0.680
 8089SOL    HW125166   5.487   2.624   0.633
 8089SOL    HW225167   5.522   2.783   0.643
 8090SOL     OW25168   4.551   2.054   6.317
 8090SOL    HW125169   4.469   2.003   6.292
 8090SOL    HW225170   4.532   2.152   6.314
 8091SOL     OW25171   2.480   3.632   6.418
 8091SOL    HW125172   2.441   3.674   6.500
 8091SOL    HW225173   2.440   3.675   6.337
 8092SOL     OW25174   0.982   1.577   4.940
 8092SOL    HW125175   0.908   1.612   4.883
 8092SOL    HW225176   1.051   1.648   4.954
 8093SOL     OW25177   5.095   5.762   1.787
 8093SOL    HW125178   5.171   5.758   1.851
 8093SOL    HW225179   5.110   5.837   1.722
 8094SOL     OW25180   2.099   3.987   4.500
 8094SOL    HW125181   2.006   4.016   4.477
 8094SOL    HW225182   2.125   4.027   4.588
 8095SOL     OW25183   5.407   3.748   3.825
 8095SOL    HW125184   5.350   3.687   3.880
 8095SOL    HW225185   5.471   3.694   3.770
 8096SOL     OW25186   3.210   5.727   4.061
 8096SOL    HW125187   3.232   5.630   4.068
 8096SOL    HW225188   3.246   5.763   3.975
 8097SOL     OW25189   5.213   0.509   3.666
 8097SOL    HW125190   5.237   0.418   3.702
 8097SOL    HW225191   5.295   0.565   3.662
 8098SOL     OW25192   1.739   6.752   4.636
 8098SOL    HW125193   1.812   6.790   4.693
 8098SOL    HW225194   1.680   6.826   4.605
 8099SOL     OW25195   6.006   0.525   4.354
 8099SOL    HW125196   6.033   0.459   4.424
 8099SOL    HW225197   5.983   0.477   4.270
 8100SOL     OW25198   0.137   6.825   0.062
 8100SOL    HW125199   0.185   6.898   0.013
 8100SOL    HW225200   0.057   6.797   0.009
 8101SOL     OW25201   2.223   0.847   4.569
 8101SOL    HW125202   2.187   0.923   4.623
 8101SOL    HW225203   2.163   0.832   4.490
 8102SOL     OW25204   1.428   5.103   5.605
 8102SOL    HW125205   1.509   5.057   5.640
 8102SOL    HW225206   1.384   5.155   5.678
 8103SOL     OW25207   4.424   1.097   0.548
 8103SOL    HW125208   4.365   1.158   0.602
 8103SOL    HW225209   4.427   1.129   0.453
 8104SOL     OW25210   2.987   6.466   5.845
 8104SOL    HW125211   3.041   6.430   5.921
 8104SOL    HW225212   2.913   6.524   5.881
 8105SOL     OW25213   1.733   1.847   3.047
 8105SOL    HW125214   1.635   1.826   3.054
 8105SOL    HW225215   1.761   1.902   3.125
 8106SOL     OW25216   2.484   5.865   3.679
 8106SOL    HW125217   2.411   5.858   3.747
 8106SOL    HW225218   2.451   5.916   3.600
 8107SOL     OW25219   1.387   5.755   5.496
 8107SOL    HW125220   1.317   5.700   5.450
 8107SOL    HW225221   1.364   5.764   5.593
 8108SOL     OW25222   5.594   2.534   5.045
 8108SOL    HW125223   5.608   2.488   5.133
 8108SOL    HW225224   5.501   2.515   5.013
 8109SOL     OW25225   1.224   3.557   4.604
 8109SOL    HW125226   1.189   3.615   4.677
 8109SOL    HW225227   1.259   3.614   4.530
 8110SOL     OW25228   3.605   6.807   0.594
 8110SOL    HW125229   3.509   6.779   0.599
 8110SOL    HW225230   3.613   6.902   0.625
 8111SOL     OW25231   3.794   0.164   5.802
 8111SOL    HW125232   3.762   0.162   5.707
 8111SOL    HW225233   3.750   0.091   5.853
 8112SOL     OW25234   1.713   1.239   5.089
 8112SOL    HW125235   1.778   1.257   5.162
 8112SOL    HW225236   1.627   1.204   5.128
 8113SOL     OW25237   2.499   3.302   7.005
 8113SOL    HW125238   2.444   3.380   6.974
 8113SOL    HW225239   2.563   3.276   6.933
 8114SOL     OW25240   2.059   3.127   2.153
 8114SOL    HW125241   2.071   3.064   2.230
 8114SOL    HW225242   2.073   3.221   2.185
 8115SOL     OW25243   4.149   1.562   1.557
 8115SOL    HW125244   4.189   1.474   1.583
 8115SOL    HW225245   4.050   1.553   1.549
 8116SOL     OW25246   4.544   6.867   4.669
 8116SOL    HW125247   4.579   6.776   4.689
 8116SOL    HW225248   4.549   6.885   4.571
 8117SOL     OW25249   2.258   1.397   3.908
 8117SOL    HW125250   2.287   1.493   3.920
 8117SOL    HW225251   2.198   1.371   3.984
 8118SOL     OW25252   0.386   3.391   5.980
 8118SOL    HW125253   0.326   3.329   5.929
 8118SOL    HW225254   0.370   3.485   5.951
 8119SOL     OW25255   0.028   5.631   4.928
 8119SOL    HW125256   0.079   5.549   4.953
 8119SOL    HW225257   6.956   5.619   4.953
 8120SOL     OW25258   3.678   4.578   6.596
 8120SOL    HW125259   3.725   4.593   6.684
 8120SOL    HW225260   3.737   4.526   6.535
 8121SOL     OW25261   6.491   5.502   3.042
 8121SOL    HW125262   6.435   5.566   3.094
 8121SOL    HW225263   6.556   5.457   3.102
 8122SOL     OW25264   0.547   5.376   2.633
 8122SOL    HW125265   0.592   5.441   2.695
 8122SOL    HW225266   0.616   5.330   2.578
 8123SOL     OW25267   0.276   0.073   0.213
 8123SOL    HW125268   0.312   7.004   0.213
 8123SOL    HW225269   0.279   0.110   0.306
 8124SOL     OW25270   0.561   6.170   1.268
 8124SOL    HW125271   0.581   6.260   1.306
 8124SOL    HW225272   0.644   6.131   1.229
 8125SOL     OW25273   7.017   5.727   3.349
 8125SOL    HW125274   6.923   5.750   3.374
 8125SOL    HW225275   7.018   5.687   3.257
 8126SOL     OW25276   6.430   3.816   2.481
 8126SOL    HW125277   6.380   3.900   2.499
 8126SOL    HW225278   6.499   3.832   2.410
 8127SOL     OW25279   2.309   5.912   0.737
 8127SOL    HW125280   2.353   5.884   0.652
 8127SOL    HW225281   2.216   5.873   0.741
 8128SOL     OW25282   3.004   2.866   0.321
 8128SOL    HW125283   2.904   2.870   0.323
 8128SOL    HW225284   3.033   2.795   0.257
 8129SOL     OW25285   4.700   1.289   5.862
 8129SOL    HW125286   4.714   1.215   5.796
 8129SOL    HW225287   4.602   1.306   5.873
 8130SOL     OW25288   0.948   4.831   6.174
 8130SOL    HW125289   0.907   4.745   6.145
 8130SOL    HW225290   0.884   4.880   6.234
 8131SOL     OW25291   2.468   0.761   0.518
 8131SOL    HW125292   2.432   0.811   0.597
 8131SOL    HW225293   2.517   0.825   0.458
 8132SOL     OW25294   6.136   6.169   6.195
 8132SOL    HW125295   6.104   6.078   6.169
 8132SOL    HW225296   6.193   6.207   6.122
 8133SOL     OW25297   3.645   4.905   2.211
 8133SOL    HW125298   3.647   4.847   2.130
 8133SOL    HW225299   3.551   4.937   2.227
 8134SOL     OW25300   1.948   1.143   4.438
 8134SOL    HW125301   1.959   1.230   4.391
 8134SOL    HW225302   2.018   1.134   4.509
 8135SOL     OW25303   2.386   5.468   2.435
 8135SOL    HW125304   2.440   5.508   2.361
 8135SOL    HW225305   2.443   5.403   2.487
 8136SOL     OW25306   4.889   4.656   2.635
 8136SOL    HW125307   4.939   4.612   2.560
 8136SOL    HW225308   4.850   4.742   2.602
 8137SOL     OW25309   2.343   1.580   4.493
 8137SOL    HW125310   2.401   1.626   4.427
 8137SOL    HW225311   2.299   1.502   4.450
 8138SOL     OW25312   6.032   2.069   1.389
 8138SOL    HW125313   6.008   2.048   1.294
 8138SOL    HW225314   6.089   1.995   1.426
 8139SOL     OW25315   1.687   2.532   3.082
 8139SOL    HW125316   1.745   2.511   3.004
 8139SOL    HW225317   1.609   2.469   3.084
 8140SOL     OW25318   3.385   0.322   0.239
 8140SOL    HW125319   3.467   0.328   0.296
 8140SOL    HW225320   3.402   0.261   0.162
 8141SOL     OW25321   5.036   6.888   5.233
 8141SOL    HW125322   5.054   6.792   5.208
 8141SOL    HW225323   5.119   6.929   5.270
 8142SOL     OW25324   1.783   5.149   0.954
 8142SOL    HW125325   1.742   5.160   1.045
 8142SOL    HW225326   1.762   5.058   0.919
 8143SOL     OW25327   5.004   4.873   1.068
 8143SOL    HW125328   4.942   4.890   0.992
 8143SOL    HW225329   5.029   4.776   1.070
 8144SOL     OW25330   1.355   6.009   5.367
 8144SOL    HW125331   1.422   6.070   5.410
 8144SOL    HW225332   1.362   5.918   5.409
 8145SOL     OW25333   4.732   4.603   0.864
 8145SOL    HW125334   4.705   4.566   0.775
 8145SOL    HW225335   4.738   4.529   0.931
 8146SOL     OW25336   6.642   6.928   5.504
 8146SOL    HW125337   6.598   6.841   5.526
 8146SOL    HW225338   6.701   6.915   5.423
 8147SOL     OW25339   6.920   0.875   0.336
 8147SOL    HW125340   6.895   0.782   0.310
 8147SOL    HW225341   7.001   0.872   0.395
 8148SOL     OW25342   4.106   4.712   6.792
 8148SOL    HW125343   4.146   4.804   6.794
 8148SOL    HW225344   4.094   4.679   6.886
 8149SOL     OW25345   1.490   6.214   4.080
 8149SOL    HW125346   1.407   6.217   4.023
 8149SOL    HW225347   1.468   6.244   4.172
 8150SOL     OW25348   1.003   3.684   1.090
 8150SOL    HW125349   0.939   3.725   1.025
 8150SOL    HW225350   1.087   3.739   1.094
 8151SOL     OW25351   5.580   5.747   3.941
 8151SOL    HW125352   5.676   5.775   3.931
 8151SOL    HW225353   5.561   5.672   3.878
 8152SOL     OW25354   5.529   2.635   3.351
 8152SOL    HW125355   5.470   2.637   3.432
 8152SOL    HW225356   5.476   2.606   3.272
 8153SOL     OW25357   0.372   0.804   3.150
 8153SOL    HW125358   0.333   0.852   3.072
 8153SOL    HW225359   0.356   0.856   3.233
 8154SOL     OW25360   3.504   0.156   3.175
 8154SOL    HW125361   3.496   0.237   3.233
 8154SOL    HW225362   3.598   0.150   3.139
 8155SOL     OW25363   1.029   4.260   2.388
 8155SOL    HW125364   1.110   4.212   2.422
 8155SOL    HW225365   0.949   4.233   2.442
 8156SOL     OW25366   4.841   6.098   1.613
 8156SOL    HW125367   4.808   6.006   1.632
 8156SOL    HW225368   4.857   6.108   1.515
 8157SOL     OW25369   6.067   4.206   5.823
 8157SOL    HW125370   5.982   4.258   5.834
 8157SOL    HW225371   6.145   4.268   5.828
 8158SOL     OW25372   5.125   4.705   6.887
 8158SOL    HW125373   5.206   4.665   6.930
 8158SOL    HW225374   5.113   4.799   6.918
 8159SOL     OW25375   3.835   6.149   5.451
 8159SOL    HW125376   3.755   6.205   5.475
 8159SOL    HW225377   3.805   6.055   5.436
 8160SOL     OW25378   4.357   0.249   3.811
 8160SOL    HW125379   4.415   0.180   3.855
 8160SOL    HW225380   4.272   0.206   3.781
 8161SOL     OW25381   5.918   4.021   6.636
 8161SOL    HW125382   5.887   3.976   6.720
 8161SOL    HW225383   5.883   3.971   6.557
 8162SOL     OW25384   0.157   5.215   6.600
 8162SOL    HW125385   0.116   5.291   6.550
 8162SOL    HW225386   0.097   5.136   6.596
 8163SOL     OW25387   2.591   5.037   5.953
 8163SOL    HW125388   2.513   4.980   5.979
 8163SOL    HW225389   2.628   5.081   6.035
 8164SOL     OW25390   4.634   1.240   6.904
 8164SOL    HW125391   4.702   1.184   6.951
 8164SOL    HW225392   4.572   1.281   6.972
 8165SOL     OW25393   6.781   3.893   6.459
 8165SOL    HW125394   6.691   3.888   6.416
 8165SOL    HW225395   6.818   3.800   6.471
 8166SOL     OW25396   2.214   1.253   3.500
 8166SOL    HW125397   2.180   1.322   3.564
 8166SOL    HW225398   2.219   1.293   3.408
 8167SOL     OW25399   0.414   0.777   3.669
 8167SOL    HW125400   0.395   0.714   3.594
 8167SOL    HW225401   0.465   0.730   3.741
 8168SOL     OW25402   2.298   7.016   1.450
 8168SOL    HW125403   2.341   6.943   1.504
 8168SOL    HW225404   2.369   0.045   1.404
 8169SOL     OW25405   4.028   2.176   0.307
 8169SOL    HW125406   3.932   2.170   0.336
 8169SOL    HW225407   4.041   2.256   0.249
 8170SOL     OW25408   6.636   4.666   1.484
 8170SOL    HW125409   6.733   4.688   1.479
 8170SOL    HW225410   6.621   4.573   1.448
 8171SOL     OW25411   1.865   1.419   6.505
 8171SOL    HW125412   1.767   1.416   6.525
 8171SOL    HW225413   1.888   1.507   6.462
 8172SOL     OW25414   0.076   2.391   1.549
 8172SOL    HW125415   0.048   2.378   1.644
 8172SOL    HW225416   0.033   2.321   1.491
 8173SOL     OW25417   6.077   1.777   2.463
 8173SOL    HW125418   6.016   1.853   2.439
 8173SOL    HW225419   6.171   1.801   2.439
 8174SOL     OW25420   1.010   6.894   2.793
 8174SOL    HW125421   1.096   6.944   2.780
 8174SOL    HW225422   1.008   6.854   2.885
 8175SOL     OW25423   0.482   2.700   4.589
 8175SOL    HW125424   0.507   2.603   4.596
 8175SOL    HW225425   0.386   2.711   4.615
 8176SOL     OW25426   2.552   4.483   1.871
 8176SOL    HW125427   2.583   4.420   1.800
 8176SOL    HW225428   2.618   4.558   1.881
 8177SOL     OW25429   4.282   1.257   3.539
 8177SOL    HW125430   4.276   1.341   3.484
 8177SOL    HW225431   4.276   1.280   3.636
 8178SOL     OW25432   3.582   6.351   1.075
 8178SOL    HW125433   3.646   6.428   1.074
 8178SOL    HW225434   3.499   6.376   1.025
 8179SOL     OW25435   5.842   1.394   4.970
 8179SOL    HW125436   5.849   1.493   4.979
 8179SOL    HW225437   5.846   1.369   4.873
 8180SOL     OW25438   5.742   0.955   6.995
 8180SOL    HW125439   5.688   1.004   6.928
 8180SOL    HW225440   5.764   1.015   0.048
 8181SOL     OW25441   1.224   0.926   0.907
 8181SOL    HW125442   1.271   0.970   0.830
 8181SOL    HW225443   1.224   0.987   0.986
 8182SOL     OW25444   3.479   3.633   4.704
 8182SOL    HW125445   3.538   3.626   4.624
 8182SOL    HW225446   3.421   3.714   4.696
 8183SOL     OW25447   6.141   2.227   4.370
 8183SOL    HW125448   6.174   2.300   4.310
 8183SOL    HW225449   6.190   2.142   4.348
 8184SOL     OW25450   0.890   0.117   0.699
 8184SOL    HW125451   0.920   0.180   0.771
 8184SOL    HW225452   0.949   0.129   0.618
 8185SOL     OW25453   2.082   0.350   0.418
 8185SOL    HW125454   2.071   0.268   0.474
 8185SOL    HW225455   2.116   0.325   0.327
 8186SOL     OW25456   2.651   4.283   5.534
 8186SOL    HW125457   2.717   4.344   5.491
 8186SOL    HW225458   2.577   4.263   5.469
 8187SOL     OW25459   2.254   0.643   4.787
 8187SOL    HW125460   2.242   0.676   4.694
 8187SOL    HW225461   2.296   0.714   4.843
 8188SOL     OW25462   4.911   2.678   3.646
 8188SOL    HW125463   4.823   2.631   3.654
 8188SOL    HW225464   4.928   2.701   3.550
 8189SOL     OW25465   5.460   5.765   2.144
 8189SOL    HW125466   5.546   5.716   2.127
 8189SOL    HW225467   5.399   5.707   2.198
 8190SOL     OW25468   4.853   4.174   4.108
 8190SOL    HW125469   4.932   4.163   4.169
 8190SOL    HW225470   4.792   4.243   4.145
 8191SOL     OW25471   4.341   5.440   2.493
 8191SOL    HW125472   4.242   5.440   2.506
 8191SOL    HW225473   4.369   5.352   2.454
 8192SOL     OW25474   1.264   5.844   2.641
 8192SOL    HW125475   1.255   5.836   2.740
 8192SOL    HW225476   1.253   5.940   2.614
 8193SOL     OW25477   5.752   4.776   5.207
 8193SOL    HW125478   5.832   4.719   5.224
 8193SOL    HW225479   5.727   4.824   5.291
 8194SOL     OW25480   4.819   0.892   0.848
 8194SOL    HW125481   4.832   0.819   0.781
 8194SOL    HW225482   4.890   0.961   0.836
 8195SOL     OW25483   6.449   0.467   3.056
 8195SOL    HW125484   6.448   0.565   3.035
 8195SOL    HW225485   6.542   0.432   3.047
 8196SOL     OW25486   4.427   6.650   0.274
 8196SOL    HW125487   4.356   6.670   0.341
 8196SOL    HW225488   4.515   6.637   0.320
 8197SOL     OW25489   3.429   1.640   1.052
 8197SOL    HW125490   3.355   1.581   1.085
 8197SOL    HW225491   3.483   1.590   0.984
 8198SOL     OW25492   3.805   6.658   2.550
 8198SOL    HW125493   3.801   6.729   2.480
 8198SOL    HW225494   3.726   6.668   2.611
 8199SOL     OW25495   5.676   3.641   5.567
 8199SOL    HW125496   5.610   3.710   5.597
 8199SOL    HW225497   5.755   3.687   5.526
 8200SOL     OW25498   5.953   4.714   1.567
 8200SOL    HW125499   6.040   4.734   1.612
 8200SOL    HW225500   5.968   4.655   1.488
 8201SOL     OW25501   6.853   0.993   5.133
 8201SOL    HW125502   6.924   1.053   5.094
 8201SOL    HW225503   6.884   0.959   5.222
 8202SOL     OW25504   0.421   5.390   3.434
 8202SOL    HW125505   0.400   5.355   3.343
 8202SOL    HW225506   0.340   5.433   3.474
 8203SOL     OW25507   2.220   2.157   6.921
 8203SOL    HW125508   2.272   2.236   6.953
 8203SOL    HW225509   2.185   2.175   6.828
 8204SOL     OW25510   3.417   4.179   0.265
 8204SOL    HW125511   3.376   4.260   0.306
 8204SOL    HW225512   3.346   4.110   0.248
 8205SOL     OW25513   6.706   3.954   6.814
 8205SOL    HW125514   6.668   3.997   6.732
 8205SOL    HW225515   6.634   3.900   6.859
 8206SOL     OW25516   4.730   2.295   6.711
 8206SOL    HW125517   4.654   2.330   6.658
 8206SOL    HW225518   4.739   2.347   6.796
 8207SOL     OW25519   3.364   3.073   4.442
 8207SOL    HW125520   3.265   3.087   4.436
 8207SOL    HW225521   3.407   3.111   4.360
 8208SOL     OW25522   1.224   0.968   1.237
 8208SOL    HW125523   1.178   1.035   1.179
 8208SOL    HW225524   1.156   0.919   1.291
 8209SOL     OW25525   0.435   0.617   4.894
 8209SOL    HW125526   0.337   0.602   4.907
 8209SOL    HW225527   0.485   0.532   4.909
 8210SOL     OW25528   2.349   2.381   0.482
 8210SOL    HW125529   2.395   2.342   0.562
 8210SOL    HW225530   2.250   2.373   0.495
 8211SOL     OW25531   3.948   4.491   1.543
 8211SOL    HW125532   3.955   4.493   1.444
 8211SOL    HW225533   3.890   4.566   1.574
 8212SOL     OW25534   1.286   2.389   2.687
 8212SOL    HW125535   1.383   2.375   2.665
 8212SOL    HW225536   1.230   2.367   2.607
 8213SOL     OW25537   0.121   4.608   1.611
 8213SOL    HW125538   0.181   4.687   1.612
 8213SOL    HW225539   0.112   4.572   1.705
 8214SOL     OW25540   6.473   5.030   3.785
 8214SOL    HW125541   6.470   4.960   3.714
 8214SOL    HW225542   6.492   4.987   3.873
 8215SOL     OW25543   3.788   5.882   5.399
 8215SOL    HW125544   3.816   5.827   5.321
 8215SOL    HW225545   3.727   5.829   5.458
 8216SOL     OW25546   5.606   5.719   4.268
 8216SOL    HW125547   5.619   5.665   4.184
 8216SOL    HW225548   5.625   5.815   4.250
 8217SOL     OW25549   1.593   4.886   0.429
 8217SOL    HW125550   1.616   4.881   0.332
 8217SOL    HW225551   1.673   4.915   0.481
 8218SOL     OW25552   6.966   0.204   6.462
 8218SOL    HW125553   6.900   0.210   6.386
 8218SOL    HW225554   0.034   0.213   6.426
 8219SOL     OW25555   4.539   2.158   0.264
 8219SOL    HW125556   4.552   2.125   0.357
 8219SOL    HW225557   4.542   2.081   0.201
 8220SOL     OW25558   3.792   3.110   3.411
 8220SOL    HW125559   3.887   3.124   3.439
 8220SOL    HW225560   3.751   3.037   3.465
 8221SOL     OW25561   5.584   6.067   4.594
 8221SOL    HW125562   5.677   6.088   4.565
 8221SOL    HW225563   5.520   6.092   4.521
 8222SOL     OW25564   5.397   1.496   2.313
 8222SOL    HW125565   5.319   1.551   2.343
 8222SOL    HW225566   5.466   1.493   2.386
 8223SOL     OW25567   1.546   4.574   5.932
 8223SOL    HW125568   1.566   4.484   5.895
 8223SOL    HW225569   1.447   4.584   5.945
 8224SOL     OW25570   6.669   1.038   2.766
 8224SOL    HW125571   6.575   1.047   2.799
 8224SOL    HW225572   6.683   1.099   2.688
 8225SOL     OW25573   3.634   1.047   6.704
 8225SOL    HW125574   3.695   1.116   6.743
 8225SOL    HW225575   3.664   0.956   6.732
 8226SOL     OW25576   4.276   6.503   1.707
 8226SOL    HW125577   4.204   6.475   1.643
 8226SOL    HW225578   4.238   6.508   1.799
 8227SOL     OW25579   6.392   2.219   3.581
 8227SOL    HW125580   6.467   2.255   3.526
 8227SOL    HW225581   6.337   2.157   3.525
 8228SOL     OW25582   6.666   1.785   5.322
 8228SOL    HW125583   6.695   1.694   5.351
 8228SOL    HW225584   6.568   1.784   5.302
 8229SOL     OW25585   3.578   3.862   1.069
 8229SOL    HW125586   3.529   3.948   1.078
 8229SOL    HW225587   3.515   3.786   1.082
 8230SOL     OW25588   3.895   6.920   4.912
 8230SOL    HW125589   3.987   6.930   4.873
 8230SOL    HW225590   3.886   6.980   4.992
 8231SOL     OW25591   4.196   4.936   0.553
 8231SOL    HW125592   4.134   4.940   0.631
 8231SOL    HW225593   4.164   4.998   0.481
 8232SOL     OW25594   4.852   1.445   1.320
 8232SOL    HW125595   4.809   1.534   1.309
 8232SOL    HW225596   4.836   1.389   1.239
 8233SOL     OW25597   1.287   6.214   6.802
 8233SOL    HW125598   1.363   6.150   6.810
 8233SOL    HW225599   1.293   6.263   6.715
 8234SOL     OW25600   2.742   4.194   6.733
 8234SOL    HW125601   2.839   4.187   6.754
 8234SOL    HW225602   2.727   4.269   6.669
 8235SOL     OW25603   0.791   3.780   0.240
 8235SOL    HW125604   0.704   3.778   0.291
 8235SOL    HW225605   0.854   3.714   0.280
 8236SOL     OW25606   0.148   4.542   6.994
 8236SOL    HW125607   0.091   4.542   0.052
 8236SOL    HW225608   0.244   4.552   7.020
 8237SOL     OW25609   4.311   6.752   4.749
 8237SOL    HW125610   4.342   6.671   4.799
 8237SOL    HW225611   4.390   6.797   4.708
 8238SOL     OW25612   0.832   5.094   6.782
 8238SOL    HW125613   0.800   5.171   6.727
 8238SOL    HW225614   0.924   5.114   6.818
 8239SOL     OW25615   6.260   0.761   5.495
 8239SOL    HW125616   6.196   0.714   5.555
 8239SOL    HW225617   6.289   0.847   5.537
 8240SOL     OW25618   3.362   3.979   2.210
 8240SOL    HW125619   3.418   4.060   2.193
 8240SOL    HW225620   3.359   3.921   2.128
 8241SOL     OW25621   4.157   0.486   0.132
 8241SOL    HW125622   4.147   0.421   0.057
 8241SOL    HW225623   4.067   0.523   0.156
 8242SOL     OW25624   0.320   5.102   5.830
 8242SOL    HW125625   0.276   5.127   5.743
 8242SOL    HW225626   0.322   5.002   5.838
 8243SOL     OW25627   0.357   3.175   0.541
 8243SOL    HW125628   0.312   3.199   0.455
 8243SOL    HW225629   0.405   3.088   0.530
 8244SOL     OW25630   0.781   0.003   4.523
 8244SOL    HW125631   0.800   6.937   4.561
 8244SOL    HW225632   0.688   0.005   4.487
 8245SOL     OW25633   4.218   2.282   2.876
 8245SOL    HW125634   4.125   2.247   2.860
 8245SOL    HW225635   4.256   2.316   2.790
 8246SOL     OW25636   0.859   3.038   5.909
 8246SOL    HW125637   0.831   2.943   5.924
 8246SOL    HW225638   0.826   3.069   5.820
 8247SOL     OW25639   1.094   0.070   2.438
 8247SOL    HW125640   1.132   7.002   2.444
 8247SOL    HW225641   1.163   0.133   2.402
 8248SOL     OW25642   6.241   5.278   4.500
 8248SOL    HW125643   6.330   5.320   4.480
 8248SOL    HW225644   6.241   5.242   4.593
 8249SOL     OW25645   1.514   2.965   4.625
 8249SOL    HW125646   1.429   2.955   4.677
 8249SOL    HW225647   1.555   3.054   4.645
 8250SOL     OW25648   3.575   4.134   2.110
 8250SOL    HW125649   3.583   4.205   2.180
 8250SOL    HW225650   3.502   4.158   2.046
 8251SOL     OW25651   5.860   3.398   3.564
 8251SOL    HW125652   5.848   3.366   3.657
 8251SOL    HW225653   5.780   3.373   3.509
 8252SOL     OW25654   3.344   1.671   5.373
 8252SOL    HW125655   3.303   1.695   5.285
 8252SOL    HW225656   3.323   1.741   5.441
 8253SOL     OW25657   4.777   4.537   5.764
 8253SOL    HW125658   4.819   4.602   5.828
 8253SOL    HW225659   4.721   4.586   5.698
 8254SOL     OW25660   4.727   4.499   5.065
 8254SOL    HW125661   4.772   4.572   5.014
 8254SOL    HW225662   4.793   4.429   5.091
 8255SOL     OW25663   2.354   6.764   4.929
 8255SOL    HW125664   2.317   6.674   4.905
 8255SOL    HW225665   2.347   6.825   4.850
 8256SOL     OW25666   6.208   0.065   2.513
 8256SOL    HW125667   6.224   0.161   2.537
 8256SOL    HW225668   6.175   0.016   2.593
 8257SOL     OW25669   6.264   3.688   3.568
 8257SOL    HW125670   6.286   3.624   3.642
 8257SOL    HW225671   6.311   3.775   3.585
 8258SOL     OW25672   5.608   2.153   0.751
 8258SOL    HW125673   5.528   2.212   0.764
 8258SOL    HW225674   5.644   2.126   0.840
 8259SOL     OW25675   4.150   2.210   3.702
 8259SOL    HW125676   4.221   2.226   3.771
 8259SOL    HW225677   4.184   2.235   3.612
 8260SOL     OW25678   2.907   6.456   1.481
 8260SOL    HW125679   2.996   6.482   1.442
 8260SOL    HW225680   2.842   6.439   1.407
 8261SOL     OW25681   5.807   0.450   2.062
 8261SOL    HW125682   5.736   0.433   2.130
 8261SOL    HW225683   5.842   0.363   2.027
 8262SOL     OW25684   0.238   2.828   6.900
 8262SOL    HW125685   0.206   2.886   6.975
 8262SOL    HW225686   0.235   2.880   6.815
 8263SOL     OW25687   1.530   2.301   6.882
 8263SOL    HW125688   1.539   2.203   6.863
 8263SOL    HW225689   1.474   2.344   6.811
 8264SOL     OW25690   2.898   6.152   2.779
 8264SOL    HW125691   2.833   6.118   2.847
 8264SOL    HW225692   2.851   6.168   2.693
 8265SOL     OW25693   0.808   6.934   0.849
 8265SOL    HW125694   0.852   6.846   0.832
 8265SOL    HW225695   0.841   7.001   0.782
 8266SOL     OW25696   2.176   0.962   3.210
 8266SOL    HW125697   2.272   0.967   3.182
 8266SOL    HW225698   2.118   0.950   3.129
 8267SOL     OW25699   1.143   2.755   1.254
 8267SOL    HW125700   1.242   2.744   1.261
 8267SOL    HW225701   1.098   2.667   1.270
 8268SOL     OW25702   1.741   6.533   5.984
 8268SOL    HW125703   1.749   6.621   6.031
 8268SOL    HW225704   1.832   6.498   5.963
 8269SOL     OW25705   4.202   1.881   2.064
 8269SOL    HW125706   4.166   1.862   1.973
 8269SOL    HW225707   4.210   1.795   2.115
 8270SOL     OW25708   2.763   6.733   5.683
 8270SOL    HW125709   2.856   6.757   5.709
 8270SOL    HW225710   2.757   6.725   5.583
 8271SOL     OW25711   6.470   0.052   3.186
 8271SOL    HW125712   6.493   6.989   3.142
 8271SOL    HW225713   6.425   0.033   3.273
 8272SOL     OW25714   4.919   1.805   2.015
 8272SOL    HW125715   4.841   1.817   1.953
 8272SOL    HW225716   4.959   1.715   1.999
 8273SOL     OW25717   3.040   0.792   0.467
 8273SOL    HW125718   3.009   0.759   0.378
 8273SOL    HW225719   2.984   0.751   0.539
 8274SOL     OW25720   5.282   4.916   3.573
 8274SOL    HW125721   5.332   4.961   3.647
 8274SOL    HW225722   5.278   4.818   3.590
 8275SOL     OW25723   4.889   1.125   5.715
 8275SOL    HW125724   4.946   1.141   5.796
 8275SOL    HW225725   4.941   1.145   5.632
 8276SOL     OW25726   1.085   1.999   3.825
 8276SOL    HW125727   1.103   2.019   3.921
 8276SOL    HW225728   1.011   1.933   3.818
 8277SOL     OW25729   0.001   0.123   0.144
 8277SOL    HW125730   0.097   0.109   0.166
 8277SOL    HW225731   7.009   0.101   0.048
 8278SOL     OW25732   2.462   2.018   5.665
 8278SOL    HW125733   2.535   2.081   5.688
 8278SOL    HW225734   2.447   2.020   5.566
 8279SOL     OW25735   1.518   6.593   4.698
 8279SOL    HW125736   1.450   6.565   4.630
 8279SOL    HW225737   1.595   6.637   4.652
 8280SOL     OW25738   1.981   3.836   0.800
 8280SOL    HW125739   1.973   3.891   0.883
 8280SOL    HW225740   1.970   3.896   0.720
 8281SOL     OW25741   2.760   4.818   1.739
 8281SOL    HW125742   2.731   4.811   1.835
 8281SOL    HW225743   2.839   4.759   1.724
 8282SOL     OW25744   5.012   3.463   0.012
 8282SOL    HW125745   4.961   3.546   7.011
 8282SOL    HW225746   4.958   3.409   0.077
 8283SOL     OW25747   1.359   5.112   6.784
 8283SOL    HW125748   1.300   5.087   6.861
 8283SOL    HW225749   1.419   5.188   6.812
 8284SOL     OW25750   0.826   3.723   0.855
 8284SOL    HW125751   0.883   3.654   0.810
 8284SOL    HW225752   0.853   3.814   0.823
 8285SOL     OW25753   3.006   3.754   4.244
 8285SOL    HW125754   2.975   3.710   4.329
 8285SOL    HW225755   2.989   3.692   4.167
 8286SOL     OW25756   6.163   2.730   5.962
 8286SOL    HW125757   6.080   2.785   5.976
 8286SOL    HW225758   6.212   2.721   6.049
 8287SOL     OW25759   2.122   5.552   3.878
 8287SOL    HW125760   2.107   5.559   3.977
 8287SOL    HW225761   2.179   5.473   3.858
 8288SOL     OW25762   3.214   1.821   1.834
 8288SOL    HW125763   3.220   1.782   1.926
 8288SOL    HW225764   3.208   1.921   1.840
 8289SOL     OW25765   0.802   5.590   0.808
 8289SOL    HW125766   0.775   5.666   0.868
 8289SOL    HW225767   0.721   5.551   0.765
 8290SOL     OW25768   6.302   1.169   1.300
 8290SOL    HW125769   6.239   1.220   1.243
 8290SOL    HW225770   6.373   1.127   1.242
 8291SOL     OW25771   5.431   6.462   5.766
 8291SOL    HW125772   5.389   6.376   5.794
 8291SOL    HW225773   5.377   6.505   5.693
 8292SOL     OW25774   2.893   6.716   0.078
 8292SOL    HW125775   2.939   6.753   0.159
 8292SOL    HW225776   2.866   6.621   0.096
 8293SOL     OW25777   3.487   6.206   6.974
 8293SOL    HW125778   3.407   6.262   6.996
 8293SOL    HW225779   3.500   6.138   0.022
 8294SOL     OW25780   5.323   3.933   4.534
 8294SOL    HW125781   5.266   3.864   4.579
 8294SOL    HW225782   5.338   4.009   4.597
 8295SOL     OW25783   5.530   5.245   1.638
 8295SOL    HW125784   5.597   5.246   1.564
 8295SOL    HW225785   5.563   5.186   1.712
 8296SOL     OW25786   1.255   5.178   6.387
 8296SOL    HW125787   1.222   5.215   6.474
 8296SOL    HW225788   1.324   5.239   6.349
 8297SOL     OW25789   6.105   2.785   2.302
 8297SOL    HW125790   6.011   2.821   2.293
 8297SOL    HW225791   6.157   2.845   2.364
 8298SOL     OW25792   6.495   1.336   0.986
 8298SOL    HW125793   6.512   1.422   1.034
 8298SOL    HW225794   6.546   1.335   0.900
 8299SOL     OW25795   6.777   3.197   1.503
 8299SOL    HW125796   6.784   3.207   1.403
 8299SOL    HW225797   6.681   3.202   1.530
 8300SOL     OW25798   0.460   5.700   4.477
 8300SOL    HW125799   0.401   5.779   4.459
 8300SOL    HW225800   0.555   5.729   4.481
 8301SOL     OW25801   4.109   2.001   1.304
 8301SOL    HW125802   4.147   2.093   1.299
 8301SOL    HW225803   4.035   1.999   1.371
 8302SOL     OW25804   6.068   6.409   0.171
 8302SOL    HW125805   6.052   6.417   0.270
 8302SOL    HW225806   6.073   6.501   0.131
 8303SOL     OW25807   6.435   0.406   4.047
 8303SOL    HW125808   6.348   0.439   4.009
 8303SOL    HW225809   6.450   0.312   4.017
 8304SOL     OW25810   0.198   3.620   0.958
 8304SOL    HW125811   0.166   3.586   0.869
 8304SOL    HW225812   0.297   3.608   0.964
 8305SOL     OW25813   4.319   5.141   4.473
 8305SOL    HW125814   4.283   5.056   4.433
 8305SOL    HW225815   4.387   5.181   4.412
 8306SOL     OW25816   7.015   2.641   6.730
 8306SOL    HW125817   6.932   2.678   6.772
 8306SOL    HW225818   0.063   2.636   6.799
 8307SOL     OW25819   3.873   5.321   1.545
 8307SOL    HW125820   3.891   5.368   1.459
 8307SOL    HW225821   3.777   5.335   1.571
 8308SOL     OW25822   3.928   5.497   1.300
 8308SOL    HW125823   3.869   5.575   1.279
 8308SOL    HW225824   4.024   5.523   1.291
 8309SOL     OW25825   6.394   5.241   4.004
 8309SOL    HW125826   6.422   5.224   4.098
 8309SOL    HW225827   6.428   5.168   3.945
 8310SOL     OW25828   0.335   4.451   0.355
 8310SOL    HW125829   0.241   4.480   0.334
 8310SOL    HW225830   0.343   4.353   0.341
 8311SOL     OW25831   0.631   1.755   4.318
 8311SOL    HW125832   0.538   1.761   4.353
 8311SOL    HW225833   0.651   1.835   4.262
 8312SOL     OW25834   4.982   0.071   0.053
 8312SOL    HW125835   4.985   6.998   0.029
 8312SOL    HW225836   4.900   0.113   0.014
 8313SOL     OW25837   5.141   0.408   1.961
 8313SOL    HW125838   5.214   0.452   1.909
 8313SOL    HW225839   5.163   0.411   2.059
 8314SOL     OW25840   4.579   0.858   0.377
 8314SOL    HW125841   4.640   0.892   0.307
 8314SOL    HW225842   4.508   0.926   0.397
 8315SOL     OW25843   3.980   3.317   0.989
 8315SOL    HW125844   3.909   3.327   0.920
 8315SOL    HW225845   3.942   3.339   1.079
 8316SOL     OW25846   0.286   2.489   2.236
 8316SOL    HW125847   0.253   2.565   2.180
 8316SOL    HW225848   0.356   2.439   2.186
 8317SOL     OW25849   2.276   2.245   2.983
 8317SOL    HW125850   2.240   2.333   3.016
 8317SOL    HW225851   2.210   2.173   3.001
 8318SOL     OW25852   4.592   0.997   4.730
 8318SOL    HW125853   4.667   1.060   4.748
 8318SOL    HW225854   4.518   1.012   4.796
 8319SOL     OW25855   2.543   1.849   6.398
 8319SOL    HW125856   2.514   1.912   6.470
 8319SOL    HW225857   2.529   1.891   6.308
 8320SOL     OW25858   3.048   2.997   1.580
 8320SOL    HW125859   3.080   3.043   1.497
 8320SOL    HW225860   3.029   2.901   1.560
 8321SOL     OW25861   6.611   1.183   6.807
 8321SOL    HW125862   6.628   1.122   6.730
 8321SOL    HW225863   6.621   1.132   6.892
 8322SOL     OW25864   0.210   0.312   0.724
 8322SOL    HW125865   0.229   0.344   0.817
 8322SOL    HW225866   0.171   0.387   0.670
 8323SOL     OW25867   5.571   5.820   2.440
 8323SOL    HW125868   5.615   5.761   2.373
 8323SOL    HW225869   5.636   5.888   2.473
 8324SOL     OW25870   5.368   6.844   1.549
 8324SOL    HW125871   5.280   6.856   1.503
 8324SOL    HW225872   5.415   6.933   1.553
 8325SOL     OW25873   2.665   3.301   5.522
 8325SOL    HW125874   2.622   3.384   5.489
 8325SOL    HW225875   2.637   3.224   5.465
 8326SOL     OW25876   5.119   3.795   5.856
 8326SOL    HW125877   5.215   3.807   5.882
 8326SOL    HW225878   5.090   3.874   5.801
 8327SOL     OW25879   6.246   1.250   6.110
 8327SOL    HW125880   6.272   1.314   6.183
 8327SOL    HW225881   6.283   1.283   6.023
 8328SOL     OW25882   2.232   5.404   5.728
 8328SOL    HW125883   2.274   5.393   5.638
 8328SOL    HW225884   2.301   5.389   5.799
 8329SOL     OW25885   0.903   3.222   6.327
 8329SOL    HW125886   0.864   3.234   6.235
 8329SOL    HW225887   0.830   3.225   6.395
 8330SOL     OW25888   2.907   0.693   0.697
 8330SOL    HW125889   2.838   0.621   0.707
 8330SOL    HW225890   2.947   0.714   0.786
 8331SOL     OW25891   2.923   1.660   1.562
 8331SOL    HW125892   2.956   1.621   1.648
 8331SOL    HW225893   2.900   1.756   1.576
 8332SOL     OW25894   5.212   5.418   2.403
 8332SOL    HW125895   5.280   5.345   2.408
 8332SOL    HW225896   5.221   5.467   2.316
 8333SOL     OW25897   0.108   6.427   6.286
 8333SOL    HW125898   0.021   6.466   6.317
 8333SOL    HW225899   0.175   6.433   6.360
 8334SOL     OW25900   4.194   1.827   4.272
 8334SOL    HW125901   4.261   1.841   4.198
 8334SOL    HW225902   4.102   1.827   4.233
 8335SOL     OW25903   6.487   6.131   6.813
 8335SOL    HW125904   6.390   6.109   6.824
 8335SOL    HW225905   6.521   6.173   6.898
 8336SOL     OW25906   6.142   6.127   3.042
 8336SOL    HW125907   6.192   6.213   3.033
 8336SOL    HW225908   6.063   6.140   3.101
 8337SOL     OW25909   1.287   6.120   2.549
 8337SOL    HW125910   1.239   6.193   2.598
 8337SOL    HW225911   1.374   6.155   2.514
 8338SOL     OW25912   2.257   5.425   1.682
 8338SOL    HW125913   2.329   5.452   1.618
 8338SOL    HW225914   2.231   5.330   1.665
 8339SOL     OW25915   5.619   0.391   1.497
 8339SOL    HW125916   5.703   0.361   1.542
 8339SOL    HW225917   5.566   0.449   1.558
 8340SOL     OW25918   4.940   3.073   1.565
 8340SOL    HW125919   5.003   3.029   1.500
 8340SOL    HW225920   4.884   3.003   1.609
 8341SOL     OW25921   1.867   6.190   0.076
 8341SOL    HW125922   1.908   6.205   7.011
 8341SOL    HW225923   1.937   6.200   0.147
 8342SOL     OW25924   4.221   0.028   1.614
 8342SOL    HW125925   4.147   6.993   1.644
 8342SOL    HW225926   4.213   0.117   1.660
 8343SOL     OW25927   1.148   5.315   6.030
 8343SOL    HW125928   1.082   5.390   6.033
 8343SOL    HW225929   1.143   5.263   6.115
 8344SOL     OW25930   4.657   6.768   5.019
 8344SOL    HW125931   4.737   6.777   4.959
 8344SOL    HW225932   4.584   6.720   4.970
 8345SOL     OW25933   4.871   1.731   3.614
 8345SOL    HW125934   4.880   1.632   3.615
 8345SOL    HW225935   4.951   1.771   3.568
 8346SOL     OW25936   2.941   4.260   0.602
 8346SOL    HW125937   2.907   4.273   0.695
 8346SOL    HW225938   2.881   4.308   0.538
 8347SOL     OW25939   3.465   5.434   4.983
 8347SOL    HW125940   3.454   5.408   4.887
 8347SOL    HW225941   3.394   5.499   5.009
 8348SOL     OW25942   2.024   6.853   2.510
 8348SOL    HW125943   2.117   6.884   2.490
 8348SOL    HW225944   1.995   6.889   2.599
 8349SOL     OW25945   5.820   6.642   1.542
 8349SOL    HW125946   5.865   6.576   1.601
 8349SOL    HW225947   5.721   6.638   1.556
 8350SOL     OW25948   4.627   0.454   4.825
 8350SOL    HW125949   4.595   0.472   4.732
 8350SOL    HW225950   4.723   0.479   4.833
 8351SOL     OW25951   4.994   4.571   3.952
 8351SOL    HW125952   5.072   4.508   3.947
 8351SOL    HW225953   4.991   4.613   4.042
 8352SOL     OW25954   6.980   6.551   3.172
 8352SOL    HW125955   6.934   6.637   3.195
 8352SOL    HW225956   6.984   6.541   3.072
 8353SOL     OW25957   6.702   3.827   1.463
 8353SOL    HW125958   6.781   3.773   1.432
 8353SOL    HW225959   6.653   3.861   1.383
 8354SOL     OW25960   3.551   0.184   6.650
 8354SOL    HW125961   3.487   0.110   6.633
 8354SOL    HW225962   3.551   0.206   6.748
 8355SOL     OW25963   3.139   0.897   6.898
 8355SOL    HW125964   3.220   0.875   6.844
 8355SOL    HW225965   3.097   0.981   6.863
 8356SOL     OW25966   1.602   6.262   1.032
 8356SOL    HW125967   1.681   6.261   0.970
 8356SOL    HW225968   1.617   6.196   1.106
 8357SOL     OW25969   3.621   0.632   4.917
 8357SOL    HW125970   3.559   0.711   4.911
 8357SOL    HW225971   3.608   0.586   5.005
 8358SOL     OW25972   1.046   3.929   5.496
 8358SOL    HW125973   0.946   3.931   5.495
 8358SOL    HW225974   1.078   3.839   5.466
 8359SOL     OW25975   2.912   6.972   5.361
 8359SOL    HW125976   2.930   6.958   5.263
 8359SOL    HW225977   2.813   6.980   5.376
 8360SOL     OW25978   3.621   6.045   1.179
 8360SOL    HW125979   3.636   6.087   1.268
 8360SOL    HW225980   3.557   5.968   1.189
 8361SOL     OW25981   3.259   6.397   2.963
 8361SOL    HW125982   3.230   6.492   2.977
 8361SOL    HW225983   3.294   6.360   3.049
 8362SOL     OW25984   3.539   2.519   0.876
 8362SOL    HW125985   3.464   2.481   0.930
 8362SOL    HW225986   3.524   2.497   0.779
 8363SOL     OW25987   0.631   2.507   6.768
 8363SOL    HW125988   0.720   2.551   6.754
 8363SOL    HW225989   0.564   2.576   6.795
 8364SOL     OW25990   0.492   3.277   2.182
 8364SOL    HW125991   0.488   3.329   2.097
 8364SOL    HW225992   0.579   3.294   2.227
 8365SOL     OW25993   2.066   3.910   1.912
 8365SOL    HW125994   2.147   3.962   1.941
 8365SOL    HW225995   2.093   3.816   1.892
 8366SOL     OW25996   2.628   5.927   2.516
 8366SOL    HW125997   2.529   5.916   2.520
 8366SOL    HW225998   2.652   5.978   2.433
 8367SOL     OW25999   3.924   6.009   4.133
 8367SOL    HW126000   3.825   6.015   4.120
 8367SOL    HW226001   3.961   5.935   4.077
 8368SOL     OW26002   2.168   6.636   6.611
 8368SOL    HW126003   2.189   6.650   6.708
 8368SOL    HW226004   2.119   6.549   6.600
 8369SOL     OW26005   2.317   6.922   6.678
 8369SOL    HW126006   2.278   6.852   6.739
 8369SOL    HW226007   2.412   6.939   6.705
 8370SOL     OW26008   2.451   2.358   5.069
 8370SOL    HW126009   2.502   2.411   5.137
 8370SOL    HW226010   2.438   2.265   5.104
 8371SOL     OW26011   2.180   4.862   1.030
 8371SOL    HW126012   2.148   4.843   1.123
 8371SOL    HW226013   2.127   4.807   0.964
 8372SOL     OW26014   0.380   5.668   2.728
 8372SOL    HW126015   0.452   5.682   2.660
 8372SOL    HW226016   0.416   5.690   2.819
 8373SOL     OW26017   1.639   0.282   3.891
 8373SOL    HW126018   1.679   0.193   3.912
 8373SOL    HW226019   1.544   0.271   3.862
 8374SOL     OW26020   0.427   0.796   5.430
 8374SOL    HW126021   0.513   0.823   5.474
 8374SOL    HW226022   0.431   0.819   5.333
 8375SOL     OW26023   3.963   6.850   5.224
 8375SOL    HW126024   4.020   6.786   5.172
 8375SOL    HW226025   3.871   6.851   5.185
 8376SOL     OW26026   1.553   0.594   3.950
 8376SOL    HW126027   1.606   0.527   3.897
 8376SOL    HW226028   1.461   0.601   3.912
 8377SOL     OW26029   5.476   5.945   1.235
 8377SOL    HW126030   5.568   5.905   1.245
 8377SOL    HW226031   5.441   5.971   1.325
 8378SOL     OW26032   4.070   5.037   2.722
 8378SOL    HW126033   4.034   4.952   2.684
 8378SOL    HW226034   3.996   5.088   2.767
 8379SOL     OW26035   6.005   2.319   1.466
 8379SOL    HW126036   6.081   2.331   1.529
 8379SOL    HW226037   6.006   2.225   1.431
 8380SOL     OW26038   0.151   0.541   2.604
 8380SOL    HW126039   0.075   0.500   2.655
 8380SOL    HW226040   0.173   0.483   2.526
 8381SOL     OW26041   0.179   3.212   4.732
 8381SOL    HW126042   0.098   3.240   4.785
 8381SOL    HW226043   0.252   3.278   4.746
 8382SOL     OW26044   2.464   0.475   2.383
 8382SOL    HW126045   2.410   0.553   2.413
 8382SOL    HW226046   2.462   0.403   2.452
 8383SOL     OW26047   2.304   0.252   5.966
 8383SOL    HW126048   2.353   0.339   5.969
 8383SOL    HW226049   2.354   0.188   5.908
 8384SOL     OW26050   0.009   1.004   0.802
 8384SOL    HW126051   0.021   1.066   0.879
 8384SOL    HW226052   6.941   0.966   0.804
 8385SOL     OW26053   6.263   1.892   1.555
 8385SOL    HW126054   6.333   1.872   1.486
 8385SOL    HW226055   6.302   1.884   1.646
 8386SOL     OW26056   0.881   4.680   2.280
 8386SOL    HW126057   0.897   4.774   2.311
 8386SOL    HW226058   0.827   4.681   2.196
 8387SOL     OW26059   1.979   0.922   2.093
 8387SOL    HW126060   1.941   0.844   2.043
 8387SOL    HW226061   1.935   1.006   2.061
 8388SOL     OW26062   2.000   6.264   0.306
 8388SOL    HW126063   2.033   6.240   0.397
 8388SOL    HW226064   2.073   6.308   0.255
 8389SOL     OW26065   6.390   3.217   2.757
 8389SOL    HW126066   6.404   3.154   2.680
 8389SOL    HW226067   6.358   3.166   2.837
 8390SOL     OW26068   3.739   0.901   6.223
 8390SOL    HW126069   3.722   0.851   6.308
 8390SOL    HW226070   3.741   0.999   6.243
 8391SOL     OW26071   6.443   5.283   0.843
 8391SOL    HW126072   6.476   5.268   0.937
 8391SOL    HW226073   6.447   5.197   0.793
 8392SOL     OW26074   6.462   3.639   4.316
 8392SOL    HW126075   6.533   3.622   4.248
 8392SOL    HW226076   6.445   3.556   4.368
 8393SOL     OW26077   6.557   0.272   2.712
 8393SOL    HW126078   6.508   0.332   2.649
 8393SOL    HW226079   6.572   0.183   2.669
 8394SOL     OW26080   6.448   2.558   0.942
 8394SOL    HW126081   6.369   2.618   0.935
 8394SOL    HW226082   6.421   2.471   0.982
 8395SOL     OW26083   2.814   6.226   5.768
 8395SOL    HW126084   2.881   6.190   5.703
 8395SOL    HW226085   2.854   6.304   5.817
 8396SOL     OW26086   4.786   5.224   3.504
 8396SOL    HW126087   4.701   5.171   3.501
 8396SOL    HW226088   4.855   5.181   3.446
 8397SOL     OW26089   1.281   0.648   2.827
 8397SOL    HW126090   1.314   0.727   2.775
 8397SOL    HW226091   1.182   0.640   2.817
 8398SOL     OW26092   4.416   2.339   6.259
 8398SOL    HW126093   4.440   2.361   6.165
 8398SOL    HW226094   4.318   2.352   6.273
 8399SOL     OW26095   6.124   6.867   6.597
 8399SOL    HW126096   6.094   6.952   6.552
 8399SOL    HW226097   6.137   6.796   6.528
 8400SOL     OW26098   2.256   1.371   4.367
 8400SOL    HW126099   2.157   1.380   4.367
 8400SOL    HW226100   2.283   1.301   4.434
 8401SOL     OW26101   2.310   1.054   5.198
 8401SOL    HW126102   2.229   1.054   5.138
 8401SOL    HW226103   2.281   1.051   5.293
 8402SOL     OW26104   5.334   1.757   6.446
 8402SOL    HW126105   5.380   1.831   6.397
 8402SOL    HW226106   5.362   1.669   6.408
 8403SOL     OW26107   6.759   3.228   4.537
 8403SOL    HW126108   6.675   3.194   4.494
 8403SOL    HW226109   6.763   3.327   4.527
 8404SOL     OW26110   3.931   6.817   5.522
 8404SOL    HW126111   3.880   6.731   5.514
 8404SOL    HW226112   3.866   6.893   5.525
 8405SOL     OW26113   2.343   1.301   5.422
 8405SOL    HW126114   2.321   1.205   5.440
 8405SOL    HW226115   2.325   1.321   5.325
 8406SOL     OW26116   4.264   0.801   0.282
 8406SOL    HW126117   4.289   0.713   0.323
 8406SOL    HW226118   4.337   0.831   0.221
 8407SOL     OW26119   3.972   5.855   3.775
 8407SOL    HW126120   3.879   5.890   3.766
 8407SOL    HW226121   3.976   5.761   3.741
 8408SOL     OW26122   5.485   4.157   1.540
 8408SOL    HW126123   5.386   4.167   1.530
 8408SOL    HW226124   5.507   4.061   1.560
 8409SOL     OW26125   4.717   2.045   3.556
 8409SOL    HW126126   4.777   2.029   3.634
 8409SOL    HW226127   4.744   2.130   3.510
 8410SOL     OW26128   5.825   0.752   1.030
 8410SOL    HW126129   5.886   0.798   1.094
 8410SOL    HW226130   5.735   0.740   1.072
 8411SOL     OW26131   0.508   6.005   0.475
 8411SOL    HW126132   0.535   5.997   0.379
 8411SOL    HW226133   0.438   5.937   0.496
 8412SOL     OW26134   3.314   2.679   1.077
 8412SOL    HW126135   3.320   2.685   1.176
 8412SOL    HW226136   3.227   2.720   1.047
 8413SOL     OW26137   5.095   5.997   6.433
 8413SOL    HW126138   5.044   5.918   6.468
 8413SOL    HW226139   5.097   5.995   6.333
 8414SOL     OW26140   3.066   6.896   3.521
 8414SOL    HW126141   3.120   6.894   3.606
 8414SOL    HW226142   2.982   6.947   3.537
 8415SOL     OW26143   1.115   5.507   4.738
 8415SOL    HW126144   1.027   5.553   4.742
 8415SOL    HW226145   1.113   5.436   4.667
 8416SOL     OW26146   6.648   1.982   3.665
 8416SOL    HW126147   6.564   1.940   3.630
 8416SOL    HW226148   6.628   2.031   3.750
 8417SOL     OW26149   0.716   3.167   6.104
 8417SOL    HW126150   0.713   3.253   6.053
 8417SOL    HW226151   0.774   3.102   6.056
 8418SOL     OW26152   6.428   5.493   1.405
 8418SOL    HW126153   6.427   5.592   1.398
 8418SOL    HW226154   6.522   5.461   1.414
 8419SOL     OW26155   5.680   6.985   2.240
 8419SOL    HW126156   5.749   7.018   2.305
 8419SOL    HW226157   5.639   0.038   2.192
 8420SOL     OW26158   4.285   0.142   0.900
 8420SOL    HW126159   4.237   0.172   0.818
 8420SOL    HW226160   4.273   0.210   0.972
 8421SOL     OW26161   3.277   4.796   0.369
 8421SOL    HW126162   3.330   4.714   0.351
 8421SOL    HW226163   3.328   4.876   0.338
 8422SOL     OW26164   4.741   1.271   2.264
 8422SOL    HW126165   4.796   1.350   2.292
 8422SOL    HW226166   4.658   1.302   2.218
 8423SOL     OW26167   4.274   4.334   6.121
 8423SOL    HW126168   4.220   4.404   6.073
 8423SOL    HW226169   4.329   4.378   6.192
 8424SOL     OW26170   1.459   2.094   2.805
 8424SOL    HW126171   1.418   2.048   2.726
 8424SOL    HW226172   1.475   2.190   2.783
 8425SOL     OW26173   3.980   3.977   6.306
 8425SOL    HW126174   3.917   4.052   6.285
 8425SOL    HW226175   4.060   3.983   6.246
 8426SOL     OW26176   3.624   3.137   2.752
 8426SOL    HW126177   3.686   3.212   2.728
 8426SOL    HW226178   3.544   3.139   2.693
 8427SOL     OW26179   3.657   3.962   3.596
 8427SOL    HW126180   3.607   3.998   3.517
 8427SOL    HW226181   3.593   3.917   3.658
 8428SOL     OW26182   6.952   6.140   1.206
 8428SOL    HW126183   7.011   6.151   1.286
 8428SOL    HW226184   7.000   6.086   1.136
 8429SOL     OW26185   1.662   5.718   5.667
 8429SOL    HW126186   1.737   5.708   5.732
 8429SOL    HW226187   1.575   5.719   5.715
 8430SOL     OW26188   3.442   4.966   4.220
 8430SOL    HW126189   3.365   4.904   4.213
 8430SOL    HW226190   3.470   4.974   4.316
 8431SOL     OW26191   3.782   3.745   0.296
 8431SOL    HW126192   3.814   3.754   0.390
 8431SOL    HW226193   3.705   3.807   0.280
 8432SOL     OW26194   6.559   5.456   5.252
 8432SOL    HW126195   6.509   5.480   5.335
 8432SOL    HW226196   6.512   5.380   5.206
 8433SOL     OW26197   3.999   3.088   0.095
 8433SOL    HW126198   3.950   3.098   0.009
 8433SOL    HW226199   4.086   3.138   0.089
 8434SOL     OW26200   2.950   0.674   4.215
 8434SOL    HW126201   2.922   0.653   4.121
 8434SOL    HW226202   3.043   0.711   4.215
 8435SOL     OW26203   5.611   0.106   2.593
 8435SOL    HW126204   5.551   0.029   2.570
 8435SOL    HW226205   5.689   0.073   2.647
 8436SOL     OW26206   3.378   6.625   3.691
 8436SOL    HW126207   3.385   6.574   3.605
 8436SOL    HW226208   3.325   6.572   3.757
 8437SOL     OW26209   1.988   1.668   3.311
 8437SOL    HW126210   1.931   1.630   3.237
 8437SOL    HW226211   1.944   1.750   3.348
 8438SOL     OW26212   2.465   4.463   3.168
 8438SOL    HW126213   2.524   4.540   3.145
 8438SOL    HW226214   2.450   4.461   3.267
 8439SOL     OW26215   6.170   4.385   2.345
 8439SOL    HW126216   6.179   4.404   2.247
 8439SOL    HW226217   6.260   4.393   2.389
 8440SOL     OW26218   3.088   1.869   3.777
 8440SOL    HW126219   3.081   1.813   3.860
 8440SOL    HW226220   3.175   1.918   3.778
 8441SOL     OW26221   5.552   6.578   0.100
 8441SOL    HW126222   5.550   6.507   0.030
 8441SOL    HW226223   5.571   6.535   0.189
 8442SOL     OW26224   3.857   2.055   5.716
 8442SOL    HW126225   3.766   2.013   5.720
 8442SOL    HW226226   3.925   1.984   5.699
 8443SOL     OW26227   2.540   4.531   3.665
 8443SOL    HW126228   2.503   4.460   3.725
 8443SOL    HW226229   2.556   4.614   3.718
 8444SOL     OW26230   2.808   6.618   4.503
 8444SOL    HW126231   2.798   6.635   4.601
 8444SOL    HW226232   2.767   6.529   4.481
 8445SOL     OW26233   2.397   0.257   1.143
 8445SOL    HW126234   2.309   0.303   1.152
 8445SOL    HW226235   2.411   0.230   1.048
 8446SOL     OW26236   5.956   5.311   5.898
 8446SOL    HW126237   5.873   5.363   5.916
 8446SOL    HW226238   6.031   5.347   5.954
 8447SOL     OW26239   4.697   1.225   1.660
 8447SOL    HW126240   4.729   1.183   1.575
 8447SOL    HW226241   4.606   1.265   1.644
 8448SOL     OW26242   4.236   5.859   3.655
 8448SOL    HW126243   4.156   5.851   3.715
 8448SOL    HW226244   4.250   5.955   3.630
 8449SOL     OW26245   0.143   3.236   3.283
 8449SOL    HW126246   0.059   3.208   3.329
 8449SOL    HW226247   0.186   3.156   3.240
 8450SOL     OW26248   0.861   0.964   1.521
 8450SOL    HW126249   0.872   1.062   1.537
 8450SOL    HW226250   0.764   0.943   1.508
 8451SOL     OW26251   3.341   1.493   6.848
 8451SOL    HW126252   3.353   1.541   6.935
 8451SOL    HW226253   3.430   1.476   6.807
 8452SOL     OW26254   5.989   3.087   3.659
 8452SOL    HW126255   5.897   3.078   3.619
 8452SOL    HW226256   6.057   3.060   3.591
 8453SOL     OW26257   0.328   5.475   0.091
 8453SOL    HW126258   0.298   5.556   0.040
 8453SOL    HW226259   0.279   5.471   0.178
 8454SOL     OW26260   0.221   5.501   1.186
 8454SOL    HW126261   0.192   5.567   1.256
 8454SOL    HW226262   0.295   5.445   1.222
 8455SOL     OW26263   0.406   2.092   1.841
 8455SOL    HW126264   0.490   2.116   1.890
 8455SOL    HW226265   0.328   2.135   1.886
 8456SOL     OW26266   4.548   6.677   3.321
 8456SOL    HW126267   4.629   6.734   3.329
 8456SOL    HW226268   4.466   6.736   3.317
 8457SOL     OW26269   6.764   6.390   4.027
 8457SOL    HW126270   6.839   6.451   4.051
 8457SOL    HW226271   6.790   6.333   3.949
 8458SOL     OW26272   2.515   0.554   0.198
 8458SOL    HW126273   2.603   0.584   0.162
 8458SOL    HW226274   2.461   0.513   0.124
 8459SOL     OW26275   2.716   5.946   2.059
 8459SOL    HW126276   2.690   6.024   2.116
 8459SOL    HW226277   2.647   5.931   1.988
 8460SOL     OW26278   4.578   4.236   5.218
 8460SOL    HW126279   4.524   4.178   5.279
 8460SOL    HW226280   4.660   4.186   5.189
 8461SOL     OW26281   1.034   3.158   4.707
 8461SOL    HW126282   1.022   3.104   4.624
 8461SOL    HW226283   0.945   3.189   4.740
 8462SOL     OW26284   2.104   2.807   6.596
 8462SOL    HW126285   2.052   2.814   6.510
 8462SOL    HW226286   2.042   2.781   6.670
 8463SOL     OW26287   6.810   0.080   1.933
 8463SOL    HW126288   6.883   0.061   1.998
 8463SOL    HW226289   6.849   0.110   1.846
 8464SOL     OW26290   5.047   4.707   4.399
 8464SOL    HW126291   4.960   4.734   4.440
 8464SOL    HW226292   5.099   4.789   4.374
 8465SOL     OW26293   0.579   2.986   0.548
 8465SOL    HW126294   0.675   2.975   0.525
 8465SOL    HW226295   0.567   2.983   0.647
 8466SOL     OW26296   0.908   6.578   4.038
 8466SOL    HW126297   1.003   6.571   4.006
 8466SOL    HW226298   0.894   6.667   4.083
 8467SOL     OW26299   2.999   5.952   0.282
 8467SOL    HW126300   2.951   5.880   0.231
 8467SOL    HW226301   3.031   6.022   0.218
 8468SOL     OW26302   3.102   1.544   0.291
 8468SOL    HW126303   3.130   1.563   0.385
 8468SOL    HW226304   3.032   1.610   0.264
 8469SOL     OW26305   3.282   2.898   0.022
 8469SOL    HW126306   3.360   2.888   0.084
 8469SOL    HW226307   3.264   2.810   7.002
 8470SOL     OW26308   1.598   3.605   0.555
 8470SOL    HW126309   1.573   3.584   0.649
 8470SOL    HW226310   1.592   3.522   0.499
 8471SOL     OW26311   3.164   1.398   2.395
 8471SOL    HW126312   3.140   1.383   2.491
 8471SOL    HW226313   3.089   1.445   2.349
 8472SOL     OW26314   0.610   0.152   4.272
 8472SOL    HW126315   0.627   0.244   4.236
 8472SOL    HW226316   0.571   0.095   4.200
 8473SOL     OW26317   6.702   5.111   6.647
 8473SOL    HW126318   6.607   5.114   6.677
 8473SOL    HW226319   6.754   5.182   6.694
 8474SOL     OW26320   3.344   2.886   2.339
 8474SOL    HW126321   3.292   2.964   2.303
 8474SOL    HW226322   3.338   2.886   2.438
 8475SOL     OW26323   0.440   1.474   2.947
 8475SOL    HW126324   0.394   1.426   2.872
 8475SOL    HW226325   0.380   1.478   3.026
 8476SOL     OW26326   6.708   1.079   1.130
 8476SOL    HW126327   6.763   1.056   1.210
 8476SOL    HW226328   6.764   1.073   1.048
 8477SOL     OW26329   3.755   6.385   2.317
 8477SOL    HW126330   3.662   6.381   2.351
 8477SOL    HW226331   3.811   6.318   2.366
 8478SOL     OW26332   1.281   0.393   6.166
 8478SOL    HW126333   1.195   0.442   6.153
 8478SOL    HW226334   1.267   0.296   6.147
 8479SOL     OW26335   6.169   2.804   1.135
 8479SOL    HW126336   6.082   2.768   1.169
 8479SOL    HW226337   6.154   2.858   1.052
 8480SOL     OW26338   3.585   0.853   0.423
 8480SOL    HW126339   3.616   0.910   0.347
 8480SOL    HW226340   3.658   0.843   0.490
 8481SOL     OW26341   3.951   1.702   3.700
 8481SOL    HW126342   3.999   1.771   3.647
 8481SOL    HW226343   4.011   1.666   3.772
 8482SOL     OW26344   3.680   6.844   3.087
 8482SOL    HW126345   3.733   6.858   3.171
 8482SOL    HW226346   3.743   6.835   3.010
 8483SOL     OW26347   4.134   5.693   1.934
 8483SOL    HW126348   4.229   5.663   1.925
 8483SOL    HW226349   4.132   5.786   1.972
 8484SOL     OW26350   6.918   5.586   3.119
 8484SOL    HW126351   6.942   5.530   3.040
 8484SOL    HW226352   6.851   5.537   3.175
 8485SOL     OW26353   2.687   3.491   6.303
 8485SOL    HW126354   2.602   3.531   6.337
 8485SOL    HW226355   2.723   3.427   6.371
 8486SOL     OW26356   4.962   1.213   3.031
 8486SOL    HW126357   4.999   1.182   3.119
 8486SOL    HW226358   4.929   1.133   2.980
 8487SOL     OW26359   5.488   0.734   0.364
 8487SOL    HW126360   5.486   0.651   0.309
 8487SOL    HW226361   5.570   0.734   0.422
 8488SOL     OW26362   5.601   4.708   4.842
 8488SOL    HW126363   5.657   4.655   4.906
 8488SOL    HW226364   5.516   4.660   4.823
 8489SOL     OW26365   6.619   0.564   1.548
 8489SOL    HW126366   6.557   0.601   1.479
 8489SOL    HW226367   6.604   0.466   1.558
 8490SOL     OW26368   4.080   6.650   4.300
 8490SOL    HW126369   4.029   6.578   4.347
 8490SOL    HW226370   4.073   6.735   4.351
 8491SOL     OW26371   2.123   0.305   1.677
 8491SOL    HW126372   2.214   0.321   1.639
 8491SOL    HW226373   2.081   0.392   1.703
 8492SOL     OW26374   4.539   4.363   6.729
 8492SOL    HW126375   4.480   4.309   6.789
 8492SOL    HW226376   4.552   4.316   6.642
 8493SOL     OW26377   2.745   1.859   6.034
 8493SOL    HW126378   2.799   1.935   5.998
 8493SOL    HW226379   2.658   1.894   6.070
 8494SOL     OW26380   2.622   4.729   0.225
 8494SOL    HW126381   2.665   4.773   0.303
 8494SOL    HW226382   2.687   4.726   0.149
 8495SOL     OW26383   6.495   3.745   0.367
 8495SOL    HW126384   6.417   3.707   0.316
 8495SOL    HW226385   6.467   3.761   0.461
 8496SOL     OW26386   0.407   1.894   1.585
 8496SOL    HW126387   0.441   1.969   1.642
 8496SOL    HW226388   0.472   1.819   1.587
 8497SOL     OW26389   6.422   0.365   4.308
 8497SOL    HW126390   6.375   0.277   4.322
 8497SOL    HW226391   6.443   0.376   4.210
 8498SOL     OW26392   0.225   5.868   2.598
 8498SOL    HW126393   0.232   5.897   2.693
 8498SOL    HW226394   0.278   5.784   2.584
 8499SOL     OW26395   2.249   5.611   6.543
 8499SOL    HW126396   2.264   5.605   6.642
 8499SOL    HW226397   2.209   5.525   6.510
 8500SOL     OW26398   1.563   0.658   5.953
 8500SOL    HW126399   1.545   0.579   6.011
 8500SOL    HW226400   1.616   0.726   6.004
 8501SOL     OW26401   0.723   2.675   0.521
 8501SOL    HW126402   0.732   2.774   0.514
 8501SOL    HW226403   0.637   2.652   0.568
 8502SOL     OW26404   1.918   4.976   1.249
 8502SOL    HW126405   1.960   4.903   1.302
 8502SOL    HW226406   1.986   5.047   1.230
 8503SOL     OW26407   1.291   5.806   2.969
 8503SOL    HW126408   1.270   5.847   3.057
 8503SOL    HW226409   1.358   5.733   2.980
 8504SOL     OW26410   1.814   6.028   3.842
 8504SOL    HW126411   1.763   6.108   3.874
 8504SOL    HW226412   1.911   6.040   3.865
 8505SOL     OW26413   4.841   3.887   4.122
 8505SOL    HW126414   4.815   3.860   4.214
 8505SOL    HW226415   4.832   3.986   4.113
 8506SOL     OW26416   6.740   1.004   0.841
 8506SOL    HW126417   6.784   0.922   0.878
 8506SOL    HW226418   6.641   0.991   0.840
 8507SOL     OW26419   3.467   0.970   5.521
 8507SOL    HW126420   3.475   0.890   5.580
 8507SOL    HW226421   3.374   1.007   5.526
 8508SOL     OW26422   6.534   2.174   4.688
 8508SOL    HW126423   6.475   2.168   4.768
 8508SOL    HW226424   6.540   2.269   4.657
 8509SOL     OW26425   5.104   1.385   4.027
 8509SOL    HW126426   5.047   1.314   3.985
 8509SOL    HW226427   5.100   1.468   3.972
 8510SOL     OW26428   5.621   4.396   3.070
 8510SOL    HW126429   5.550   4.325   3.071
 8510SOL    HW226430   5.696   4.369   3.131
 8511SOL     OW26431   5.572   3.568   1.471
 8511SOL    HW126432   5.501   3.637   1.457
 8511SOL    HW226433   5.592   3.560   1.569
 8512SOL     OW26434   2.508   2.606   0.509
 8512SOL    HW126435   2.450   2.528   0.486
 8512SOL    HW226436   2.571   2.581   0.582
 8513SOL     OW26437   4.803   3.686   1.544
 8513SOL    HW126438   4.737   3.613   1.564
 8513SOL    HW226439   4.759   3.757   1.488
 8514SOL     OW26440   2.725   2.127   3.413
 8514SOL    HW126441   2.669   2.050   3.442
 8514SOL    HW226442   2.666   2.203   3.387
 8515SOL     OW26443   5.961   0.922   6.722
 8515SOL    HW126444   5.883   0.932   6.785
 8515SOL    HW226445   6.000   0.831   6.733
 8516SOL     OW26446   6.673   2.556   1.458
 8516SOL    HW126447   6.631   2.646   1.450
 8516SOL    HW226448   6.710   2.528   1.369
 8517SOL     OW26449   2.016   2.549   5.764
 8517SOL    HW126450   1.952   2.564   5.688
 8517SOL    HW226451   2.099   2.602   5.749
 8518SOL     OW26452   4.988   4.347   6.073
 8518SOL    HW126453   4.952   4.269   6.125
 8518SOL    HW226454   4.987   4.429   6.131
 8519SOL     OW26455   1.511   5.262   1.541
 8519SOL    HW126456   1.524   5.257   1.442
 8519SOL    HW226457   1.570   5.334   1.579
 8520SOL     OW26458   3.355   2.971   6.591
 8520SOL    HW126459   3.397   2.986   6.680
 8520SOL    HW226460   3.381   2.882   6.556
 8521SOL     OW26461   2.031   5.028   5.825
 8521SOL    HW126462   2.126   5.042   5.851
 8521SOL    HW226463   1.989   4.959   5.884
 8522SOL     OW26464   0.978   0.139   1.550
 8522SOL    HW126465   1.075   0.145   1.572
 8522SOL    HW226466   0.943   0.049   1.577
 8523SOL     OW26467   2.054   6.238   6.921
 8523SOL    HW126468   2.066   6.276   6.829
 8523SOL    HW226469   2.124   6.170   6.938
 8524SOL     OW26470   0.375   2.892   5.879
 8524SOL    HW126471   0.330   2.821   5.824
 8524SOL    HW226472   0.474   2.878   5.877
 8525SOL     OW26473   6.394   5.223   1.691
 8525SOL    HW126474   6.441   5.194   1.608
 8525SOL    HW226475   6.343   5.146   1.729
 8526SOL     OW26476   3.662   6.287   0.717
 8526SOL    HW126477   3.594   6.232   0.765
 8526SOL    HW226478   3.742   6.300   0.775
 8527SOL     OW26479   2.738   1.271   6.744
 8527SOL    HW126480   2.722   1.275   6.842
 8527SOL    HW226481   2.766   1.361   6.711
 8528SOL     OW26482   4.092   1.218   6.897
 8528SOL    HW126483   4.178   1.171   6.918
 8528SOL    HW226484   4.041   1.233   6.981
 8529SOL     OW26485   1.107   0.532   1.031
 8529SOL    HW126486   1.171   0.470   0.987
 8529SOL    HW226487   1.045   0.571   0.962
 8530SOL     OW26488   4.299   3.855   5.274
 8530SOL    HW126489   4.216   3.895   5.312
 8530SOL    HW226490   4.275   3.770   5.226
 8531SOL     OW26491   0.265   4.987   2.494
 8531SOL    HW126492   0.182   4.978   2.439
 8531SOL    HW226493   0.263   4.917   2.566
 8532SOL     OW26494   4.400   5.481   4.536
 8532SOL    HW126495   4.397   5.429   4.622
 8532SOL    HW226496   4.433   5.421   4.463
 8533SOL     OW26497   2.123   5.682   0.117
 8533SOL    HW126498   2.084   5.699   0.207
 8533SOL    HW226499   2.132   5.768   0.067
 8534SOL     OW26500   5.450   2.155   4.578
 8534SOL    HW126501   5.494   2.224   4.635
 8534SOL    HW226502   5.356   2.142   4.609
 8535SOL     OW26503   6.115   1.084   3.325
 8535SOL    HW126504   6.038   1.065   3.387
 8535SOL    HW226505   6.147   0.999   3.284
 8536SOL     OW26506   6.847   1.813   4.752
 8536SOL    HW126507   6.925   1.795   4.812
 8536SOL    HW226508   6.829   1.911   4.750
 8537SOL     OW26509   5.378   0.788   3.479
 8537SOL    HW126510   5.466   0.816   3.441
 8537SOL    HW226511   5.358   0.843   3.561
 8538SOL     OW26512   1.553   0.956   0.378
 8538SOL    HW126513   1.618   0.992   0.310
 8538SOL    HW226514   1.590   0.972   0.470
 8539SOL     OW26515   6.401   1.004   2.846
 8539SOL    HW126516   6.384   0.907   2.828
 8539SOL    HW226517   6.352   1.060   2.779
 8540SOL     OW26518   5.704   0.364   6.377
 8540SOL    HW126519   5.679   0.267   6.383
 8540SOL    HW226520   5.768   0.386   6.451
 8541SOL     OW26521   3.222   2.136   3.664
 8541SOL    HW126522   3.240   2.174   3.755
 8541SOL    HW226523   3.124   2.142   3.644
 8542SOL     OW26524   4.359   5.183   6.016
 8542SOL    HW126525   4.352   5.125   6.096
 8542SOL    HW226526   4.296   5.150   5.945
 8543SOL     OW26527   2.246   1.931   1.210
 8543SOL    HW126528   2.231   2.030   1.215
 8543SOL    HW226529   2.235   1.891   1.301
 8544SOL     OW26530   5.385   3.486   4.077
 8544SOL    HW126531   5.354   3.489   3.982
 8544SOL    HW226532   5.482   3.507   4.082
 8545SOL     OW26533   4.192   0.263   5.331
 8545SOL    HW126534   4.200   0.166   5.355
 8545SOL    HW226535   4.270   0.313   5.367
 8546SOL     OW26536   5.640   2.006   4.224
 8546SOL    HW126537   5.723   2.007   4.281
 8546SOL    HW226538   5.583   2.084   4.247
 8547SOL     OW26539   1.119   6.583   5.719
 8547SOL    HW126540   1.051   6.575   5.792
 8547SOL    HW226541   1.196   6.522   5.740
 8548SOL     OW26542   6.145   2.902   5.575
 8548SOL    HW126543   6.130   2.986   5.523
 8548SOL    HW226544   6.134   2.822   5.515
 8549SOL     OW26545   0.986   3.414   4.077
 8549SOL    HW126546   0.906   3.469   4.054
 8549SOL    HW226547   1.038   3.394   3.994
 8550SOL     OW26548   1.990   4.890   0.081
 8550SOL    HW126549   2.028   4.914   7.015
 8550SOL    HW226550   2.040   4.811   0.118
 8551SOL     OW26551   3.448   4.228   5.652
 8551SOL    HW126552   3.452   4.140   5.701
 8551SOL    HW226553   3.529   4.282   5.674
 8552SOL     OW26554   2.362   6.397   3.221
 8552SOL    HW126555   2.316   6.326   3.168
 8552SOL    HW226556   2.296   6.442   3.280
 8553SOL     OW26557   4.929   4.967   5.934
 8553SOL    HW126558   4.846   5.005   5.977
 8553SOL    HW226559   4.957   5.026   5.858
 8554SOL     OW26560   0.575   5.240   0.433
 8554SOL    HW126561   0.563   5.304   0.357
 8554SOL    HW226562   0.591   5.148   0.397
 8555SOL     OW26563   1.152   0.093   2.923
 8555SOL    HW126564   1.164   0.177   2.976
 8555SOL    HW226565   1.114   0.116   2.833
 8556SOL     OW26566   0.740   6.355   4.054
 8556SOL    HW126567   0.775   6.448   4.068
 8556SOL    HW226568   0.717   6.314   4.143
 8557SOL     OW26569   6.206   0.365   2.543
 8557SOL    HW126570   6.214   0.387   2.640
 8557SOL    HW226571   6.297   0.370   2.501
 8558SOL     OW26572   2.745   5.579   3.625
 8558SOL    HW126573   2.748   5.479   3.617
 8558SOL    HW226574   2.753   5.621   3.535
 8559SOL     OW26575   6.677   0.852   2.390
 8559SOL    HW126576   6.580   0.868   2.372
 8559SOL    HW226577   6.720   0.812   2.309
 8560SOL     OW26578   0.303   6.599   1.845
 8560SOL    HW126579   0.350   6.619   1.758
 8560SOL    HW226580   0.224   6.659   1.855
 8561SOL     OW26581   3.566   6.876   2.044
 8561SOL    HW126582   3.489   6.902   1.985
 8561SOL    HW226583   3.531   6.826   2.123
 8562SOL     OW26584   4.988   6.071   4.729
 8562SOL    HW126585   4.911   6.135   4.721
 8562SOL    HW226586   5.068   6.119   4.765
 8563SOL     OW26587   2.636   4.803   6.821
 8563SOL    HW126588   2.687   4.833   6.740
 8563SOL    HW226589   2.599   4.883   6.868
 8564SOL     OW26590   2.905   1.267   3.658
 8564SOL    HW126591   2.990   1.291   3.704
 8564SOL    HW226592   2.906   1.170   3.634
 8565SOL     OW26593   4.505   6.245   1.320
 8565SOL    HW126594   4.553   6.313   1.375
 8565SOL    HW226595   4.516   6.267   1.223
 8566SOL     OW26596   1.057   0.619   1.637
 8566SOL    HW126597   1.119   0.562   1.691
 8566SOL    HW226598   0.971   0.569   1.622
 8567SOL     OW26599   6.734   1.210   2.531
 8567SOL    HW126600   6.781   1.131   2.491
 8567SOL    HW226601   6.649   1.226   2.481
 8568SOL     OW26602   5.072   1.149   5.944
 8568SOL    HW126603   5.021   1.146   6.030
 8568SOL    HW226604   5.169   1.166   5.963
 8569SOL     OW26605   5.140   1.589   5.477
 8569SOL    HW126606   5.042   1.601   5.458
 8569SOL    HW226607   5.151   1.515   5.544
 8570SOL     OW26608   1.262   2.565   5.262
 8570SOL    HW126609   1.207   2.647   5.277
 8570SOL    HW226610   1.359   2.590   5.259
 8571SOL     OW26611   0.900   5.489   5.650
 8571SOL    HW126612   0.890   5.546   5.568
 8571SOL    HW226613   0.825   5.506   5.713
 8572SOL     OW26614   3.344   5.142   6.362
 8572SOL    HW126615   3.400   5.176   6.437
 8572SOL    HW226616   3.255   5.113   6.398
 8573SOL     OW26617   3.484   0.101   6.320
 8573SOL    HW126618   3.583   0.092   6.315
 8573SOL    HW226619   3.462   0.185   6.370
 8574SOL     OW26620   0.188   6.063   5.788
 8574SOL    HW126621   0.257   6.118   5.836
 8574SOL    HW226622   0.111   6.046   5.849
 8575SOL     OW26623   3.110   2.798   6.213
 8575SOL    HW126624   3.136   2.748   6.131
 8575SOL    HW226625   3.060   2.738   6.275
 8576SOL     OW26626   1.079   6.143   0.380
 8576SOL    HW126627   1.041   6.164   0.290
 8576SOL    HW226628   1.147   6.212   0.405
 8577SOL     OW26629   6.771   5.771   4.107
 8577SOL    HW126630   6.677   5.804   4.091
 8577SOL    HW226631   6.836   5.838   4.071
 8578SOL     OW26632   5.004   0.646   4.432
 8578SOL    HW126633   5.022   0.551   4.405
 8578SOL    HW226634   4.906   0.661   4.438
 8579SOL     OW26635   1.484   6.450   3.522
 8579SOL    HW126636   1.489   6.411   3.614
 8579SOL    HW226637   1.393   6.488   3.507
 8580SOL     OW26638   2.084   6.615   2.367
 8580SOL    HW126639   2.042   6.705   2.380
 8580SOL    HW226640   2.179   6.627   2.339
 8581SOL     OW26641   3.251   3.168   1.727
 8581SOL    HW126642   3.189   3.111   1.673
 8581SOL    HW226643   3.297   3.111   1.796
 8582SOL     OW26644   4.243   4.935   2.313
 8582SOL    HW126645   4.172   4.866   2.305
 8582SOL    HW226646   4.223   4.995   2.390
 8583SOL     OW26647   5.665   0.827   5.601
 8583SOL    HW126648   5.635   0.734   5.625
 8583SOL    HW226649   5.584   0.884   5.584
 8584SOL     OW26650   0.239   3.687   6.233
 8584SOL    HW126651   0.214   3.781   6.210
 8584SOL    HW226652   0.328   3.687   6.280
 8585SOL     OW26653   0.204   6.658   5.821
 8585SOL    HW126654   0.236   6.747   5.788
 8585SOL    HW226655   0.153   6.612   5.748
 8586SOL     OW26656   2.833   0.052   3.593
 8586SOL    HW126657   2.744   0.067   3.552
 8586SOL    HW226658   2.826   0.058   3.693
 8587SOL     OW26659   1.771   0.180   2.945
 8587SOL    HW126660   1.714   0.262   2.948
 8587SOL    HW226661   1.734   0.116   2.877
 8588SOL     OW26662   2.767   0.882   6.863
 8588SOL    HW126663   2.717   0.901   6.779
 8588SOL    HW226664   2.843   0.820   6.844
 8589SOL     OW26665   4.665   2.747   4.007
 8589SOL    HW126666   4.689   2.663   4.055
 8589SOL    HW226667   4.667   2.824   4.072
 8590SOL     OW26668   6.477   6.305   4.336
 8590SOL    HW126669   6.450   6.400   4.320
 8590SOL    HW226670   6.442   6.247   4.262
 8591SOL     OW26671   1.063   4.834   6.581
 8591SOL    HW126672   1.131   4.800   6.646
 8591SOL    HW226673   1.109   4.862   6.497
 8592SOL     OW26674   6.938   3.644   0.261
 8592SOL    HW126675   6.915   3.710   0.190
 8592SOL    HW226676   6.959   3.693   0.346
 8593SOL     OW26677   1.276   0.217   2.283
 8593SOL    HW126678   1.236   0.308   2.292
 8593SOL    HW226679   1.311   0.205   2.190
 8594SOL     OW26680   3.506   2.984   5.241
 8594SOL    HW126681   3.580   2.923   5.213
 8594SOL    HW226682   3.497   3.058   5.175
 8595SOL     OW26683   2.216   1.588   3.068
 8595SOL    HW126684   2.215   1.630   3.158
 8595SOL    HW226685   2.308   1.594   3.029
 8596SOL     OW26686   6.053   5.602   3.370
 8596SOL    HW126687   6.095   5.681   3.415
 8596SOL    HW226688   6.019   5.630   3.280
 8597SOL     OW26689   4.528   1.570   1.124
 8597SOL    HW126690   4.561   1.658   1.156
 8597SOL    HW226691   4.469   1.529   1.193
 8598SOL     OW26692   6.911   5.754   1.314
 8598SOL    HW126693   6.891   5.777   1.219
 8598SOL    HW226694   6.890   5.657   1.329
 8599SOL     OW26695   0.640   2.777   3.897
 8599SOL    HW126696   0.650   2.875   3.914
 8599SOL    HW226697   0.688   2.752   3.812
 8600SOL     OW26698   5.049   5.132   6.122
 8600SOL    HW126699   5.026   5.058   6.184
 8600SOL    HW226700   5.013   5.111   6.031
 8601SOL     OW26701   1.312   0.657   5.201
 8601SOL    HW126702   1.276   0.623   5.114
 8601SOL    HW226703   1.284   0.595   5.275
 8602SOL     OW26704   3.062   5.769   3.434
 8602SOL    HW126705   3.049   5.715   3.517
 8602SOL    HW226706   3.110   5.854   3.457
 8603SOL     OW26707   3.761   4.977   0.208
 8603SOL    HW126708   3.718   4.960   0.119
 8603SOL    HW226709   3.852   4.935   0.209
 8604SOL     OW26710   0.052   2.797   3.618
 8604SOL    HW126711   0.127   2.806   3.553
 8604SOL    HW226712   0.041   2.882   3.669
 8605SOL     OW26713   3.179   4.977   4.009
 8605SOL    HW126714   3.244   5.049   4.033
 8605SOL    HW226715   3.149   4.930   4.091
 8606SOL     OW26716   2.092   4.532   5.538
 8606SOL    HW126717   2.153   4.580   5.476
 8606SOL    HW226718   2.019   4.488   5.486
 8607SOL     OW26719   3.582   5.487   0.359
 8607SOL    HW126720   3.647   5.558   0.332
 8607SOL    HW226721   3.630   5.414   0.406
 8608SOL     OW26722   4.475   4.897   3.226
 8608SOL    HW126723   4.463   4.995   3.242
 8608SOL    HW226724   4.571   4.873   3.241
 8609SOL     OW26725   4.707   0.623   3.633
 8609SOL    HW126726   4.616   0.602   3.668
 8609SOL    HW226727   4.774   0.611   3.706
 8610SOL     OW26728   1.604   0.945   2.869
 8610SOL    HW126729   1.544   0.929   2.948
 8610SOL    HW226730   1.560   1.010   2.807
 8611SOL     OW26731   2.293   2.479   4.125
 8611SOL    HW126732   2.212   2.431   4.159
 8611SOL    HW226733   2.366   2.475   4.193
 8612SOL     OW26734   2.925   3.262   0.020
 8612SOL    HW126735   2.910   3.271   6.946
 8612SOL    HW226736   2.998   3.196   0.036
 8613SOL     OW26737   2.479   2.427   1.722
 8613SOL    HW126738   2.579   2.430   1.723
 8613SOL    HW226739   2.443   2.520   1.734
 8614SOL     OW26740   0.457   3.262   2.495
 8614SOL    HW126741   0.360   3.238   2.490
 8614SOL    HW226742   0.507   3.215   2.422
 8615SOL     OW26743   4.948   1.848   5.188
 8615SOL    HW126744   4.881   1.908   5.144
 8615SOL    HW226745   5.038   1.863   5.147
 8616SOL     OW26746   2.062   5.182   1.236
 8616SOL    HW126747   2.064   5.232   1.323
 8616SOL    HW226748   2.038   5.245   1.162
 8617SOL     OW26749   6.545   0.993   6.522
 8617SOL    HW126750   6.552   0.908   6.470
 8617SOL    HW226751   6.477   1.053   6.478
 8618SOL     OW26752   5.322   6.810   0.928
 8618SOL    HW126753   5.290   6.716   0.919
 8618SOL    HW226754   5.322   6.853   0.838
 8619SOL     OW26755   2.994   5.105   1.664
 8619SOL    HW126756   3.068   5.059   1.713
 8619SOL    HW226757   2.991   5.201   1.691
 8620SOL     OW26758   6.873   6.963   3.338
 8620SOL    HW126759   6.832   0.001   3.272
 8620SOL    HW226760   6.972   6.962   3.326
 8621SOL     OW26761   6.247   1.979   2.996
 8621SOL    HW126762   6.206   1.967   2.905
 8621SOL    HW226763   6.294   1.895   3.022
 8622SOL     OW26764   5.163   4.117   0.460
 8622SOL    HW126765   5.191   4.167   0.543
 8622SOL    HW226766   5.168   4.179   0.382
 8623SOL     OW26767   0.929   4.074   3.451
 8623SOL    HW126768   0.942   4.148   3.385
 8623SOL    HW226769   0.844   4.025   3.429
 8624SOL     OW26770   1.044   3.769   3.607
 8624SOL    HW126771   1.054   3.865   3.636
 8624SOL    HW226772   1.135   3.729   3.592
 8625SOL     OW26773   4.881   6.764   4.874
 8625SOL    HW126774   4.885   6.862   4.851
 8625SOL    HW226775   4.972   6.733   4.901
 8626SOL     OW26776   3.737   2.764   5.162
 8626SOL    HW126777   3.789   2.815   5.230
 8626SOL    HW226778   3.771   2.786   5.071
 8627SOL     OW26779   0.785   0.848   3.644
 8627SOL    HW126780   0.710   0.795   3.606
 8627SOL    HW226781   0.749   0.928   3.692
 8628SOL     OW26782   6.145   0.139   1.259
 8628SOL    HW126783   6.060   0.128   1.311
 8628SOL    HW226784   6.126   0.187   1.173
 8629SOL     OW26785   1.378   5.580   5.164
 8629SOL    HW126786   1.314   5.584   5.240
 8629SOL    HW226787   1.466   5.618   5.193
 8630SOL     OW26788   5.819   4.120   4.456
 8630SOL    HW126789   5.811   4.178   4.538
 8630SOL    HW226790   5.824   4.024   4.484
 8631SOL     OW26791   3.320   5.578   6.325
 8631SOL    HW126792   3.403   5.531   6.355
 8631SOL    HW226793   3.243   5.549   6.381
 8632SOL     OW26794   3.075   6.647   4.424
 8632SOL    HW126795   2.975   6.648   4.419
 8632SOL    HW226796   3.104   6.577   4.489
 8633SOL     OW26797   4.939   1.109   5.059
 8633SOL    HW126798   4.938   1.028   5.001
 8633SOL    HW226799   5.016   1.103   5.123
 8634SOL     OW26800   5.659   3.131   0.564
 8634SOL    HW126801   5.569   3.155   0.599
 8634SOL    HW226802   5.722   3.208   0.580
 8635SOL     OW26803   6.064   4.395   6.410
 8635SOL    HW126804   6.063   4.338   6.493
 8635SOL    HW226805   6.014   4.348   6.337
 8636SOL     OW26806   5.133   6.046   7.002
 8636SOL    HW126807   5.103   6.040   6.907
 8636SOL    HW226808   5.124   6.140   0.009
 8637SOL     OW26809   1.997   1.051   0.192
 8637SOL    HW126810   2.094   1.041   0.216
 8637SOL    HW226811   1.985   1.131   0.134
 8638SOL     OW26812   2.076   3.072   6.702
 8638SOL    HW126813   2.096   3.053   6.798
 8638SOL    HW226814   2.072   2.987   6.651
 8639SOL     OW26815   6.071   1.924   1.839
 8639SOL    HW126816   6.165   1.890   1.831
 8639SOL    HW226817   6.008   1.859   1.797
 8640SOL     OW26818   4.471   4.029   0.545
 8640SOL    HW126819   4.373   4.009   0.546
 8640SOL    HW226820   4.495   4.074   0.459
 8641SOL     OW26821   6.551   4.627   3.949
 8641SOL    HW126822   6.559   4.609   3.851
 8641SOL    HW226823   6.622   4.577   3.998
 8642SOL     OW26824   3.749   0.942   2.544
 8642SOL    HW126825   3.788   0.887   2.617
 8642SOL    HW226826   3.703   0.882   2.478
 8643SOL     OW26827   4.200   0.140   0.179
 8643SOL    HW126828   4.143   0.164   0.099
 8643SOL    HW226829   4.178   0.047   0.208
 8644SOL     OW26830   4.757   2.471   5.780
 8644SOL    HW126831   4.766   2.416   5.697
 8644SOL    HW226832   4.754   2.568   5.755
 8645SOL     OW26833   5.078   4.398   1.313
 8645SOL    HW126834   5.144   4.338   1.268
 8645SOL    HW226835   5.058   4.476   1.253
 8646SOL     OW26836   6.527   1.562   1.172
 8646SOL    HW126837   6.599   1.625   1.200
 8646SOL    HW226838   6.438   1.599   1.199
 8647SOL     OW26839   2.503   5.114   6.408
 8647SOL    HW126840   2.566   5.122   6.330
 8647SOL    HW226841   2.484   5.205   6.445
 8648SOL     OW26842   6.087   0.697   4.042
 8648SOL    HW126843   6.047   0.779   4.002
 8648SOL    HW226844   6.183   0.713   4.063
 8649SOL     OW26845   5.975   4.726   6.690
 8649SOL    HW126846   6.048   4.698   6.752
 8649SOL    HW226847   5.985   4.679   6.603
 8650SOL     OW26848   1.705   4.235   5.607
 8650SOL    HW126849   1.656   4.277   5.684
 8650SOL    HW226850   1.705   4.298   5.529
 8651SOL     OW26851   3.550   0.579   0.602
 8651SOL    HW126852   3.451   0.586   0.619
 8651SOL    HW226853   3.574   0.636   0.523
 8652SOL     OW26854   1.336   3.797   3.096
 8652SOL    HW126855   1.293   3.876   3.052
 8652SOL    HW226856   1.267   3.729   3.120
 8653SOL     OW26857   5.748   1.461   5.720
 8653SOL    HW126858   5.659   1.427   5.751
 8653SOL    HW226859   5.769   1.547   5.765
 8654SOL     OW26860   1.449   5.820   1.751
 8654SOL    HW126861   1.447   5.723   1.772
 8654SOL    HW226862   1.379   5.841   1.682
 8655SOL     OW26863   5.842   0.891   4.106
 8655SOL    HW126864   5.770   0.831   4.071
 8655SOL    HW226865   5.803   0.981   4.126
 8656SOL     OW26866   6.548   0.812   1.083
 8656SOL    HW126867   6.627   0.850   1.131
 8656SOL    HW226868   6.521   0.873   1.009
 8657SOL     OW26869   4.510   5.131   6.768
 8657SOL    HW126870   4.549   5.142   6.859
 8657SOL    HW226871   4.574   5.079   6.711
 8658SOL     OW26872   4.132   6.425   0.153
 8658SOL    HW126873   4.067   6.458   0.222
 8658SOL    HW226874   4.136   6.325   0.157
 8659SOL     OW26875   4.160   1.473   3.359
 8659SOL    HW126876   4.179   1.570   3.376
 8659SOL    HW226877   4.063   1.455   3.375
 8660SOL     OW26878   5.314   3.768   0.857
 8660SOL    HW126879   5.254   3.765   0.776
 8660SOL    HW226880   5.258   3.786   0.938
 8661SOL     OW26881   5.840   4.023   1.329
 8661SOL    HW126882   5.928   3.992   1.366
 8661SOL    HW226883   5.845   4.120   1.307
 8662SOL     OW26884   5.038   5.840   1.428
 8662SOL    HW126885   5.067   5.778   1.501
 8662SOL    HW226886   5.022   5.787   1.344
 8663SOL     OW26887   2.733   6.127   1.208
 8663SOL    HW126888   2.699   6.039   1.175
 8663SOL    HW226889   2.730   6.194   1.133
 8664SOL     OW26890   3.411   5.849   1.228
 8664SOL    HW126891   3.364   5.837   1.315
 8664SOL    HW226892   3.464   5.767   1.207
 8665SOL     OW26893   5.894   5.747   5.258
 8665SOL    HW126894   5.827   5.756   5.332
 8665SOL    HW226895   5.919   5.837   5.225
 8666SOL     OW26896   4.999   1.856   4.879
 8666SOL    HW126897   5.091   1.824   4.857
 8666SOL    HW226898   5.002   1.955   4.897
 8667SOL     OW26899   4.623   2.506   3.058
 8667SOL    HW126900   4.589   2.550   2.975
 8667SOL    HW226901   4.709   2.549   3.086
 8668SOL     OW26902   5.767   3.145   3.032
 8668SOL    HW126903   5.676   3.124   2.998
 8668SOL    HW226904   5.804   3.224   2.982
 8669SOL     OW26905   2.655   6.319   6.987
 8669SOL    HW126906   2.723   6.381   0.003
 8669SOL    HW226907   2.563   6.350   7.012
 8670SOL     OW26908   3.971   4.657   5.544
 8670SOL    HW126909   3.931   4.728   5.602
 8670SOL    HW226910   3.899   4.610   5.493
 8671SOL     OW26911   5.476   1.853   2.925
 8671SOL    HW126912   5.576   1.848   2.923
 8671SOL    HW226913   5.445   1.852   3.020
 8672SOL     OW26914   2.442   5.104   3.846
 8672SOL    HW126915   2.344   5.084   3.838
 8672SOL    HW226916   2.493   5.050   3.779
 8673SOL     OW26917   6.791   2.017   6.538
 8673SOL    HW126918   6.867   2.043   6.599
 8673SOL    HW226919   6.719   1.972   6.592
 8674SOL     OW26920   5.849   5.693   1.789
 8674SOL    HW126921   5.796   5.627   1.842
 8674SOL    HW226922   5.904   5.645   1.720
 8675SOL     OW26923   3.960   2.069   5.115
 8675SOL    HW126924   3.974   1.985   5.167
 8675SOL    HW226925   4.049   2.113   5.097
 8676SOL     OW26926   4.280   6.795   2.793
 8676SOL    HW126927   4.316   6.832   2.878
 8676SOL    HW226928   4.355   6.755   2.740
 8677SOL     OW26929   2.488   6.481   5.396
 8677SOL    HW126930   2.420   6.431   5.343
 8677SOL    HW226931   2.536   6.419   5.458
 8678SOL     OW26932   0.075   0.371   1.174
 8678SOL    HW126933   7.012   0.346   1.132
 8678SOL    HW226934   0.145   0.377   1.103
 8679SOL     OW26935   6.371   2.891   4.484
 8679SOL    HW126936   6.404   2.807   4.528
 8679SOL    HW226937   6.272   2.899   4.498
 8680SOL     OW26938   0.514   4.392   1.586
 8680SOL    HW126939   0.602   4.385   1.539
 8680SOL    HW226940   0.443   4.350   1.529
 8681SOL     OW26941   4.690   5.379   6.546
 8681SOL    HW126942   4.752   5.321   6.493
 8681SOL    HW226943   4.600   5.380   6.502
 8682SOL     OW26944   4.508   6.715   1.586
 8682SOL    HW126945   4.482   6.700   1.681
 8682SOL    HW226946   4.548   6.806   1.577
 8683SOL     OW26947   1.547   2.280   2.611
 8683SOL    HW126948   1.619   2.349   2.605
 8683SOL    HW226949   1.555   2.216   2.534
 8684SOL     OW26950   1.035   2.763   5.032
 8684SOL    HW126951   0.962   2.818   4.993
 8684SOL    HW226952   1.040   2.777   5.131
 8685SOL     OW26953   0.690   2.570   5.507
 8685SOL    HW126954   0.744   2.494   5.543
 8685SOL    HW226955   0.602   2.535   5.475
 8686SOL     OW26956   0.390   1.677   1.215
 8686SOL    HW126957   0.405   1.583   1.246
 8686SOL    HW226958   0.404   1.682   1.116
 8687SOL     OW26959   3.603   5.715   2.906
 8687SOL    HW126960   3.677   5.653   2.933
 8687SOL    HW226961   3.524   5.661   2.876
 8688SOL     OW26962   3.289   6.540   6.654
 8688SOL    HW126963   3.227   6.619   6.656
 8688SOL    HW226964   3.354   6.550   6.579
 8689SOL     OW26965   3.190   4.504   1.176
 8689SOL    HW126966   3.269   4.444   1.163
 8689SOL    HW226967   3.115   4.476   1.117
 8690SOL     OW26968   2.058   2.687   3.166
 8690SOL    HW126969   2.004   2.754   3.115
 8690SOL    HW226970   1.996   2.629   3.219
 8691SOL     OW26971   3.512   2.062   6.932
 8691SOL    HW126972   3.489   1.976   6.976
 8691SOL    HW226973   3.611   2.066   6.916
 8692SOL     OW26974   3.416   2.071   3.176
 8692SOL    HW126975   3.375   2.140   3.117
 8692SOL    HW226976   3.376   2.077   3.268
 8693SOL     OW26977   6.320   1.124   0.471
 8693SOL    HW126978   6.346   1.171   0.555
 8693SOL    HW226979   6.286   1.032   0.493
 8694SOL     OW26980   3.439   1.197   4.976
 8694SOL    HW126981   3.404   1.257   5.049
 8694SOL    HW226982   3.535   1.177   4.992
 8695SOL     OW26983   4.257   3.180   6.087
 8695SOL    HW126984   4.347   3.138   6.084
 8695SOL    HW226985   4.196   3.133   6.023
 8696SOL     OW26986   2.907   5.967   0.546
 8696SOL    HW126987   2.954   5.970   0.458
 8696SOL    HW226988   2.861   5.878   0.556
 8697SOL     OW26989   6.314   3.322   6.850
 8697SOL    HW126990   6.401   3.287   6.885
 8697SOL    HW226991   6.327   3.358   6.757
 8698SOL     OW26992   5.764   5.654   4.479
 8698SOL    HW126993   5.717   5.628   4.395
 8698SOL    HW226994   5.843   5.594   4.493
 8699SOL     OW26995   1.976   2.797   5.542
 8699SOL    HW126996   1.906   2.727   5.556
 8699SOL    HW226997   2.048   2.786   5.611
 8700SOL     OW26998   1.253   0.714   4.180
 8700SOL    HW126999   1.265   0.806   4.217
 8700SOL    HW227000   1.288   0.647   4.245
 8701SOL     OW27001   1.481   0.586   0.163
 8701SOL    HW127002   1.474   0.616   0.259
 8701SOL    HW227003   1.577   0.574   0.139
 8702SOL     OW27004   5.586   4.346   0.465
 8702SOL    HW127005   5.590   4.257   0.510
 8702SOL    HW227006   5.679   4.377   0.444
 8703SOL     OW27007   2.938   5.511   1.283
 8703SOL    HW127008   2.902   5.588   1.231
 8703SOL    HW227009   3.034   5.528   1.305
 8704SOL     OW27010   6.770   3.344   3.028
 8704SOL    HW127011   6.697   3.377   3.088
 8704SOL    HW227012   6.733   3.331   2.936
 8705SOL     OW27013   5.227   0.534   0.566
 8705SOL    HW127014   5.213   0.532   0.665
 8705SOL    HW227015   5.196   0.448   0.527
 8706SOL     OW27016   4.817   2.036   6.268
 8706SOL    HW127017   4.723   2.033   6.302
 8706SOL    HW227018   4.877   1.989   6.333
 8707SOL     OW27019   6.228   2.466   6.626
 8707SOL    HW127020   6.128   2.458   6.616
 8707SOL    HW227021   6.253   2.445   6.720
 8708SOL     OW27022   4.294   1.720   2.454
 8708SOL    HW127023   4.241   1.666   2.389
 8708SOL    HW227024   4.234   1.749   2.529
 8709SOL     OW27025   6.728   5.714   6.515
 8709SOL    HW127026   6.728   5.661   6.431
 8709SOL    HW227027   6.645   5.693   6.568
 8710SOL     OW27028   2.187   3.180   3.589
 8710SOL    HW127029   2.198   3.233   3.506
 8710SOL    HW227030   2.214   3.085   3.572
 8711SOL     OW27031   0.941   5.839   2.826
 8711SOL    HW127032   0.958   5.937   2.821
 8711SOL    HW227033   0.894   5.809   2.743
 8712SOL     OW27034   4.218   2.208   5.053
 8712SOL    HW127035   4.306   2.164   5.069
 8712SOL    HW227036   4.230   2.307   5.053
 8713SOL     OW27037   0.690   3.711   3.741
 8713SOL    HW127038   0.698   3.638   3.674
 8713SOL    HW227039   0.729   3.681   3.828
 8714SOL     OW27040   0.957   1.261   5.944
 8714SOL    HW127041   0.981   1.357   5.950
 8714SOL    HW227042   1.009   1.208   6.011
 8715SOL     OW27043   4.984   0.390   0.719
 8715SOL    HW127044   4.951   0.306   0.761
 8715SOL    HW227045   4.930   0.411   0.637
 8716SOL     OW27046   0.713   0.085   1.239
 8716SOL    HW127047   0.614   0.081   1.228
 8716SOL    HW227048   0.748   7.021   1.269
 8717SOL     OW27049   3.624   3.559   3.605
 8717SOL    HW127050   3.589   3.518   3.689
 8717SOL    HW227051   3.721   3.582   3.616
 8718SOL     OW27052   0.297   3.410   4.262
 8718SOL    HW127053   0.249   3.387   4.346
 8718SOL    HW227054   0.375   3.348   4.250
 8719SOL     OW27055   2.012   0.003   6.287
 8719SOL    HW127056   2.027   0.069   6.361
 8719SOL    HW227057   2.097   7.015   6.236
 8720SOL     OW27058   6.335   4.775   5.248
 8720SOL    HW127059   6.304   4.719   5.325
 8720SOL    HW227060   6.329   4.871   5.273
 8721SOL     OW27061   6.422   2.220   3.121
 8721SOL    HW127062   6.372   2.150   3.070
 8721SOL    HW227063   6.369   2.305   3.122
 8722SOL     OW27064   4.323   1.360   7.018
 8722SOL    HW127065   4.329   1.421   0.072
 8722SOL    HW227066   4.260   1.398   6.950
 8723SOL     OW27067   4.704   5.351   1.356
 8723SOL    HW127068   4.689   5.253   1.342
 8723SOL    HW227069   4.633   5.387   1.417
 8724SOL     OW27070   5.997   0.046   6.004
 8724SOL    HW127071   6.044   0.125   5.966
 8724SOL    HW227072   6.059   6.992   6.005
 8725SOL     OW27073   2.038   0.172   0.034
 8725SOL    HW127074   2.049   0.271   0.048
 8725SOL    HW227075   2.127   0.127   0.040
 8726SOL     OW27076   6.096   0.363   1.903
 8726SOL    HW127077   6.169   0.296   1.892
 8726SOL    HW227078   6.100   0.430   1.829
 8727SOL     OW27079   6.559   6.415   2.017
 8727SOL    HW127080   6.626   6.346   2.043
 8727SOL    HW227081   6.605   6.489   1.968
 8728SOL     OW27082   3.948   0.364   4.428
 8728SOL    HW127083   4.037   0.365   4.473
 8728SOL    HW227084   3.892   0.291   4.469
 8729SOL     OW27085   4.711   5.527   3.616
 8729SOL    HW127086   4.705   5.559   3.521
 8729SOL    HW227087   4.806   5.504   3.637
 8730SOL     OW27088   6.558   4.213   2.644
 8730SOL    HW127089   6.569   4.151   2.721
 8730SOL    HW227090   6.643   4.263   2.629
 8731SOL     OW27091   1.637   2.587   2.595
 8731SOL    HW127092   1.723   2.639   2.594
 8731SOL    HW227093   1.600   2.585   2.688
 8732SOL     OW27094   5.793   4.094   1.704
 8732SOL    HW127095   5.786   4.177   1.650
 8732SOL    HW227096   5.875   4.044   1.678
 8733SOL     OW27097   1.970   5.639   2.340
 8733SOL    HW127098   1.885   5.685   2.365
 8733SOL    HW227099   1.953   5.541   2.332
 8734SOL     OW27100   0.844   4.444   2.002
 8734SOL    HW127101   0.802   4.535   2.013
 8734SOL    HW227102   0.915   4.432   2.072
 8735SOL     OW27103   0.861   1.560   7.014
 8735SOL    HW127104   0.797   1.554   6.937
 8735SOL    HW227105   0.819   1.610   0.065
 8736SOL     OW27106   0.450   6.551   5.837
 8736SOL    HW127107   0.365   6.600   5.815
 8736SOL    HW227108   0.460   6.472   5.776
 8737SOL     OW27109   2.409   6.665   6.096
 8737SOL    HW127110   2.502   6.636   6.119
 8737SOL    HW227111   2.348   6.643   6.172
 8738SOL     OW27112   2.051   5.527   4.610
 8738SOL    HW127113   2.061   5.430   4.587
 8738SOL    HW227114   1.959   5.558   4.588
 8739SOL     OW27115   6.147   5.392   6.087
 8739SOL    HW127116   6.229   5.353   6.128
 8739SOL    HW227117   6.100   5.448   6.155
 8740SOL     OW27118   4.875   0.539   4.904
 8740SOL    HW127119   4.926   0.499   4.980
 8740SOL    HW227120   4.939   0.574   4.835
 8741SOL     OW27121   2.662   0.792   1.762
 8741SOL    HW127122   2.623   0.745   1.682
 8741SOL    HW227123   2.674   0.889   1.741
 8742SOL     OW27124   5.644   6.192   1.562
 8742SOL    HW127125   5.550   6.170   1.588
 8742SOL    HW227126   5.704   6.115   1.586
 8743SOL     OW27127   1.744   0.440   2.426
 8743SOL    HW127128   1.714   0.414   2.517
 8743SOL    HW227129   1.843   0.428   2.418
 8744SOL     OW27130   3.574   2.668   6.100
 8744SOL    HW127131   3.656   2.637   6.052
 8744SOL    HW227132   3.570   2.625   6.191
 8745SOL     OW27133   6.272   2.948   5.830
 8745SOL    HW127134   6.239   2.878   5.893
 8745SOL    HW227135   6.230   2.936   5.740
 8746SOL     OW27136   4.857   3.845   5.110
 8746SOL    HW127137   4.832   3.752   5.084
 8746SOL    HW227138   4.954   3.848   5.136
 8747SOL     OW27139   0.101   2.326   2.733
 8747SOL    HW127140   0.112   2.276   2.818
 8747SOL    HW227141   0.147   2.277   2.659
 8748SOL     OW27142   0.754   1.457   5.692
 8748SOL    HW127143   0.841   1.466   5.643
 8748SOL    HW227144   0.747   1.366   5.732
 8749SOL     OW27145   2.492   0.277   6.584
 8749SOL    HW127146   2.447   0.358   6.623
 8749SOL    HW227147   2.474   0.273   6.486
 8750SOL     OW27148   3.062   3.314   5.794
 8750SOL    HW127149   3.146   3.316   5.741
 8750SOL    HW227150   3.000   3.245   5.756
 8751SOL     OW27151   6.435   0.077   2.894
 8751SOL    HW127152   6.495   0.130   2.834
 8751SOL    HW227153   6.461   7.005   2.891
 8752SOL     OW27154   2.577   5.138   6.761
 8752SOL    HW127155   2.577   5.215   6.697
 8752SOL    HW227156   2.653   5.077   6.741
 8753SOL     OW27157   4.843   1.649   4.946
 8753SOL    HW127158   4.898   1.731   4.934
 8753SOL    HW227159   4.899   1.568   4.928
 8754SOL     OW27160   1.224   2.453   4.997
 8754SOL    HW127161   1.137   2.478   4.952
 8754SOL    HW227162   1.221   2.481   5.093
 8755SOL     OW27163   2.233   1.031   6.563
 8755SOL    HW127164   2.300   1.072   6.501
 8755SOL    HW227165   2.144   1.075   6.551
 8756SOL     OW27166   2.167   3.270   3.309
 8756SOL    HW127167   2.193   3.365   3.293
 8756SOL    HW227168   2.153   3.224   3.222
 8757SOL     OW27169   5.588   6.570   5.951
 8757SOL    HW127170   5.537   6.650   5.982
 8757SOL    HW227171   5.535   6.521   5.882
 8758SOL     OW27172   4.623   6.562   1.839
 8758SOL    HW127173   4.616   6.517   1.928
 8758SOL    HW227174   4.552   6.632   1.831
 8759SOL     OW27175   3.718   2.341   0.157
 8759SOL    HW127176   3.768   2.422   0.130
 8759SOL    HW227177   3.622   2.350   0.131
 8760SOL     OW27178   1.388   1.669   5.056
 8760SOL    HW127179   1.450   1.740   5.090
 8760SOL    HW227180   1.440   1.603   5.001
 8761SOL     OW27181   4.649   1.447   1.844
 8761SOL    HW127182   4.591   1.507   1.789
 8761SOL    HW227183   4.642   1.354   1.810
 8762SOL     OW27184   0.598   4.276   2.050
 8762SOL    HW127185   0.601   4.353   2.114
 8762SOL    HW227186   0.688   4.263   2.009
 8763SOL     OW27187   5.887   5.789   5.886
 8763SOL    HW127188   5.983   5.813   5.873
 8763SOL    HW227189   5.831   5.871   5.882
 8764SOL     OW27190   4.702   0.955   4.451
 8764SOL    HW127191   4.740   1.039   4.411
 8764SOL    HW227192   4.694   0.967   4.550
 8765SOL     OW27193   6.374   6.387   5.141
 8765SOL    HW127194   6.347   6.373   5.046
 8765SOL    HW227195   6.420   6.475   5.151
 8766SOL     OW27196   3.894   5.104   3.030
 8766SOL    HW127197   3.946   5.189   3.021
 8766SOL    HW227198   3.940   5.042   3.093
 8767SOL     OW27199   3.972   6.878   3.171
 8767SOL    HW127200   4.054   6.925   3.139
 8767SOL    HW227201   3.907   6.945   3.206
 8768SOL     OW27202   0.837   3.320   0.548
 8768SOL    HW127203   0.755   3.358   0.506
 8768SOL    HW227204   0.892   3.274   0.478
 8769SOL     OW27205   1.649   6.885   4.192
 8769SOL    HW127206   1.659   6.814   4.262
 8769SOL    HW227207   1.580   6.951   4.222
 8770SOL     OW27208   5.178   3.490   1.952
 8770SOL    HW127209   5.090   3.464   1.910
 8770SOL    HW227210   5.253   3.450   1.899
 8771SOL     OW27211   0.922   0.147   5.758
 8771SOL    HW127212   0.845   0.193   5.714
 8771SOL    HW227213   0.899   0.129   5.854
 8772SOL     OW27214   5.571   6.745   6.700
 8772SOL    HW127215   5.556   6.836   6.662
 8772SOL    HW227216   5.608   6.754   6.793
 8773SOL     OW27217   4.530   2.552   3.885
 8773SOL    HW127218   4.557   2.644   3.913
 8773SOL    HW227219   4.460   2.516   3.947
 8774SOL     OW27220   2.497   2.006   0.469
 8774SOL    HW127221   2.442   1.950   0.406
 8774SOL    HW227222   2.529   1.949   0.545
 8775SOL     OW27223   6.641   0.084   5.111
 8775SOL    HW127224   6.653   0.156   5.179
 8775SOL    HW227225   6.544   0.057   5.107
 8776SOL     OW27226   3.342   3.902   4.414
 8776SOL    HW127227   3.257   3.949   4.437
 8776SOL    HW227228   3.411   3.969   4.386
 8777SOL     OW27229   0.219   4.018   1.575
 8777SOL    HW127230   0.176   4.091   1.627
 8777SOL    HW227231   0.314   4.006   1.604
 8778SOL     OW27232   5.850   2.011   4.404
 8778SOL    HW127233   5.895   1.925   4.380
 8778SOL    HW227234   5.878   2.039   4.495
 8779SOL     OW27235   2.850   5.216   1.936
 8779SOL    HW127236   2.750   5.213   1.940
 8779SOL    HW227237   2.879   5.287   1.871
 8780SOL     OW27238   1.238   5.405   3.391
 8780SOL    HW127239   1.162   5.451   3.344
 8780SOL    HW227240   1.270   5.329   3.335
 8781SOL     OW27241   6.312   1.823   4.074
 8781SOL    HW127242   6.397   1.843   4.027
 8781SOL    HW227243   6.321   1.737   4.125
 8782SOL     OW27244   5.071   0.251   1.754
 8782SOL    HW127245   5.159   0.231   1.711
 8782SOL    HW227246   5.086   0.296   1.841
 8783SOL     OW27247   6.545   4.347   3.551
 8783SOL    HW127248   6.644   4.357   3.554
 8783SOL    HW227249   6.512   4.358   3.457
 8784SOL     OW27250   5.810   3.953   6.329
 8784SOL    HW127251   5.788   3.996   6.241
 8784SOL    HW227252   5.725   3.932   6.378
 8785SOL     OW27253   6.891   3.542   6.823
 8785SOL    HW127254   6.957   3.468   6.811
 8785SOL    HW227255   6.830   3.545   6.743
 8786SOL     OW27256   2.513   6.443   0.675
 8786SOL    HW127257   2.506   6.482   0.767
 8786SOL    HW227258   2.438   6.479   0.619
 8787SOL     OW27259   2.011   2.969   2.406
 8787SOL    HW127260   1.941   2.909   2.445
 8787SOL    HW227261   2.092   2.968   2.465
 8788SOL     OW27262   6.957   2.285   5.708
 8788SOL    HW127263   6.949   2.190   5.739
 8788SOL    HW227264   6.872   2.333   5.724
 8789SOL     OW27265   6.272   6.837   5.408
 8789SOL    HW127266   6.255   6.927   5.367
 8789SOL    HW227267   6.209   6.823   5.484
 8790SOL     OW27268   0.135   0.955   7.016
 8790SOL    HW127269   0.082   0.990   6.938
 8790SOL    HW227270   0.177   1.031   0.040
 8791SOL     OW27271   5.714   6.880   5.028
 8791SOL    HW127272   5.734   6.788   5.062
 8791SOL    HW227273   5.667   6.932   5.099
 8792SOL     OW27274   3.711   5.957   3.763
 8792SOL    HW127275   3.650   5.882   3.736
 8792SOL    HW227276   3.678   6.042   3.722
 8793SOL     OW27277   1.294   5.949   3.891
 8793SOL    HW127278   1.198   5.969   3.913
 8793SOL    HW227279   1.311   5.971   3.795
 8794SOL     OW27280   4.254   6.719   1.455
 8794SOL    HW127281   4.338   6.694   1.503
 8794SOL    HW227282   4.178   6.719   1.520
 8795SOL     OW27283   1.178   6.722   4.584
 8795SOL    HW127284   1.201   6.754   4.676
 8795SOL    HW227285   1.159   6.624   4.588
 8796SOL     OW27286   4.238   0.795   4.554
 8796SOL    HW127287   4.211   0.767   4.462
 8796SOL    HW227288   4.185   0.876   4.580
 8797SOL     OW27289   1.183   6.839   4.893
 8797SOL    HW127290   1.136   6.910   4.945
 8797SOL    HW227291   1.281   6.847   4.907
 8798SOL     OW27292   5.178   5.096   5.018
 8798SOL    HW127293   5.254   5.123   4.959
 8798SOL    HW227294   5.100   5.068   4.961
 8799SOL     OW27295   1.896   4.257   3.791
 8799SOL    HW127296   1.912   4.173   3.841
 8799SOL    HW227297   1.979   4.314   3.794
 8800SOL     OW27298   6.314   4.347   5.393
 8800SOL    HW127299   6.325   4.315   5.299
 8800SOL    HW227300   6.259   4.282   5.444
 8801SOL     OW27301   0.920   1.396   4.296
 8801SOL    HW127302   0.962   1.364   4.381
 8801SOL    HW227303   0.935   1.494   4.286
 8802SOL     OW27304   1.637   0.248   0.573
 8802SOL    HW127305   1.639   0.348   0.572
 8802SOL    HW227306   1.642   0.213   0.480
 8803SOL     OW27307   0.332   5.454   5.592
 8803SOL    HW127308   0.349   5.363   5.554
 8803SOL    HW227309   0.383   5.464   5.678
 8804SOL     OW27310   3.343   6.941   1.649
 8804SOL    HW127311   3.404   6.861   1.660
 8804SOL    HW227312   3.334   6.988   1.736
 8805SOL     OW27313   2.483   0.340   4.354
 8805SOL    HW127314   2.482   0.253   4.305
 8805SOL    HW227315   2.568   0.389   4.333
 8806SOL     OW27316   2.260   5.145   1.621
 8806SOL    HW127317   2.223   5.091   1.696
 8806SOL    HW227318   2.311   5.085   1.559
 8807SOL     OW27319   6.199   6.673   6.405
 8807SOL    HW127320   6.263   6.665   6.329
 8807SOL    HW227321   6.112   6.631   6.379
 8808SOL     OW27322   5.558   2.464   0.549
 8808SOL    HW127323   5.531   2.426   0.461
 8808SOL    HW227324   5.550   2.394   0.620
 8809SOL     OW27325   4.742   4.877   3.311
 8809SOL    HW127326   4.807   4.952   3.306
 8809SOL    HW227327   4.755   4.815   3.234
 8810SOL     OW27328   5.488   0.923   6.425
 8810SOL    HW127329   5.506   0.928   6.327
 8810SOL    HW227330   5.389   0.922   6.441
 8811SOL     OW27331   2.944   1.491   3.866
 8811SOL    HW127332   2.988   1.572   3.905
 8811SOL    HW227333   3.011   1.439   3.812
 8812SOL     OW27334   1.758   0.445   1.399
 8812SOL    HW127335   1.809   0.367   1.434
 8812SOL    HW227336   1.669   0.415   1.366
 8813SOL     OW27337   1.299   4.363   1.803
 8813SOL    HW127338   1.267   4.288   1.861
 8813SOL    HW227339   1.276   4.450   1.848
 8814SOL     OW27340   5.910   0.851   0.788
 8814SOL    HW127341   5.992   0.802   0.758
 8814SOL    HW227342   5.874   0.808   0.871
 8815SOL     OW27343   6.554   6.063   0.740
 8815SOL    HW127344   6.588   6.002   0.668
 8815SOL    HW227345   6.550   6.014   0.827
 8816SOL     OW27346   2.082   0.717   0.600
 8816SOL    HW127347   2.164   0.765   0.630
 8816SOL    HW227348   2.078   0.627   0.642
 8817SOL     OW27349   0.859   6.130   5.508
 8817SOL    HW127350   0.803   6.169   5.582
 8817SOL    HW227351   0.935   6.192   5.488
 8818SOL     OW27352   0.124   2.993   4.002
 8818SOL    HW127353   0.053   3.042   4.053
 8818SOL    HW227354   0.146   2.908   4.049
 8819SOL     OW27355   4.550   5.218   4.654
 8819SOL    HW127356   4.629   5.185   4.603
 8819SOL    HW227357   4.466   5.187   4.609
 8820SOL     OW27358   2.384   1.425   4.762
 8820SOL    HW127359   2.321   1.440   4.686
 8820SOL    HW227360   2.424   1.512   4.790
 8821SOL     OW27361   2.876   6.444   0.063
 8821SOL    HW127362   2.934   6.451   7.006
 8821SOL    HW227363   2.927   6.401   0.137
 8822SOL     OW27364   0.891   0.075   4.223
 8822SOL    HW127365   0.791   0.072   4.227
 8822SOL    HW227366   0.927   0.120   4.305
 8823SOL     OW27367   2.157   0.725   1.011
 8823SOL    HW127368   2.117   0.739   1.101
 8823SOL    HW227369   2.086   0.730   0.941
 8824SOL     OW27370   1.015   2.983   1.319
 8824SOL    HW127371   1.077   2.905   1.320
 8824SOL    HW227372   1.002   3.014   1.224
 8825SOL     OW27373   1.915   0.025   3.141
 8825SOL    HW127374   1.859   0.078   3.077
 8825SOL    HW227375   1.921   0.074   3.228
 8826SOL     OW27376   6.444   3.003   0.394
 8826SOL    HW127377   6.515   2.976   0.328
 8826SOL    HW227378   6.364   3.036   0.345
 8827SOL     OW27379   3.648   1.163   2.712
 8827SOL    HW127380   3.710   1.094   2.674
 8827SOL    HW227381   3.665   1.173   2.810
 8828SOL     OW27382   4.502   5.579   4.877
 8828SOL    HW127383   4.418   5.599   4.827
 8828SOL    HW227384   4.561   5.520   4.822
 8829SOL     OW27385   0.319   2.170   0.392
 8829SOL    HW127386   0.365   2.084   0.413
 8829SOL    HW227387   0.231   2.173   0.439
 8830SOL     OW27388   0.224   1.702   1.516
 8830SOL    HW127389   0.281   1.778   1.548
 8830SOL    HW227390   0.210   1.637   1.590
 8831SOL     OW27391   5.375   0.974   3.775
 8831SOL    HW127392   5.311   0.978   3.851
 8831SOL    HW227393   5.449   0.910   3.797
 8832SOL     OW27394   7.005   5.960   2.920
 8832SOL    HW127395   7.005   5.869   2.878
 8832SOL    HW227396   7.024   6.029   2.849
 8833SOL     OW27397   2.526   6.359   5.796
 8833SOL    HW127398   2.436   6.399   5.780
 8833SOL    HW227399   2.554   6.305   5.716
 8834SOL     OW27400   5.372   3.140   4.391
 8834SOL    HW127401   5.461   3.096   4.403
 8834SOL    HW227402   5.351   3.148   4.294
 8835SOL     OW27403   6.089   1.524   5.858
 8835SOL    HW127404   6.104   1.534   5.760
 8835SOL    HW227405   6.003   1.567   5.883
 8836SOL     OW27406   4.526   1.859   6.741
 8836SOL    HW127407   4.570   1.921   6.806
 8836SOL    HW227408   4.478   1.912   6.671
 8837SOL     OW27409   0.237   6.347   2.834
 8837SOL    HW127410   0.316   6.339   2.895
 8837SOL    HW227411   0.267   6.384   2.746
 8838SOL     OW27412   2.913   4.726   2.696
 8838SOL    HW127413   2.827   4.771   2.670
 8838SOL    HW227414   2.910   4.703   2.794
 8839SOL     OW27415   5.255   5.539   2.156
 8839SOL    HW127416   5.167   5.492   2.163
 8839SOL    HW227417   5.306   5.502   2.079
 8840SOL     OW27418   6.538   1.578   1.588
 8840SOL    HW127419   6.479   1.577   1.669
 8840SOL    HW227420   6.513   1.503   1.527
 8841SOL     OW27421   1.087   0.021   5.055
 8841SOL    HW127422   1.179   0.045   5.086
 8841SOL    HW227423   1.029   0.102   5.057
 8842SOL     OW27424   2.830   2.959   1.748
 8842SOL    HW127425   2.925   2.986   1.735
 8842SOL    HW227426   2.822   2.859   1.740
 8843SOL     OW27427   1.736   3.496   5.025
 8843SOL    HW127428   1.761   3.401   5.039
 8843SOL    HW227429   1.765   3.525   4.933
 8844SOL     OW27430   5.940   2.093   6.894
 8844SOL    HW127431   6.010   2.048   6.951
 8844SOL    HW227432   5.850   2.062   6.923
 8845SOL     OW27433   4.873   3.708   6.986
 8845SOL    HW127434   4.806   3.759   0.015
 8845SOL    HW227435   4.934   3.773   6.939
 8846SOL     OW27436   3.097   5.667   3.717
 8846SOL    HW127437   3.058   5.599   3.779
 8846SOL    HW227438   3.190   5.689   3.746
 8847SOL     OW27439   3.276   1.177   2.278
 8847SOL    HW127440   3.372   1.152   2.281
 8847SOL    HW227441   3.261   1.261   2.329
 8848SOL     OW27442   2.493   6.960   2.175
 8848SOL    HW127443   2.561   6.924   2.239
 8848SOL    HW227444   2.458   6.885   2.119
 8849SOL     OW27445   3.302   5.802   2.822
 8849SOL    HW127446   3.302   5.882   2.883
 8849SOL    HW227447   3.329   5.831   2.730
 8850SOL     OW27448   1.376   2.222   0.094
 8850SOL    HW127449   1.305   2.278   0.138
 8850SOL    HW227450   1.392   2.255   0.001
 8851SOL     OW27451   1.774   4.005   2.600
 8851SOL    HW127452   1.741   4.071   2.668
 8851SOL    HW227453   1.740   4.031   2.509
 8852SOL     OW27454   0.729   1.949   4.877
 8852SOL    HW127455   0.773   1.982   4.960
 8852SOL    HW227456   0.631   1.938   4.893
 8853SOL     OW27457   2.849   0.249   1.521
 8853SOL    HW127458   2.800   0.163   1.539
 8853SOL    HW227459   2.939   0.229   1.483
 8854SOL     OW27460   2.043   3.322   4.831
 8854SOL    HW127461   2.060   3.316   4.930
 8854SOL    HW227462   1.944   3.326   4.815
 8855SOL     OW27463   6.660   5.063   1.220
 8855SOL    HW127464   6.744   5.069   1.274
 8855SOL    HW227465   6.596   5.000   1.266
 8856SOL     OW27466   0.597   6.408   6.061
 8856SOL    HW127467   0.546   6.484   6.020
 8856SOL    HW227468   0.614   6.428   6.158
 8857SOL     OW27469   6.474   1.571   4.489
 8857SOL    HW127470   6.546   1.609   4.546
 8857SOL    HW227471   6.491   1.473   4.474
 8858SOL     OW27472   0.130   4.027   4.321
 8858SOL    HW127473   0.126   4.098   4.251
 8858SOL    HW227474   0.142   3.938   4.277
 8859SOL     OW27475   1.186   1.138   3.801
 8859SOL    HW127476   1.099   1.098   3.830
 8859SOL    HW227477   1.246   1.147   3.880
 8860SOL     OW27478   6.749   1.919   1.440
 8860SOL    HW127479   6.849   1.915   1.436
 8860SOL    HW227480   6.721   2.010   1.472
 8861SOL     OW27481   4.093   1.494   6.549
 8861SOL    HW127482   4.054   1.489   6.641
 8861SOL    HW227483   4.062   1.416   6.495
 8862SOL     OW27484   5.537   6.924   4.041
 8862SOL    HW127485   5.557   6.856   3.970
 8862SOL    HW227486   5.586   6.900   4.125
 8863SOL     OW27487   2.315   4.637   3.352
 8863SOL    HW127488   2.318   4.719   3.409
 8863SOL    HW227489   2.362   4.562   3.399
 8864SOL     OW27490   3.825   4.389   5.959
 8864SOL    HW127491   3.730   4.370   5.935
 8864SOL    HW227492   3.840   4.487   5.961
 8865SOL     OW27493   3.644   0.893   4.615
 8865SOL    HW127494   3.589   0.955   4.672
 8865SOL    HW227495   3.591   0.809   4.597
 8866SOL     OW27496   5.555   6.818   3.146
 8866SOL    HW127497   5.523   6.885   3.079
 8866SOL    HW227498   5.507   6.731   3.133
 8867SOL     OW27499   5.731   4.381   3.677
 8867SOL    HW127500   5.817   4.358   3.724
 8867SOL    HW227501   5.655   4.334   3.723
 8868SOL     OW27502   6.837   3.239   2.394
 8868SOL    HW127503   6.862   3.162   2.336
 8868SOL    HW227504   6.892   3.319   2.369
 8869SOL     OW27505   4.492   5.993   5.232
 8869SOL    HW127506   4.464   5.942   5.150
 8869SOL    HW227507   4.548   6.071   5.206
 8870SOL     OW27508   1.861   6.525   1.861
 8870SOL    HW127509   1.810   6.494   1.941
 8870SOL    HW227510   1.897   6.617   1.878
 8871SOL     OW27511   2.172   0.589   3.628
 8871SOL    HW127512   2.115   0.652   3.575
 8871SOL    HW227513   2.247   0.640   3.671
 8872SOL     OW27514   1.107   4.885   5.966
 8872SOL    HW127515   1.083   4.959   5.903
 8872SOL    HW227516   1.052   4.891   6.049
 8873SOL     OW27517   2.001   6.736   2.012
 8873SOL    HW127518   2.074   6.800   2.037
 8873SOL    HW227519   1.920   6.753   2.068
 8874SOL     OW27520   1.780   5.842   2.370
 8874SOL    HW127521   1.795   5.882   2.461
 8874SOL    HW227522   1.706   5.776   2.375
 8875SOL     OW27523   6.989   3.449   4.343
 8875SOL    HW127524   0.042   3.402   4.385
 8875SOL    HW227525   6.928   3.484   4.414
 8876SOL     OW27526   2.493   0.884   6.320
 8876SOL    HW127527   2.581   0.896   6.367
 8876SOL    HW227528   2.431   0.957   6.349
 8877SOL     OW27529   1.930   2.660   3.570
 8877SOL    HW127530   1.895   2.753   3.586
 8877SOL    HW227531   1.886   2.621   3.489
 8878SOL     OW27532   3.318   5.171   1.363
 8878SOL    HW127533   3.407   5.162   1.407
 8878SOL    HW227534   3.279   5.261   1.383
 8879SOL     OW27535   5.298   4.892   2.171
 8879SOL    HW127536   5.393   4.868   2.190
 8879SOL    HW227537   5.245   4.884   2.255
 8880SOL     OW27538   4.413   6.388   5.145
 8880SOL    HW127539   4.350   6.389   5.223
 8880SOL    HW227540   4.501   6.351   5.174
 8881SOL     OW27541   5.473   5.555   4.400
 8881SOL    HW127542   5.518   5.632   4.355
 8881SOL    HW227543   5.526   5.472   4.384
 8882SOL     OW27544   4.430   0.957   1.193
 8882SOL    HW127545   4.416   1.036   1.133
 8882SOL    HW227546   4.521   0.918   1.176
 8883SOL     OW27547   1.385   6.576   6.206
 8883SOL    HW127548   1.389   6.676   6.206
 8883SOL    HW227549   1.354   6.545   6.296
 8884SOL     OW27550   6.304   3.562   6.016
 8884SOL    HW127551   6.334   3.514   5.934
 8884SOL    HW227552   6.319   3.504   6.096
 8885SOL     OW27553   4.781   4.887   0.881
 8885SOL    HW127554   4.734   4.939   0.952
 8885SOL    HW227555   4.733   4.800   0.867
 8886SOL     OW27556   3.543   5.885   6.013
 8886SOL    HW127557   3.516   5.833   5.932
 8886SOL    HW227558   3.554   5.823   6.091
 8887SOL     OW27559   3.892   0.855   0.875
 8887SOL    HW127560   3.945   0.917   0.933
 8887SOL    HW227561   3.943   0.770   0.861
 8888SOL     OW27562   1.924   2.276   4.729
 8888SOL    HW127563   1.922   2.367   4.688
 8888SOL    HW227564   1.849   2.268   4.795
 8889SOL     OW27565   0.001   6.292   6.584
 8889SOL    HW127566   0.080   6.337   6.542
 8889SOL    HW227567   0.030   6.246   6.668
 8890SOL     OW27568   0.823   6.081   6.098
 8890SOL    HW127569   0.840   6.168   6.052
 8890SOL    HW227570   0.734   6.084   6.143
 8891SOL     OW27571   4.370   4.550   0.433
 8891SOL    HW127572   4.329   4.478   0.377
 8891SOL    HW227573   4.299   4.615   0.460
 8892SOL     OW27574   3.730   4.928   3.493
 8892SOL    HW127575   3.644   4.976   3.479
 8892SOL    HW227576   3.734   4.893   3.587
 8893SOL     OW27577   1.267   5.132   4.864
 8893SOL    HW127578   1.273   5.216   4.918
 8893SOL    HW227579   1.174   5.124   4.827
 8894SOL     OW27580   3.312   2.057   6.700
 8894SOL    HW127581   3.358   2.061   6.789
 8894SOL    HW227582   3.245   2.130   6.694
 8895SOL     OW27583   0.359   2.338   1.210
 8895SOL    HW127584   0.348   2.410   1.279
 8895SOL    HW227585   0.271   2.318   1.168
 8896SOL     OW27586   1.688   3.202   4.346
 8896SOL    HW127587   1.596   3.241   4.345
 8896SOL    HW227588   1.710   3.166   4.255
 8897SOL     OW27589   2.189   2.553   3.495
 8897SOL    HW127590   2.100   2.590   3.523
 8897SOL    HW227591   2.240   2.624   3.447
 8898SOL     OW27592   5.472   3.292   2.072
 8898SOL    HW127593   5.488   3.251   2.162
 8898SOL    HW227594   5.392   3.250   2.030
 8899SOL     OW27595   1.391   4.500   0.330
 8899SOL    HW127596   1.418   4.440   0.255
 8899SOL    HW227597   1.294   4.487   0.349
 8900SOL     OW27598   5.313   2.884   3.087
 8900SOL    HW127599   5.273   2.957   3.142
 8900SOL    HW227600   5.401   2.857   3.126
 8901SOL     OW27601   0.639   1.051   4.101
 8901SOL    HW127602   0.728   1.095   4.104
 8901SOL    HW227603   0.589   1.081   4.020
 8902SOL     OW27604   1.390   5.597   6.828
 8902SOL    HW127605   1.362   5.632   6.739
 8902SOL    HW227606   1.459   5.658   6.867
 8903SOL     OW27607   0.859   2.033   4.639
 8903SOL    HW127608   0.806   1.998   4.716
 8903SOL    HW227609   0.862   2.132   4.642
 8904SOL     OW27610   0.623   1.495   4.273
 8904SOL    HW127611   0.622   1.593   4.294
 8904SOL    HW227612   0.717   1.463   4.267
 8905SOL     OW27613   2.251   2.978   2.578
 8905SOL    HW127614   2.315   3.053   2.593
 8905SOL    HW227615   2.168   2.994   2.632
 8906SOL     OW27616   1.531   5.904   0.779
 8906SOL    HW127617   1.493   5.885   0.688
 8906SOL    HW227618   1.463   5.954   0.833
 8907SOL     OW27619   3.533   2.697   5.564
 8907SOL    HW127620   3.535   2.795   5.544
 8907SOL    HW227621   3.438   2.667   5.576
 8908SOL     OW27622   1.858   5.706   6.810
 8908SOL    HW127623   1.943   5.661   6.838
 8908SOL    HW227624   1.822   5.760   6.887
 8909SOL     OW27625   2.766   1.224   6.287
 8909SOL    HW127626   2.785   1.213   6.189
 8909SOL    HW227627   2.747   1.320   6.306
 8910SOL     OW27628   0.440   2.666   5.323
 8910SOL    HW127629   0.531   2.688   5.286
 8910SOL    HW227630   0.396   2.598   5.266
 8911SOL     OW27631   5.099   3.268   5.016
 8911SOL    HW127632   5.106   3.364   5.046
 8911SOL    HW227633   5.184   3.242   4.970
 8912SOL     OW27634   2.351   3.245   6.346
 8912SOL    HW127635   2.357   3.316   6.276
 8912SOL    HW227636   2.262   3.201   6.342
 8913SOL     OW27637   4.201   5.103   6.364
 8913SOL    HW127638   4.260   5.137   6.437
 8913SOL    HW227639   4.112   5.077   6.402
 8914SOL     OW27640   4.849   6.832   4.570
 8914SOL    HW127641   4.901   6.775   4.634
 8914SOL    HW227642   4.800   6.903   4.621
 8915SOL     OW27643   1.214   2.002   4.339
 8915SOL    HW127644   1.301   1.952   4.336
 8915SOL    HW227645   1.232   2.099   4.356
 8916SOL     OW27646   6.411   2.644   6.832
 8916SOL    HW127647   6.378   2.734   6.805
 8916SOL    HW227648   6.497   2.625   6.784
 8917SOL     OW27649   5.445   2.777   1.512
 8917SOL    HW127650   5.369   2.712   1.508
 8917SOL    HW227651   5.449   2.817   1.603
 8918SOL     OW27652   1.118   5.075   0.476
 8918SOL    HW127653   1.020   5.070   0.458
 8918SOL    HW227654   1.133   5.099   0.572
 8919SOL     OW27655   5.147   4.484   6.706
 8919SOL    HW127656   5.196   4.422   6.767
 8919SOL    HW227657   5.135   4.572   6.752
 8920SOL     OW27658   0.538   2.320   0.414
 8920SOL    HW127659   0.448   2.276   0.409
 8920SOL    HW227660   0.533   2.411   0.373
 8921SOL     OW27661   1.692   3.228   2.165
 8921SOL    HW127662   1.731   3.312   2.129
 8921SOL    HW227663   1.723   3.214   2.259
 8922SOL     OW27664   4.171   5.947   2.018
 8922SOL    HW127665   4.127   6.022   1.968
 8922SOL    HW227666   4.229   5.984   2.090
 8923SOL     OW27667   1.689   0.901   6.533
 8923SOL    HW127668   1.716   0.882   6.439
 8923SOL    HW227669   1.765   0.883   6.595
 8924SOL     OW27670   4.367   5.402   5.114
 8924SOL    HW127671   4.295   5.347   5.156
 8924SOL    HW227672   4.349   5.413   5.016
 8925SOL     OW27673   0.293   0.579   2.848
 8925SOL    HW127674   0.277   0.670   2.888
 8925SOL    HW227675   0.250   0.575   2.758
 8926SOL     OW27676   6.919   3.007   5.419
 8926SOL    HW127677   6.919   2.972   5.513
 8926SOL    HW227678   7.012   3.035   5.394
 8927SOL     OW27679   6.201   1.503   4.496
 8927SOL    HW127680   6.300   1.514   4.486
 8927SOL    HW227681   6.177   1.407   4.483
 8928SOL     OW27682   1.590   0.164   6.008
 8928SOL    HW127683   1.648   0.187   5.930
 8928SOL    HW227684   1.636   0.095   6.064
 8929SOL     OW27685   6.106   1.932   5.402
 8929SOL    HW127686   6.131   2.004   5.467
 8929SOL    HW227687   6.028   1.881   5.437
 8930SOL     OW27688   0.598   2.661   3.137
 8930SOL    HW127689   0.565   2.633   3.047
 8930SOL    HW227690   0.666   2.595   3.169
 8931SOL     OW27691   3.054   3.937   1.534
 8931SOL    HW127692   3.016   3.857   1.581
 8931SOL    HW227693   3.113   3.907   1.459
 8932SOL     OW27694   6.474   1.782   2.213
 8932SOL    HW127695   6.382   1.798   2.177
 8932SOL    HW227696   6.538   1.773   2.137
 8933SOL     OW27697   3.144   2.427   6.535
 8933SOL    HW127698   3.182   2.376   6.458
 8933SOL    HW227699   3.084   2.499   6.501
 8934SOL     OW27700   3.546   4.929   5.085
 8934SOL    HW127701   3.447   4.933   5.073
 8934SOL    HW227702   3.568   4.899   5.178
 8935SOL     OW27703   0.052   4.276   0.353
 8935SOL    HW127704   0.066   4.286   0.451
 8935SOL    HW227705   7.021   4.195   0.335
 8936SOL     OW27706   1.760   4.157   1.698
 8936SOL    HW127707   1.759   4.154   1.598
 8936SOL    HW227708   1.740   4.250   1.729
 8937SOL     OW27709   0.163   0.466   5.372
 8937SOL    HW127710   0.087   0.405   5.349
 8937SOL    HW227711   0.188   0.520   5.292
 8938SOL     OW27712   0.483   5.519   0.975
 8938SOL    HW127713   0.493   5.563   1.065
 8938SOL    HW227714   0.423   5.439   0.984
 8939SOL     OW27715   4.742   2.929   4.232
 8939SOL    HW127716   4.733   3.003   4.298
 8939SOL    HW227717   4.755   2.843   4.280
 8940SOL     OW27718   0.224   1.202   3.199
 8940SOL    HW127719   0.235   1.255   3.283
 8940SOL    HW227720   0.164   1.252   3.136
 8941SOL     OW27721   6.202   2.651   5.406
 8941SOL    HW127722   6.285   2.653   5.462
 8941SOL    HW227723   6.127   2.613   5.460
 8942SOL     OW27724   6.923   4.511   5.160
 8942SOL    HW127725   6.919   4.414   5.183
 8942SOL    HW227726   6.845   4.535   5.103
 8943SOL     OW27727   4.071   4.602   0.014
 8943SOL    HW127728   4.084   4.604   0.114
 8943SOL    HW227729   4.082   4.509   7.005
 8944SOL     OW27730   5.425   4.572   5.214
 8944SOL    HW127731   5.421   4.565   5.314
 8944SOL    HW227732   5.365   4.503   5.174
 8945SOL     OW27733   1.216   0.663   3.552
 8945SOL    HW127734   1.214   0.762   3.539
 8945SOL    HW227735   1.132   0.622   3.517
 8946SOL     OW27736   3.270   1.254   5.200
 8946SOL    HW127737   3.193   1.206   5.158
 8946SOL    HW227738   3.238   1.309   5.277
 8947SOL     OW27739   1.788   3.447   4.739
 8947SOL    HW127740   1.804   3.545   4.755
 8947SOL    HW227741   1.711   3.436   4.675
 8948SOL     OW27742   6.482   6.402   3.980
 8948SOL    HW127743   6.571   6.375   4.016
 8948SOL    HW227744   6.489   6.490   3.934
 8949SOL     OW27745   2.233   6.871   0.841
 8949SOL    HW127746   2.316   6.864   0.786
 8949SOL    HW227747   2.188   6.781   0.845
 8950SOL     OW27748   4.949   3.852   6.114
 8950SOL    HW127749   5.038   3.834   6.156
 8950SOL    HW227750   4.922   3.774   6.057
 8951SOL     OW27751   0.495   1.937   4.992
 8951SOL    HW127752   0.443   1.875   5.051
 8951SOL    HW227753   0.431   1.998   4.945
 8952SOL     OW27754   1.713   6.931   2.497
 8952SOL    HW127755   1.781   6.859   2.515
 8952SOL    HW227756   1.754   7.020   2.517
 8953SOL     OW27757   0.991   4.126   6.833
 8953SOL    HW127758   0.961   4.157   6.742
 8953SOL    HW227759   1.001   4.027   6.833
 8954SOL     OW27760   1.357   0.008   5.981
 8954SOL    HW127761   1.426   0.081   5.978
 8954SOL    HW227762   1.274   0.043   6.024
 8955SOL     OW27763   0.575   5.149   2.230
 8955SOL    HW127764   0.497   5.140   2.292
 8955SOL    HW227765   0.555   5.219   2.161
 8956SOL     OW27766   0.655   1.406   6.867
 8956SOL    HW127767   0.582   1.431   6.932
 8956SOL    HW227768   0.614   1.376   6.781
 8957SOL     OW27769   3.135   4.419   1.717
 8957SOL    HW127770   3.066   4.425   1.789
 8957SOL    HW227771   3.214   4.367   1.750
 8958SOL     OW27772   0.955   0.178   4.663
 8958SOL    HW127773   0.876   0.118   4.644
 8958SOL    HW227774   0.922   0.263   4.704
 8959SOL     OW27775   1.625   4.797   1.776
 8959SOL    HW127776   1.645   4.800   1.874
 8959SOL    HW227777   1.548   4.857   1.756
 8960SOL     OW27778   4.543   5.523   2.962
 8960SOL    HW127779   4.627   5.577   2.959
 8960SOL    HW227780   4.499   5.526   2.872
 8961SOL     OW27781   2.495   2.058   4.430
 8961SOL    HW127782   2.580   2.108   4.447
 8961SOL    HW227783   2.417   2.114   4.459
 8962SOL     OW27784   6.444   6.553   2.219
 8962SOL    HW127785   6.420   6.480   2.283
 8962SOL    HW227786   6.475   6.513   2.133
 8963SOL     OW27787   5.207   6.658   4.150
 8963SOL    HW127788   5.122   6.628   4.194
 8963SOL    HW227789   5.186   6.725   4.079
 8964SOL     OW27790   5.178   3.496   3.184
 8964SOL    HW127791   5.263   3.549   3.184
 8964SOL    HW227792   5.197   3.402   3.159
 8965SOL     OW27793   2.280   4.843   0.562
 8965SOL    HW127794   2.282   4.782   0.483
 8965SOL    HW227795   2.254   4.790   0.643
 8966SOL     OW27796   0.522   4.232   5.715
 8966SOL    HW127797   0.535   4.276   5.627
 8966SOL    HW227798   0.600   4.173   5.736
 8967SOL     OW27799   3.705   6.581   2.147
 8967SOL    HW127800   3.616   6.614   2.178
 8967SOL    HW227801   3.731   6.500   2.199
 8968SOL     OW27802   5.273   4.672   3.162
 8968SOL    HW127803   5.287   4.768   3.184
 8968SOL    HW227804   5.356   4.620   3.184
 8969SOL     OW27805   6.727   0.464   4.121
 8969SOL    HW127806   6.782   0.500   4.046
 8969SOL    HW227807   6.630   0.473   4.099
 8970SOL     OW27808   2.453   3.038   0.337
 8970SOL    HW127809   2.381   2.986   0.383
 8970SOL    HW227810   2.492   2.983   0.263
 8971SOL     OW27811   5.042   5.375   2.149
 8971SOL    HW127812   4.949   5.387   2.182
 8971SOL    HW227813   5.041   5.326   2.062
 8972SOL     OW27814   4.844   4.816   6.787
 8972SOL    HW127815   4.903   4.739   6.760
 8972SOL    HW227816   4.836   4.819   6.886
 8973SOL     OW27817   1.199   3.302   2.220
 8973SOL    HW127818   1.175   3.357   2.299
 8973SOL    HW227819   1.293   3.324   2.191
 8974SOL     OW27820   1.587   4.663   5.535
 8974SOL    HW127821   1.668   4.703   5.580
 8974SOL    HW227822   1.511   4.663   5.600
 8975SOL     OW27823   2.203   0.322   6.664
 8975SOL    HW127824   2.175   0.290   6.755
 8975SOL    HW227825   2.140   0.393   6.633
 8976SOL     OW27826   6.927   4.875   4.955
 8976SOL    HW127827   6.960   4.879   4.861
 8976SOL    HW227828   6.871   4.793   4.968
 8977SOL     OW27829   5.412   1.765   6.921
 8977SOL    HW127830   5.444   1.744   6.829
 8977SOL    HW227831   5.316   1.739   6.929
 8978SOL     OW27832   5.533   0.056   6.005
 8978SOL    HW127833   5.581   7.001   5.970
 8978SOL    HW227834   5.437   0.053   5.976
 8979SOL     OW27835   1.292   2.960   4.762
 8979SOL    HW127836   1.206   3.007   4.781
 8979SOL    HW227837   1.300   2.880   4.821
 8980SOL     OW27838   2.277   2.927   5.313
 8980SOL    HW127839   2.200   2.869   5.285
 8980SOL    HW227840   2.327   2.958   5.232
 8981SOL     OW27841   4.608   2.048   5.295
 8981SOL    HW127842   4.653   2.049   5.384
 8981SOL    HW227843   4.670   2.009   5.227
 8982SOL     OW27844   1.938   1.762   0.841
 8982SOL    HW127845   2.029   1.722   0.838
 8982SOL    HW227846   1.928   1.816   0.925
 8983SOL     OW27847   1.834   6.153   6.733
 8983SOL    HW127848   1.858   6.241   6.775
 8983SOL    HW227849   1.809   6.167   6.638
 8984SOL     OW27850   0.548   7.000   4.089
 8984SOL    HW127851   0.594   6.916   4.062
 8984SOL    HW227852   0.463   7.010   4.038
 8985SOL     OW27853   2.503   3.492   0.696
 8985SOL    HW127854   2.600   3.474   0.679
 8985SOL    HW227855   2.482   3.473   0.792
 8986SOL     OW27856   4.429   5.724   2.393
 8986SOL    HW127857   4.359   5.791   2.420
 8986SOL    HW227858   4.406   5.635   2.432
 8987SOL     OW27859   4.507   0.036   1.585
 8987SOL    HW127860   4.561   0.095   1.525
 8987SOL    HW227861   4.412   0.036   1.554
 8988SOL     OW27862   1.112   4.327   5.027
 8988SOL    HW127863   1.050   4.311   4.950
 8988SOL    HW227864   1.086   4.411   5.074
 8989SOL     OW27865   5.006   3.475   0.378
 8989SOL    HW127866   4.956   3.421   0.310
 8989SOL    HW227867   5.087   3.515   0.336
 8990SOL     OW27868   1.780   5.885   4.454
 8990SOL    HW127869   1.807   5.923   4.543
 8990SOL    HW227870   1.693   5.836   4.464
 8991SOL     OW27871   1.460   2.619   5.559
 8991SOL    HW127872   1.479   2.631   5.462
 8991SOL    HW227873   1.510   2.689   5.611
 8992SOL     OW27874   4.957   1.076   0.017
 8992SOL    HW127875   4.989   1.020   0.093
 8992SOL    HW227876   4.959   1.023   6.957
 8993SOL     OW27877   5.100   2.527   1.716
 8993SOL    HW127878   5.020   2.474   1.691
 8993SOL    HW227879   5.072   2.607   1.770
 8994SOL     OW27880   0.749   4.044   4.573
 8994SOL    HW127881   0.789   4.026   4.663
 8994SOL    HW227882   0.813   4.095   4.517
 8995SOL     OW27883   1.625   2.548   0.152
 8995SOL    HW127884   1.659   2.629   0.199
 8995SOL    HW227885   1.644   2.556   0.054
 8996SOL     OW27886   5.246   4.764   0.506
 8996SOL    HW127887   5.212   4.855   0.483
 8996SOL    HW227888   5.205   4.696   0.445
 8997SOL     OW27889   5.036   1.659   5.923
 8997SOL    HW127890   5.121   1.703   5.952
 8997SOL    HW227891   4.958   1.713   5.955
 8998SOL     OW27892   6.249   3.187   3.740
 8998SOL    HW127893   6.156   3.158   3.718
 8998SOL    HW227894   6.246   3.254   3.815
 8999SOL     OW27895   4.581   6.047   6.566
 8999SOL    HW127896   4.498   6.089   6.603
 8999SOL    HW227897   4.649   6.035   6.639
 9000SOL     OW27898   1.393   3.613   1.609
 9000SOL    HW127899   1.345   3.623   1.696
 9000SOL    HW227900   1.423   3.518   1.599
 9001SOL     OW27901   0.976   5.400   2.300
 9001SOL    HW127902   1.023   5.489   2.296
 9001SOL    HW227903   0.973   5.360   2.208
 9002SOL     OW27904   1.230   5.104   5.257
 9002SOL    HW127905   1.242   5.189   5.207
 9002SOL    HW227906   1.185   5.036   5.198
 9003SOL     OW27907   5.677   3.180   1.915
 9003SOL    HW127908   5.736   3.114   1.962
 9003SOL    HW227909   5.605   3.210   1.978
 9004SOL     OW27910   3.925   6.034   1.338
 9004SOL    HW127911   3.992   6.017   1.410
 9004SOL    HW227912   3.960   6.001   1.250
 9005SOL     OW27913   5.987   2.408   4.692
 9005SOL    HW127914   6.086   2.403   4.676
 9005SOL    HW227915   5.947   2.477   4.631
 9006SOL     OW27916   2.394   5.565   1.004
 9006SOL    HW127917   2.375   5.503   0.929
 9006SOL    HW227918   2.463   5.524   1.065
 9007SOL     OW27919   3.396   0.995   3.563
 9007SOL    HW127920   3.356   0.918   3.513
 9007SOL    HW227921   3.409   0.969   3.659
 9008SOL     OW27922   1.374   5.598   3.568
 9008SOL    HW127923   1.452   5.537   3.581
 9008SOL    HW227924   1.315   5.563   3.495
 9009SOL     OW27925   3.051   6.649   0.608
 9009SOL    HW127926   3.053   6.550   0.625
 9009SOL    HW227927   2.957   6.682   0.615
 9010SOL     OW27928   1.504   6.710   4.006
 9010SOL    HW127929   1.552   6.754   4.082
 9010SOL    HW227930   1.570   6.669   3.943
 9011SOL     OW27931   4.952   1.646   1.694
 9011SOL    HW127932   4.944   1.547   1.680
 9011SOL    HW227933   5.020   1.664   1.766
 9012SOL     OW27934   1.969   4.377   0.455
 9012SOL    HW127935   1.943   4.403   0.362
 9012SOL    HW227936   2.041   4.307   0.451
 9013SOL     OW27937   0.476   6.618   5.407
 9013SOL    HW127938   0.533   6.637   5.487
 9013SOL    HW227939   0.429   6.701   5.379
 9014SOL     OW27940   6.848   2.383   0.603
 9014SOL    HW127941   6.842   2.331   0.688
 9014SOL    HW227942   6.835   2.480   0.622
 9015SOL     OW27943   4.698   2.132   1.599
 9015SOL    HW127944   4.633   2.142   1.675
 9015SOL    HW227945   4.717   2.034   1.584
 9016SOL     OW27946   0.201   6.798   6.324
 9016SOL    HW127947   0.112   6.845   6.320
 9016SOL    HW227948   0.205   6.727   6.255
 9017SOL     OW27949   4.500   2.050   3.922
 9017SOL    HW127950   4.546   1.968   3.890
 9017SOL    HW227951   4.549   2.131   3.889
 9018SOL     OW27952   3.429   3.015   6.834
 9018SOL    HW127953   3.352   2.982   6.888
 9018SOL    HW227954   3.418   3.113   6.816
 9019SOL     OW27955   1.564   5.530   2.600
 9019SOL    HW127956   1.475   5.500   2.634
 9019SOL    HW227957   1.552   5.583   2.517
 9020SOL     OW27958   6.948   4.011   0.673
 9020SOL    HW127959   6.971   4.086   0.735
 9020SOL    HW227960   6.932   3.928   0.726
 9021SOL     OW27961   0.146   0.114   3.786
 9021SOL    HW127962   0.204   0.195   3.776
 9021SOL    HW227963   0.066   0.137   3.841
 9022SOL     OW27964   3.245   1.531   6.599
 9022SOL    HW127965   3.298   1.612   6.573
 9022SOL    HW227966   3.274   1.500   6.689
 9023SOL     OW27967   3.723   2.919   2.489
 9023SOL    HW127968   3.785   2.870   2.551
 9023SOL    HW227969   3.628   2.898   2.513
 9024SOL     OW27970   0.724   3.817   4.940
 9024SOL    HW127971   0.743   3.915   4.936
 9024SOL    HW227972   0.669   3.797   5.022
 9025SOL     OW27973   1.044   5.485   0.767
 9025SOL    HW127974   0.958   5.529   0.794
 9025SOL    HW227975   1.112   5.555   0.746
 9026SOL     OW27976   3.879   2.624   0.775
 9026SOL    HW127977   3.854   2.718   0.799
 9026SOL    HW227978   3.845   2.562   0.845
 9027SOL     OW27979   1.405   2.406   3.496
 9027SOL    HW127980   1.388   2.333   3.431
 9027SOL    HW227981   1.498   2.399   3.532
 9028SOL     OW27982   2.851   3.530   5.201
 9028SOL    HW127983   2.895   3.468   5.265
 9028SOL    HW227984   2.857   3.624   5.236
 9029SOL     OW27985   4.153   6.941   4.855
 9029SOL    HW127986   4.193   6.854   4.824
 9029SOL    HW227987   4.201   6.972   4.936
 9030SOL     OW27988   3.058   1.879   3.491
 9030SOL    HW127989   3.071   1.787   3.455
 9030SOL    HW227990   3.062   1.877   3.591
 9031SOL     OW27991   4.317   6.233   4.507
 9031SOL    HW127992   4.295   6.230   4.409
 9031SOL    HW227993   4.233   6.245   4.560
 9032SOL     OW27994   3.464   3.598   1.068
 9032SOL    HW127995   3.445   3.546   0.985
 9032SOL    HW227996   3.518   3.543   1.131
 9033SOL     OW27997   7.024   4.411   2.985
 9033SOL    HW127998   6.963   4.490   2.974
 9033SOL    HW227999   0.062   4.428   3.062
 9034SOL     OW28000   2.960   6.624   4.746
 9034SOL    HW128001   3.010   6.710   4.741
 9034SOL    HW228002   2.984   6.566   4.668
 9035SOL     OW28003   2.507   4.227   0.152
 9035SOL    HW128004   2.513   4.326   0.157
 9035SOL    HW228005   2.556   4.194   0.072
 9036SOL     OW28006   2.214   2.264   5.335
 9036SOL    HW128007   2.177   2.203   5.264
 9036SOL    HW228008   2.215   2.358   5.301
 9037SOL     OW28009   0.894   3.814   4.726
 9037SOL    HW128010   0.841   3.813   4.810
 9037SOL    HW228011   0.972   3.753   4.735
 9038SOL     OW28012   4.187   0.865   6.138
 9038SOL    HW128013   4.218   0.856   6.044
 9038SOL    HW228014   4.169   0.961   6.159
 9039SOL     OW28015   2.322   5.634   5.883
 9039SOL    HW128016   2.399   5.665   5.827
 9039SOL    HW228017   2.259   5.582   5.826
 9040SOL     OW28018   3.315   2.163   2.749
 9040SOL    HW128019   3.250   2.166   2.672
 9040SOL    HW228020   3.406   2.144   2.714
 9041SOL     OW28021   1.154   2.008   1.543
 9041SOL    HW128022   1.235   2.014   1.602
 9041SOL    HW228023   1.180   1.970   1.455
 9042SOL     OW28024   4.182   6.647   5.154
 9042SOL    HW128025   4.171   6.651   5.253
 9042SOL    HW228026   4.136   6.566   5.118
 9043SOL     OW28027   1.080   0.213   6.941
 9043SOL    HW128028   1.068   0.118   6.970
 9043SOL    HW228029   1.053   0.221   6.845
 9044SOL     OW28030   6.175   0.291   0.737
 9044SOL    HW128031   6.196   0.198   0.705
 9044SOL    HW228032   6.081   0.314   0.714
 9045SOL     OW28033   3.209   1.902   2.408
 9045SOL    HW128034   3.233   1.829   2.472
 9045SOL    HW228035   3.261   1.891   2.323
 9046SOL     OW28036   3.520   3.710   2.954
 9046SOL    HW128037   3.488   3.630   2.903
 9046SOL    HW228038   3.620   3.710   2.956
 9047SOL     OW28039   1.733   3.911   5.179
 9047SOL    HW128040   1.762   3.962   5.260
 9047SOL    HW228041   1.782   3.824   5.176
 9048SOL     OW28042   5.756   3.379   5.549
 9048SOL    HW128043   5.724   3.474   5.556
 9048SOL    HW228044   5.797   3.365   5.459
 9049SOL     OW28045   3.567   6.907   6.078
 9049SOL    HW128046   3.583   6.893   5.980
 9049SOL    HW228047   3.509   6.988   6.090
 9050SOL     OW28048   0.848   3.167   0.760
 9050SOL    HW128049   0.868   3.217   0.675
 9050SOL    HW228050   0.799   3.226   0.823
 9051SOL     OW28051   4.040   0.081   1.204
 9051SOL    HW128052   3.962   0.042   1.155
 9051SOL    HW228053   4.081   0.154   1.149
 9052SOL     OW28054   2.451   2.042   3.667
 9052SOL    HW128055   2.477   2.001   3.579
 9052SOL    HW228056   2.383   2.113   3.652
 9053SOL     OW28057   1.922   1.150   2.662
 9053SOL    HW128058   1.912   1.060   2.703
 9053SOL    HW228059   1.983   1.145   2.583
 9054SOL     OW28060   2.991   5.856   3.897
 9054SOL    HW128061   2.919   5.836   3.831
 9054SOL    HW228062   3.071   5.799   3.878
 9055SOL     OW28063   6.097   2.918   4.551
 9055SOL    HW128064   6.036   2.997   4.555
 9055SOL    HW228065   6.072   2.862   4.471
 9056SOL     OW28066   0.613   2.374   1.755
 9056SOL    HW128067   0.653   2.465   1.765
 9056SOL    HW228068   0.553   2.372   1.675
 9057SOL     OW28069   5.089   3.527   6.181
 9057SOL    HW128070   5.111   3.493   6.089
 9057SOL    HW228071   5.127   3.619   6.192
 9058SOL     OW28072   2.206   1.045   1.727
 9058SOL    HW128073   2.125   1.101   1.710
 9058SOL    HW228074   2.264   1.090   1.795
 9059SOL     OW28075   1.848   1.576   3.106
 9059SOL    HW128076   1.864   1.534   3.017
 9059SOL    HW228077   1.770   1.639   3.099
 9060SOL     OW28078   6.433   2.779   4.238
 9060SOL    HW128079   6.532   2.762   4.234
 9060SOL    HW228080   6.412   2.832   4.320
 9061SOL     OW28081   2.226   5.420   1.954
 9061SOL    HW128082   2.217   5.455   1.861
 9061SOL    HW228083   2.159   5.463   2.014
 9062SOL     OW28084   1.553   6.528   2.293
 9062SOL    HW128085   1.509   6.525   2.203
 9062SOL    HW228086   1.642   6.481   2.287
 9063SOL     OW28087   3.264   0.609   3.947
 9063SOL    HW128088   3.310   0.521   3.960
 9063SOL    HW228089   3.278   0.641   3.853
 9064SOL     OW28090   6.164   2.555   5.758
 9064SOL    HW128091   6.143   2.613   5.837
 9064SOL    HW228092   6.251   2.585   5.718
 9065SOL     OW28093   3.929   1.076   6.731
 9065SOL    HW128094   3.995   1.112   6.797
 9065SOL    HW228095   3.911   1.145   6.661
 9066SOL     OW28096   5.201   6.732   0.632
 9066SOL    HW128097   5.124   6.767   0.578
 9066SOL    HW228098   5.253   6.666   0.577
 9067SOL     OW28099   0.980   0.501   4.339
 9067SOL    HW128100   1.020   0.531   4.252
 9067SOL    HW228101   1.010   0.408   4.360
 9068SOL     OW28102   1.883   6.208   4.298
 9068SOL    HW128103   1.980   6.227   4.317
 9068SOL    HW228104   1.876   6.140   4.225
 9069SOL     OW28105   1.468   2.973   1.658
 9069SOL    HW128106   1.452   3.069   1.635
 9069SOL    HW228107   1.509   2.966   1.749
 9070SOL     OW28108   1.515   3.214   5.063
 9070SOL    HW128109   1.483   3.301   5.100
 9070SOL    HW228110   1.479   3.202   4.971
 9071SOL     OW28111   6.429   6.847   1.883
 9071SOL    HW128112   6.402   6.789   1.960
 9071SOL    HW228113   6.353   6.856   1.819
 9072SOL     OW28114   0.432   2.252   0.768
 9072SOL    HW128115   0.345   2.299   0.757
 9072SOL    HW228116   0.487   2.300   0.836
 9073SOL     OW28117   2.793   6.463   2.671
 9073SOL    HW128118   2.721   6.460   2.740
 9073SOL    HW228119   2.881   6.479   2.715
 9074SOL     OW28120   1.254   0.779   2.288
 9074SOL    HW128121   1.348   0.765   2.318
 9074SOL    HW228122   1.232   0.716   2.214
 9075SOL     OW28123   0.048   0.760   2.148
 9075SOL    HW128124   0.033   0.858   2.137
 9075SOL    HW228125   0.146   0.741   2.150
 9076SOL     OW28126   0.196   2.333   5.829
 9076SOL    HW128127   0.209   2.271   5.906
 9076SOL    HW228128   0.100   2.333   5.802
 9077SOL     OW28129   4.799   0.456   0.530
 9077SOL    HW128130   4.835   0.456   0.437
 9077SOL    HW228131   4.726   0.388   0.537
 9078SOL     OW28132   3.762   3.609   5.164
 9078SOL    HW128133   3.813   3.528   5.134
 9078SOL    HW228134   3.764   3.678   5.091
 9079SOL     OW28135   2.528   0.810   4.559
 9079SOL    HW128136   2.430   0.824   4.573
 9079SOL    HW228137   2.546   0.712   4.551
 9080SOL     OW28138   5.037   2.875   6.265
 9080SOL    HW128139   5.066   2.819   6.342
 9080SOL    HW228140   4.972   2.945   6.296
 9081SOL     OW28141   4.184   0.015   2.208
 9081SOL    HW128142   4.240   0.028   2.126
 9081SOL    HW228143   4.118   0.089   2.216
 9082SOL     OW28144   2.486   7.018   5.518
 9082SOL    HW128145   2.582   0.013   5.536
 9082SOL    HW228146   2.477   6.926   5.479
 9083SOL     OW28147   3.679   5.533   6.072
 9083SOL    HW128148   3.762   5.588   6.068
 9083SOL    HW228149   3.702   5.439   6.098
 9084SOL     OW28150   3.536   3.773   3.218
 9084SOL    HW128151   3.517   3.747   3.123
 9084SOL    HW228152   3.632   3.752   3.239
 9085SOL     OW28153   2.169   0.384   1.214
 9085SOL    HW128154   2.173   0.469   1.266
 9085SOL    HW228155   2.084   0.381   1.161
 9086SOL     OW28156   0.743   4.322   0.312
 9086SOL    HW128157   0.710   4.332   0.219
 9086SOL    HW228158   0.747   4.411   0.357
 9087SOL     OW28159   4.760   2.227   1.337
 9087SOL    HW128160   4.807   2.315   1.331
 9087SOL    HW228161   4.776   2.188   1.428
 9088SOL     OW28162   6.455   6.776   1.113
 9088SOL    HW128163   6.456   6.871   1.082
 9088SOL    HW228164   6.542   6.755   1.157
 9089SOL     OW28165   5.415   5.938   5.541
 9089SOL    HW128166   5.459   6.026   5.523
 9089SOL    HW228167   5.318   5.953   5.562
 9090SOL     OW28168   6.081   0.775   5.214
 9090SOL    HW128169   6.089   0.746   5.309
 9090SOL    HW228170   6.065   0.874   5.210
 9091SOL     OW28171   2.803   3.861   0.026
 9091SOL    HW128172   2.776   3.870   0.122
 9091SOL    HW228173   2.727   3.890   6.992
 9092SOL     OW28174   6.328   0.948   6.709
 9092SOL    HW128175   6.277   0.870   6.674
 9092SOL    HW228176   6.317   1.026   6.647
 9093SOL     OW28177   1.354   6.145   5.120
 9093SOL    HW128178   1.335   6.106   5.210
 9093SOL    HW228179   1.453   6.159   5.110
 9094SOL     OW28180   6.219   4.571   2.786
 9094SOL    HW128181   6.198   4.475   2.768
 9094SOL    HW228182   6.148   4.629   2.746
 9095SOL     OW28183   4.730   4.993   6.634
 9095SOL    HW128184   4.767   4.918   6.688
 9095SOL    HW228185   4.691   4.957   6.549
 9096SOL     OW28186   6.407   5.252   2.838
 9096SOL    HW128187   6.441   5.273   2.930
 9096SOL    HW228188   6.476   5.199   2.789
 9097SOL     OW28189   2.098   2.253   0.489
 9097SOL    HW128190   2.006   2.264   0.528
 9097SOL    HW228191   2.097   2.180   0.421
 9098SOL     OW28192   2.834   1.959   4.734
 9098SOL    HW128193   2.790   1.887   4.788
 9098SOL    HW228194   2.817   2.048   4.776
 9099SOL     OW28195   2.736   3.099   6.149
 9099SOL    HW128196   2.723   3.194   6.121
 9099SOL    HW228197   2.659   3.069   6.204
 9100SOL     OW28198   0.745   3.412   3.062
 9100SOL    HW128199   0.769   3.423   3.159
 9100SOL    HW228200   0.827   3.386   3.011
 9101SOL     OW28201   2.659   1.569   2.262
 9101SOL    HW128202   2.559   1.573   2.272
 9101SOL    HW228203   2.695   1.662   2.261
 9102SOL     OW28204   3.303   6.473   2.161
 9102SOL    HW128205   3.264   6.380   2.161
 9102SOL    HW228206   3.341   6.493   2.070
 9103SOL     OW28207   5.731   1.840   0.332
 9103SOL    HW128208   5.702   1.906   0.402
 9103SOL    HW228209   5.675   1.851   0.251
 9104SOL     OW28210   0.034   6.709   1.544
 9104SOL    HW128211   0.103   6.771   1.507
 9104SOL    HW228212   0.079   6.625   1.576
 9105SOL     OW28213   1.328   0.147   5.112
 9105SOL    HW128214   1.283   0.183   5.194
 9105SOL    HW228215   1.407   0.093   5.139
 9106SOL     OW28216   6.647   2.915   0.650
 9106SOL    HW128217   6.674   3.009   0.629
 9106SOL    HW228218   6.656   2.899   0.748
 9107SOL     OW28219   1.944   0.740   0.141
 9107SOL    HW128220   2.039   0.769   0.135
 9107SOL    HW228221   1.886   0.804   0.091
 9108SOL     OW28222   4.547   4.101   5.826
 9108SOL    HW128223   4.503   4.020   5.865
 9108SOL    HW228224   4.526   4.106   5.729
 9109SOL     OW28225   4.874   3.320   3.193
 9109SOL    HW128226   4.844   3.414   3.210
 9109SOL    HW228227   4.874   3.302   3.095
 9110SOL     OW28228   1.453   5.386   3.973
 9110SOL    HW128229   1.545   5.347   3.973
 9110SOL    HW228230   1.459   5.485   3.962
 9111SOL     OW28231   4.290   3.009   0.039
 9111SOL    HW128232   4.376   2.967   0.067
 9111SOL    HW228233   4.295   3.108   0.051
 9112SOL     OW28234   1.677   5.098   2.657
 9112SOL    HW128235   1.714   5.191   2.657
 9112SOL    HW228236   1.622   5.084   2.575
 9113SOL     OW28237   5.053   2.428   3.157
 9113SOL    HW128238   4.958   2.404   3.137
 9113SOL    HW228239   5.080   2.507   3.103
 9114SOL     OW28240   0.858   5.672   3.956
 9114SOL    HW128241   0.835   5.609   3.881
 9114SOL    HW228242   0.784   5.738   3.968
 9115SOL     OW28243   6.013   5.574   4.793
 9115SOL    HW128244   5.957   5.586   4.876
 9115SOL    HW228245   6.095   5.630   4.801
 9116SOL     OW28246   6.828   0.025   3.076
 9116SOL    HW128247   6.800   6.965   3.030
 9116SOL    HW228248   6.763   0.097   3.056
 9117SOL     OW28249   4.501   2.361   6.539
 9117SOL    HW128250   4.535   2.454   6.526
 9117SOL    HW228251   4.467   2.325   6.452
 9118SOL     OW28252   6.347   3.347   0.179
 9118SOL    HW128253   6.289   3.419   0.140
 9118SOL    HW228254   6.292   3.266   0.199
 9119SOL     OW28255   4.173   0.868   1.629
 9119SOL    HW128256   4.221   0.922   1.560
 9119SOL    HW228257   4.125   0.792   1.586
 9120SOL     OW28258   6.726   2.827   5.550
 9120SOL    HW128259   6.774   2.748   5.589
 9120SOL    HW228260   6.735   2.825   5.451
 9121SOL     OW28261   4.150   6.660   5.421
 9121SOL    HW128262   4.065   6.713   5.417
 9121SOL    HW228263   4.177   6.647   5.516
 9122SOL     OW28264   2.308   4.016   1.988
 9122SOL    HW128265   2.271   4.068   2.065
 9122SOL    HW228266   2.381   3.955   2.021
 9123SOL     OW28267   1.752   0.506   4.458
 9123SOL    HW128268   1.716   0.526   4.367
 9123SOL    HW228269   1.688   0.539   4.527
 9124SOL     OW28270   3.819   5.628   1.868
 9124SOL    HW128271   3.793   5.539   1.905
 9124SOL    HW228272   3.900   5.662   1.916
 9125SOL     OW28273   3.498   4.134   0.971
 9125SOL    HW128274   3.488   4.191   1.052
 9125SOL    HW228275   3.548   4.183   0.900
 9126SOL     OW28276   4.670   3.928   0.953
 9126SOL    HW128277   4.668   3.977   1.040
 9126SOL    HW228278   4.764   3.904   0.930
 9127SOL     OW28279   6.427   2.784   5.249
 9127SOL    HW128280   6.388   2.802   5.159
 9127SOL    HW228281   6.355   2.756   5.312
 9128SOL     OW28282   6.219   2.382   4.600
 9128SOL    HW128283   6.317   2.390   4.619
 9128SOL    HW228284   6.205   2.325   4.520
 9129SOL     OW28285   1.081   2.389   0.697
 9129SOL    HW128286   1.168   2.345   0.674
 9129SOL    HW228287   1.026   2.399   0.614
 9130SOL     OW28288   0.807   4.431   5.765
 9130SOL    HW128289   0.903   4.452   5.751
 9130SOL    HW228290   0.797   4.355   5.830
 9131SOL     OW28291   5.451   3.092   0.095
 9131SOL    HW128292   5.407   3.124   0.011
 9131SOL    HW228293   5.521   3.024   0.072
 9132SOL     OW28294   0.653   4.809   4.213
 9132SOL    HW128295   0.672   4.763   4.300
 9132SOL    HW228296   0.719   4.778   4.145
 9133SOL     OW28297   3.475   1.170   1.218
 9133SOL    HW128298   3.511   1.170   1.125
 9133SOL    HW228299   3.550   1.164   1.283
 9134SOL     OW28300   4.269   5.452   0.697
 9134SOL    HW128301   4.343   5.439   0.631
 9134SOL    HW228302   4.192   5.394   0.672
 9135SOL     OW28303   1.596   6.524   1.777
 9135SOL    HW128304   1.564   6.618   1.776
 9135SOL    HW228305   1.696   6.523   1.764
 9136SOL     OW28306   4.510   5.788   5.455
 9136SOL    HW128307   4.491   5.869   5.398
 9136SOL    HW228308   4.574   5.813   5.527
 9137SOL     OW28309   4.499   6.534   5.435
 9137SOL    HW128310   4.468   6.596   5.363
 9137SOL    HW228311   4.472   6.572   5.524
 9138SOL     OW28312   1.714   3.250   0.726
 9138SOL    HW128313   1.713   3.275   0.629
 9138SOL    HW228314   1.725   3.333   0.781
 9139SOL     OW28315   0.664   1.241   1.662
 9139SOL    HW128316   0.732   1.245   1.589
 9139SOL    HW228317   0.709   1.240   1.751
 9140SOL     OW28318   0.329   5.129   1.971
 9140SOL    HW128319   0.357   5.104   1.878
 9140SOL    HW228320   0.283   5.051   2.014
 9141SOL     OW28321   6.889   5.910   6.647
 9141SOL    HW128322   6.856   5.821   6.614
 9141SOL    HW228323   6.989   5.908   6.652
 9142SOL     OW28324   0.484   2.567   2.905
 9142SOL    HW128325   0.486   2.530   2.812
 9142SOL    HW228326   0.389   2.583   2.933
 9143SOL     OW28327   0.097   3.932   1.356
 9143SOL    HW128328   0.155   3.970   1.429
 9143SOL    HW228329   0.144   3.855   1.313
 9144SOL     OW28330   2.848   4.833   4.759
 9144SOL    HW128331   2.860   4.759   4.825
 9144SOL    HW228332   2.789   4.903   4.798
 9145SOL     OW28333   1.340   6.951   6.599
 9145SOL    HW128334   1.440   6.948   6.601
 9145SOL    HW228335   1.304   6.897   6.676
 9146SOL     OW28336   5.388   2.361   3.662
 9146SOL    HW128337   5.384   2.357   3.562
 9146SOL    HW228338   5.416   2.452   3.691
 9147SOL     OW28339   5.738   0.394   5.263
 9147SOL    HW128340   5.826   0.431   5.292
 9147SOL    HW228341   5.752   0.334   5.184
 9148SOL     OW28342   6.047   0.189   2.100
 9148SOL    HW128343   6.075   0.250   2.025
 9148SOL    HW228344   5.981   0.123   2.066
 9149SOL     OW28345   5.540   2.811   2.195
 9149SOL    HW128346   5.585   2.745   2.135
 9149SOL    HW228347   5.496   2.882   2.141
 9150SOL     OW28348   2.997   4.568   6.937
 9150SOL    HW128349   3.047   4.576   6.851
 9150SOL    HW228350   2.902   4.540   6.918
 9151SOL     OW28351   2.248   4.236   4.076
 9151SOL    HW128352   2.252   4.136   4.081
 9151SOL    HW228353   2.307   4.275   4.147
 9152SOL     OW28354   1.678   4.129   4.527
 9152SOL    HW128355   1.714   4.065   4.595
 9152SOL    HW228356   1.717   4.109   4.437
 9153SOL     OW28357   0.905   2.926   6.432
 9153SOL    HW128358   0.955   2.995   6.379
 9153SOL    HW228359   0.808   2.952   6.436
 9154SOL     OW28360   4.883   5.029   3.098
 9154SOL    HW128361   4.846   4.971   3.024
 9154SOL    HW228362   4.863   5.125   3.078
 9155SOL     OW28363   1.550   4.834   2.488
 9155SOL    HW128364   1.455   4.838   2.519
 9155SOL    HW228365   1.579   4.739   2.480
 9156SOL     OW28366   6.833   2.919   1.149
 9156SOL    HW128367   6.758   2.957   1.204
 9156SOL    HW228368   6.920   2.961   1.178
 9157SOL     OW28369   3.225   4.241   6.323
 9157SOL    HW128370   3.146   4.211   6.378
 9157SOL    HW228371   3.234   4.182   6.243
 9158SOL     OW28372   6.182   4.212   4.165
 9158SOL    HW128373   6.204   4.187   4.071
 9158SOL    HW228374   6.088   4.185   4.186
 9159SOL     OW28375   2.665   0.152   3.321
 9159SOL    HW128376   2.734   0.213   3.358
 9159SOL    HW228377   2.691   0.125   3.228
 9160SOL     OW28378   0.333   5.190   6.827
 9160SOL    HW128379   0.277   5.157   6.903
 9160SOL    HW228380   0.274   5.216   6.751
 9161SOL     OW28381   5.822   4.286   2.506
 9161SOL    HW128382   5.768   4.241   2.577
 9161SOL    HW228383   5.899   4.227   2.480
 9162SOL     OW28384   3.914   1.283   2.927
 9162SOL    HW128385   3.819   1.256   2.942
 9162SOL    HW228386   3.966   1.272   3.012
 9163SOL     OW28387   6.962   2.388   1.795
 9163SOL    HW128388   7.000   2.457   1.856
 9163SOL    HW228389   6.896   2.332   1.845
 9164SOL     OW28390   2.359   0.323   0.026
 9164SOL    HW128391   2.337   0.239   7.001
 9164SOL    HW228392   2.458   0.331   0.036
 9165SOL     OW28393   4.982   2.191   5.907
 9165SOL    HW128394   4.995   2.284   5.871
 9165SOL    HW228395   4.891   2.182   5.945
 9166SOL     OW28396   4.166   5.586   1.195
 9166SOL    HW128397   4.225   5.511   1.225
 9166SOL    HW228398   4.187   5.667   1.249
 9167SOL     OW28399   1.013   1.761   6.652
 9167SOL    HW128400   1.055   1.760   6.743
 9167SOL    HW228401   0.919   1.726   6.659
 9168SOL     OW28402   6.343   4.792   6.264
 9168SOL    HW128403   6.431   4.760   6.229
 9168SOL    HW228404   6.270   4.736   6.225
 9169SOL     OW28405   6.886   6.466   6.389
 9169SOL    HW128406   6.893   6.383   6.445
 9169SOL    HW228407   6.825   6.449   6.312
 9170SOL     OW28408   1.811   1.764   6.140
 9170SOL    HW128409   1.782   1.860   6.139
 9170SOL    HW228410   1.822   1.731   6.046
 9171SOL     OW28411   2.830   5.132   1.067
 9171SOL    HW128412   2.884   5.156   0.986
 9171SOL    HW228413   2.806   5.215   1.117
 9172SOL     OW28414   5.063   1.368   4.993
 9172SOL    HW128415   5.021   1.278   5.004
 9172SOL    HW228416   5.044   1.403   4.901
 9173SOL     OW28417   6.937   2.765   4.113
 9173SOL    HW128418   0.002   2.769   4.158
 9173SOL    HW228419   6.950   2.740   4.017
 9174SOL     OW28420   0.557   6.017   0.207
 9174SOL    HW128421   0.482   6.079   0.182
 9174SOL    HW228422   0.642   6.069   0.211
 9175SOL     OW28423   1.594   6.415   0.593
 9175SOL    HW128424   1.514   6.472   0.573
 9175SOL    HW228425   1.667   6.437   0.529
 9176SOL     OW28426   2.364   0.670   2.665
 9176SOL    HW128427   2.435   0.686   2.734
 9176SOL    HW228428   2.394   0.707   2.577
 9177SOL     OW28429   1.298   3.136   3.508
 9177SOL    HW128430   1.220   3.083   3.542
 9177SOL    HW228431   1.302   3.223   3.556
 9178SOL     OW28432   2.079   6.355   6.643
 9178SOL    HW128433   1.987   6.394   6.639
 9178SOL    HW228434   2.092   6.294   6.564
 9179SOL     OW28435   3.703   6.115   5.095
 9179SOL    HW128436   3.690   6.153   5.003
 9179SOL    HW228437   3.731   6.020   5.089
 9180SOL     OW28438   6.241   1.985   4.304
 9180SOL    HW128439   6.260   1.918   4.376
 9180SOL    HW228440   6.240   1.938   4.215
 9181SOL     OW28441   4.882   2.329   3.760
 9181SOL    HW128442   4.939   2.319   3.842
 9181SOL    HW228443   4.857   2.425   3.748
 9182SOL     OW28444   2.159   1.012   2.586
 9182SOL    HW128445   2.121   0.925   2.618
 9182SOL    HW228446   2.197   0.999   2.494
 9183SOL     OW28447   4.792   2.916   6.814
 9183SOL    HW128448   4.881   2.941   6.852
 9183SOL    HW228449   4.792   2.932   6.715
 9184SOL     OW28450   3.073   2.727   1.244
 9184SOL    HW128451   3.038   2.819   1.260
 9184SOL    HW228452   2.997   2.662   1.250
 9185SOL     OW28453   6.925   0.026   6.106
 9185SOL    HW128454   6.993   7.006   6.048
 9185SOL    HW228455   6.834   0.011   6.069
 9186SOL     OW28456   4.407   0.487   6.231
 9186SOL    HW128457   4.422   0.561   6.165
 9186SOL    HW228458   4.340   0.422   6.195
 9187SOL     OW28459   4.732   2.024   6.842
 9187SOL    HW128460   4.730   2.120   6.814
 9187SOL    HW228461   4.822   2.002   6.879
 9188SOL     OW28462   1.494   0.415   1.331
 9188SOL    HW128463   1.418   0.463   1.373
 9188SOL    HW228464   1.470   0.318   1.319
 9189SOL     OW28465   2.893   1.283   3.304
 9189SOL    HW128466   2.902   1.257   3.401
 9189SOL    HW228467   2.978   1.261   3.256
 9190SOL     OW28468   5.890   3.586   5.343
 9190SOL    HW128469   5.869   3.490   5.322
 9190SOL    HW228470   5.923   3.632   5.260
 9191SOL     OW28471   5.300   6.344   6.798
 9191SOL    HW128472   5.287   6.444   6.797
 9191SOL    HW228473   5.261   6.305   6.715
 9192SOL     OW28474   6.481   4.156   5.556
 9192SOL    HW128475   6.391   4.191   5.530
 9192SOL    HW228476   6.514   4.092   5.487
 9193SOL     OW28477   3.121   3.069   4.170
 9193SOL    HW128478   3.064   3.122   4.108
 9193SOL    HW228479   3.095   3.090   4.265
 9194SOL     OW28480   3.579   6.031   2.204
 9194SOL    HW128481   3.578   6.073   2.114
 9194SOL    HW228482   3.525   5.947   2.203
 9195SOL     OW28483   0.815   3.035   3.717
 9195SOL    HW128484   0.766   2.995   3.639
 9195SOL    HW228485   0.752   3.043   3.794
 9196SOL     OW28486   3.992   0.060   3.973
 9196SOL    HW128487   3.972   0.081   4.069
 9196SOL    HW228488   3.922   7.022   3.937
 9197SOL     OW28489   2.561   3.404   0.367
 9197SOL    HW128490   2.501   3.325   0.382
 9197SOL    HW228491   2.640   3.376   0.313
 9198SOL     OW28492   5.691   4.117   6.107
 9198SOL    HW128493   5.676   4.155   6.016
 9198SOL    HW228494   5.615   4.057   6.131
 9199SOL     OW28495   0.930   3.712   5.891
 9199SOL    HW128496   1.020   3.755   5.880
 9199SOL    HW228497   0.921   3.638   5.824
 9200SOL     OW28498   0.321   6.134   0.871
 9200SOL    HW128499   0.287   6.217   0.827
 9200SOL    HW228500   0.323   6.059   0.805
 9201SOL     OW28501   0.152   4.450   1.850
 9201SOL    HW128502   0.115   4.487   1.935
 9201SOL    HW228503   0.252   4.462   1.849
 9202SOL     OW28504   2.096   5.264   4.602
 9202SOL    HW128505   2.077   5.205   4.523
 9202SOL    HW228506   2.036   5.238   4.678
 9203SOL     OW28507   5.370   1.507   6.356
 9203SOL    HW128508   5.391   1.490   6.260
 9203SOL    HW228509   5.306   1.438   6.389
 9204SOL     OW28510   5.839   3.986   2.856
 9204SOL    HW128511   5.771   3.986   2.929
 9204SOL    HW228512   5.839   3.896   2.811
 9205SOL     OW28513   5.158   3.459   2.658
 9205SOL    HW128514   5.068   3.420   2.641
 9205SOL    HW228515   5.219   3.387   2.692
 9206SOL     OW28516   2.551   6.396   4.933
 9206SOL    HW128517   2.502   6.369   4.850
 9206SOL    HW228518   2.631   6.451   4.908
 9207SOL     OW28519   3.570   6.259   6.222
 9207SOL    HW128520   3.519   6.218   6.146
 9207SOL    HW228521   3.631   6.331   6.186
 9208SOL     OW28522   4.873   3.418   2.348
 9208SOL    HW128523   4.806   3.360   2.300
 9208SOL    HW228524   4.965   3.387   2.326
 9209SOL     OW28525   4.186   1.061   2.459
 9209SOL    HW128526   4.226   0.986   2.513
 9209SOL    HW228527   4.088   1.044   2.447
 9210SOL     OW28528   2.297   6.484   1.577
 9210SOL    HW128529   2.203   6.455   1.595
 9210SOL    HW228530   2.323   6.456   1.485
 9211SOL     OW28531   5.746   1.653   6.132
 9211SOL    HW128532   5.811   1.601   6.077
 9211SOL    HW228533   5.715   1.599   6.210
 9212SOL     OW28534   4.757   4.339   4.735
 9212SOL    HW128535   4.670   4.378   4.763
 9212SOL    HW228536   4.761   4.243   4.761
 9213SOL     OW28537   5.704   0.077   4.618
 9213SOL    HW128538   5.762   0.019   4.561
 9213SOL    HW228539   5.761   0.128   4.683
 9214SOL     OW28540   1.451   2.017   4.970
 9214SOL    HW128541   1.497   2.034   4.883
 9214SOL    HW228542   1.356   2.048   4.964
 9215SOL     OW28543   0.089   4.533   2.530
 9215SOL    HW128544   0.009   4.583   2.498
 9215SOL    HW228545   0.059   4.457   2.588
 9216SOL     OW28546   2.695   6.343   4.558
 9216SOL    HW128547   2.738   6.331   4.648
 9216SOL    HW228548   2.614   6.402   4.568
 9217SOL     OW28549   4.953   1.102   6.189
 9217SOL    HW128550   4.951   1.196   6.223
 9217SOL    HW228551   4.896   1.044   6.246
 9218SOL     OW28552   4.758   0.092   6.422
 9218SOL    HW128553   4.688   0.038   6.468
 9218SOL    HW228554   4.742   0.089   6.323
 9219SOL     OW28555   3.741   3.296   5.384
 9219SOL    HW128556   3.753   3.299   5.285
 9219SOL    HW228557   3.787   3.374   5.425
 9220SOL     OW28558   2.331   6.197   2.934
 9220SOL    HW128559   2.401   6.147   2.984
 9220SOL    HW228560   2.363   6.217   2.841
 9221SOL     OW28561   2.431   0.492   6.038
 9221SOL    HW128562   2.521   0.500   5.996
 9221SOL    HW228563   2.369   0.560   5.997
 9222SOL     OW28564   2.680   4.637   4.229
 9222SOL    HW128565   2.615   4.690   4.284
 9222SOL    HW228566   2.647   4.544   4.218
 9223SOL     OW28567   0.975   3.803   4.157
 9223SOL    HW128568   0.947   3.858   4.079
 9223SOL    HW228569   0.902   3.802   4.226
 9224SOL     OW28570   0.910   3.960   3.956
 9224SOL    HW128571   0.965   4.039   3.983
 9224SOL    HW228572   0.849   3.985   3.881
 9225SOL     OW28573   3.706   6.661   5.900
 9225SOL    HW128574   3.708   6.594   5.825
 9225SOL    HW228575   3.663   6.620   5.980
 9226SOL     OW28576   0.921   0.267   1.291
 9226SOL    HW128577   0.942   0.241   1.385
 9226SOL    HW228578   0.846   0.211   1.257
 9227SOL     OW28579   1.701   5.511   0.921
 9227SOL    HW128580   1.759   5.439   0.883
 9227SOL    HW228581   1.742   5.547   1.005
 9228SOL     OW28582   2.187   2.738   5.703
 9228SOL    HW128583   2.239   2.809   5.750
 9228SOL    HW228584   2.251   2.671   5.665
 9229SOL     OW28585   0.811   4.877   6.596
 9229SOL    HW128586   0.911   4.879   6.590
 9229SOL    HW228587   0.780   4.946   6.660
 9230SOL     OW28588   5.023   2.567   4.486
 9230SOL    HW128589   4.927   2.593   4.480
 9230SOL    HW228590   5.033   2.471   4.460
 9231SOL     OW28591   0.446   5.050   5.516
 9231SOL    HW128592   0.359   5.095   5.497
 9231SOL    HW228593   0.488   5.020   5.429
 9232SOL     OW28594   1.987   5.426   1.755
 9232SOL    HW128595   2.083   5.441   1.732
 9232SOL    HW228596   1.962   5.332   1.733
 9233SOL     OW28597   0.629   6.352   0.542
 9233SOL    HW128598   0.641   6.253   0.546
 9233SOL    HW228599   0.532   6.375   0.546
 9234SOL     OW28600   2.411   5.244   1.335
 9234SOL    HW128601   2.481   5.209   1.396
 9234SOL    HW228602   2.380   5.171   1.274
 9235SOL     OW28603   2.235   2.503   3.061
 9235SOL    HW128604   2.160   2.560   3.095
 9235SOL    HW228605   2.322   2.551   3.076
 9236SOL     OW28606   2.144   4.059   0.068
 9236SOL    HW128607   2.105   4.030   7.005
 9236SOL    HW228608   2.241   4.034   0.071
 9237SOL     OW28609   6.921   5.741   2.803
 9237SOL    HW128610   6.866   5.681   2.862
 9237SOL    HW228611   6.873   5.755   2.717
 9238SOL     OW28612   2.112   3.163   5.423
 9238SOL    HW128613   2.134   3.067   5.411
 9238SOL    HW228614   2.183   3.220   5.380
 9239SOL     OW28615   6.750   4.320   0.052
 9239SOL    HW128616   6.814   4.275   7.014
 9239SOL    HW228617   6.659   4.321   0.012
 9240SOL     OW28618   5.148   3.223   2.960
 9240SOL    HW128619   5.061   3.260   2.925
 9240SOL    HW228620   5.202   3.187   2.883
 9241SOL     OW28621   0.208   5.729   6.930
 9241SOL    HW128622   0.129   5.729   6.991
 9241SOL    HW228623   0.278   5.791   6.966
 9242SOL     OW28624   1.811   2.350   2.002
 9242SOL    HW128625   1.874   2.354   2.079
 9242SOL    HW228626   1.863   2.344   1.916
 9243SOL     OW28627   0.824   6.717   1.779
 9243SOL    HW128628   0.908   6.736   1.830
 9243SOL    HW228629   0.750   6.695   1.843
 9244SOL     OW28630   2.993   6.448   5.565
 9244SOL    HW128631   2.990   6.474   5.661
 9244SOL    HW228632   2.998   6.531   5.508
 9245SOL     OW28633   0.757   4.093   3.736
 9245SOL    HW128634   0.813   4.145   3.671
 9245SOL    HW228635   0.726   4.008   3.693
 9246SOL     OW28636   6.045   6.916   4.612
 9246SOL    HW128637   6.106   6.838   4.595
 9246SOL    HW228638   6.077   6.995   4.559
 9247SOL     OW28639   3.364   5.539   2.922
 9247SOL    HW128640   3.296   5.580   2.860
 9247SOL    HW228641   3.356   5.581   3.012
 9248SOL     OW28642   2.893   1.233   4.921
 9248SOL    HW128643   2.862   1.170   4.850
 9248SOL    HW228644   2.992   1.225   4.932
 9249SOL     OW28645   3.751   4.696   1.627
 9249SOL    HW128646   3.712   4.768   1.570
 9249SOL    HW228647   3.688   4.675   1.702
 9250SOL     OW28648   6.579   4.592   3.688
 9250SOL    HW128649   6.656   4.628   3.635
 9250SOL    HW228650   6.548   4.507   3.646
 9251SOL     OW28651   3.634   2.615   1.468
 9251SOL    HW128652   3.648   2.711   1.445
 9251SOL    HW228653   3.662   2.599   1.563
 9252SOL     OW28654   4.124   0.461   5.150
 9252SOL    HW128655   4.145   0.391   5.219
 9252SOL    HW228656   4.103   0.416   5.063
 9253SOL     OW28657   6.112   4.815   5.897
 9253SOL    HW128658   6.125   4.766   5.983
 9253SOL    HW228659   6.201   4.831   5.854
 9254SOL     OW28660   5.491   4.689   2.535
 9254SOL    HW128661   5.500   4.694   2.436
 9254SOL    HW228662   5.406   4.643   2.559
 9255SOL     OW28663   6.159   3.772   6.878
 9255SOL    HW128664   6.185   3.868   6.876
 9255SOL    HW228665   6.107   3.749   6.796
 9256SOL     OW28666   1.997   0.138   1.846
 9256SOL    HW128667   2.042   0.207   1.789
 9256SOL    HW228668   2.063   0.068   1.873
 9257SOL     OW28669   6.002   5.364   3.539
 9257SOL    HW128670   6.054   5.423   3.477
 9257SOL    HW228671   5.906   5.362   3.511
 9258SOL     OW28672   3.370   3.741   0.301
 9258SOL    HW128673   3.443   3.680   0.333
 9258SOL    HW228674   3.351   3.811   0.370
 9259SOL     OW28675   2.026   1.705   0.044
 9259SOL    HW128676   2.090   1.782   0.042
 9259SOL    HW228677   2.037   1.656   0.130
 9260SOL     OW28678   6.583   2.970   5.726
 9260SOL    HW128679   6.511   3.021   5.681
 9260SOL    HW228680   6.622   2.903   5.662
 9261SOL     OW28681   4.359   1.467   0.463
 9261SOL    HW128682   4.326   1.382   0.505
 9261SOL    HW228683   4.371   1.451   0.365
 9262SOL     OW28684   0.275   6.516   4.584
 9262SOL    HW128685   0.358   6.481   4.540
 9262SOL    HW228686   0.195   6.479   4.539
 9263SOL     OW28687   3.101   5.354   2.872
 9263SOL    HW128688   3.181   5.407   2.899
 9263SOL    HW228689   3.054   5.401   2.798
 9264SOL     OW28690   5.505   3.786   6.749
 9264SOL    HW128691   5.498   3.769   6.847
 9264SOL    HW228692   5.468   3.877   6.728
 9265SOL     OW28693   3.652   2.183   6.658
 9265SOL    HW128694   3.612   2.107   6.710
 9265SOL    HW228695   3.742   2.206   6.694
 9266SOL     OW28696   0.707   5.262   1.352
 9266SOL    HW128697   0.702   5.343   1.410
 9266SOL    HW228698   0.729   5.182   1.409
 9267SOL     OW28699   0.545   1.625   3.862
 9267SOL    HW128700   0.637   1.609   3.825
 9267SOL    HW228701   0.537   1.720   3.893
 9268SOL     OW28702   0.644   6.603   1.956
 9268SOL    HW128703   0.658   6.509   1.987
 9268SOL    HW228704   0.546   6.624   1.960
 9269SOL     OW28705   4.570   0.862   6.712
 9269SOL    HW128706   4.619   0.835   6.628
 9269SOL    HW228707   4.526   0.781   6.752
 9270SOL     OW28708   3.574   1.298   5.600
 9270SOL    HW128709   3.553   1.395   5.611
 9270SOL    HW228710   3.546   1.267   5.509
 9271SOL     OW28711   1.073   0.324   0.392
 9271SOL    HW128712   1.089   0.337   0.294
 9271SOL    HW228713   1.160   0.329   0.441
 9272SOL     OW28714   0.724   6.396   5.631
 9272SOL    HW128715   0.788   6.346   5.572
 9272SOL    HW228716   0.640   6.343   5.643
 9273SOL     OW28717   5.178   6.074   4.107
 9273SOL    HW128718   5.234   6.007   4.057
 9273SOL    HW228719   5.186   6.163   4.063
 9274SOL     OW28720   0.035   3.343   0.478
 9274SOL    HW128721   0.027   3.394   0.393
 9274SOL    HW228722   0.089   3.395   0.544
 9275SOL     OW28723   0.974   6.761   1.108
 9275SOL    HW128724   0.957   6.736   1.013
 9275SOL    HW228725   0.897   6.815   1.143
 9276SOL     OW28726   3.187   4.798   6.655
 9276SOL    HW128727   3.206   4.725   6.589
 9276SOL    HW228728   3.143   4.874   6.608
 9277SOL     OW28729   3.962   4.796   2.635
 9277SOL    HW128730   3.914   4.829   2.716
 9277SOL    HW228731   3.901   4.802   2.556
 9278SOL     OW28732   0.510   0.096   4.821
 9278SOL    HW128733   0.493   7.023   4.835
 9278SOL    HW228734   0.423   0.143   4.805
 9279SOL     OW28735   3.455   6.049   1.567
 9279SOL    HW128736   3.460   5.982   1.641
 9279SOL    HW228737   3.545   6.092   1.556
 9280SOL     OW28738   2.246   1.866   2.332
 9280SOL    HW128739   2.332   1.886   2.378
 9280SOL    HW228740   2.172   1.861   2.399
 9281SOL     OW28741   3.355   3.896   6.206
 9281SOL    HW128742   3.377   3.809   6.161
 9281SOL    HW228743   3.278   3.882   6.268
 9282SOL     OW28744   3.857   0.623   4.403
 9282SOL    HW128745   3.888   0.528   4.391
 9282SOL    HW228746   3.886   0.677   4.323
 9283SOL     OW28747   5.526   0.102   6.296
 9283SOL    HW128748   5.481   0.177   6.247
 9283SOL    HW228749   5.560   0.035   6.231
 9284SOL     OW28750   3.307   3.749   5.320
 9284SOL    HW128751   3.220   3.784   5.287
 9284SOL    HW228752   3.363   3.718   5.243
 9285SOL     OW28753   5.248   3.190   1.975
 9285SOL    HW128754   5.279   3.163   1.883
 9285SOL    HW228755   5.149   3.201   1.975
 9286SOL     OW28756   5.164   6.174   0.350
 9286SOL    HW128757   5.204   6.208   0.265
 9286SOL    HW228758   5.235   6.167   0.420
 9287SOL     OW28759   2.205   4.456   5.895
 9287SOL    HW128760   2.263   4.535   5.916
 9287SOL    HW228761   2.204   4.394   5.973
 9288SOL     OW28762   4.495   2.430   3.538
 9288SOL    HW128763   4.455   2.449   3.448
 9288SOL    HW228764   4.460   2.342   3.572
 9289SOL     OW28765   4.208   0.284   6.113
 9289SOL    HW128766   4.207   0.279   6.013
 9289SOL    HW228767   4.136   0.224   6.150
 9290SOL     OW28768   5.537   0.940   4.329
 9290SOL    HW128769   5.624   0.942   4.378
 9290SOL    HW228770   5.552   0.911   4.234
 9291SOL     OW28771   1.341   6.703   5.576
 9291SOL    HW128772   1.250   6.668   5.597
 9291SOL    HW228773   1.409   6.658   5.634
 9292SOL     OW28774   1.840   1.149   6.105
 9292SOL    HW128775   1.741   1.134   6.100
 9292SOL    HW228776   1.888   1.070   6.065
 9293SOL     OW28777   4.698   2.555   6.285
 9293SOL    HW128778   4.711   2.475   6.227
 9293SOL    HW228779   4.750   2.632   6.248
 9294SOL     OW28780   4.907   1.213   0.628
 9294SOL    HW128781   4.884   1.306   0.600
 9294SOL    HW228782   4.826   1.155   0.621
 9295SOL     OW28783   1.168   0.517   5.017
 9295SOL    HW128784   1.131   0.566   4.939
 9295SOL    HW228785   1.097   0.506   5.087
 9296SOL     OW28786   2.416   3.793   1.249
 9296SOL    HW128787   2.335   3.843   1.280
 9296SOL    HW228788   2.473   3.853   1.193
 9297SOL     OW28789   0.470   5.761   2.972
 9297SOL    HW128790   0.565   5.776   3.000
 9297SOL    HW228791   0.416   5.734   3.051
 9298SOL     OW28792   1.202   6.887   5.804
 9298SOL    HW128793   1.176   6.809   5.861
 9298SOL    HW228794   1.267   6.944   5.854
 9299SOL     OW28795   2.070   1.385   4.104
 9299SOL    HW128796   2.032   1.453   4.042
 9299SOL    HW228797   2.051   1.412   4.199
 9300SOL     OW28798   1.054   6.194   4.898
 9300SOL    HW128799   1.058   6.265   4.969
 9300SOL    HW228800   1.121   6.123   4.919
 9301SOL     OW28801   6.933   4.472   4.490
 9301SOL    HW128802   6.835   4.490   4.500
 9301SOL    HW228803   6.960   4.399   4.553
 9302SOL     OW28804   1.895   2.988   4.888
 9302SOL    HW128805   1.982   2.994   4.938
 9302SOL    HW228806   1.911   3.011   4.792
 9303SOL     OW28807   3.057   4.230   6.770
 9303SOL    HW128808   3.152   4.201   6.757
 9303SOL    HW228809   3.035   4.227   6.867
 9304SOL     OW28810   4.754   5.328   0.625
 9304SOL    HW128811   4.665   5.362   0.594
 9304SOL    HW228812   4.816   5.320   0.547
 9305SOL     OW28813   2.981   1.670   0.803
 9305SOL    HW128814   2.970   1.575   0.830
 9305SOL    HW228815   3.069   1.704   0.836
 9306SOL     OW28816   6.883   3.985   4.439
 9306SOL    HW128817   6.967   4.024   4.400
 9306SOL    HW228818   6.813   3.978   4.367
 9307SOL     OW28819   1.816   4.072   0.686
 9307SOL    HW128820   1.803   4.171   0.681
 9307SOL    HW228821   1.729   4.027   0.668
 9308SOL     OW28822   1.455   5.014   1.733
 9308SOL    HW128823   1.464   4.985   1.637
 9308SOL    HW228824   1.387   5.087   1.739
 9309SOL     OW28825   5.289   6.258   6.227
 9309SOL    HW128826   5.268   6.167   6.191
 9309SOL    HW228827   5.229   6.278   6.304
 9310SOL     OW28828   4.714   5.739   5.786
 9310SOL    HW128829   4.619   5.764   5.802
 9310SOL    HW228830   4.756   5.710   5.871
 9311SOL     OW28831   4.595   3.499   1.548
 9311SOL    HW128832   4.616   3.405   1.574
 9311SOL    HW228833   4.512   3.529   1.594
 9312SOL     OW28834   1.435   2.044   1.049
 9312SOL    HW128835   1.450   2.099   1.131
 9312SOL    HW228836   1.495   1.964   1.051
 9313SOL     OW28837   1.330   0.734   1.812
 9313SOL    HW128838   1.381   0.663   1.762
 9313SOL    HW228839   1.309   0.809   1.750
 9314SOL     OW28840   5.379   3.154   0.615
 9314SOL    HW128841   5.344   3.083   0.553
 9314SOL    HW228842   5.312   3.169   0.688
 9315SOL     OW28843   5.884   0.819   6.180
 9315SOL    HW128844   5.842   0.729   6.195
 9315SOL    HW228845   5.917   0.855   6.267
 9316SOL     OW28846   5.649   0.075   5.198
 9316SOL    HW128847   5.565   0.101   5.246
 9316SOL    HW228848   5.686   0.155   5.150
 9317SOL     OW28849   3.250   5.246   3.272
 9317SOL    HW128850   3.248   5.251   3.372
 9317SOL    HW228851   3.344   5.256   3.239
 9318SOL     OW28852   5.344   5.937   0.130
 9318SOL    HW128853   5.265   5.952   0.071
 9318SOL    HW228854   5.422   5.987   0.094
 9319SOL     OW28855   2.590   3.937   1.110
 9319SOL    HW128856   2.634   3.900   1.028
 9319SOL    HW228857   2.651   3.925   1.189
 9320SOL     OW28858   5.138   0.394   5.928
 9320SOL    HW128859   5.084   0.361   6.006
 9320SOL    HW228860   5.232   0.360   5.936
 9321SOL     OW28861   0.569   2.158   5.662
 9321SOL    HW128862   0.548   2.218   5.739
 9321SOL    HW228863   0.531   2.067   5.680
 9322SOL     OW28864   6.206   4.382   6.074
 9322SOL    HW128865   6.294   4.403   6.117
 9322SOL    HW228866   6.212   4.397   5.976
 9323SOL     OW28867   2.013   2.805   4.105
 9323SOL    HW128868   2.012   2.751   4.189
 9323SOL    HW228869   2.103   2.847   4.093
 9324SOL     OW28870   1.169   3.846   0.487
 9324SOL    HW128871   1.251   3.892   0.451
 9324SOL    HW228872   1.103   3.915   0.516
 9325SOL     OW28873   2.036   6.009   1.665
 9325SOL    HW128874   2.128   6.024   1.630
 9325SOL    HW228875   2.040   5.943   1.740
 9326SOL     OW28876   3.739   4.906   0.605
 9326SOL    HW128877   3.695   4.976   0.549
 9326SOL    HW228878   3.792   4.845   0.546
 9327SOL     OW28879   4.549   0.395   3.115
 9327SOL    HW128880   4.573   0.480   3.068
 9327SOL    HW228881   4.631   0.340   3.128
 9328SOL     OW28882   2.723   6.766   5.040
 9328SOL    HW128883   2.717   6.848   4.984
 9328SOL    HW228884   2.631   6.734   5.063
 9329SOL     OW28885   0.278   6.058   6.510
 9329SOL    HW128886   0.222   6.020   6.583
 9329SOL    HW228887   0.222   6.072   6.428
 9330SOL     OW28888   0.409   6.973   6.382
 9330SOL    HW128889   0.478   6.989   6.312
 9330SOL    HW228890   0.336   6.915   6.345
 9331SOL     OW28891   1.680   2.880   5.028
 9331SOL    HW128892   1.634   2.937   5.096
 9331SOL    HW228893   1.744   2.936   4.976
 9332SOL     OW28894   4.210   5.746   0.113
 9332SOL    HW128895   4.128   5.744   0.056
 9332SOL    HW228896   4.259   5.832   0.097
 9333SOL     OW28897   3.491   5.421   0.846
 9333SOL    HW128898   3.469   5.374   0.760
 9333SOL    HW228899   3.513   5.353   0.916
 9334SOL     OW28900   4.672   6.919   4.314
 9334SOL    HW128901   4.621   6.833   4.313
 9334SOL    HW228902   4.761   6.905   4.357
 9335SOL     OW28903   1.607   2.464   0.851
 9335SOL    HW128904   1.540   2.499   0.916
 9335SOL    HW228905   1.568   2.462   0.759
 9336SOL     OW28906   5.891   0.004   4.821
 9336SOL    HW128907   5.950   6.981   4.755
 9336SOL    HW228908   5.853   6.962   4.885
 9337SOL     OW28909   4.589   0.108   6.803
 9337SOL    HW128910   4.522   0.076   6.871
 9337SOL    HW228911   4.549   0.100   6.712
 9338SOL     OW28912   0.319   6.170   0.123
 9338SOL    HW128913   0.346   6.250   0.177
 9338SOL    HW228914   0.292   6.200   0.031
 9339SOL     OW28915   5.565   5.225   6.725
 9339SOL    HW128916   5.545   5.131   6.753
 9339SOL    HW228917   5.480   5.272   6.701
 9340SOL     OW28918   3.664   5.765   2.589
 9340SOL    HW128919   3.586   5.718   2.547
 9340SOL    HW228920   3.631   5.839   2.646
 9341SOL     OW28921   6.427   4.476   6.212
 9341SOL    HW128922   6.394   4.481   6.306
 9341SOL    HW228923   6.459   4.566   6.183
 9342SOL     OW28924   2.872   0.207   4.538
 9342SOL    HW128925   2.913   0.238   4.624
 9342SOL    HW228926   2.831   0.286   4.491
 9343SOL     OW28927   4.699   3.872   1.786
 9343SOL    HW128928   4.714   3.969   1.767
 9343SOL    HW228929   4.720   3.854   1.882
 9344SOL     OW28930   5.647   5.270   6.454
 9344SOL    HW128931   5.725   5.209   6.440
 9344SOL    HW228932   5.623   5.272   6.551
 9345SOL     OW28933   6.813   5.976   6.901
 9345SOL    HW128934   6.846   5.954   6.809
 9345SOL    HW228935   6.810   6.075   6.913
 9346SOL     OW28936   4.985   6.337   2.426
 9346SOL    HW128937   4.885   6.333   2.436
 9346SOL    HW228938   5.022   6.405   2.489
 9347SOL     OW28939   3.355   5.640   0.825
 9347SOL    HW128940   3.412   5.562   0.852
 9347SOL    HW228941   3.259   5.613   0.829
 9348SOL     OW28942   2.759   5.751   3.424
 9348SOL    HW128943   2.698   5.830   3.432
 9348SOL    HW228944   2.853   5.783   3.413
 9349SOL     OW28945   6.948   5.562   2.306
 9349SOL    HW128946   6.854   5.560   2.271
 9349SOL    HW228947   6.951   5.521   2.397
 9350SOL     OW28948   6.980   1.126   4.478
 9350SOL    HW128949   6.972   1.037   4.522
 9350SOL    HW228950   0.029   1.123   4.410
 9351SOL     OW28951   2.036   1.232   5.555
 9351SOL    HW128952   1.962   1.234   5.621
 9351SOL    HW228953   2.121   1.204   5.600
 9352SOL     OW28954   1.250   2.893   5.525
 9352SOL    HW128955   1.222   2.960   5.594
 9352SOL    HW228956   1.328   2.930   5.474
 9353SOL     OW28957   1.240   4.185   2.040
 9353SOL    HW128958   1.182   4.109   2.010
 9353SOL    HW228959   1.325   4.149   2.079
 9354SOL     OW28960   6.609   1.897   1.153
 9354SOL    HW128961   6.617   1.824   1.085
 9354SOL    HW228962   6.689   1.956   1.147
 9355SOL     OW28963   6.206   1.383   4.229
 9355SOL    HW128964   6.265   1.303   4.218
 9355SOL    HW228965   6.112   1.359   4.206
 9356SOL     OW28966   4.797   5.077   1.952
 9356SOL    HW128967   4.759   5.157   1.998
 9356SOL    HW228968   4.844   5.019   2.019
 9357SOL     OW28969   2.403   4.114   0.419
 9357SOL    HW128970   2.456   4.178   0.364
 9357SOL    HW228971   2.386   4.030   0.367
 9358SOL     OW28972   5.611   3.538   2.026
 9358SOL    HW128973   5.628   3.601   2.102
 9358SOL    HW228974   5.584   3.449   2.062
 9359SOL     OW28975   6.880   3.795   5.782
 9359SOL    HW128976   6.818   3.825   5.709
 9359SOL    HW228977   6.900   3.873   5.842
 9360SOL     OW28978   1.734   6.972   5.858
 9360SOL    HW128979   1.680   6.944   5.778
 9360SOL    HW228980   1.686   6.946   5.942
 9361SOL     OW28981   2.998   6.824   3.028
 9361SOL    HW128982   2.983   6.730   3.061
 9361SOL    HW228983   3.005   6.885   3.106
 9362SOL     OW28984   1.642   1.205   1.915
 9362SOL    HW128985   1.638   1.108   1.889
 9362SOL    HW228986   1.651   1.261   1.832
 9363SOL     OW28987   3.726   6.079   1.583
 9363SOL    HW128988   3.797   6.123   1.638
 9363SOL    HW228989   3.738   5.980   1.586
 9364SOL     OW28990   3.519   3.168   6.132
 9364SOL    HW128991   3.591   3.234   6.154
 9364SOL    HW228992   3.555   3.075   6.142
 9365SOL     OW28993   2.380   2.642   4.718
 9365SOL    HW128994   2.328   2.571   4.766
 9365SOL    HW228995   2.477   2.633   4.741
 9366SOL     OW28996   3.042   2.044   0.008
 9366SOL    HW128997   2.984   2.116   6.993
 9366SOL    HW228998   3.103   2.009   6.962
 9367SOL     OW28999   6.876   5.986   3.864
 9367SOL    HW129000   6.854   5.906   3.808
 9367SOL    HW229001   6.919   5.957   3.949
 9368SOL     OW29002   3.429   1.917   2.922
 9368SOL    HW129003   3.478   1.995   2.884
 9368SOL    HW229004   3.393   1.941   3.013
 9369SOL     OW29005   0.192   0.963   5.927
 9369SOL    HW129006   0.105   0.960   5.877
 9369SOL    HW229007   0.173   0.977   6.025
 9370SOL     OW29008   5.459   0.555   2.451
 9370SOL    HW129009   5.517   0.475   2.441
 9370SOL    HW229010   5.509   0.637   2.422
 9371SOL     OW29011   2.073   5.545   6.924
 9371SOL    HW129012   2.111   5.574   7.011
 9371SOL    HW229013   2.025   5.458   6.936
 9372SOL     OW29014   5.932   6.153   2.766
 9372SOL    HW129015   5.999   6.172   2.694
 9372SOL    HW229016   5.928   6.054   2.782
 9373SOL     OW29017   4.521   1.965   3.078
 9373SOL    HW129018   4.519   1.992   2.982
 9373SOL    HW229019   4.476   1.876   3.089
 9374SOL     OW29020   6.130   3.116   6.878
 9374SOL    HW129021   6.186   3.196   6.856
 9374SOL    HW229022   6.150   3.042   6.814
 9375SOL     OW29023   6.713   1.589   3.333
 9375SOL    HW129024   6.691   1.501   3.293
 9375SOL    HW229025   6.728   1.579   3.431
 9376SOL     OW29026   2.838   3.766   0.950
 9376SOL    HW129027   2.868   3.846   1.002
 9376SOL    HW229028   2.913   3.701   0.943
 9377SOL     OW29029   1.049   4.920   3.747
 9377SOL    HW129030   0.990   5.001   3.753
 9377SOL    HW229031   1.089   4.916   3.655
 9378SOL     OW29032   1.467   0.271   5.368
 9378SOL    HW129033   1.371   0.263   5.395
 9378SOL    HW229034   1.495   0.187   5.323
 9379SOL     OW29035   4.950   4.891   5.183
 9379SOL    HW129036   4.904   4.861   5.100
 9379SOL    HW229037   5.047   4.871   5.178
 9380SOL     OW29038   6.253   5.213   4.779
 9380SOL    HW129039   6.326   5.279   4.794
 9380SOL    HW229040   6.177   5.232   4.842
 9381SOL     OW29041   2.727   3.048   5.875
 9381SOL    HW129042   2.720   3.069   5.972
 9381SOL    HW229043   2.650   2.990   5.847
 9382SOL     OW29044   3.706   1.380   2.538
 9382SOL    HW129045   3.700   1.305   2.604
 9382SOL    HW229046   3.673   1.464   2.582
 9383SOL     OW29047   3.293   6.370   5.026
 9383SOL    HW129048   3.199   6.334   5.020
 9383SOL    HW229049   3.327   6.358   5.119
 9384SOL     OW29050   4.083   6.652   1.144
 9384SOL    HW129051   4.157   6.718   1.135
 9384SOL    HW229052   4.120   6.559   1.143
 9385SOL     OW29053   4.125   1.532   1.942
 9385SOL    HW129054   4.224   1.520   1.935
 9385SOL    HW229055   4.080   1.443   1.938
 9386SOL     OW29056   2.141   6.244   5.147
 9386SOL    HW129057   2.130   6.173   5.216
 9386SOL    HW229058   2.213   6.308   5.175
 9387SOL     OW29059   4.457   0.251   0.048
 9387SOL    HW129060   4.530   0.185   0.065
 9387SOL    HW229061   4.371   0.215   0.086
 9388SOL     OW29062   1.809   5.984   2.633
 9388SOL    HW129063   1.837   6.077   2.609
 9388SOL    HW229064   1.737   5.988   2.702
 9389SOL     OW29065   2.413   0.355   5.635
 9389SOL    HW129066   2.491   0.328   5.579
 9389SOL    HW229067   2.338   0.290   5.620
 9390SOL     OW29068   4.013   6.281   4.174
 9390SOL    HW129069   3.979   6.189   4.193
 9390SOL    HW229070   3.943   6.332   4.123
 9391SOL     OW29071   2.249   1.051   5.463
 9391SOL    HW129072   2.308   1.015   5.536
 9391SOL    HW229073   2.185   0.979   5.434
 9392SOL     OW29074   0.170   0.187   4.741
 9392SOL    HW129075   0.172   0.270   4.685
 9392SOL    HW229076   0.171   0.107   4.681
 9393SOL     OW29077   3.505   1.109   4.731
 9393SOL    HW129078   3.477   1.163   4.810
 9393SOL    HW229079   3.591   1.144   4.695
 9394SOL     OW29080   6.376   1.369   2.891
 9394SOL    HW129081   6.472   1.351   2.872
 9394SOL    HW229082   6.329   1.396   2.807
 9395SOL     OW29083   2.706   2.694   0.073
 9395SOL    HW129084   2.634   2.645   0.123
 9395SOL    HW229085   2.668   2.730   7.012
 9396SOL     OW29086   0.553   5.646   4.014
 9396SOL    HW129087   0.522   5.560   4.056
 9396SOL    HW229088   0.582   5.710   4.085
 9397SOL     OW29089   2.941   0.264   0.092
 9397SOL    HW129090   3.014   0.221   0.144
 9397SOL    HW229091   2.856   0.212   0.105
 9398SOL     OW29092   1.938   0.415   5.576
 9398SOL    HW129093   1.989   0.366   5.505
 9398SOL    HW229094   1.988   0.408   5.663
 9399SOL     OW29095   0.420   1.062   0.121
 9399SOL    HW129096   0.506   1.035   0.077
 9399SOL    HW229097   0.392   0.991   0.186
 9400SOL     OW29098   5.241   3.072   1.492
 9400SOL    HW129099   5.178   3.102   1.420
 9400SOL    HW229100   5.333   3.062   1.454
 9401SOL     OW29101   3.763   6.145   3.139
 9401SOL    HW129102   3.705   6.065   3.154
 9401SOL    HW229103   3.829   6.152   3.214
 9402SOL     OW29104   1.238   5.309   4.398
 9402SOL    HW129105   1.305   5.273   4.463
 9402SOL    HW229106   1.151   5.324   4.445
 9403SOL     OW29107   5.180   1.656   2.925
 9403SOL    HW129108   5.215   1.641   2.833
 9403SOL    HW229109   5.195   1.575   2.981
 9404SOL     OW29110   0.647   4.330   6.184
 9404SOL    HW129111   0.680   4.300   6.094
 9404SOL    HW229112   0.622   4.426   6.180
 9405SOL     OW29113   0.131   6.861   2.712
 9405SOL    HW129114   0.154   6.834   2.806
 9405SOL    HW229115   0.192   6.935   2.683
 9406SOL     OW29116   6.812   2.456   5.991
 9406SOL    HW129117   6.818   2.540   5.937
 9406SOL    HW229118   6.895   2.445   6.045
 9407SOL     OW29119   2.465   5.373   3.429
 9407SOL    HW129120   2.371   5.342   3.412
 9407SOL    HW229121   2.470   5.414   3.520
 9408SOL     OW29122   3.762   1.880   6.528
 9408SOL    HW129123   3.720   1.790   6.513
 9408SOL    HW229124   3.743   1.911   6.621
 9409SOL     OW29125   5.689   4.521   6.001
 9409SOL    HW129126   5.664   4.492   6.094
 9409SOL    HW229127   5.697   4.621   5.998
 9410SOL     OW29128   4.096   5.694   1.649
 9410SOL    HW129129   4.108   5.693   1.749
 9410SOL    HW229130   4.007   5.656   1.626
 9411SOL     OW29131   4.016   4.084   1.124
 9411SOL    HW129132   4.083   4.021   1.085
 9411SOL    HW229133   3.977   4.141   1.051
 9412SOL     OW29134   0.171   3.429   1.912
 9412SOL    HW129135   0.079   3.394   1.928
 9412SOL    HW229136   0.173   3.477   1.824
 9413SOL     OW29137   3.966   5.731   4.781
 9413SOL    HW129138   3.901   5.760   4.851
 9413SOL    HW229139   3.996   5.810   4.729
 9414SOL     OW29140   3.307   1.272   3.583
 9414SOL    HW129141   3.326   1.174   3.589
 9414SOL    HW229142   3.383   1.323   3.622
 9415SOL     OW29143   2.650   6.770   2.673
 9415SOL    HW129144   2.599   6.706   2.732
 9415SOL    HW229145   2.727   6.723   2.631
 9416SOL     OW29146   0.568   1.669   1.570
 9416SOL    HW129147   0.655   1.681   1.616
 9416SOL    HW229148   0.564   1.579   1.527
 9417SOL     OW29149   3.906   0.404   5.763
 9417SOL    HW129150   3.924   0.407   5.665
 9417SOL    HW229151   3.848   0.325   5.784
 9418SOL     OW29152   3.355   6.427   0.947
 9418SOL    HW129153   3.272   6.400   0.897
 9418SOL    HW229154   3.331   6.490   1.021
 9419SOL     OW29155   3.344   5.323   5.816
 9419SOL    HW129156   3.303   5.232   5.806
 9419SOL    HW229157   3.351   5.345   5.913
 9420SOL     OW29158   0.185   2.103   4.333
 9420SOL    HW129159   0.100   2.050   4.324
 9420SOL    HW229160   0.198   2.159   4.252
 9421SOL     OW29161   2.343   6.411   5.131
 9421SOL    HW129162   2.398   6.476   5.182
 9421SOL    HW229163   2.388   6.391   5.044
 9422SOL     OW29164   4.411   6.108   2.917
 9422SOL    HW129165   4.406   6.114   2.817
 9422SOL    HW229166   4.341   6.166   2.957
 9423SOL     OW29167   3.812   0.585   3.594
 9423SOL    HW129168   3.881   0.521   3.628
 9423SOL    HW229169   3.843   0.623   3.507
 9424SOL     OW29170   4.772   0.757   5.112
 9424SOL    HW129171   4.844   0.751   5.181
 9424SOL    HW229172   4.810   0.793   5.027
 9425SOL     OW29173   0.144   3.912   6.117
 9425SOL    HW129174   0.053   3.889   6.150
 9425SOL    HW229175   0.162   4.009   6.133
 9426SOL     OW29176   2.764   1.994   0.183
 9426SOL    HW129177   2.708   2.070   0.150
 9426SOL    HW229178   2.860   2.011   0.162
 9427SOL     OW29179   3.121   5.363   4.803
 9427SOL    HW129180   3.108   5.367   4.902
 9427SOL    HW229181   3.219   5.352   4.783
 9428SOL     OW29182   5.499   1.010   1.368
 9428SOL    HW129183   5.480   1.087   1.429
 9428SOL    HW229184   5.464   0.926   1.408
 9429SOL     OW29185   1.707   4.879   2.024
 9429SOL    HW129186   1.743   4.901   2.114
 9429SOL    HW229187   1.699   4.962   1.969
 9430SOL     OW29188   0.709   5.520   1.849
 9430SOL    HW129189   0.743   5.604   1.892
 9430SOL    HW229190   0.639   5.479   1.907
 9431SOL     OW29191   5.706   4.732   1.128
 9431SOL    HW129192   5.687   4.826   1.156
 9431SOL    HW229193   5.620   4.683   1.117
 9432SOL     OW29194   6.127   0.538   2.938
 9432SOL    HW129195   6.127   0.560   3.035
 9432SOL    HW229196   6.033   0.529   2.906
 9433SOL     OW29197   3.199   5.213   3.540
 9433SOL    HW129198   3.120   5.152   3.536
 9433SOL    HW229199   3.231   5.221   3.634
 9434SOL     OW29200   5.621   4.811   2.747
 9434SOL    HW129201   5.625   4.751   2.667
 9434SOL    HW229202   5.547   4.781   2.808
 9435SOL     OW29203   0.799   1.607   4.016
 9435SOL    HW129204   0.823   1.684   4.074
 9435SOL    HW229205   0.716   1.563   4.051
 9436SOL     OW29206   0.985   4.415   2.695
 9436SOL    HW129207   0.926   4.335   2.686
 9436SOL    HW229208   0.996   4.438   2.791
 9437SOL     OW29209   1.475   6.333   3.766
 9437SOL    HW129210   1.552   6.315   3.827
 9437SOL    HW229211   1.412   6.396   3.811
 9438SOL     OW29212   1.135   7.002   1.277
 9438SOL    HW129213   1.068   0.009   1.209
 9438SOL    HW229214   1.090   6.941   1.342
 9439SOL     OW29215   6.951   3.054   2.219
 9439SOL    HW129216   6.901   2.967   2.216
 9439SOL    HW229217   0.025   3.037   2.215
 9440SOL     OW29218   4.242   6.073   4.159
 9440SOL    HW129219   4.185   6.011   4.105
 9440SOL    HW229220   4.243   6.163   4.117
 9441SOL     OW29221   1.400   4.078   4.760
 9441SOL    HW129222   1.307   4.040   4.763
 9441SOL    HW229223   1.466   4.003   4.768
 9442SOL     OW29224   5.662   3.192   0.257
 9442SOL    HW129225   5.588   3.177   0.191
 9442SOL    HW229226   5.655   3.125   0.331
 9443SOL     OW29227   2.675   5.373   1.474
 9443SOL    HW129228   2.618   5.323   1.540
 9443SOL    HW229229   2.702   5.461   1.513
 9444SOL     OW29230   0.996   3.930   6.317
 9444SOL    HW129231   0.999   3.918   6.417
 9444SOL    HW229232   1.007   3.841   6.273
 9445SOL     OW29233   5.410   3.333   2.571
 9445SOL    HW129234   5.464   3.411   2.601
 9445SOL    HW229235   5.445   3.299   2.484
 9446SOL     OW29236   6.393   6.589   4.383
 9446SOL    HW129237   6.324   6.614   4.451
 9446SOL    HW229238   6.349   6.571   4.295
 9447SOL     OW29239   6.047   3.313   3.387
 9447SOL    HW129240   5.965   3.335   3.440
 9447SOL    HW229241   6.037   3.222   3.346
 9448SOL     OW29242   6.642   6.625   5.961
 9448SOL    HW129243   6.550   6.666   5.962
 9448SOL    HW229244   6.699   6.671   6.029
 9449SOL     OW29245   0.486   5.874   6.415
 9449SOL    HW129246   0.406   5.920   6.453
 9449SOL    HW229247   0.511   5.797   6.474
 9450SOL     OW29248   3.496   5.078   4.485
 9450SOL    HW129249   3.396   5.083   4.490
 9450SOL    HW229250   3.532   5.046   4.572
 9451SOL     OW29251   3.864   6.012   6.194
 9451SOL    HW129252   3.862   5.943   6.122
 9451SOL    HW229253   3.940   5.992   6.257
 9452SOL     OW29254   0.628   3.564   0.757
 9452SOL    HW129255   0.666   3.507   0.684
 9452SOL    HW229256   0.698   3.629   0.788
 9453SOL     OW29257   1.836   4.865   3.276
 9453SOL    HW129258   1.817   4.833   3.369
 9453SOL    HW229259   1.750   4.870   3.224
 9454SOL     OW29260   1.597   3.499   5.713
 9454SOL    HW129261   1.653   3.581   5.723
 9454SOL    HW229262   1.625   3.449   5.631
 9455SOL     OW29263   3.642   1.637   2.658
 9455SOL    HW129264   3.597   1.702   2.596
 9455SOL    HW229265   3.592   1.635   2.745
 9456SOL     OW29266   1.047   3.620   6.695
 9456SOL    HW129267   1.033   3.615   6.793
 9456SOL    HW229268   1.038   3.528   6.655
 9457SOL     OW29269   1.817   3.900   6.008
 9457SOL    HW129270   1.801   3.971   5.940
 9457SOL    HW229271   1.837   3.813   5.963
 9458SOL     OW29272   1.048   3.183   6.045
 9458SOL    HW129273   1.061   3.117   6.119
 9458SOL    HW229274   0.988   3.143   5.975
 9459SOL     OW29275   5.495   4.378   2.428
 9459SOL    HW129276   5.591   4.400   2.410
 9459SOL    HW229277   5.476   4.389   2.525
 9460SOL     OW29278   0.187   1.362   4.480
 9460SOL    HW129279   0.108   1.357   4.540
 9460SOL    HW229280   0.255   1.294   4.508
 9461SOL     OW29281   6.209   1.366   3.392
 9461SOL    HW129282   6.268   1.340   3.316
 9461SOL    HW229283   6.114   1.369   3.360
 9462SOL     OW29284   2.011   3.601   3.668
 9462SOL    HW129285   1.990   3.508   3.697
 9462SOL    HW229286   2.079   3.641   3.730
 9463SOL     OW29287   0.019   1.060   1.367
 9463SOL    HW129288   0.108   1.063   1.413
 9463SOL    HW229289   6.990   1.141   1.391
 9464SOL     OW29290   5.694   6.445   0.299
 9464SOL    HW129291   5.750   6.371   0.336
 9464SOL    HW229292   5.689   6.520   0.364
 9465SOL     OW29293   0.374   6.564   3.330
 9465SOL    HW129294   0.316   6.482   3.335
 9465SOL    HW229295   0.319   6.645   3.348
 9466SOL     OW29296   3.947   4.201   5.281
 9466SOL    HW129297   4.021   4.264   5.302
 9466SOL    HW229298   3.898   4.178   5.365
 9467SOL     OW29299   0.984   2.635   1.992
 9467SOL    HW129300   1.061   2.695   1.969
 9467SOL    HW229301   0.991   2.551   1.938
 9468SOL     OW29302   5.898   2.523   5.938
 9468SOL    HW129303   5.838   2.594   5.902
 9468SOL    HW229304   5.966   2.564   5.999
 9469SOL     OW29305   5.772   5.877   1.255
 9469SOL    HW129306   5.775   5.787   1.297
 9469SOL    HW229307   5.834   5.879   1.176
 9470SOL     OW29308   4.811   3.742   5.622
 9470SOL    HW129309   4.778   3.784   5.707
 9470SOL    HW229310   4.745   3.760   5.548
 9471SOL     OW29311   6.059   1.756   4.852
 9471SOL    HW129312   6.097   1.847   4.868
 9471SOL    HW229313   6.132   1.693   4.827
 9472SOL     OW29314   6.148   3.243   4.425
 9472SOL    HW129315   6.076   3.197   4.476
 9472SOL    HW229316   6.185   3.182   4.356
 9473SOL     OW29317   2.872   5.625   6.270
 9473SOL    HW129318   2.950   5.685   6.251
 9473SOL    HW229319   2.891   5.534   6.235
 9474SOL     OW29320   6.669   3.098   0.073
 9474SOL    HW129321   6.743   3.096   0.006
 9474SOL    HW229322   6.647   3.192   0.096
 9475SOL     OW29323   2.756   3.463   0.588
 9475SOL    HW129324   2.686   3.469   0.517
 9475SOL    HW229325   2.827   3.531   0.569
 9476SOL     OW29326   3.162   3.440   5.053
 9476SOL    HW129327   3.086   3.428   4.989
 9476SOL    HW229328   3.248   3.431   5.005
 9477SOL     OW29329   0.216   3.156   2.403
 9477SOL    HW129330   0.178   3.240   2.365
 9477SOL    HW229331   0.213   3.083   2.335
 9478SOL     OW29332   5.007   3.475   6.440
 9478SOL    HW129333   5.008   3.504   6.344
 9478SOL    HW229334   4.963   3.545   6.495
 9479SOL     OW29335   5.780   6.589   6.614
 9479SOL    HW129336   5.751   6.505   6.660
 9479SOL    HW229337   5.704   6.654   6.613
 9480SOL     OW29338   5.095   4.302   0.230
 9480SOL    HW129339   5.011   4.279   0.278
 9480SOL    HW229340   5.073   4.338   0.139
 9481SOL     OW29341   5.725   3.170   1.349
 9481SOL    HW129342   5.788   3.095   1.328
 9481SOL    HW229343   5.776   3.252   1.374
 9482SOL     OW29344   5.955   1.226   2.795
 9482SOL    HW129345   6.041   1.175   2.784
 9482SOL    HW229346   5.936   1.238   2.892
 9483SOL     OW29347   1.552   2.027   0.804
 9483SOL    HW129348   1.478   2.049   0.867
 9483SOL    HW229349   1.515   1.979   0.724
 9484SOL     OW29350   4.493   1.660   3.164
 9484SOL    HW129351   4.538   1.593   3.224
 9484SOL    HW229352   4.507   1.634   3.069
 9485SOL     OW29353   0.801   0.136   2.375
 9485SOL    HW129354   0.896   0.110   2.361
 9485SOL    HW229355   0.796   0.214   2.437
 9486SOL     OW29356   2.236   4.745   1.539
 9486SOL    HW129357   2.267   4.687   1.614
 9486SOL    HW229358   2.282   4.834   1.544
 9487SOL     OW29359   2.893   3.518   2.628
 9487SOL    HW129360   2.913   3.561   2.540
 9487SOL    HW229361   2.799   3.483   2.627
 9488SOL     OW29362   2.674   6.341   0.997
 9488SOL    HW129363   2.734   6.409   0.954
 9488SOL    HW229364   2.653   6.269   0.931
 9489SOL     OW29365   4.041   4.050   1.639
 9489SOL    HW129366   4.037   3.992   1.557
 9489SOL    HW229367   4.007   3.998   1.718
 9490SOL     OW29368   6.544   6.283   0.553
 9490SOL    HW129369   6.526   6.193   0.592
 9490SOL    HW229370   6.535   6.353   0.624
 9491SOL     OW29371   0.040   4.255   3.498
 9491SOL    HW129372   0.093   4.182   3.455
 9491SOL    HW229373   0.081   4.343   3.477
 9492SOL     OW29374   3.514   3.440   2.834
 9492SOL    HW129375   3.552   3.424   2.925
 9492SOL    HW229376   3.435   3.380   2.819
 9493SOL     OW29377   4.171   5.164   3.768
 9493SOL    HW129378   4.188   5.214   3.683
 9493SOL    HW229379   4.089   5.108   3.758
 9494SOL     OW29380   4.313   4.254   1.388
 9494SOL    HW129381   4.368   4.187   1.437
 9494SOL    HW229382   4.250   4.207   1.326
 9495SOL     OW29383   5.600   1.873   4.562
 9495SOL    HW129384   5.518   1.865   4.504
 9495SOL    HW229385   5.591   1.954   4.620
 9496SOL     OW29386   5.216   5.006   0.682
 9496SOL    HW129387   5.275   4.938   0.725
 9496SOL    HW229388   5.120   4.981   0.699
 9497SOL     OW29389   5.517   4.843   0.486
 9497SOL    HW129390   5.558   4.832   0.396
 9497SOL    HW229391   5.422   4.810   0.483
 9498SOL     OW29392   5.297   1.013   5.764
 9498SOL    HW129393   5.211   0.961   5.769
 9498SOL    HW229394   5.314   1.057   5.852
 9499SOL     OW29395   2.262   3.750   5.899
 9499SOL    HW129396   2.263   3.663   5.848
 9499SOL    HW229397   2.283   3.825   5.837
 9500SOL     OW29398   3.860   6.965   1.490
 9500SOL    HW129399   3.853   7.023   1.571
 9500SOL    HW229400   3.941   6.991   1.437
 9501SOL     OW29401   2.790   1.014   4.765
 9501SOL    HW129402   2.831   0.924   4.761
 9501SOL    HW229403   2.760   1.042   4.674
 9502SOL     OW29404   0.145   1.504   4.248
 9502SOL    HW129405   0.235   1.508   4.206
 9502SOL    HW229406   0.150   1.452   4.333
 9503SOL     OW29407   0.800   1.568   1.752
 9503SOL    HW129408   0.863   1.512   1.697
 9503SOL    HW229409   0.853   1.629   1.811
 9504SOL     OW29410   0.869   1.727   0.917
 9504SOL    HW129411   0.836   1.815   0.952
 9504SOL    HW229412   0.906   1.739   0.825
 9505SOL     OW29413   5.644   4.027   3.736
 9505SOL    HW129414   5.598   4.111   3.764
 9505SOL    HW229415   5.692   3.987   3.814
 9506SOL     OW29416   0.155   3.272   6.489
 9506SOL    HW129417   0.102   3.202   6.440
 9506SOL    HW229418   0.252   3.256   6.475
 9507SOL     OW29419   1.436   1.039   3.421
 9507SOL    HW129420   1.422   1.062   3.325
 9507SOL    HW229421   1.478   1.117   3.468
 9508SOL     OW29422   5.921   2.814   0.592
 9508SOL    HW129423   5.930   2.778   0.684
 9508SOL    HW229424   5.949   2.910   0.591
 9509SOL     OW29425   1.187   0.169   5.709
 9509SOL    HW129426   1.100   0.144   5.751
 9509SOL    HW229427   1.225   0.090   5.661
 9510SOL     OW29428   0.848   4.507   1.590
 9510SOL    HW129429   0.801   4.452   1.521
 9510SOL    HW229430   0.877   4.449   1.666
 9511SOL     OW29431   0.993   1.106   0.090
 9511SOL    HW129432   1.091   1.083   0.086
 9511SOL    HW229433   0.940   1.038   0.041
 9512SOL     OW29434   5.758   1.306   2.330
 9512SOL    HW129435   5.687   1.244   2.361
 9512SOL    HW229436   5.808   1.343   2.409
 9513SOL     OW29437   1.405   3.604   4.883
 9513SOL    HW129438   1.438   3.566   4.797
 9513SOL    HW229439   1.468   3.676   4.914
 9514SOL     OW29440   2.083   3.958   6.839
 9514SOL    HW129441   2.155   4.006   6.790
 9514SOL    HW229442   2.011   3.931   6.776
 9515SOL     OW29443   1.619   5.626   0.169
 9515SOL    HW129444   1.664   5.544   0.132
 9515SOL    HW229445   1.687   5.684   0.214
 9516SOL     OW29446   5.057   3.527   4.638
 9516SOL    HW129447   5.090   3.617   4.665
 9516SOL    HW229448   5.005   3.486   4.714
 9517SOL     OW29449   1.739   4.870   0.187
 9517SOL    HW129450   1.688   4.784   0.188
 9517SOL    HW229451   1.834   4.852   0.161
 9518SOL     OW29452   0.507   2.077   6.735
 9518SOL    HW129453   0.499   2.177   6.727
 9518SOL    HW229454   0.577   2.054   6.803
 9519SOL     OW29455   4.128   3.450   3.810
 9519SOL    HW129456   4.120   3.379   3.880
 9519SOL    HW229457   4.225   3.472   3.796
 9520SOL     OW29458   6.783   0.630   3.425
 9520SOL    HW129459   6.816   0.582   3.507
 9520SOL    HW229460   6.789   0.729   3.440
 9521SOL     OW29461   3.367   4.147   1.469
 9521SOL    HW129462   3.463   4.155   1.442
 9521SOL    HW229463   3.310   4.140   1.388
 9522SOL     OW29464   4.164   6.196   2.711
 9522SOL    HW129465   4.155   6.233   2.804
 9522SOL    HW229466   4.083   6.140   2.691
 9523SOL     OW29467   2.791   4.874   5.158
 9523SOL    HW129468   2.803   4.804   5.088
 9523SOL    HW229469   2.857   4.859   5.232
 9524SOL     OW29470   1.790   2.534   0.677
 9524SOL    HW129471   1.794   2.452   0.619
 9524SOL    HW229472   1.747   2.510   0.765
 9525SOL     OW29473   1.966   2.413   5.347
 9525SOL    HW129474   1.991   2.477   5.275
 9525SOL    HW229475   2.049   2.369   5.383
 9526SOL     OW29476   6.209   4.561   1.482
 9526SOL    HW129477   6.208   4.605   1.392
 9526SOL    HW229478   6.277   4.488   1.483
 9527SOL     OW29479   2.766   0.329   5.216
 9527SOL    HW129480   2.768   0.245   5.161
 9527SOL    HW229481   2.709   0.397   5.170
 9528SOL     OW29482   6.604   1.546   0.687
 9528SOL    HW129483   6.659   1.621   0.652
 9528SOL    HW229484   6.658   1.462   0.686
 9529SOL     OW29485   5.932   3.577   0.084
 9529SOL    HW129486   5.865   3.529   0.027
 9529SOL    HW229487   6.024   3.554   0.054
 9530SOL     OW29488   1.158   3.497   3.402
 9530SOL    HW129489   1.170   3.400   3.384
 9530SOL    HW229490   1.072   3.512   3.450
 9531SOL     OW29491   5.055   4.077   2.153
 9531SOL    HW129492   5.065   4.110   2.246
 9531SOL    HW229493   4.969   4.110   2.114
 9532SOL     OW29494   0.341   5.414   0.722
 9532SOL    HW129495   0.270   5.478   0.693
 9532SOL    HW229496   0.327   5.389   0.818
 9533SOL     OW29497   1.134   5.661   4.036
 9533SOL    HW129498   1.041   5.634   4.011
 9533SOL    HW229499   1.166   5.603   4.110
 9534SOL     OW29500   5.687   4.153   4.890
 9534SOL    HW129501   5.665   4.230   4.831
 9534SOL    HW229502   5.748   4.183   4.963
 9535SOL     OW29503   1.898   0.543   5.956
 9535SOL    HW129504   1.996   0.552   5.937
 9535SOL    HW229505   1.846   0.578   5.878
 9536SOL     OW29506   3.047   3.855   5.233
 9536SOL    HW129507   2.959   3.812   5.252
 9536SOL    HW229508   3.036   3.925   5.162
 9537SOL     OW29509   2.148   0.712   4.296
 9537SOL    HW129510   2.222   0.769   4.259
 9537SOL    HW229511   2.073   0.771   4.328
 9538SOL     OW29512   5.154   0.878   4.394
 9538SOL    HW129513   5.246   0.856   4.427
 9538SOL    HW229514   5.090   0.807   4.424
 9539SOL     OW29515   3.126   4.062   4.524
 9539SOL    HW129516   3.152   4.113   4.606
 9539SOL    HW229517   3.060   3.991   4.548
 9540SOL     OW29518   5.521   4.748   4.331
 9540SOL    HW129519   5.484   4.774   4.420
 9540SOL    HW229520   5.602   4.803   4.311
 9541SOL     OW29521   2.838   0.356   6.172
 9541SOL    HW129522   2.841   0.426   6.100
 9541SOL    HW229523   2.759   0.298   6.158
 9542SOL     OW29524   5.179   4.733   5.071
 9542SOL    HW129525   5.166   4.687   4.984
 9542SOL    HW229526   5.273   4.767   5.077
 9543SOL     OW29527   3.490   0.957   6.490
 9543SOL    HW129528   3.529   1.003   6.569
 9543SOL    HW229529   3.527   0.864   6.483
 9544SOL     OW29530   5.754   3.073   3.555
 9544SOL    HW129531   5.754   3.102   3.460
 9544SOL    HW229532   5.674   3.016   3.572
 9545SOL     OW29533   5.558   5.334   2.741
 9545SOL    HW129534   5.547   5.259   2.676
 9545SOL    HW229535   5.538   5.421   2.695
 9546SOL     OW29536   3.955   1.842   6.224
 9546SOL    HW129537   3.875   1.826   6.282
 9546SOL    HW229538   4.006   1.922   6.259
 9547SOL     OW29539   2.628   5.691   4.246
 9547SOL    HW129540   2.580   5.672   4.161
 9547SOL    HW229541   2.724   5.665   4.238
 9548SOL     OW29542   6.944   4.900   4.676
 9548SOL    HW129543   6.916   4.919   4.582
 9548SOL    HW229544   6.996   4.815   4.678
 9549SOL     OW29545   3.494   1.899   1.408
 9549SOL    HW129546   3.499   1.868   1.503
 9549SOL    HW229547   3.409   1.867   1.367
 9550SOL     OW29548   6.826   0.999   0.075
 9550SOL    HW129549   6.843   0.935   0.150
 9550SOL    HW229550   6.906   1.057   0.062
 9551SOL     OW29551   5.896   3.106   5.907
 9551SOL    HW129552   5.843   3.166   5.967
 9551SOL    HW229553   5.993   3.119   5.924
 9552SOL     OW29554   2.374   5.936   4.993
 9552SOL    HW129555   2.430   5.868   4.947
 9552SOL    HW229556   2.278   5.926   4.964
 9553SOL     OW29557   5.754   2.301   0.238
 9553SOL    HW129558   5.682   2.248   0.194
 9553SOL    HW229559   5.749   2.396   0.207
 9554SOL     OW29560   2.112   6.427   2.896
 9554SOL    HW129561   2.087   6.461   2.805
 9554SOL    HW229562   2.203   6.386   2.892
 9555SOL     OW29563   0.693   1.322   2.733
 9555SOL    HW129564   0.785   1.285   2.729
 9555SOL    HW229565   0.688   1.406   2.679
 9556SOL     OW29566   1.805   4.432   2.131
 9556SOL    HW129567   1.836   4.337   2.132
 9556SOL    HW229568   1.712   4.437   2.168
 9557SOL     OW29569   6.326   6.091   1.370
 9557SOL    HW129570   6.259   6.122   1.438
 9557SOL    HW229571   6.308   6.138   1.284
 9558SOL     OW29572   6.158   5.817   5.887
 9558SOL    HW129573   6.193   5.727   5.912
 9558SOL    HW229574   6.213   5.856   5.813
 9559SOL     OW29575   0.665   4.848   0.769
 9559SOL    HW129576   0.590   4.863   0.705
 9559SOL    HW229577   0.657   4.758   0.810
 9560SOL     OW29578   2.793   1.414   2.916
 9560SOL    HW129579   2.786   1.495   2.858
 9560SOL    HW229580   2.840   1.341   2.867
 9561SOL     OW29581   1.352   0.971   1.618
 9561SOL    HW129582   1.252   0.960   1.617
 9561SOL    HW229583   1.381   1.017   1.534
 9562SOL     OW29584   3.189   0.542   5.269
 9562SOL    HW129585   3.268   0.583   5.316
 9562SOL    HW229586   3.157   0.604   5.198
 9563SOL     OW29587   0.195   6.873   0.598
 9563SOL    HW129588   0.177   6.869   0.499
 9563SOL    HW229589   0.195   6.968   0.628
 9564SOL     OW29590   2.985   1.428   0.592
 9564SOL    HW129591   2.945   1.341   0.563
 9564SOL    HW229592   2.925   1.503   0.565
 9565SOL     OW29593   4.164   0.611   4.768
 9565SOL    HW129594   4.072   0.621   4.805
 9565SOL    HW229595   4.198   0.700   4.738
 9566SOL     OW29596   3.184   5.638   6.795
 9566SOL    HW129597   3.261   5.577   6.810
 9566SOL    HW229598   3.198   5.691   6.711
 9567SOL     OW29599   4.946   4.944   0.690
 9567SOL    HW129600   4.901   4.936   0.601
 9567SOL    HW229601   4.877   4.937   0.763
 9568SOL     OW29602   4.414   2.739   6.261
 9568SOL    HW129603   4.315   2.743   6.244
 9568SOL    HW229604   4.451   2.659   6.213
 9569SOL     OW29605   6.808   0.761   2.645
 9569SOL    HW129606   6.739   0.788   2.578
 9569SOL    HW229607   6.804   0.822   2.724
 9570SOL     OW29608   0.557   3.422   1.563
 9570SOL    HW129609   0.605   3.380   1.640
 9570SOL    HW229610   0.595   3.389   1.477
 9571SOL     OW29611   3.190   3.405   6.431
 9571SOL    HW129612   3.223   3.407   6.525
 9571SOL    HW229613   3.247   3.465   6.374
 9572SOL     OW29614   2.246   4.964   1.826
 9572SOL    HW129615   2.344   4.971   1.847
 9572SOL    HW229616   2.208   4.881   1.867
 9573SOL     OW29617   0.862   2.187   6.712
 9573SOL    HW129618   0.910   2.132   6.780
 9573SOL    HW229619   0.854   2.281   6.745
 9574SOL     OW29620   3.924   3.298   3.057
 9574SOL    HW129621   3.979   3.326   3.135
 9574SOL    HW229622   3.827   3.312   3.078
 9575SOL     OW29623   0.451   1.089   1.753
 9575SOL    HW129624   0.478   0.993   1.749
 9575SOL    HW229625   0.504   1.142   1.687
 9576SOL     OW29626   2.162   1.620   0.779
 9576SOL    HW129627   2.222   1.580   0.849
 9576SOL    HW229628   2.215   1.679   0.719
 9577SOL     OW29629   1.067   0.379   5.926
 9577SOL    HW129630   1.030   0.457   5.876
 9577SOL    HW229631   1.099   0.310   5.861
 9578SOL     OW29632   0.817   4.189   2.764
 9578SOL    HW129633   0.815   4.221   2.859
 9578SOL    HW229634   0.841   4.092   2.761
 9579SOL     OW29635   0.577   4.631   3.193
 9579SOL    HW129636   0.564   4.559   3.125
 9579SOL    HW229637   0.573   4.591   3.285
 9580SOL     OW29638   4.373   3.503   0.735
 9580SOL    HW129639   4.332   3.580   0.685
 9580SOL    HW229640   4.361   3.518   0.833
 9581SOL     OW29641   0.380   6.859   5.774
 9581SOL    HW129642   0.475   6.833   5.759
 9581SOL    HW229643   0.361   6.946   5.728
 9582SOL     OW29644   4.616   4.831   5.347
 9582SOL    HW129645   4.584   4.923   5.368
 9582SOL    HW229646   4.633   4.824   5.249
 9583SOL     OW29647   3.653   4.104   1.431
 9583SOL    HW129648   3.663   4.053   1.516
 9583SOL    HW229649   3.714   4.065   1.362
 9584SOL     OW29650   0.379   4.742   6.354
 9584SOL    HW129651   0.321   4.685   6.296
 9584SOL    HW229652   0.324   4.778   6.430
 9585SOL     OW29653   6.667   6.579   4.310
 9585SOL    HW129654   6.569   6.574   4.331
 9585SOL    HW229655   6.705   6.486   4.308
 9586SOL     OW29656   5.232   4.685   1.943
 9586SOL    HW129657   5.307   4.619   1.953
 9586SOL    HW229658   5.256   4.770   1.989
 9587SOL     OW29659   0.725   0.634   1.419
 9587SOL    HW129660   0.804   0.623   1.359
 9587SOL    HW229661   0.691   0.544   1.447
 9588SOL     OW29662   6.577   0.288   1.542
 9588SOL    HW129663   6.486   0.251   1.527
 9588SOL    HW229664   6.643   0.238   1.486
 9589SOL     OW29665   2.111   4.883   6.698
 9589SOL    HW129666   2.162   4.808   6.740
 9589SOL    HW229667   2.127   4.883   6.599
 9590SOL     OW29668   6.179   2.697   2.057
 9590SOL    HW129669   6.147   2.724   2.148
 9590SOL    HW229670   6.168   2.598   2.046
 9591SOL     OW29671   3.086   5.750   5.441
 9591SOL    HW129672   3.168   5.784   5.488
 9591SOL    HW229673   3.105   5.659   5.404
 9592SOL     OW29674   3.270   4.413   0.378
 9592SOL    HW129675   3.212   4.407   0.297
 9592SOL    HW229676   3.212   4.420   0.460
 9593SOL     OW29677   0.372   0.629   5.659
 9593SOL    HW129678   0.395   0.532   5.661
 9593SOL    HW229679   0.416   0.672   5.581
 9594SOL     OW29680   1.736   5.110   3.050
 9594SOL    HW129681   1.813   5.174   3.057
 9594SOL    HW229682   1.652   5.160   3.035
 9595SOL     OW29683   0.429   2.980   4.764
 9595SOL    HW129684   0.379   2.894   4.778
 9595SOL    HW229685   0.363   3.055   4.757
 9596SOL     OW29686   0.479   5.479   5.812
 9596SOL    HW129687   0.548   5.552   5.809
 9596SOL    HW229688   0.519   5.395   5.777
 9597SOL     OW29689   0.963   4.443   1.099
 9597SOL    HW129690   0.893   4.498   1.143
 9597SOL    HW229691   0.941   4.431   1.002
 9598SOL     OW29692   0.936   4.318   3.724
 9598SOL    HW129693   1.030   4.337   3.698
 9598SOL    HW229694   0.907   4.383   3.795
 9599SOL     OW29695   3.157   0.185   4.492
 9599SOL    HW129696   3.205   0.117   4.548
 9599SOL    HW229697   3.058   0.170   4.498
 9600SOL     OW29698   2.399   6.415   0.013
 9600SOL    HW129699   2.324   6.461   0.060
 9600SOL    HW229700   2.370   6.386   6.946
 9601SOL     OW29701   4.673   3.793   0.634
 9601SOL    HW129702   4.634   3.771   0.545
 9601SOL    HW229703   4.641   3.728   0.702
 9602SOL     OW29704   6.238   4.441   5.804
 9602SOL    HW129705   6.317   4.470   5.750
 9602SOL    HW229706   6.156   4.488   5.771
 9603SOL     OW29707   3.981   1.701   4.633
 9603SOL    HW129708   3.900   1.754   4.659
 9603SOL    HW229709   4.052   1.763   4.601
 9604SOL     OW29710   4.890   0.233   6.608
 9604SOL    HW129711   4.839   0.187   6.535
 9604SOL    HW229712   4.894   0.174   6.689
 9605SOL     OW29713   0.607   5.809   3.729
 9605SOL    HW129714   0.573   5.795   3.822
 9605SOL    HW229715   0.682   5.745   3.711
 9606SOL     OW29716   1.814   6.439   6.810
 9606SOL    HW129717   1.825   6.481   6.719
 9606SOL    HW229718   1.829   6.508   6.880
 9607SOL     OW29719   1.676   1.880   0.126
 9607SOL    HW129720   1.701   1.832   0.211
 9607SOL    HW229721   1.751   1.939   0.098
 9608SOL     OW29722   6.685   5.602   2.869
 9608SOL    HW129723   6.620   5.605   2.945
 9608SOL    HW229724   6.645   5.645   2.788
 9609SOL     OW29725   2.421   3.948   6.980
 9609SOL    HW129726   2.506   3.990   6.948
 9609SOL    HW229727   2.362   3.930   6.901
 9610SOL     OW29728   1.184   4.367   3.616
 9610SOL    HW129729   1.245   4.389   3.692
 9610SOL    HW229730   1.230   4.304   3.553
 9611SOL     OW29731   0.937   6.615   6.881
 9611SOL    HW129732   1.019   6.574   6.920
 9611SOL    HW229733   0.954   6.711   6.859
 9612SOL     OW29734   0.338   4.259   1.416
 9612SOL    HW129735   0.299   4.177   1.459
 9612SOL    HW229736   0.414   4.232   1.356
 9613SOL     OW29737   5.405   0.087   3.460
 9613SOL    HW129738   5.423   0.113   3.365
 9613SOL    HW229739   5.387   0.169   3.514
 9614SOL     OW29740   3.329   2.410   1.017
 9614SOL    HW129741   3.372   2.381   1.103
 9614SOL    HW229742   3.285   2.499   1.030
 9615SOL     OW29743   1.871   6.888   0.026
 9615SOL    HW129744   1.780   6.919   0.054
 9615SOL    HW229745   1.892   6.926   6.960
 9616SOL     OW29746   4.279   3.785   1.422
 9616SOL    HW129747   4.355   3.822   1.476
 9616SOL    HW229748   4.201   3.767   1.483
 9617SOL     OW29749   1.692   2.824   3.095
 9617SOL    HW129750   1.768   2.868   3.047
 9617SOL    HW229751   1.710   2.726   3.103
 9618SOL     OW29752   4.173   6.851   5.649
 9618SOL    HW129753   4.189   6.943   5.683
 9618SOL    HW229754   4.078   6.843   5.618
 9619SOL     OW29755   1.199   6.669   0.333
 9619SOL    HW129756   1.125   6.736   0.336
 9619SOL    HW229757   1.172   6.587   0.384
 9620SOL     OW29758   4.945   1.625   6.426
 9620SOL    HW129759   4.861   1.644   6.477
 9620SOL    HW229760   4.951   1.528   6.406
 9621SOL     OW29761   0.756   1.252   1.913
 9621SOL    HW129762   0.676   1.279   1.967
 9621SOL    HW229763   0.838   1.294   1.950
 9622SOL     OW29764   6.573   1.088   0.074
 9622SOL    HW129765   6.558   1.119   0.168
 9622SOL    HW229766   6.668   1.059   0.063
 9623SOL     OW29767   2.547   4.269   6.015
 9623SOL    HW129768   2.480   4.195   6.020
 9623SOL    HW229769   2.637   4.234   6.038
 9624SOL     OW29770   6.887   4.653   2.453
 9624SOL    HW129771   6.833   4.640   2.370
 9624SOL    HW229772   6.841   4.719   2.513
 9625SOL     OW29773   5.027   5.499   6.899
 9625SOL    HW129774   5.005   5.431   6.969
 9625SOL    HW229775   5.103   5.467   6.842
 9626SOL     OW29776   3.475   5.691   0.041
 9626SOL    HW129777   3.415   5.611   0.049
 9626SOL    HW229778   3.506   5.718   0.133
 9627SOL     OW29779   6.357   6.002   3.517
 9627SOL    HW129780   6.346   6.098   3.541
 9627SOL    HW229781   6.426   5.961   3.577
 9628SOL     OW29782   5.345   4.606   7.024
 9628SOL    HW129783   5.439   4.578   0.022
 9628SOL    HW229784   5.309   4.663   0.074
 9629SOL     OW29785   0.428   6.839   2.195
 9629SOL    HW129786   0.516   6.876   2.225
 9629SOL    HW229787   0.394   6.892   2.117
 9630SOL     OW29788   6.414   6.414   5.634
 9630SOL    HW129789   6.330   6.386   5.586
 9630SOL    HW229790   6.477   6.337   5.640
 9631SOL     OW29791   6.950   0.034   6.930
 9631SOL    HW129792   7.021   6.999   6.891
 9631SOL    HW229793   6.905   0.085   6.857
 9632SOL     OW29794   1.759   6.441   2.715
 9632SOL    HW129795   1.772   6.485   2.804
 9632SOL    HW229796   1.705   6.357   2.727
 9633SOL     OW29797   5.144   5.084   6.688
 9633SOL    HW129798   5.093   5.091   6.602
 9633SOL    HW229799   5.226   5.029   6.673
 9634SOL     OW29800   1.299   6.023   3.624
 9634SOL    HW129801   1.250   5.951   3.574
 9634SOL    HW229802   1.317   6.100   3.562
 9635SOL     OW29803   1.688   5.003   5.649
 9635SOL    HW129804   1.730   5.085   5.610
 9635SOL    HW229805   1.750   4.925   5.636
 9636SOL     OW29806   3.783   1.595   6.397
 9636SOL    HW129807   3.763   1.559   6.488
 9636SOL    HW229808   3.881   1.611   6.388
 9637SOL     OW29809   2.951   2.181   6.195
 9637SOL    HW129810   3.006   2.106   6.158
 9637SOL    HW229811   3.004   2.232   6.263
 9638SOL     OW29812   6.674   3.465   6.648
 9638SOL    HW129813   6.586   3.488   6.607
 9638SOL    HW229814   6.723   3.400   6.590
 9639SOL     OW29815   3.780   1.596   1.939
 9639SOL    HW129816   3.877   1.616   1.930
 9639SOL    HW229817   3.734   1.669   1.989
 9640SOL     OW29818   2.608   1.886   2.975
 9640SOL    HW129819   2.686   1.928   3.022
 9640SOL    HW229820   2.639   1.804   2.927
 9641SOL     OW29821   4.970   6.443   0.716
 9641SOL    HW129822   5.012   6.469   0.628
 9641SOL    HW229823   4.995   6.511   0.785
 9642SOL     OW29824   3.352   6.303   5.301
 9642SOL    HW129825   3.319   6.379   5.357
 9642SOL    HW229826   3.279   6.235   5.292
 9643SOL     OW29827   5.825   5.325   4.059
 9643SOL    HW129828   5.753   5.306   3.991
 9643SOL    HW229829   5.895   5.382   4.017
 9644SOL     OW29830   1.058   4.480   5.655
 9644SOL    HW129831   1.133   4.446   5.598
 9644SOL    HW229832   1.013   4.556   5.608
 9645SOL     OW29833   4.094   4.895   3.204
 9645SOL    HW129834   4.146   4.813   3.228
 9645SOL    HW229835   3.999   4.884   3.234
 9646SOL     OW29836   2.978   4.761   2.180
 9646SOL    HW129837   2.921   4.687   2.144
 9646SOL    HW229838   3.034   4.800   2.106
 9647SOL     OW29839   6.180   5.338   1.391
 9647SOL    HW129840   6.128   5.387   1.321
 9647SOL    HW229841   6.267   5.385   1.407
 9648SOL     OW29842   3.942   2.204   6.714
 9648SOL    HW129843   3.996   2.128   6.678
 9648SOL    HW229844   3.963   2.215   6.811
 9649SOL     OW29845   2.799   5.913   6.840
 9649SOL    HW129846   2.724   5.855   6.807
 9649SOL    HW229847   2.772   5.955   6.927
 9650SOL     OW29848   5.169   4.914   2.434
 9650SOL    HW129849   5.224   4.978   2.487
 9650SOL    HW229850   5.155   4.830   2.486
 9651SOL     OW29851   7.019   0.784   6.338
 9651SOL    HW129852   0.035   0.696   6.363
 9651SOL    HW229853   0.062   0.840   6.289
 9652SOL     OW29854   2.382   5.133   0.621
 9652SOL    HW129855   2.334   5.083   0.692
 9652SOL    HW229856   2.349   5.227   0.616
 9653SOL     OW29857   4.033   5.471   4.683
 9653SOL    HW129858   3.974   5.412   4.629
 9653SOL    HW229859   3.988   5.559   4.697
 9654SOL     OW29860   3.635   3.148   1.180
 9654SOL    HW129861   3.714   3.112   1.130
 9654SOL    HW229862   3.580   3.072   1.214
 9655SOL     OW29863   0.088   1.627   7.009
 9655SOL    HW129864   0.115   1.706   0.040
 9655SOL    HW229865   0.021   1.573   0.036
 9656SOL     OW29866   2.802   2.597   1.258
 9656SOL    HW129867   2.752   2.682   1.270
 9656SOL    HW229868   2.742   2.520   1.279
 9657SOL     OW29869   6.549   1.294   4.018
 9657SOL    HW129870   6.509   1.316   3.929
 9657SOL    HW229871   6.632   1.349   4.032
 9658SOL     OW29872   5.899   1.786   3.141
 9658SOL    HW129873   5.962   1.834   3.202
 9658SOL    HW229874   5.805   1.812   3.163
 9659SOL     OW29875   6.860   4.174   6.874
 9659SOL    HW129876   6.792   4.102   6.885
 9659SOL    HW229877   6.947   4.134   6.844
 9660SOL     OW29878   0.313   6.104   1.290
 9660SOL    HW129879   0.412   6.111   1.284
 9660SOL    HW229880   0.273   6.109   1.198
 9661SOL     OW29881   3.883   6.137   2.158
 9661SOL    HW129882   3.837   6.226   2.158
 9661SOL    HW229883   3.953   6.135   2.230
 9662SOL     OW29884   4.994   2.623   5.035
 9662SOL    HW129885   4.921   2.620   4.967
 9662SOL    HW229886   4.994   2.712   5.080
 9663SOL     OW29887   0.967   5.635   4.423
 9663SOL    HW129888   0.949   5.705   4.493
 9663SOL    HW229889   1.058   5.650   4.384
 9664SOL     OW29890   5.974   6.713   3.608
 9664SOL    HW129891   6.025   6.734   3.525
 9664SOL    HW229892   5.965   6.614   3.618
 9665SOL     OW29893   5.576   6.014   6.286
 9665SOL    HW129894   5.513   6.031   6.211
 9665SOL    HW229895   5.535   5.949   6.350
 9666SOL     OW29896   6.073   4.295   1.596
 9666SOL    HW129897   6.046   4.199   1.602
 9666SOL    HW229898   6.146   4.305   1.528
 9667SOL     OW29899   3.188   3.809   4.005
 9667SOL    HW129900   3.112   3.745   3.991
 9667SOL    HW229901   3.161   3.879   4.072
 9668SOL     OW29902   5.715   1.515   0.007
 9668SOL    HW129903   5.807   1.555   7.022
 9668SOL    HW229904   5.686   1.477   6.943
 9669SOL     OW29905   0.922   7.018   1.995
 9669SOL    HW129906   0.891   0.085   2.024
 9669SOL    HW229907   0.952   6.967   2.076
 9670SOL     OW29908   5.207   4.586   6.466
 9670SOL    HW129909   5.295   4.542   6.483
 9670SOL    HW229910   5.140   4.553   6.532
 9671SOL     OW29911   6.731   5.354   6.496
 9671SOL    HW129912   6.679   5.270   6.512
 9671SOL    HW229913   6.691   5.404   6.419
 9672SOL     OW29914   1.268   5.755   4.620
 9672SOL    HW129915   1.245   5.679   4.681
 9672SOL    HW229916   1.252   5.727   4.525
 9673SOL     OW29917   5.715   4.076   0.122
 9673SOL    HW129918   5.812   4.078   0.100
 9673SOL    HW229919   5.662   4.063   0.038
 9674SOL     OW29920   2.698   6.014   3.443
 9674SOL    HW129921   2.762   6.028   3.519
 9674SOL    HW229922   2.628   6.085   3.445
 9675SOL     OW29923   6.228   2.037   1.140
 9675SOL    HW129924   6.200   2.051   1.046
 9675SOL    HW229925   6.229   2.125   1.188
 9676SOL     OW29926   1.368   3.826   5.292
 9676SOL    HW129927   1.282   3.777   5.276
 9676SOL    HW229928   1.432   3.806   5.219
 9677SOL     OW29929   1.835   5.987   5.570
 9677SOL    HW129930   1.902   5.959   5.501
 9677SOL    HW229931   1.833   5.919   5.643
 9678SOL     OW29932   3.176   3.590   2.646
 9678SOL    HW129933   3.079   3.569   2.631
 9678SOL    HW229934   3.225   3.505   2.667
 9679SOL     OW29935   2.186   1.066   2.295
 9679SOL    HW129936   2.188   1.066   2.195
 9679SOL    HW229937   2.240   1.143   2.329
 9680SOL     OW29938   6.113   0.157   4.002
 9680SOL    HW129939   6.122   0.256   3.988
 9680SOL    HW229940   6.033   0.139   4.060
 9681SOL     OW29941   3.530   1.108   0.656
 9681SOL    HW129942   3.518   1.201   0.622
 9681SOL    HW229943   3.485   1.044   0.595
 9682SOL     OW29944   5.096   4.994   3.820
 9682SOL    HW129945   5.183   4.977   3.775
 9682SOL    HW229946   5.050   5.072   3.777
 9683SOL     OW29947   2.804   5.665   0.899
 9683SOL    HW129948   2.828   5.684   0.994
 9683SOL    HW229949   2.769   5.748   0.856
 9684SOL     OW29950   0.248   2.034   4.924
 9684SOL    HW129951   0.180   1.976   4.968
 9684SOL    HW229952   0.203   2.091   4.855
 9685SOL     OW29953   1.800   3.570   0.818
 9685SOL    HW129954   1.743   3.622   0.881
 9685SOL    HW229955   1.845   3.632   0.754
 9686SOL     OW29956   6.569   2.244   0.738
 9686SOL    HW129957   6.531   2.192   0.814
 9686SOL    HW229958   6.599   2.181   0.666
 9687SOL     OW29959   1.952   1.191   3.715
 9687SOL    HW129960   1.960   1.286   3.686
 9687SOL    HW229961   2.033   1.140   3.686
 9688SOL     OW29962   6.594   2.020   3.225
 9688SOL    HW129963   6.531   2.093   3.198
 9688SOL    HW229964   6.640   2.044   3.310
 9689SOL     OW29965   1.427   5.857   0.500
 9689SOL    HW129966   1.401   5.801   0.422
 9689SOL    HW229967   1.345   5.898   0.540
 9690SOL     OW29968   5.616   5.663   6.492
 9690SOL    HW129969   5.543   5.660   6.424
 9690SOL    HW229970   5.643   5.758   6.508
 9691SOL     OW29971   2.692   5.079   1.660
 9691SOL    HW129972   2.790   5.096   1.656
 9691SOL    HW229973   2.673   5.014   1.734
 9692SOL     OW29974   2.847   5.615   2.250
 9692SOL    HW129975   2.882   5.648   2.338
 9692SOL    HW229976   2.851   5.515   2.247
 9693SOL     OW29977   6.158   5.645   0.966
 9693SOL    HW129978   6.204   5.722   1.010
 9693SOL    HW229979   6.113   5.675   0.883
 9694SOL     OW29980   2.129   0.847   6.340
 9694SOL    HW129981   2.163   0.754   6.356
 9694SOL    HW229982   2.154   0.906   6.417
 9695SOL     OW29983   6.850   3.990   1.654
 9695SOL    HW129984   6.783   3.932   1.608
 9695SOL    HW229985   6.932   3.937   1.674
 9696SOL     OW29986   5.204   2.598   1.040
 9696SOL    HW129987   5.208   2.536   1.118
 9696SOL    HW229988   5.176   2.689   1.072
 9697SOL     OW29989   0.033   6.295   0.275
 9697SOL    HW129990   0.099   6.240   0.224
 9697SOL    HW229991   0.082   6.359   0.334
 9698SOL     OW29992   5.473   1.967   6.291
 9698SOL    HW129993   5.566   1.982   6.324
 9698SOL    HW229994   5.477   1.932   6.197
 9699SOL     OW29995   0.458   4.258   0.059
 9699SOL    HW129996   0.425   4.348   0.087
 9699SOL    HW229997   0.522   4.267   7.008
 9700SOL     OW29998   4.304   5.095   4.955
 9700SOL    HW129999   4.226   5.092   5.017
 9700SOL    HW230000   4.291   5.029   4.881
 9701SOL     OW30001   3.782   5.010   4.987
 9701SOL    HW130002   3.697   4.990   5.036
 9701SOL    HW230003   3.853   5.038   5.052
 9702SOL     OW30004   4.741   0.895   0.171
 9702SOL    HW130005   4.803   0.816   0.176
 9702SOL    HW230006   4.733   0.925   0.076
 9703SOL     OW30007   3.765   5.260   3.938
 9703SOL    HW130008   3.771   5.166   3.972
 9703SOL    HW230009   3.831   5.318   3.986
 9704SOL     OW30010   2.948   1.206   2.785
 9704SOL    HW130011   3.008   1.165   2.854
 9704SOL    HW230012   2.891   1.136   2.743
 9705SOL     OW30013   4.919   5.813   6.561
 9705SOL    HW130014   4.895   5.757   6.640
 9705SOL    HW230015   4.848   5.803   6.490
 9706SOL     OW30016   0.498   2.647   0.652
 9706SOL    HW130017   0.421   2.585   0.636
 9706SOL    HW230018   0.464   2.739   0.668
 9707SOL     OW30019   6.708   4.294   1.645
 9707SOL    HW130020   6.692   4.201   1.613
 9707SOL    HW230021   6.774   4.293   1.720
 9708SOL     OW30022   1.142   2.357   2.408
 9708SOL    HW130023   1.197   2.319   2.334
 9708SOL    HW230024   1.049   2.375   2.374
 9709SOL     OW30025   5.776   5.821   2.191
 9709SOL    HW130026   5.868   5.856   2.208
 9709SOL    HW230027   5.782   5.739   2.135
 9710SOL     OW30028   0.650   1.561   2.435
 9710SOL    HW130029   0.651   1.639   2.498
 9710SOL    HW230030   0.730   1.503   2.452
 9711SOL     OW30031   1.589   3.317   5.941
 9711SOL    HW130032   1.584   3.402   5.888
 9711SOL    HW230033   1.517   3.316   6.009
 9712SOL     OW30034   5.865   4.292   5.563
 9712SOL    HW130035   5.871   4.391   5.566
 9712SOL    HW230036   5.799   4.260   5.632
 9713SOL     OW30037   1.309   4.955   3.536
 9713SOL    HW130038   1.370   5.010   3.593
 9713SOL    HW230039   1.315   4.859   3.565
 9714SOL     OW30040   2.829   1.628   1.857
 9714SOL    HW130041   2.846   1.705   1.918
 9714SOL    HW230042   2.731   1.608   1.854
 9715SOL     OW30043   5.547   5.014   6.163
 9715SOL    HW130044   5.587   5.083   6.104
 9715SOL    HW230045   5.508   5.057   6.244
 9716SOL     OW30046   4.044   2.724   6.516
 9716SOL    HW130047   3.945   2.729   6.530
 9716SOL    HW230048   4.085   2.666   6.587
 9717SOL     OW30049   5.992   5.260   5.357
 9717SOL    HW130050   5.929   5.335   5.378
 9717SOL    HW230051   6.056   5.248   5.433
 9718SOL     OW30052   4.654   2.694   1.868
 9718SOL    HW130053   4.685   2.789   1.864
 9718SOL    HW230054   4.637   2.668   1.963
 9719SOL     OW30055   0.199   1.849   0.116
 9719SOL    HW130056   0.251   1.781   0.168
 9719SOL    HW230057   0.263   1.910   0.068
 9720SOL     OW30058   0.174   5.889   1.813
 9720SOL    HW130059   0.178   5.983   1.779
 9720SOL    HW230060   0.124   5.888   1.900
 9721SOL     OW30061   0.816   3.384   1.002
 9721SOL    HW130062   0.725   3.403   1.039
 9721SOL    HW230063   0.882   3.375   1.076
 9722SOL     OW30064   0.369   0.347   3.549
 9722SOL    HW130065   0.321   0.277   3.496
 9722SOL    HW230066   0.463   0.356   3.515
 9723SOL     OW30067   2.084   6.052   3.820
 9723SOL    HW130068   2.158   6.113   3.790
 9723SOL    HW230069   2.094   5.964   3.775
 9724SOL     OW30070   2.308   3.602   0.195
 9724SOL    HW130071   2.221   3.637   0.229
 9724SOL    HW230072   2.327   3.514   0.236
 9725SOL     OW30073   4.028   4.323   6.974
 9725SOL    HW130074   4.083   4.330   6.891
 9725SOL    HW230075   4.018   4.227   7.000
 9726SOL     OW30076   4.541   0.101   3.990
 9726SOL    HW130077   4.527   0.178   4.052
 9726SOL    HW230078   4.630   0.059   4.009
 9727SOL     OW30079   0.567   3.285   5.186
 9727SOL    HW130080   0.553   3.366   5.128
 9727SOL    HW230081   0.506   3.212   5.157
 9728SOL     OW30082   0.573   0.093   5.868
 9728SOL    HW130083   0.673   0.084   5.869
 9728SOL    HW230084   0.544   0.125   5.778
 9729SOL     OW30085   0.992   4.497   2.959
 9729SOL    HW130086   1.047   4.562   3.012
 9729SOL    HW230087   0.929   4.449   3.020
 9730SOL     OW30088   0.118   3.260   2.663
 9730SOL    HW130089   0.168   3.204   2.597
 9730SOL    HW230090   0.171   3.266   2.748
 9731SOL     OW30091   4.387   3.804   0.796
 9731SOL    HW130092   4.288   3.808   0.788
 9731SOL    HW230093   4.413   3.721   0.847
 9732SOL     OW30094   5.149   5.723   3.184
 9732SOL    HW130095   5.128   5.714   3.281
 9732SOL    HW230096   5.239   5.767   3.174
 9733SOL     OW30097   5.112   4.991   6.950
 9733SOL    HW130098   5.132   4.998   6.852
 9733SOL    HW230099   5.126   5.080   6.993
 9734SOL     OW30100   5.528   2.051   3.516
 9734SOL    HW130101   5.621   2.055   3.480
 9734SOL    HW230102   5.528   2.078   3.612
 9735SOL     OW30103   1.861   4.581   3.074
 9735SOL    HW130104   1.925   4.625   3.137
 9735SOL    HW230105   1.772   4.571   3.119
 9736SOL     OW30106   5.857   1.887   6.225
 9736SOL    HW130107   5.820   1.796   6.204
 9736SOL    HW230108   5.953   1.878   6.253
 9737SOL     OW30109   6.847   3.131   4.962
 9737SOL    HW130110   6.774   3.182   5.006
 9737SOL    HW230111   6.933   3.181   4.970
 9738SOL     OW30112   2.267   6.774   2.859
 9738SOL    HW130113   2.359   6.774   2.898
 9738SOL    HW230114   2.201   6.805   2.928
 9739SOL     OW30115   6.752   5.325   2.079
 9739SOL    HW130116   6.692   5.303   2.003
 9739SOL    HW230117   6.733   5.263   2.156
 9740SOL     OW30118   6.419   2.741   3.969
 9740SOL    HW130119   6.413   2.741   4.069
 9740SOL    HW230120   6.477   2.665   3.939
 9741SOL     OW30121   4.740   1.850   2.693
 9741SOL    HW130122   4.685   1.781   2.645
 9741SOL    HW230123   4.820   1.807   2.735
 9742SOL     OW30124   3.790   0.329   2.145
 9742SOL    HW130125   3.876   0.307   2.098
 9742SOL    HW230126   3.728   0.251   2.140
 9743SOL     OW30127   1.447   1.559   4.516
 9743SOL    HW130128   1.357   1.598   4.498
 9743SOL    HW230129   1.442   1.497   4.594
 9744SOL     OW30130   0.642   0.378   3.124
 9744SOL    HW130131   0.602   0.376   3.032
 9744SOL    HW230132   0.586   0.321   3.185
 9745SOL     OW30133   6.760   2.882   6.281
 9745SOL    HW130134   6.717   2.837   6.203
 9745SOL    HW230135   6.856   2.854   6.287
 9746SOL     OW30136   6.252   0.977   6.114
 9746SOL    HW130137   6.246   1.076   6.125
 9746SOL    HW230138   6.268   0.954   6.018
 9747SOL     OW30139   2.122   0.483   1.997
 9747SOL    HW130140   2.220   0.465   2.001
 9747SOL    HW230141   2.072   0.399   2.022
 9748SOL     OW30142   1.373   1.492   3.199
 9748SOL    HW130143   1.431   1.574   3.198
 9748SOL    HW230144   1.431   1.410   3.204
 9749SOL     OW30145   2.227   1.949   4.871
 9749SOL    HW130146   2.222   1.883   4.946
 9749SOL    HW230147   2.264   1.903   4.790
 9750SOL     OW30148   5.464   4.486   3.355
 9750SOL    HW130149   5.486   4.389   3.351
 9750SOL    HW230150   5.543   4.536   3.391
 9751SOL     OW30151   1.889   1.444   1.086
 9751SOL    HW130152   1.972   1.493   1.114
 9751SOL    HW230153   1.822   1.509   1.050
 9752SOL     OW30154   5.224   1.395   0.003
 9752SOL    HW130155   5.148   1.336   0.031
 9752SOL    HW230156   5.285   1.410   0.080
 9753SOL     OW30157   5.563   5.129   5.165
 9753SOL    HW130158   5.653   5.105   5.200
 9753SOL    HW230159   5.514   5.045   5.141
 9754SOL     OW30160   0.711   1.231   0.076
 9754SOL    HW130161   0.739   1.297   0.006
 9754SOL    HW230162   0.788   1.213   0.137
 9755SOL     OW30163   4.169   3.647   5.170
 9755SOL    HW130164   4.134   3.640   5.077
 9755SOL    HW230165   4.160   3.558   5.216
 9756SOL     OW30166   6.214   3.083   0.276
 9756SOL    HW130167   6.130   3.060   0.325
 9756SOL    HW230168   6.222   3.023   0.196
 9757SOL     OW30169   5.636   3.368   3.392
 9757SOL    HW130170   5.636   3.439   3.322
 9757SOL    HW230171   5.549   3.371   3.442
 9758SOL     OW30172   2.725   0.127   0.177
 9758SOL    HW130173   2.661   0.068   0.127
 9758SOL    HW230174   2.713   0.114   0.275
 9759SOL     OW30175   2.311   0.086   6.950
 9759SOL    HW130176   2.257   0.025   7.009
 9759SOL    HW230177   2.371   0.031   6.892
 9760SOL     OW30178   4.520   3.492   5.360
 9760SOL    HW130179   4.576   3.532   5.287
 9760SOL    HW230180   4.543   3.396   5.371
 9761SOL     OW30181   5.968   6.835   1.787
 9761SOL    HW130182   5.968   6.855   1.689
 9761SOL    HW230183   6.058   6.800   1.814
 9762SOL     OW30184   2.496   2.507   4.351
 9762SOL    HW130185   2.575   2.463   4.309
 9762SOL    HW230186   2.499   2.493   4.450
 9763SOL     OW30187   4.440   2.417   1.525
 9763SOL    HW130188   4.503   2.369   1.465
 9763SOL    HW230189   4.480   2.425   1.617
 9764SOL     OW30190   1.111   2.716   2.879
 9764SOL    HW130191   1.183   2.715   2.809
 9764SOL    HW230192   1.022   2.708   2.835
 9765SOL     OW30193   6.571   1.738   2.865
 9765SOL    HW130194   6.571   1.836   2.845
 9765SOL    HW230195   6.499   1.717   2.931
 9766SOL     OW30196   2.872   0.540   2.968
 9766SOL    HW130197   2.948   0.483   2.999
 9766SOL    HW230198   2.885   0.634   3.002
 9767SOL     OW30199   5.003   2.119   4.926
 9767SOL    HW130200   5.002   2.178   4.845
 9767SOL    HW230201   5.033   2.172   5.005
 9768SOL     OW30202   4.433   1.529   2.012
 9768SOL    HW130203   4.520   1.491   1.980
 9768SOL    HW230204   4.412   1.613   1.963
 9769SOL     OW30205   2.045   1.329   2.033
 9769SOL    HW130206   2.122   1.339   2.097
 9769SOL    HW230207   2.071   1.364   1.943
 9770SOL     OW30208   5.422   0.196   7.014
 9770SOL    HW130209   5.498   0.243   6.969
 9770SOL    HW230210   5.336   0.243   6.992
 9771SOL     OW30211   3.889   4.908   1.700
 9771SOL    HW130212   3.863   4.814   1.681
 9771SOL    HW230213   3.910   4.955   1.615
 9772SOL     OW30214   1.138   6.329   2.646
 9772SOL    HW130215   1.097   6.373   2.567
 9772SOL    HW230216   1.071   6.322   2.720
 9773SOL     OW30217   5.632   6.873   4.315
 9773SOL    HW130218   5.542   6.828   4.317
 9773SOL    HW230219   5.687   6.840   4.391
 9774SOL     OW30220   6.443   4.941   2.117
 9774SOL    HW130221   6.405   5.005   2.051
 9774SOL    HW230222   6.516   4.888   2.074
 9775SOL     OW30223   3.250   1.591   3.478
 9775SOL    HW130224   3.308   1.664   3.443
 9775SOL    HW230225   3.260   1.585   3.577
 9776SOL     OW30226   6.862   5.598   4.298
 9776SOL    HW130227   6.842   5.672   4.233
 9776SOL    HW230228   6.960   5.582   4.301
 9777SOL     OW30229   5.891   5.072   6.436
 9777SOL    HW130230   5.895   5.069   6.536
 9777SOL    HW230231   5.970   5.123   6.401
 9778SOL     OW30232   0.071   0.751   3.592
 9778SOL    HW130233   0.053   0.830   3.534
 9778SOL    HW230234   0.151   0.702   3.558
 9779SOL     OW30235   2.092   1.625   4.558
 9779SOL    HW130236   2.192   1.627   4.555
 9779SOL    HW230237   2.056   1.682   4.484
 9780SOL     OW30238   2.371   1.938   0.969
 9780SOL    HW130239   2.322   1.909   1.051
 9780SOL    HW230240   2.318   2.007   0.920
 9781SOL     OW30241   1.368   4.048   3.758
 9781SOL    HW130242   1.422   3.967   3.735
 9781SOL    HW230243   1.388   4.074   3.853
 9782SOL     OW30244   6.988   0.790   1.456
 9782SOL    HW130245   6.915   0.741   1.408
 9782SOL    HW230246   6.999   0.881   1.416
 9783SOL     OW30247   4.600   1.971   2.101
 9783SOL    HW130248   4.515   2.005   2.060
 9783SOL    HW230249   4.669   1.958   2.030
 9784SOL     OW30250   4.542   1.446   3.743
 9784SOL    HW130251   4.528   1.525   3.684
 9784SOL    HW230252   4.628   1.400   3.718
 9785SOL     OW30253   6.956   4.195   4.970
 9785SOL    HW130254   6.881   4.128   4.966
 9785SOL    HW230255   6.943   4.263   4.898
 9786SOL     OW30256   2.102   4.887   6.416
 9786SOL    HW130257   2.068   4.938   6.337
 9786SOL    HW230258   2.198   4.862   6.400
 9787SOL     OW30259   5.050   3.582   1.474
 9787SOL    HW130260   5.099   3.539   1.549
 9787SOL    HW230261   4.967   3.626   1.509
 9788SOL     OW30262   0.733   0.389   3.891
 9788SOL    HW130263   0.731   0.385   3.991
 9788SOL    HW230264   0.820   0.429   3.861
 9789SOL     OW30265   1.590   5.782   6.502
 9789SOL    HW130266   1.623   5.715   6.569
 9789SOL    HW230267   1.492   5.799   6.518
 9790SOL     OW30268   5.840   3.990   5.759
 9790SOL    HW130269   5.817   3.985   5.662
 9790SOL    HW230270   5.902   4.068   5.775
 9791SOL     OW30271   0.530   1.193   3.142
 9791SOL    HW130272   0.615   1.219   3.187
 9791SOL    HW230273   0.463   1.267   3.152
 9792SOL     OW30274   5.199   5.299   1.217
 9792SOL    HW130275   5.178   5.373   1.153
 9792SOL    HW230276   5.128   5.294   1.287
 9793SOL     OW30277   5.321   5.671   3.506
 9793SOL    HW130278   5.221   5.670   3.503
 9793SOL    HW230279   5.357   5.585   3.471
 9794SOL     OW30280   6.258   3.856   6.406
 9794SOL    HW130281   6.203   3.819   6.331
 9794SOL    HW230282   6.355   3.854   6.381
 9795SOL     OW30283   1.463   1.859   4.323
 9795SOL    HW130284   1.508   1.771   4.309
 9795SOL    HW230285   1.515   1.912   4.390
 9796SOL     OW30286   3.439   3.781   0.751
 9796SOL    HW130287   3.400   3.810   0.839
 9796SOL    HW230288   3.422   3.684   0.738
 9797SOL     OW30289   3.361   4.019   6.488
 9797SOL    HW130290   3.292   4.034   6.417
 9797SOL    HW230291   3.440   4.077   6.470
 9798SOL     OW30292   2.306   0.939   0.939
 9798SOL    HW130293   2.247   0.866   0.973
 9798SOL    HW230294   2.399   0.927   0.973
 9799SOL     OW30295   3.448   3.515   3.366
 9799SOL    HW130296   3.470   3.607   3.334
 9799SOL    HW230297   3.493   3.499   3.454
 9800SOL     OW30298   2.992   6.182   5.555
 9800SOL    HW130299   3.007   6.280   5.564
 9800SOL    HW230300   2.990   6.157   5.458
 9801SOL     OW30301   4.461   4.960   0.625
 9801SOL    HW130302   4.468   5.029   0.696
 9801SOL    HW230303   4.365   4.950   0.598
 9802SOL     OW30304   6.987   2.600   2.332
 9802SOL    HW130305   0.042   2.605   2.271
 9802SOL    HW230306   7.019   2.596   2.427
 9803SOL     OW30307   6.238   1.221   0.219
 9803SOL    HW130308   6.211   1.201   0.314
 9803SOL    HW230309   6.284   1.310   0.216
 9804SOL     OW30310   0.504   5.832   3.312
 9804SOL    HW130311   0.524   5.914   3.364
 9804SOL    HW230312   0.556   5.755   3.350
 9805SOL     OW30313   1.070   5.837   6.114
 9805SOL    HW130314   1.088   5.780   6.034
 9805SOL    HW230315   1.142   5.823   6.182
 9806SOL     OW30316   1.386   1.481   0.695
 9806SOL    HW130317   1.300   1.433   0.717
 9806SOL    HW230318   1.460   1.442   0.749
 9807SOL     OW30319   2.202   2.528   6.795
 9807SOL    HW130320   2.197   2.606   6.858
 9807SOL    HW230321   2.289   2.529   6.746
 9808SOL     OW30322   5.592   0.551   5.648
 9808SOL    HW130323   5.515   0.572   5.708
 9808SOL    HW230324   5.656   0.492   5.697
 9809SOL     OW30325   0.601   1.507   6.048
 9809SOL    HW130326   0.585   1.550   6.137
 9809SOL    HW230327   0.624   1.411   6.061
 9810SOL     OW30328   2.545   2.303   3.104
 9810SOL    HW130329   2.568   2.324   3.009
 9810SOL    HW230330   2.451   2.271   3.110
 9811SOL     OW30331   5.961   5.624   3.706
 9811SOL    HW130332   5.960   5.580   3.796
 9811SOL    HW230333   6.055   5.652   3.684
 9812SOL     OW30334   3.367   2.422   6.143
 9812SOL    HW130335   3.281   2.458   6.107
 9812SOL    HW230336   3.422   2.384   6.069
 9813SOL     OW30337   5.566   6.388   6.874
 9813SOL    HW130338   5.468   6.378   6.853
 9813SOL    HW230339   5.618   6.326   6.815
 9814SOL     OW30340   0.998   0.914   6.055
 9814SOL    HW130341   1.081   0.907   6.109
 9814SOL    HW230342   0.922   0.941   6.114
 9815SOL     OW30343   6.949   2.137   1.932
 9815SOL    HW130344   6.879   2.200   1.964
 9815SOL    HW230345   6.935   2.047   1.975
 9816SOL     OW30346   6.352   1.299   6.800
 9816SOL    HW130347   6.450   1.281   6.791
 9816SOL    HW230348   6.301   1.223   6.760
 9817SOL     OW30349   2.913   5.566   1.763
 9817SOL    HW130350   2.864   5.591   1.680
 9817SOL    HW230351   2.870   5.611   1.842
 9818SOL     OW30352   1.619   1.232   3.155
 9818SOL    HW130353   1.524   1.207   3.171
 9818SOL    HW230354   1.653   1.284   3.234
 9819SOL     OW30355   5.083   3.546   5.028
 9819SOL    HW130356   5.153   3.592   5.082
 9819SOL    HW230357   4.993   3.584   5.049
 9820SOL     OW30358   3.034   2.210   6.677
 9820SOL    HW130359   3.075   2.283   6.622
 9820SOL    HW230360   2.946   2.184   6.637
 9821SOL     OW30361   4.113   1.896   0.800
 9821SOL    HW130362   4.132   1.969   0.865
 9821SOL    HW230363   4.032   1.919   0.746
 9822SOL     OW30364   3.721   5.646   3.914
 9822SOL    HW130365   3.696   5.723   3.973
 9822SOL    HW230366   3.812   5.614   3.939
 9823SOL     OW30367   1.369   0.155   2.036
 9823SOL    HW130368   1.335   0.095   1.963
 9823SOL    HW230369   1.451   0.203   2.004
 9824SOL     OW30370   2.278   6.024   5.573
 9824SOL    HW130371   2.281   6.043   5.671
 9824SOL    HW230372   2.372   6.010   5.540
 9825SOL     OW30373   5.886   5.588   5.027
 9825SOL    HW130374   5.841   5.623   5.109
 9825SOL    HW230375   5.899   5.489   5.037
 9826SOL     OW30376   3.632   6.287   5.273
 9826SOL    HW130377   3.662   6.216   5.210
 9826SOL    HW230378   3.541   6.265   5.308
 9827SOL     OW30379   2.047   4.692   3.242
 9827SOL    HW130380   2.134   4.661   3.279
 9827SOL    HW230381   2.011   4.767   3.297
 9828SOL     OW30382   3.073   2.100   5.229
 9828SOL    HW130383   3.082   2.144   5.140
 9828SOL    HW230384   3.151   2.126   5.287
 9829SOL     OW30385   4.702   6.387   6.449
 9829SOL    HW130386   4.738   6.294   6.451
 9829SOL    HW230387   4.726   6.431   6.363
 9830SOL     OW30388   5.662   1.296   1.979
 9830SOL    HW130389   5.647   1.211   2.030
 9830SOL    HW230390   5.663   1.373   2.043
 9831SOL     OW30391   0.498   4.679   1.619
 9831SOL    HW130392   0.583   4.732   1.621
 9831SOL    HW230393   0.520   4.582   1.635
 9832SOL     OW30394   4.808   5.321   3.930
 9832SOL    HW130395   4.821   5.384   4.007
 9832SOL    HW230396   4.719   5.339   3.888
 9833SOL     OW30397   3.471   3.196   3.622
 9833SOL    HW130398   3.565   3.220   3.597
 9833SOL    HW230399   3.411   3.274   3.604
 9834SOL     OW30400   2.101   4.960   6.118
 9834SOL    HW130401   2.182   4.938   6.064
 9834SOL    HW230402   2.031   4.890   6.104
 9835SOL     OW30403   3.795   3.072   3.935
 9835SOL    HW130404   3.775   3.169   3.919
 9835SOL    HW230405   3.709   3.021   3.942
 9836SOL     OW30406   0.431   4.501   4.819
 9836SOL    HW130407   0.450   4.404   4.834
 9836SOL    HW230408   0.354   4.529   4.876
 9837SOL     OW30409   5.707   1.663   2.649
 9837SOL    HW130410   5.685   1.681   2.553
 9837SOL    HW230411   5.626   1.624   2.694
 9838SOL     OW30412   1.283   6.972   1.008
 9838SOL    HW130413   1.213   7.012   1.067
 9838SOL    HW230414   1.246   6.892   0.961
 9839SOL     OW30415   4.703   0.562   3.378
 9839SOL    HW130416   4.716   0.587   3.474
 9839SOL    HW230417   4.654   0.474   3.374
 9840SOL     OW30418   4.535   1.948   0.012
 9840SOL    HW130419   4.458   1.994   6.991
 9840SOL    HW230420   4.621   1.988   7.004
 9841SOL     OW30421   0.799   4.640   3.503
 9841SOL    HW130422   0.810   4.739   3.511
 9841SOL    HW230423   0.889   4.597   3.494
 9842SOL     OW30424   3.568   3.572   0.384
 9842SOL    HW130425   3.534   3.480   0.402
 9842SOL    HW230426   3.624   3.602   0.460
 9843SOL     OW30427   7.006   0.495   2.003
 9843SOL    HW130428   6.985   0.575   2.058
 9843SOL    HW230429   6.972   0.413   2.049
 9844SOL     OW30430   6.165   0.163   4.473
 9844SOL    HW130431   6.216   0.124   4.396
 9844SOL    HW230432   6.229   0.196   4.542
 9845SOL     OW30433   0.901   2.422   2.777
 9845SOL    HW130434   0.915   2.515   2.745
 9845SOL    HW230435   0.921   2.358   2.703
 9846SOL     OW30436   4.792   1.462   0.546
 9846SOL    HW130437   4.828   1.555   0.551
 9846SOL    HW230438   4.708   1.456   0.600
 9847SOL     OW30439   4.040   3.402   2.002
 9847SOL    HW130440   3.974   3.435   1.934
 9847SOL    HW230441   3.991   3.348   2.071
 9848SOL     OW30442   3.614   4.354   5.361
 9848SOL    HW130443   3.545   4.355   5.289
 9848SOL    HW230444   3.643   4.260   5.378
 9849SOL     OW30445   0.605   6.886   6.627
 9849SOL    HW130446   0.590   6.966   6.568
 9849SOL    HW230447   0.588   6.912   6.722
 9850SOL     OW30448   0.039   0.384   4.057
 9850SOL    HW130449   0.122   0.440   4.060
 9850SOL    HW230450   7.000   0.420   3.989
 9851SOL     OW30451   2.809   6.322   4.793
 9851SOL    HW130452   2.888   6.371   4.829
 9851SOL    HW230453   2.814   6.226   4.822
 9852SOL     OW30454   1.152   1.802   4.986
 9852SOL    HW130455   1.137   1.895   5.018
 9852SOL    HW230456   1.241   1.769   5.018
 9853SOL     OW30457   7.000   3.444   5.164
 9853SOL    HW130458   0.033   3.520   5.196
 9853SOL    HW230459   6.985   3.379   5.239
 9854SOL     OW30460   0.923   5.421   5.023
 9854SOL    HW130461   0.908   5.490   4.952
 9854SOL    HW230462   0.864   5.342   5.005
 9855SOL     OW30463   1.145   3.436   0.882
 9855SOL    HW130464   1.160   3.519   0.936
 9855SOL    HW230465   1.075   3.453   0.814
 9856SOL     OW30466   5.852   4.693   4.275
 9856SOL    HW130467   5.844   4.739   4.363
 9856SOL    HW230468   5.930   4.631   4.277
 9857SOL     OW30469   5.724   2.648   2.701
 9857SOL    HW130470   5.725   2.692   2.791
 9857SOL    HW230471   5.631   2.641   2.667
 9858SOL     OW30472   1.061   6.742   1.889
 9858SOL    HW130473   1.071   6.705   1.981
 9858SOL    HW230474   1.100   6.834   1.886
 9859SOL     OW30475   6.546   4.921   4.843
 9859SOL    HW130476   6.547   4.886   4.937
 9859SOL    HW230477   6.527   5.019   4.843
 9860SOL     OW30478   2.089   2.189   5.100
 9860SOL    HW130479   2.033   2.272   5.095
 9860SOL    HW230480   2.101   2.152   5.008
 9861SOL     OW30481   3.302   1.512   3.895
 9861SOL    HW130482   3.345   1.439   3.949
 9861SOL    HW230483   3.367   1.547   3.828
 9862SOL     OW30484   2.631   4.260   0.949
 9862SOL    HW130485   2.665   4.307   1.031
 9862SOL    HW230486   2.599   4.169   0.973
 9863SOL     OW30487   3.079   5.898   0.979
 9863SOL    HW130488   3.048   5.958   0.904
 9863SOL    HW230489   3.178   5.882   0.970
 9864SOL     OW30490   3.014   6.839   5.739
 9864SOL    HW130491   2.979   6.881   5.822
 9864SOL    HW230492   3.103   6.797   5.757
 9865SOL     OW30493   0.615   6.571   5.073
 9865SOL    HW130494   0.622   6.522   4.987
 9865SOL    HW230495   0.520   6.574   5.103
 9866SOL     OW30496   6.088   4.257   4.953
 9866SOL    HW130497   5.999   4.278   4.995
 9866SOL    HW230498   6.090   4.293   4.860
 9867SOL     OW30499   5.264   2.238   3.068
 9867SOL    HW130500   5.181   2.284   3.098
 9867SOL    HW230501   5.240   2.152   3.022
 9868SOL     OW30502   0.736   3.555   3.542
 9868SOL    HW130503   0.780   3.582   3.456
 9868SOL    HW230504   0.728   3.455   3.545
 9869SOL     OW30505   0.328   2.763   1.192
 9869SOL    HW130506   0.421   2.744   1.223
 9869SOL    HW230507   0.314   2.719   1.103
 9870SOL     OW30508   4.398   1.097   2.056
 9870SOL    HW130509   4.421   1.185   2.097
 9870SOL    HW230510   4.360   1.036   2.125
 9871SOL     OW30511   6.802   2.702   5.861
 9871SOL    HW130512   6.869   2.767   5.896
 9871SOL    HW230513   6.837   2.660   5.777
 9872SOL     OW30514   2.232   5.281   5.251
 9872SOL    HW130515   2.249   5.189   5.286
 9872SOL    HW230516   2.145   5.315   5.287
 9873SOL     OW30517   1.701   2.163   5.813
 9873SOL    HW130518   1.601   2.152   5.814
 9873SOL    HW230519   1.741   2.097   5.750
 9874SOL     OW30520   0.711   3.018   4.679
 9874SOL    HW130521   0.614   3.008   4.657
 9874SOL    HW230522   0.722   3.090   4.748
 9875SOL     OW30523   0.090   6.153   1.437
 9875SOL    HW130524   0.175   6.122   1.394
 9875SOL    HW230525   0.110   6.187   1.529
 9876SOL     OW30526   3.965   6.968   3.465
 9876SOL    HW130527   3.879   6.923   3.444
 9876SOL    HW230528   3.993   7.023   3.386
 9877SOL     OW30529   0.106   4.061   3.953
 9877SOL    HW130530   0.045   4.087   3.879
 9877SOL    HW230531   0.106   4.132   4.023
 9878SOL     OW30532   1.893   3.240   6.810
 9878SOL    HW130533   1.801   3.223   6.774
 9878SOL    HW230534   1.960   3.187   6.759
 9879SOL     OW30535   1.065   4.595   5.916
 9879SOL    HW130536   1.078   4.691   5.939
 9879SOL    HW230537   1.067   4.585   5.816
 9880SOL     OW30538   2.755   1.033   0.077
 9880SOL    HW130539   2.760   0.968   0.001
 9880SOL    HW230540   2.700   1.112   0.049
 9881SOL     OW30541   5.390   0.489   4.498
 9881SOL    HW130542   5.441   0.403   4.497
 9881SOL    HW230543   5.443   0.561   4.455
 9882SOL     OW30544   3.357   3.432   4.470
 9882SOL    HW130545   3.325   3.353   4.521
 9882SOL    HW230546   3.325   3.516   4.513
 9883SOL     OW30547   1.676   6.157   1.858
 9883SOL    HW130548   1.692   6.059   1.868
 9883SOL    HW230549   1.695   6.185   1.764
 9884SOL     OW30550   2.104   3.044   6.984
 9884SOL    HW130551   2.055   3.122   7.023
 9884SOL    HW230552   2.187   3.027   0.013
 9885SOL     OW30553   0.648   3.063   3.961
 9885SOL    HW130554   0.618   3.147   3.916
 9885SOL    HW230555   0.712   3.086   4.035
 9886SOL     OW30556   6.201   6.725   1.806
 9886SOL    HW130557   6.235   6.715   1.900
 9886SOL    HW230558   6.195   6.634   1.763
 9887SOL     OW30559   3.532   0.099   0.376
 9887SOL    HW130560   3.559   0.192   0.353
 9887SOL    HW230561   3.612   0.046   0.404
 9888SOL     OW30562   5.880   5.882   3.063
 9888SOL    HW130563   5.901   5.968   3.110
 9888SOL    HW230564   5.811   5.832   3.114
 9889SOL     OW30565   0.617   4.882   3.085
 9889SOL    HW130566   0.605   4.811   3.154
 9889SOL    HW230567   0.650   4.841   3.000
 9890SOL     OW30568   6.321   3.141   0.875
 9890SOL    HW130569   6.399   3.108   0.928
 9890SOL    HW230570   6.282   3.222   0.920
 9891SOL     OW30571   5.293   5.149   1.534
 9891SOL    HW130572   5.374   5.187   1.579
 9891SOL    HW230573   5.323   5.091   1.458
 9892SOL     OW30574   2.028   4.835   3.778
 9892SOL    HW130575   1.963   4.781   3.831
 9892SOL    HW230576   2.076   4.776   3.713
 9893SOL     OW30577   6.288   5.680   2.876
 9893SOL    HW130578   6.228   5.756   2.850
 9893SOL    HW230579   6.378   5.716   2.900
 9894SOL     OW30580   3.054   2.244   5.881
 9894SOL    HW130581   3.135   2.276   5.831
 9894SOL    HW230582   3.005   2.322   5.919
 9895SOL     OW30583   5.978   2.168   6.433
 9895SOL    HW130584   6.022   2.220   6.359
 9895SOL    HW230585   5.882   2.152   6.409
 9896SOL     OW30586   3.785   3.254   0.795
 9896SOL    HW130587   3.831   3.215   0.715
 9896SOL    HW230588   3.781   3.353   0.787
 9897SOL     OW30589   5.385   1.334   2.900
 9897SOL    HW130590   5.385   1.417   2.957
 9897SOL    HW230591   5.376   1.254   2.959
 9898SOL     OW30592   0.988   4.948   5.526
 9898SOL    HW130593   0.969   4.982   5.434
 9898SOL    HW230594   0.909   4.965   5.585
 9899SOL     OW30595   5.818   4.371   1.961
 9899SOL    HW130596   5.760   4.442   2.001
 9899SOL    HW230597   5.862   4.318   2.034
 9900SOL     OW30598   1.465   1.776   2.993
 9900SOL    HW130599   1.447   1.825   2.908
 9900SOL    HW230600   1.381   1.773   3.048
 9901SOL     OW30601   1.464   1.550   6.761
 9901SOL    HW130602   1.381   1.496   6.781
 9901SOL    HW230603   1.484   1.611   6.838
 9902SOL     OW30604   3.863   3.294   0.481
 9902SOL    HW130605   3.844   3.269   0.386
 9902SOL    HW230606   3.913   3.220   0.525
 9903SOL     OW30607   4.819   0.435   2.302
 9903SOL    HW130608   4.838   0.392   2.214
 9903SOL    HW230609   4.769   0.372   2.360
 9904SOL     OW30610   0.299   3.697   6.702
 9904SOL    HW130611   0.261   3.681   6.611
 9904SOL    HW230612   0.331   3.791   6.708
 9905SOL     OW30613   1.701   6.355   0.236
 9905SOL    HW130614   1.762   6.378   0.312
 9905SOL    HW230615   1.748   6.293   0.174
 9906SOL     OW30616   1.394   2.941   6.456
 9906SOL    HW130617   1.414   2.963   6.360
 9906SOL    HW230618   1.374   3.025   6.506
 9907SOL     OW30619   2.900   6.310   3.588
 9907SOL    HW130620   2.870   6.324   3.494
 9907SOL    HW230621   2.885   6.215   3.615
 9908SOL     OW30622   0.644   2.992   6.450
 9908SOL    HW130623   0.548   2.978   6.427
 9908SOL    HW230624   0.664   3.090   6.455
 9909SOL     OW30625   3.696   1.138   2.995
 9909SOL    HW130626   3.712   1.043   3.019
 9909SOL    HW230627   3.682   1.192   3.078
 9910SOL     OW30628   0.435   4.930   1.400
 9910SOL    HW130629   0.371   4.862   1.364
 9910SOL    HW230630   0.485   4.973   1.324
 9911SOL     OW30631   5.066   4.752   2.954
 9911SOL    HW130632   5.142   4.727   3.014
 9911SOL    HW230633   5.086   4.838   2.908
 9912SOL     OW30634   3.787   0.505   2.680
 9912SOL    HW130635   3.790   0.470   2.586
 9912SOL    HW230636   3.696   0.488   2.719
 9913SOL     OW30637   5.654   2.651   2.374
 9913SOL    HW130638   5.594   2.585   2.421
 9913SOL    HW230639   5.598   2.722   2.333
 9914SOL     OW30640   1.307   0.618   5.628
 9914SOL    HW130641   1.389   0.624   5.571
 9914SOL    HW230642   1.272   0.524   5.626
 9915SOL     OW30643   5.708   3.583   4.071
 9915SOL    HW130644   5.667   3.668   4.105
 9915SOL    HW230645   5.712   3.586   3.971
 9916SOL     OW30646   2.500   2.603   3.137
 9916SOL    HW130647   2.531   2.608   3.232
 9916SOL    HW230648   2.536   2.519   3.095
 9917SOL     OW30649   3.656   3.760   4.925
 9917SOL    HW130650   3.559   3.782   4.916
 9917SOL    HW230651   3.675   3.675   4.875
 9918SOL     OW30652   1.969   1.395   6.852
 9918SOL    HW130653   1.899   1.462   6.878
 9918SOL    HW230654   2.037   1.439   6.794
 9919SOL     OW30655   2.150   5.288   2.324
 9919SOL    HW130656   2.202   5.353   2.380
 9919SOL    HW230657   2.055   5.318   2.316
 9920SOL     OW30658   3.720   0.063   2.138
 9920SOL    HW130659   3.795   0.044   2.201
 9920SOL    HW230660   3.669   7.003   2.121
 9921SOL     OW30661   6.269   6.374   3.754
 9921SOL    HW130662   6.324   6.328   3.684
 9921SOL    HW230663   6.317   6.369   3.841
 9922SOL     OW30664   4.772   4.318   0.944
 9922SOL    HW130665   4.754   4.299   1.040
 9922SOL    HW230666   4.857   4.272   0.916
 9923SOL     OW30667   6.809   2.448   6.900
 9923SOL    HW130668   6.836   2.512   6.971
 9923SOL    HW230669   6.875   2.372   6.897
 9924SOL     OW30670   5.518   1.731   2.013
 9924SOL    HW130671   5.575   1.666   2.064
 9924SOL    HW230672   5.431   1.743   2.060
 9925SOL     OW30673   2.165   3.829   5.444
 9925SOL    HW130674   2.069   3.803   5.434
 9925SOL    HW230675   2.171   3.926   5.470
 9926SOL     OW30676   2.700   2.210   1.095
 9926SOL    HW130677   2.693   2.262   1.180
 9926SOL    HW230678   2.610   2.179   1.066
 9927SOL     OW30679   1.034   2.322   2.131
 9927SOL    HW130680   1.017   2.226   2.110
 9927SOL    HW230681   1.127   2.346   2.103
 9928SOL     OW30682   6.390   4.382   2.143
 9928SOL    HW130683   6.416   4.337   2.058
 9928SOL    HW230684   6.435   4.336   2.220
 9929SOL     OW30685   3.117   4.152   5.483
 9929SOL    HW130686   3.041   4.182   5.426
 9929SOL    HW230687   3.202   4.152   5.430
 9930SOL     OW30688   7.019   0.642   5.486
 9930SOL    HW130689   0.000   0.647   5.586
 9930SOL    HW230690   0.054   0.568   5.454
 9931SOL     OW30691   0.537   6.031   4.681
 9931SOL    HW130692   0.443   6.032   4.715
 9931SOL    HW230693   0.586   5.952   4.719
 9932SOL     OW30694   1.806   2.107   0.791
 9932SOL    HW130695   1.843   2.124   0.883
 9932SOL    HW230696   1.708   2.092   0.796
 9933SOL     OW30697   2.799   1.031   3.483
 9933SOL    HW130698   2.763   1.002   3.395
 9933SOL    HW230699   2.825   0.951   3.537
 9934SOL     OW30700   5.667   2.073   0.515
 9934SOL    HW130701   5.652   2.094   0.611
 9934SOL    HW230702   5.743   2.129   0.481
 9935SOL     OW30703   2.851   2.633   0.974
 9935SOL    HW130704   2.907   2.570   0.921
 9935SOL    HW230705   2.826   2.591   1.061
 9936SOL     OW30706   5.341   4.838   6.113
 9936SOL    HW130707   5.409   4.902   6.150
 9936SOL    HW230708   5.342   4.754   6.168
 9937SOL     OW30709   0.207   0.334   2.986
 9937SOL    HW130710   0.196   0.371   3.078
 9937SOL    HW230711   0.218   0.410   2.921
 9938SOL     OW30712   5.854   0.756   4.333
 9938SOL    HW130713   5.927   0.692   4.356
 9938SOL    HW230714   5.881   0.809   4.253
 9939SOL     OW30715   1.458   3.513   0.768
 9939SOL    HW130716   1.425   3.486   0.858
 9939SOL    HW230717   1.438   3.440   0.702
 9940SOL     OW30718   0.196   0.183   3.402
 9940SOL    HW130719   0.128   0.212   3.335
 9940SOL    HW230720   0.181   0.087   3.425
 9941SOL     OW30721   3.672   4.999   5.647
 9941SOL    HW130722   3.737   4.984   5.572
 9941SOL    HW230723   3.684   5.092   5.683
 9942SOL     OW30724   4.723   5.074   2.290
 9942SOL    HW130725   4.791   5.084   2.362
 9942SOL    HW230726   4.711   4.978   2.268
 9943SOL     OW30727   1.524   4.115   6.246
 9943SOL    HW130728   1.478   4.200   6.272
 9943SOL    HW230729   1.456   4.043   6.234
 9944SOL     OW30730   0.678   5.298   6.033
 9944SOL    HW130731   0.609   5.367   6.054
 9944SOL    HW230732   0.756   5.310   6.094
 9945SOL     OW30733   6.022   4.224   6.831
 9945SOL    HW130734   6.073   4.220   6.745
 9945SOL    HW230735   5.931   4.262   6.813
 9946SOL     OW30736   5.825   0.170   3.118
 9946SOL    HW130737   5.852   0.244   3.180
 9946SOL    HW230738   5.815   0.086   3.170
 9947SOL     OW30739   1.126   1.797   4.109
 9947SOL    HW130740   1.150   1.863   4.181
 9947SOL    HW230741   1.068   1.725   4.147
 9948SOL     OW30742   6.747   6.126   4.989
 9948SOL    HW130743   6.715   6.034   4.964
 9948SOL    HW230744   6.847   6.127   4.990
 9949SOL     OW30745   0.029   4.668   4.310
 9949SOL    HW130746   7.021   4.762   4.297
 9949SOL    HW230747   7.018   4.633   4.397
 9950SOL     OW30748   6.492   5.045   6.323
 9950SOL    HW130749   6.405   4.996   6.326
 9950SOL    HW230750   6.559   4.997   6.380
 9951SOL     OW30751   1.188   2.928   3.027
 9951SOL    HW130752   1.160   2.851   2.969
 9951SOL    HW230753   1.133   2.928   3.111
 9952SOL     OW30754   0.742   3.700   1.686
 9952SOL    HW130755   0.771   3.611   1.720
 9952SOL    HW230756   0.796   3.725   1.606
 9953SOL     OW30757   6.407   2.688   3.652
 9953SOL    HW130758   6.313   2.716   3.673
 9953SOL    HW230759   6.432   2.720   3.561
 9954SOL     OW30760   2.397   1.728   5.214
 9954SOL    HW130761   2.412   1.652   5.277
 9954SOL    HW230762   2.482   1.747   5.164
 9955SOL     OW30763   4.269   3.280   6.972
 9955SOL    HW130764   4.361   3.317   6.971
 9955SOL    HW230765   4.221   3.311   0.031
 9956SOL     OW30766   0.202   4.903   2.089
 9956SOL    HW130767   0.153   4.872   2.007
 9956SOL    HW230768   0.186   4.839   2.164
 9957SOL     OW30769   5.616   6.862   1.232
 9957SOL    HW130770   5.593   6.946   1.282
 9957SOL    HW230771   5.603   6.783   1.292
 9958SOL     OW30772   3.503   5.245   6.567
 9958SOL    HW130773   3.585   5.187   6.560
 9958SOL    HW230774   3.523   5.335   6.529
 9959SOL     OW30775   4.137   3.664   1.778
 9959SOL    HW130776   4.128   3.723   1.858
 9959SOL    HW230777   4.073   3.588   1.785
 9960SOL     OW30778   6.687   6.189   1.270
 9960SOL    HW130779   6.779   6.161   1.240
 9960SOL    HW230780   6.665   6.142   1.355
 9961SOL     OW30781   1.518   4.516   2.212
 9961SOL    HW130782   1.479   4.604   2.184
 9961SOL    HW230783   1.446   4.459   2.252
 9962SOL     OW30784   3.433   0.325   1.681
 9962SOL    HW130785   3.525   0.337   1.719
 9962SOL    HW230786   3.384   0.412   1.685
 9963SOL     OW30787   2.971   2.545   0.673
 9963SOL    HW130788   2.995   2.506   0.584
 9963SOL    HW230789   2.921   2.630   0.659
 9964SOL     OW30790   4.111   5.222   5.820
 9964SOL    HW130791   4.052   5.165   5.877
 9964SOL    HW230792   4.115   5.183   5.728
 9965SOL     OW30793   4.024   5.279   4.948
 9965SOL    HW130794   3.968   5.200   4.924
 9965SOL    HW230795   3.976   5.363   4.922
 9966SOL     OW30796   3.010   5.075   2.085
 9966SOL    HW130797   2.961   5.038   2.164
 9966SOL    HW230798   2.947   5.128   2.028
 9967SOL     OW30799   6.153   5.923   2.798
 9967SOL    HW130800   6.129   6.002   2.854
 9967SOL    HW230801   6.212   5.952   2.723
 9968SOL     OW30802   4.440   5.717   6.940
 9968SOL    HW130803   4.495   5.641   6.975
 9968SOL    HW230804   4.345   5.705   6.968
 9969SOL     OW30805   0.977   4.029   4.413
 9969SOL    HW130806   0.977   3.929   4.415
 9969SOL    HW230807   1.068   4.063   4.436
 9970SOL     OW30808   5.695   4.653   1.791
 9970SOL    HW130809   5.760   4.579   1.772
 9970SOL    HW230810   5.699   4.719   1.716
 9971SOL     OW30811   1.037   2.625   1.659
 9971SOL    HW130812   1.090   2.683   1.597
 9971SOL    HW230813   0.953   2.673   1.686
 9972SOL     OW30814   2.767   3.829   1.367
 9972SOL    HW130815   2.825   3.809   1.288
 9972SOL    HW230816   2.804   3.783   1.448
 9973SOL     OW30817   4.640   2.842   5.100
 9973SOL    HW130818   4.679   2.880   5.017
 9973SOL    HW230819   4.569   2.775   5.076
 9974SOL     OW30820   6.999   1.606   3.091
 9974SOL    HW130821   6.962   1.624   3.182
 9974SOL    HW230822   6.941   1.649   3.022
 9975SOL     OW30823   0.613   5.163   6.538
 9975SOL    HW130824   0.593   5.089   6.601
 9975SOL    HW230825   0.534   5.180   6.479
 9976SOL     OW30826   0.772   5.062   5.645
 9976SOL    HW130827   0.734   5.152   5.626
 9976SOL    HW230828   0.719   5.018   5.717
 9977SOL     OW30829   5.320   4.828   5.859
 9977SOL    HW130830   5.269   4.755   5.813
 9977SOL    HW230831   5.313   4.816   5.958
 9978SOL     OW30832   0.188   1.911   5.767
 9978SOL    HW130833   0.119   1.932   5.697
 9978SOL    HW230834   0.156   1.836   5.825
 9979SOL     OW30835   5.569   4.136   5.822
 9979SOL    HW130836   5.487   4.091   5.788
 9979SOL    HW230837   5.649   4.077   5.805
 9980SOL     OW30838   2.118   0.456   0.702
 9980SOL    HW130839   2.192   0.417   0.757
 9980SOL    HW230840   2.129   0.427   0.607
 9981SOL     OW30841   1.702   2.276   1.134
 9981SOL    HW130842   1.620   2.265   1.190
 9981SOL    HW230843   1.676   2.311   1.044
 9982SOL     OW30844   1.953   0.879   4.406
 9982SOL    HW130845   1.860   0.849   4.384
 9982SOL    HW230846   1.956   0.979   4.405
 9983SOL     OW30847   6.816   1.957   2.433
 9983SOL    HW130848   6.788   1.862   2.443
 9983SOL    HW230849   6.881   1.981   2.505
 9984SOL     OW30850   0.155   6.220   0.626
 9984SOL    HW130851   0.088   6.244   0.696
 9984SOL    HW230852   0.123   6.140   0.576
 9985SOL     OW30853   2.980   5.203   0.868
 9985SOL    HW130854   3.071   5.169   0.843
 9985SOL    HW230855   2.951   5.269   0.799
 9986SOL     OW30856   6.348   4.894   0.495
 9986SOL    HW130857   6.258   4.855   0.518
 9986SOL    HW230858   6.352   4.912   0.397
 9987SOL     OW30859   5.085   2.818   1.689
 9987SOL    HW130860   5.159   2.879   1.661
 9987SOL    HW230861   5.063   2.833   1.785
 9988SOL     OW30862   0.135   5.027   4.270
 9988SOL    HW130863   0.177   4.940   4.297
 9988SOL    HW230864   0.121   5.027   4.171
 9989SOL     OW30865   5.936   3.857   1.970
 9989SOL    HW130866   6.018   3.915   1.967
 9989SOL    HW230867   5.868   3.898   2.031
 9990SOL     OW30868   1.583   6.193   3.215
 9990SOL    HW130869   1.623   6.113   3.260
 9990SOL    HW230870   1.628   6.276   3.250
 9991SOL     OW30871   2.131   3.403   4.064
 9991SOL    HW130872   2.150   3.323   4.008
 9991SOL    HW230873   2.158   3.386   4.158
 9992SOL     OW30874   3.412   3.495   0.793
 9992SOL    HW130875   3.320   3.462   0.773
 9992SOL    HW230876   3.467   3.420   0.830
 9993SOL     OW30877   3.385   6.427   4.058
 9993SOL    HW130878   3.317   6.457   3.991
 9993SOL    HW230879   3.447   6.503   4.078
 9994SOL     OW30880   0.127   4.008   3.363
 9994SOL    HW130881   0.063   3.934   3.383
 9994SOL    HW230882   0.088   4.069   3.294
 9995SOL     OW30883   3.664   1.269   3.261
 9995SOL    HW130884   3.655   1.195   3.327
 9995SOL    HW230885   3.630   1.354   3.301
 9996SOL     OW30886   2.888   3.977   1.116
 9996SOL    HW130887   2.873   4.074   1.131
 9996SOL    HW230888   2.970   3.948   1.166
 9997SOL     OW30889   5.315   1.198   3.160
 9997SOL    HW130890   5.359   1.288   3.164
 9997SOL    HW230891   5.218   1.208   3.184
 9998SOL     OW30892   5.173   3.847   2.237
 9998SOL    HW130893   5.146   3.934   2.195
 9998SOL    HW230894   5.264   3.821   2.206
 9999SOL     OW30895   0.506   6.449   4.475
 9999SOL    HW130896   0.547   6.365   4.439
 9999SOL    HW230897   0.569   6.493   4.538
10000SOL     OW30898   5.897   1.936   1.132
10000SOL    HW130899   5.799   1.949   1.148
10000SOL    HW230900   5.915   1.840   1.111
10001SOL     OW30901   3.292   6.778   2.144
10001SOL    HW130902   3.282   6.680   2.124
10001SOL    HW230903   3.210   6.809   2.192
10002SOL     OW30904   2.719   1.404   1.088
10002SOL    HW130905   2.680   1.489   1.125
10002SOL    HW230906   2.663   1.372   1.011
10003SOL     OW30907   3.350   1.555   2.256
10003SOL    HW130908   3.441   1.574   2.293
10003SOL    HW230909   3.295   1.509   2.325
10004SOL     OW30910   5.087   3.851   5.220
10004SOL    HW130911   5.044   3.820   5.305
10004SOL    HW230912   5.171   3.799   5.204
10005SOL     OW30913   3.471   5.261   2.816
10005SOL    HW130914   3.442   5.355   2.837
10005SOL    HW230915   3.409   5.221   2.749
10006SOL     OW30916   5.431   6.617   5.231
10006SOL    HW130917   5.503   6.610   5.300
10006SOL    HW230918   5.468   6.596   5.141
10007SOL     OW30919   0.811   3.523   4.750
10007SOL    HW130920   0.878   3.506   4.677
10007SOL    HW230921   0.768   3.612   4.735
10008SOL     OW30922   5.185   1.743   3.470
10008SOL    HW130923   5.181   1.661   3.412
10008SOL    HW230924   5.281   1.769   3.484
10009SOL     OW30925   2.023   4.550   1.675
10009SOL    HW130926   2.089   4.624   1.657
10009SOL    HW230927   2.053   4.467   1.628
10010SOL     OW30928   2.860   5.746   0.191
10010SOL    HW130929   2.879   5.686   0.113
10010SOL    HW230930   2.763   5.739   0.216
10011SOL     OW30931   0.265   4.055   6.992
10011SOL    HW130932   0.341   4.117   7.014
10011SOL    HW230933   0.300   3.963   6.976
10012SOL     OW30934   5.258   6.965   2.422
10012SOL    HW130935   5.176   6.910   2.405
10012SOL    HW230936   5.231   0.032   2.452
10013SOL     OW30937   1.364   3.564   3.831
10013SOL    HW130938   1.370   3.584   3.734
10013SOL    HW230939   1.294   3.622   3.873
10014SOL     OW30940   0.967   6.883   2.249
10014SOL    HW130941   1.063   6.874   2.223
10014SOL    HW230942   0.956   6.864   2.347
10015SOL     OW30943   4.335   5.335   0.320
10015SOL    HW130944   4.401   5.297   0.255
10015SOL    HW230945   4.317   5.430   0.296
10016SOL     OW30946   2.636   1.103   4.974
10016SOL    HW130947   2.690   1.066   4.899
10016SOL    HW230948   2.541   1.114   4.945
10017SOL     OW30949   1.534   1.357   2.479
10017SOL    HW130950   1.437   1.371   2.502
10017SOL    HW230951   1.568   1.278   2.529
10018SOL     OW30952   6.481   4.509   5.666
10018SOL    HW130953   6.542   4.478   5.739
10018SOL    HW230954   6.499   4.455   5.583
10019SOL     OW30955   0.144   1.396   2.997
10019SOL    HW130956   0.181   1.427   2.909
10019SOL    HW230957   0.079   1.464   3.031
10020SOL     OW30958   0.363   0.907   1.986
10020SOL    HW130959   0.417   0.875   1.908
10020SOL    HW230960   0.333   0.829   2.040
10021SOL     OW30961   0.581   2.957   2.550
10021SOL    HW130962   0.605   2.864   2.524
10021SOL    HW230963   0.663   3.014   2.553
10022SOL     OW30964   3.253   5.905   0.384
10022SOL    HW130965   3.161   5.923   0.350
10022SOL    HW230966   3.252   5.905   0.484
10023SOL     OW30967   1.910   5.293   4.983
10023SOL    HW130968   1.877   5.353   4.910
10023SOL    HW230969   1.874   5.201   4.968
10024SOL     OW30970   1.051   5.185   2.834
10024SOL    HW130971   1.058   5.246   2.913
10024SOL    HW230972   1.068   5.091   2.863
10025SOL     OW30973   1.503   3.182   1.986
10025SOL    HW130974   1.572   3.205   2.054
10025SOL    HW230975   1.505   3.084   1.968
10026SOL     OW30976   4.883   0.055   3.342
10026SOL    HW130977   4.973   0.084   3.374
10026SOL    HW230978   4.816   0.068   3.415
10027SOL     OW30979   0.656   2.219   5.268
10027SOL    HW130980   0.560   2.198   5.252
10027SOL    HW230981   0.706   2.134   5.286
10028SOL     OW30982   2.174   1.683   1.699
10028SOL    HW130983   2.096   1.710   1.756
10028SOL    HW230984   2.258   1.719   1.739
10029SOL     OW30985   1.850   2.921   3.619
10029SOL    HW130986   1.871   3.019   3.613
10029SOL    HW230987   1.753   2.909   3.639
10030SOL     OW30988   3.540   0.542   5.162
10030SOL    HW130989   3.487   0.614   5.207
10030SOL    HW230990   3.567   0.473   5.230
10031SOL     OW30991   5.202   5.087   4.400
10031SOL    HW130992   5.151   5.109   4.317
10031SOL    HW230993   5.297   5.119   4.391
10032SOL     OW30994   4.467   0.514   5.674
10032SOL    HW130995   4.371   0.540   5.674
10032SOL    HW230996   4.480   0.432   5.617
10033SOL     OW30997   4.411   2.027   4.376
10033SOL    HW130998   4.340   2.084   4.334
10033SOL    HW230999   4.472   2.084   4.430
10034SOL     OW31000   2.630   0.662   3.594
10034SOL    HW131001   2.587   0.655   3.504
10034SOL    HW231002   2.639   0.570   3.633
10035SOL     OW31003   6.389   4.334   0.751
10035SOL    HW131004   6.402   4.430   0.776
10035SOL    HW231005   6.296   4.321   0.716
10036SOL     OW31006   0.199   0.520   0.515
10036SOL    HW131007   0.186   0.482   0.424
10036SOL    HW231008   0.277   0.584   0.514
10037SOL     OW31009   6.272   0.564   0.162
10037SOL    HW131010   6.345   0.520   0.215
10037SOL    HW231011   6.306   0.590   0.072
10038SOL     OW31012   4.418   0.064   6.261
10038SOL    HW131013   4.411   6.990   6.273
10038SOL    HW231014   4.326   0.103   6.248
10039SOL     OW31015   5.248   6.548   5.581
10039SOL    HW131016   5.258   6.618   5.510
10039SOL    HW231017   5.166   6.495   5.564
10040SOL     OW31018   4.463   5.808   5.851
10040SOL    HW131019   4.367   5.831   5.866
10040SOL    HW231020   4.521   5.874   5.899
10041SOL     OW31021   5.554   5.680   6.207
10041SOL    HW131022   5.548   5.598   6.264
10041SOL    HW231023   5.462   5.717   6.193
10042SOL     OW31024   0.866   1.046   5.443
10042SOL    HW131025   0.926   1.047   5.363
10042SOL    HW231026   0.792   1.111   5.430
10043SOL     OW31027   0.501   1.177   3.886
10043SOL    HW131028   0.442   1.186   3.806
10043SOL    HW231029   0.450   1.204   3.968
10044SOL     OW31030   2.828   1.938   3.157
10044SOL    HW131031   2.879   1.901   3.234
10044SOL    HW231032   2.794   2.029   3.182
10045SOL     OW31033   5.075   0.146   3.795
10045SOL    HW131034   5.002   0.206   3.763
10045SOL    HW231035   5.059   0.123   3.891
10046SOL     OW31036   1.601   2.854   1.030
10046SOL    HW131037   1.638   2.838   1.121
10046SOL    HW231038   1.534   2.928   1.033
10047SOL     OW31039   5.406   3.435   5.074
10047SOL    HW131040   5.470   3.481   5.013
10047SOL    HW231041   5.425   3.337   5.075
10048SOL     OW31042   3.887   1.873   2.241
10048SOL    HW131043   3.919   1.953   2.189
10048SOL    HW231044   3.956   1.801   2.237
10049SOL     OW31045   0.373   0.473   6.500
10049SOL    HW131046   0.352   0.419   6.582
10049SOL    HW231047   0.472   0.489   6.496
10050SOL     OW31048   6.238   2.418   5.261
10050SOL    HW131049   6.222   2.504   5.309
10050SOL    HW231050   6.334   2.391   5.271
10051SOL     OW31051   6.317   2.081   5.201
10051SOL    HW131052   6.255   2.112   5.273
10051SOL    HW231053   6.265   2.061   5.118
10052SOL     OW31054   2.561   2.079   2.770
10052SOL    HW131055   2.567   2.023   2.853
10052SOL    HW231056   2.645   2.067   2.716
10053SOL     OW31057   3.690   5.787   1.604
10053SOL    HW131058   3.746   5.751   1.678
10053SOL    HW231059   3.594   5.764   1.621
10054SOL     OW31060   4.530   5.586   5.993
10054SOL    HW131061   4.538   5.671   5.941
10054SOL    HW231062   4.457   5.530   5.953
10055SOL     OW31063   5.699   2.314   5.595
10055SOL    HW131064   5.736   2.249   5.528
10055SOL    HW231065   5.715   2.408   5.563
10056SOL     OW31066   6.550   4.832   1.282
10056SOL    HW131067   6.465   4.818   1.231
10056SOL    HW231068   6.565   4.754   1.344
10057SOL     OW31069   3.827   2.074   4.911
10057SOL    HW131070   3.883   2.101   4.833
10057SOL    HW231071   3.883   2.072   4.994
10058SOL     OW31072   0.324   3.695   4.374
10058SOL    HW131073   0.298   3.604   4.344
10058SOL    HW231074   0.252   3.760   4.352
10059SOL     OW31075   5.348   6.416   0.749
10059SOL    HW131076   5.399   6.452   0.671
10059SOL    HW231077   5.411   6.367   0.810
10060SOL     OW31078   2.388   1.701   1.864
10060SOL    HW131079   2.466   1.642   1.841
10060SOL    HW231080   2.359   1.682   1.958
10061SOL     OW31081   5.305   1.425   4.686
10061SOL    HW131082   5.342   1.506   4.731
10061SOL    HW231083   5.206   1.423   4.696
10062SOL     OW31084   6.471   0.099   4.769
10062SOL    HW131085   6.562   0.132   4.797
10062SOL    HW231086   6.418   0.176   4.735
10063SOL     OW31087   1.407   1.367   3.864
10063SOL    HW131088   1.382   1.276   3.829
10063SOL    HW231089   1.400   1.434   3.791
10064SOL     OW31090   5.185   6.198   6.589
10064SOL    HW131091   5.131   6.279   6.566
10064SOL    HW231092   5.164   6.125   6.525
10065SOL     OW31093   2.064   0.089   2.747
10065SOL    HW131094   2.086   0.038   2.829
10065SOL    HW231095   2.059   0.187   2.768
10066SOL     OW31096   1.159   1.256   3.438
10066SOL    HW131097   1.176   1.158   3.450
10066SOL    HW231098   1.184   1.304   3.522
10067SOL     OW31099   6.280   4.038   4.861
10067SOL    HW131100   6.294   4.124   4.910
10067SOL    HW231101   6.291   4.053   4.762
10068SOL     OW31102   6.316   3.327   3.391
10068SOL    HW131103   6.216   3.330   3.395
10068SOL    HW231104   6.347   3.234   3.410
10069SOL     OW31105   1.686   5.306   3.648
10069SOL    HW131106   1.692   5.215   3.609
10069SOL    HW231107   1.765   5.361   3.621
10070SOL     OW31108   6.735   0.140   4.858
10070SOL    HW131109   6.807   0.209   4.857
10070SOL    HW231110   6.705   0.124   4.952
10071SOL     OW31111   5.708   5.572   3.622
10071SOL    HW131112   5.712   5.482   3.578
10071SOL    HW231113   5.797   5.593   3.663
10072SOL     OW31114   0.385   5.923   3.607
10072SOL    HW131115   0.301   5.869   3.610
10072SOL    HW231116   0.462   5.868   3.637
10073SOL     OW31117   5.956   4.685   4.906
10073SOL    HW131118   6.046   4.653   4.933
10073SOL    HW231119   5.938   4.775   4.947
10074SOL     OW31120   1.249   1.247   5.341
10074SOL    HW131121   1.260   1.346   5.331
10074SOL    HW231122   1.286   1.219   5.429
10075SOL     OW31123   1.057   2.490   3.210
10075SOL    HW131124   1.082   2.492   3.114
10075SOL    HW231125   1.122   2.546   3.263
10076SOL     OW31126   6.717   0.106   3.515
10076SOL    HW131127   6.763   0.030   3.469
10076SOL    HW231128   6.676   0.073   3.600
10077SOL     OW31129   3.615   3.482   5.925
10077SOL    HW131130   3.542   3.496   5.859
10077SOL    HW231131   3.591   3.524   6.013
10078SOL     OW31132   0.230   5.496   3.639
10078SOL    HW131133   0.267   5.516   3.730
10078SOL    HW231134   0.167   5.418   3.645
10079SOL     OW31135   0.224   3.920   2.210
10079SOL    HW131136   0.208   3.835   2.159
10079SOL    HW231137   0.220   3.998   2.147
10080SOL     OW31138   3.538   1.486   5.225
10080SOL    HW131139   3.539   1.394   5.265
10080SOL    HW231140   3.453   1.531   5.249
10081SOL     OW31141   0.527   0.506   0.683
10081SOL    HW131142   0.487   0.415   0.681
10081SOL    HW231143   0.455   0.574   0.698
10082SOL     OW31144   0.003   4.991   2.378
10082SOL    HW131145   6.944   4.945   2.348
10082SOL    HW231146   0.045   5.039   2.301
10083SOL     OW31147   4.859   0.955   2.950
10083SOL    HW131148   4.821   0.917   3.034
10083SOL    HW231149   4.854   0.887   2.877
10084SOL     OW31150   2.952   1.114   5.590
10084SOL    HW131151   2.898   1.144   5.512
10084SOL    HW231152   2.905   1.141   5.675
10085SOL     OW31153   1.035   6.467   2.446
10085SOL    HW131154   1.016   6.542   2.509
10085SOL    HW231155   0.950   6.435   2.405
10086SOL     OW31156   5.621   5.503   1.855
10086SOL    HW131157   5.549   5.490   1.788
10086SOL    HW231158   5.588   5.478   1.946
10087SOL     OW31159   0.130   6.688   3.420
10087SOL    HW131160   0.044   6.638   3.426
10087SOL    HW231161   0.157   6.697   3.324
10088SOL     OW31162   6.803   0.630   7.005
10088SOL    HW131163   6.859   0.548   7.020
10088SOL    HW231164   6.772   0.632   6.910
10089SOL     OW31165   2.981   2.213   2.616
10089SOL    HW131166   2.941   2.284   2.557
10089SOL    HW231167   3.063   2.176   2.573
10090SOL     OW31168   0.865   4.804   1.066
10090SOL    HW131169   0.893   4.896   1.094
10090SOL    HW231170   0.767   4.793   1.084
10091SOL     OW31171   1.141   3.850   5.778
10091SOL    HW131172   1.223   3.823   5.726
10091SOL    HW231173   1.089   3.917   5.725
10092SOL     OW31174   1.565   3.388   4.577
10092SOL    HW131175   1.486   3.397   4.515
10092SOL    HW231176   1.554   3.306   4.632
10093SOL     OW31177   0.050   3.844   4.614
10093SOL    HW131178   0.071   3.926   4.667
10093SOL    HW231179   7.006   3.865   4.545
10094SOL     OW31180   1.702   5.900   1.998
10094SOL    HW131181   1.763   5.948   2.061
10094SOL    HW231182   1.610   5.894   2.039
10095SOL     OW31183   6.312   1.786   5.061
10095SOL    HW131184   6.215   1.808   5.075
10095SOL    HW231185   6.364   1.812   5.142
10096SOL     OW31186   5.422   5.267   2.269
10096SOL    HW131187   5.349   5.265   2.200
10096SOL    HW231188   5.510   5.255   2.225
10097SOL     OW31189   1.015   0.831   0.514
10097SOL    HW131190   1.112   0.844   0.493
10097SOL    HW231191   1.001   0.836   0.612
10098SOL     OW31192   2.675   0.409   5.481
10098SOL    HW131193   2.708   0.354   5.404
10098SOL    HW231194   2.624   0.488   5.446
10099SOL     OW31195   6.965   4.960   0.881
10099SOL    HW131196   6.995   5.054   0.896
10099SOL    HW231197   6.949   4.945   0.783
10100SOL     OW31198   4.800   0.253   4.431
10100SOL    HW131199   4.877   0.314   4.451
10100SOL    HW231200   4.820   0.201   4.348
10101SOL     OW31201   5.964   3.776   1.451
10101SOL    HW131202   5.883   3.729   1.488
10101SOL    HW231203   5.956   3.782   1.351
10102SOL     OW31204   1.438   0.763   2.637
10102SOL    HW131205   1.524   0.721   2.668
10102SOL    HW231206   1.454   0.860   2.618
10103SOL     OW31207   2.380   1.579   6.245
10103SOL    HW131208   2.443   1.555   6.171
10103SOL    HW231209   2.348   1.496   6.291
10104SOL     OW31210   1.116   2.672   4.065
10104SOL    HW131211   1.160   2.725   3.992
10104SOL    HW231212   1.017   2.683   4.059
10105SOL     OW31213   0.940   0.602   0.845
10105SOL    HW131214   0.920   0.544   0.765
10105SOL    HW231215   0.936   0.698   0.818
10106SOL     OW31216   4.225   6.733   0.659
10106SOL    HW131217   4.284   6.814   0.652
10106SOL    HW231218   4.263   6.660   0.602
10107SOL     OW31219   0.623   1.156   6.515
10107SOL    HW131220   0.563   1.137   6.437
10107SOL    HW231221   0.581   1.120   6.598
10108SOL     OW31222   6.820   6.590   0.122
10108SOL    HW131223   6.835   6.493   0.109
10108SOL    HW231224   6.746   6.604   0.188
10109SOL     OW31225   4.468   0.412   0.869
10109SOL    HW131226   4.486   0.470   0.790
10109SOL    HW231227   4.471   0.316   0.841
10110SOL     OW31228   4.562   5.935   4.854
10110SOL    HW131229   4.489   5.964   4.792
10110SOL    HW231230   4.530   5.858   4.909
10111SOL     OW31231   5.181   3.637   3.645
10111SOL    HW131232   5.141   3.728   3.657
10111SOL    HW231233   5.122   3.582   3.584
10112SOL     OW31234   5.503   3.640   3.586
10112SOL    HW131235   5.527   3.694   3.504
10112SOL    HW231236   5.424   3.583   3.566
10113SOL     OW31237   4.145   0.307   5.821
10113SOL    HW131238   4.058   0.356   5.819
10113SOL    HW231239   4.135   0.218   5.775
10114SOL     OW31240   5.863   1.257   1.103
10114SOL    HW131241   5.789   1.231   1.165
10114SOL    HW231242   5.826   1.283   1.014
10115SOL     OW31243   3.504   1.630   4.464
10115SOL    HW131244   3.419   1.578   4.472
10115SOL    HW231245   3.519   1.681   4.549
10116SOL     OW31246   0.124   5.912   0.525
10116SOL    HW131247   0.036   5.865   0.532
10116SOL    HW231248   0.142   5.934   0.429
10117SOL     OW31249   7.017   6.141   4.994
10117SOL    HW131250   0.047   6.209   4.944
10117SOL    HW231251   0.025   6.049   4.971
10118SOL     OW31252   1.934   5.214   2.819
10118SOL    HW131253   1.989   5.214   2.903
10118SOL    HW231254   1.928   5.307   2.784
10119SOL     OW31255   0.728   5.837   4.516
10119SOL    HW131256   0.785   5.795   4.586
10119SOL    HW231257   0.668   5.905   4.559
10120SOL     OW31258   1.857   3.697   4.849
10120SOL    HW131259   1.949   3.666   4.873
10120SOL    HW231260   1.831   3.773   4.909
10121SOL     OW31261   6.339   4.000   6.622
10121SOL    HW131262   6.315   3.941   6.544
10121SOL    HW231263   6.268   3.991   6.692
10122SOL     OW31264   6.299   2.793   1.512
10122SOL    HW131265   6.301   2.700   1.548
10122SOL    HW231266   6.290   2.790   1.412
10123SOL     OW31267   5.961   0.017   0.278
10123SOL    HW131268   6.030   0.040   0.209
10123SOL    HW231269   5.988   0.056   0.366
10124SOL     OW31270   1.785   4.142   0.011
10124SOL    HW131271   1.692   4.170   7.013
10124SOL    HW231272   1.821   4.200   0.084
10125SOL     OW31273   1.940   1.294   2.350
10125SOL    HW131274   1.980   1.204   2.370
10125SOL    HW231275   1.909   1.296   2.255
10126SOL     OW31276   0.624   6.719   5.920
10126SOL    HW131277   0.564   6.767   5.984
10126SOL    HW231278   0.570   6.658   5.863
10127SOL     OW31279   2.464   4.686   6.651
10127SOL    HW131280   2.526   4.712   6.725
10127SOL    HW231281   2.503   4.716   6.564
10128SOL     OW31282   2.226   1.389   1.272
10128SOL    HW131283   2.231   1.307   1.215
10128SOL    HW231284   2.130   1.409   1.294
10129SOL     OW31285   5.554   2.188   2.907
10129SOL    HW131286   5.515   2.123   2.842
10129SOL    HW231287   5.480   2.227   2.963
10130SOL     OW31288   1.198   3.757   2.480
10130SOL    HW131289   1.281   3.701   2.482
10130SOL    HW231290   1.136   3.722   2.410
10131SOL     OW31291   1.367   0.123   3.956
10131SOL    HW131292   1.370   0.120   3.856
10131SOL    HW231293   1.273   0.112   3.988
10132SOL     OW31294   3.284   0.054   5.273
10132SOL    HW131295   3.259   0.141   5.316
10132SOL    HW231296   3.365   0.067   5.217
10133SOL     OW31297   4.327   6.386   1.017
10133SOL    HW131298   4.293   6.384   1.112
10133SOL    HW231299   4.284   6.462   0.969
10134SOL     OW31300   6.986   6.247   3.519
10134SOL    HW131301   7.011   6.184   3.592
10134SOL    HW231302   0.031   6.245   3.447
10135SOL     OW31303   4.875   3.302   3.631
10135SOL    HW131304   4.842   3.265   3.718
10135SOL    HW231305   4.921   3.230   3.579
10136SOL     OW31306   4.979   0.495   3.332
10136SOL    HW131307   4.899   0.522   3.386
10136SOL    HW231308   4.971   0.530   3.239
10137SOL     OW31309   5.928   4.311   3.847
10137SOL    HW131310   5.965   4.218   3.846
10137SOL    HW231311   6.003   4.376   3.833
10138SOL     OW31312   5.285   3.403   0.512
10138SOL    HW131313   5.198   3.371   0.550
10138SOL    HW231314   5.340   3.324   0.485
10139SOL     OW31315   3.872   3.978   3.312
10139SOL    HW131316   3.821   4.062   3.333
10139SOL    HW231317   3.957   3.978   3.363
10140SOL     OW31318   6.160   6.338   6.920
10140SOL    HW131319   6.155   6.357   7.018
10140SOL    HW231320   6.129   6.419   6.869
10141SOL     OW31321   4.168   1.739   5.033
10141SOL    HW131322   4.135   1.702   5.120
10141SOL    HW231323   4.256   1.784   5.047
10142SOL     OW31324   6.425   6.770   5.117
10142SOL    HW131325   6.508   6.716   5.131
10142SOL    HW231326   6.366   6.759   5.197
10143SOL     OW31327   4.695   1.390   6.437
10143SOL    HW131328   4.630   1.402   6.512
10143SOL    HW231329   4.645   1.366   6.353
10144SOL     OW31330   3.416   0.330   6.438
10144SOL    HW131331   3.329   0.372   6.462
10144SOL    HW231332   3.461   0.297   6.522
10145SOL     OW31333   2.787   5.762   4.703
10145SOL    HW131334   2.858   5.693   4.716
10145SOL    HW231335   2.781   5.788   4.607
10146SOL     OW31336   4.198   4.993   4.694
10146SOL    HW131337   4.229   5.045   4.615
10146SOL    HW231338   4.103   4.964   4.680
10147SOL     OW31339   5.289   3.904   5.439
10147SOL    HW131340   5.195   3.870   5.436
10147SOL    HW231341   5.288   4.003   5.422
10148SOL     OW31342   4.878   5.720   6.816
10148SOL    HW131343   4.853   5.753   6.907
10148SOL    HW231344   4.933   5.636   6.825
10149SOL     OW31345   5.979   3.108   0.705
10149SOL    HW131346   5.919   3.188   0.710
10149SOL    HW231347   6.063   3.132   0.658
10150SOL     OW31348   4.154   4.099   0.287
10150SOL    HW131349   4.149   4.059   0.195
10150SOL    HW231350   4.155   4.026   0.355
10151SOL     OW31351   0.561   6.909   6.907
10151SOL    HW131352   0.604   6.819   6.894
10151SOL    HW231353   0.609   6.959   6.979
10152SOL     OW31354   6.650   5.890   4.353
10152SOL    HW131355   6.595   5.871   4.272
10152SOL    HW231356   6.726   5.950   4.328
10153SOL     OW31357   4.936   6.578   4.234
10153SOL    HW131358   4.851   6.591   4.181
10153SOL    HW231359   4.957   6.481   4.239
10154SOL     OW31360   4.889   0.135   5.555
10154SOL    HW131361   4.794   0.114   5.578
10154SOL    HW231362   4.942   0.143   5.639
10155SOL     OW31363   3.879   2.696   5.801
10155SOL    HW131364   3.851   2.790   5.821
10155SOL    HW231365   3.872   2.641   5.884
10156SOL     OW31366   6.175   0.862   2.445
10156SOL    HW131367   6.114   0.885   2.370
10156SOL    HW231368   6.141   0.781   2.493
10157SOL     OW31369   0.190   2.356   0.757
10157SOL    HW131370   0.181   2.301   0.674
10157SOL    HW231371   0.122   2.326   0.824
10158SOL     OW31372   5.786   4.558   0.491
10158SOL    HW131373   5.834   4.518   0.569
10158SOL    HW231374   5.724   4.630   0.524
10159SOL     OW31375   2.684   3.282   0.158
10159SOL    HW131376   2.771   3.272   0.109
10159SOL    HW231377   2.608   3.268   0.095
10160SOL     OW31378   1.795   3.154   2.390
10160SOL    HW131379   1.878   3.098   2.392
10160SOL    HW231380   1.722   3.106   2.438
10161SOL     OW31381   2.582   2.768   6.866
10161SOL    HW131382   2.596   2.691   6.805
10161SOL    HW231383   2.500   2.818   6.840
10162SOL     OW31384   3.529   4.554   0.978
10162SOL    HW131385   3.435   4.520   0.982
10162SOL    HW231386   3.529   4.650   0.948
10163SOL     OW31387   5.960   4.282   6.184
10163SOL    HW131388   6.037   4.284   6.120
10163SOL    HW231389   5.883   4.236   6.140
10164SOL     OW31390   5.828   3.918   4.818
10164SOL    HW131391   5.780   4.002   4.843
10164SOL    HW231392   5.862   3.925   4.724
10165SOL     OW31393   6.844   1.972   3.112
10165SOL    HW131394   6.863   1.893   3.171
10165SOL    HW231395   6.753   2.008   3.132
10166SOL     OW31396   3.245   2.084   1.824
10166SOL    HW131397   3.175   2.144   1.863
10166SOL    HW231398   3.312   2.140   1.774
10167SOL     OW31399   2.374   3.537   6.955
10167SOL    HW131400   2.298   3.500   6.901
10167SOL    HW231401   2.338   3.575   0.016
10168SOL     OW31402   5.666   3.491   5.956
10168SOL    HW131403   5.696   3.448   6.041
10168SOL    HW231404   5.727   3.568   5.935
10169SOL     OW31405   6.703   4.078   3.785
10169SOL    HW131406   6.671   3.986   3.808
10169SOL    HW231407   6.657   4.109   3.703
10170SOL     OW31408   0.689   5.493   5.207
10170SOL    HW131409   0.677   5.589   5.230
10170SOL    HW231410   0.732   5.445   5.284
10171SOL     OW31411   6.795   2.066   4.748
10171SOL    HW131412   6.861   2.107   4.685
10171SOL    HW231413   6.703   2.099   4.726
10172SOL     OW31414   6.992   6.023   4.674
10172SOL    HW131415   6.895   6.045   4.684
10172SOL    HW231416   7.010   5.934   4.716
10173SOL     OW31417   1.233   3.229   1.023
10173SOL    HW131418   1.205   3.307   0.967
10173SOL    HW231419   1.163   3.158   1.018
10174SOL     OW31420   5.228   5.028   3.063
10174SOL    HW131421   5.218   4.985   3.153
10174SOL    HW231422   5.153   5.093   3.048
10175SOL     OW31423   5.571   1.394   3.735
10175SOL    HW131424   5.570   1.294   3.725
10175SOL    HW231425   5.508   1.421   3.807
10176SOL     OW31426   0.593   3.719   5.184
10176SOL    HW131427   0.662   3.711   5.256
10176SOL    HW231428   0.507   3.678   5.214
10177SOL     OW31429   2.501   0.492   1.269
10177SOL    HW131430   2.433   0.428   1.305
10177SOL    HW231431   2.479   0.584   1.301
10178SOL     OW31432   0.772   0.588   6.045
10178SOL    HW131433   0.818   0.582   5.957
10178SOL    HW231434   0.805   0.669   6.094
10179SOL     OW31435   0.404   1.984   7.017
10179SOL    HW131436   0.474   1.951   0.056
10179SOL    HW231437   0.427   1.955   6.924
10180SOL     OW31438   4.006   1.152   5.778
10180SOL    HW131439   3.990   1.245   5.811
10180SOL    HW231440   3.919   1.103   5.773
10181SOL     OW31441   6.217   3.641   1.278
10181SOL    HW131442   6.135   3.603   1.236
10181SOL    HW231443   6.212   3.632   1.377
10182SOL     OW31444   4.487   0.885   1.706
10182SOL    HW131445   4.432   0.831   1.770
10182SOL    HW231446   4.573   0.912   1.751
10183SOL     OW31447   6.938   2.219   6.429
10183SOL    HW131448   6.875   2.144   6.450
10183SOL    HW231449   6.975   2.256   6.514
10184SOL     OW31450   4.579   1.106   5.677
10184SOL    HW131451   4.632   1.028   5.645
10184SOL    HW231452   4.510   1.075   5.742
10185SOL     OW31453   6.104   5.911   2.486
10185SOL    HW131454   6.193   5.868   2.496
10185SOL    HW231455   6.107   6.004   2.523
10186SOL     OW31456   5.840   3.305   3.803
10186SOL    HW131457   5.833   3.312   3.902
10186SOL    HW231458   5.888   3.221   3.778
10187SOL     OW31459   0.942   3.521   0.712
10187SOL    HW131460   1.000   3.564   0.643
10187SOL    HW231461   0.903   3.437   0.675
10188SOL     OW31462   4.075   5.273   0.606
10188SOL    HW131463   4.090   5.243   0.512
10188SOL    HW231464   4.022   5.203   0.655
10189SOL     OW31465   1.158   1.362   6.201
10189SOL    HW131466   1.206   1.450   6.208
10189SOL    HW231467   1.211   1.299   6.144
10190SOL     OW31468   4.954   3.063   2.030
10190SOL    HW131469   4.874   3.005   2.013
10190SOL    HW231470   4.967   3.126   1.953
10191SOL     OW31471   5.328   5.744   6.065
10191SOL    HW131472   5.299   5.653   6.095
10191SOL    HW231473   5.376   5.736   5.978
10192SOL     OW31474   4.290   1.308   5.236
10192SOL    HW131475   4.302   1.242   5.162
10192SOL    HW231476   4.269   1.259   5.321
10193SOL     OW31477   3.893   3.531   1.801
10193SOL    HW131478   3.809   3.528   1.855
10193SOL    HW231479   3.882   3.473   1.720
10194SOL     OW31480   5.823   5.787   5.539
10194SOL    HW131481   5.920   5.812   5.546
10194SOL    HW231482   5.803   5.715   5.606
10195SOL     OW31483   5.876   5.810   0.872
10195SOL    HW131484   5.947   5.777   0.810
10195SOL    HW231485   5.789   5.817   0.822
10196SOL     OW31486   4.849   1.417   3.846
10196SOL    HW131487   4.798   1.449   3.926
10196SOL    HW231488   4.885   1.325   3.863
10197SOL     OW31489   5.796   1.814   5.197
10197SOL    HW131490   5.709   1.765   5.205
10197SOL    HW231491   5.780   1.903   5.153
10198SOL     OW31492   2.706   6.848   2.333
10198SOL    HW131493   2.625   6.816   2.384
10198SOL    HW231494   2.788   6.803   2.369
10199SOL     OW31495   2.055   3.654   0.313
10199SOL    HW131496   2.011   3.714   0.380
10199SOL    HW231497   2.013   3.564   0.316
10200SOL     OW31498   5.113   2.446   6.333
10200SOL    HW131499   5.081   2.351   6.338
10200SOL    HW231500   5.211   2.447   6.315
10201SOL     OW31501   1.586   4.886   1.040
10201SOL    HW131502   1.566   4.794   1.006
10201SOL    HW231503   1.584   4.885   1.140
10202SOL     OW31504   3.488   4.351   1.165
10202SOL    HW131505   3.474   4.382   1.258
10202SOL    HW231506   3.530   4.423   1.111
10203SOL     OW31507   6.329   2.723   3.159
10203SOL    HW131508   6.362   2.730   3.065
10203SOL    HW231509   6.388   2.661   3.210
10204SOL     OW31510   4.871   6.449   0.271
10204SOL    HW131511   4.805   6.381   0.240
10204SOL    HW231512   4.950   6.449   0.209
10205SOL     OW31513   1.738   0.095   1.752
10205SOL    HW131514   1.725   7.024   1.726
10205SOL    HW231515   1.822   0.104   1.805
10206SOL     OW31516   6.423   0.667   6.956
10206SOL    HW131517   6.516   0.645   6.928
10206SOL    HW231518   6.409   0.766   6.952
10207SOL     OW31519   1.050   1.619   0.432
10207SOL    HW131520   1.131   1.678   0.424
10207SOL    HW231521   1.050   1.552   0.357
10208SOL     OW31522   5.928   4.688   3.652
10208SOL    HW131523   5.983   4.771   3.652
10208SOL    HW231524   5.932   4.646   3.743
10209SOL     OW31525   0.649   6.973   0.580
10209SOL    HW131526   0.604   0.024   0.532
10209SOL    HW231527   0.721   7.010   0.640
10210SOL     OW31528   4.817   6.590   1.610
10210SOL    HW131529   4.777   6.658   1.548
10210SOL    HW231530   4.755   6.577   1.687
10211SOL     OW31531   4.309   6.337   4.881
10211SOL    HW131532   4.339   6.349   4.975
10211SOL    HW231533   4.389   6.327   4.821
10212SOL     OW31534   0.744   0.460   5.105
10212SOL    HW131535   0.676   0.460   5.032
10212SOL    HW231536   0.702   0.429   5.190
10213SOL     OW31537   5.998   2.608   1.571
10213SOL    HW131538   5.967   2.553   1.492
10213SOL    HW231539   6.098   2.610   1.573
10214SOL     OW31540   0.849   1.519   2.201
10214SOL    HW131541   0.893   1.607   2.182
10214SOL    HW231542   0.752   1.525   2.179
10215SOL     OW31543   4.020   3.166   3.555
10215SOL    HW131544   4.057   3.119   3.635
10215SOL    HW231545   4.057   3.259   3.550
10216SOL     OW31546   0.243   1.327   1.527
10216SOL    HW131547   0.237   1.375   1.440
10216SOL    HW231548   0.195   1.379   1.598
10217SOL     OW31549   3.344   1.422   2.789
10217SOL    HW131550   3.361   1.357   2.863
10217SOL    HW231551   3.374   1.513   2.818
10218SOL     OW31552   1.847   1.544   1.668
10218SOL    HW131553   1.888   1.584   1.750
10218SOL    HW231554   1.919   1.519   1.604
10219SOL     OW31555   0.782   1.769   3.142
10219SOL    HW131556   0.776   1.689   3.200
10219SOL    HW231557   0.842   1.749   3.064
10220SOL     OW31558   5.149   2.104   0.772
10220SOL    HW131559   5.210   2.174   0.735
10220SOL    HW231560   5.149   2.024   0.712
10221SOL     OW31561   1.057   4.644   3.715
10221SOL    HW131562   1.053   4.741   3.739
10221SOL    HW231563   1.016   4.589   3.788
10222SOL     OW31564   3.061   3.950   5.655
10222SOL    HW131565   3.093   4.024   5.596
10222SOL    HW231566   2.973   3.975   5.695
10223SOL     OW31567   1.505   4.979   1.464
10223SOL    HW131568   1.595   5.024   1.460
10223SOL    HW231569   1.449   5.010   1.388
10224SOL     OW31570   6.190   2.999   5.108
10224SOL    HW131571   6.281   3.001   5.067
10224SOL    HW231572   6.138   2.923   5.068
10225SOL     OW31573   1.034   5.122   5.876
10225SOL    HW131574   1.058   5.166   5.790
10225SOL    HW231575   1.051   5.186   5.951
10226SOL     OW31576   2.677   0.430   5.913
10226SOL    HW131577   2.727   0.422   5.827
10226SOL    HW231578   2.642   0.341   5.940
10227SOL     OW31579   5.562   5.008   1.015
10227SOL    HW131580   5.517   5.097   1.021
10227SOL    HW231581   5.614   5.003   0.929
10228SOL     OW31582   0.058   6.787   1.894
10228SOL    HW131583   0.012   6.755   1.812
10228SOL    HW231584   0.037   6.725   1.970
10229SOL     OW31585   1.431   3.192   4.819
10229SOL    HW131586   1.383   3.112   4.785
10229SOL    HW231587   1.366   3.265   4.839
10230SOL     OW31588   5.630   6.175   3.082
10230SOL    HW131589   5.629   6.254   3.144
10230SOL    HW231590   5.572   6.103   3.120
10231SOL     OW31591   6.792   4.928   5.195
10231SOL    HW131592   6.835   4.947   5.283
10231SOL    HW231593   6.863   4.925   5.124
10232SOL     OW31594   3.197   1.323   3.290
10232SOL    HW131595   3.226   1.403   3.237
10232SOL    HW231596   3.242   1.324   3.379
10233SOL     OW31597   3.886   3.940   4.924
10233SOL    HW131598   3.799   3.892   4.933
10233SOL    HW231599   3.869   4.035   4.898
10234SOL     OW31600   6.193   0.867   1.023
10234SOL    HW131601   6.207   0.812   0.941
10234SOL    HW231602   6.246   0.829   1.098
10235SOL     OW31603   2.091   2.764   1.713
10235SOL    HW131604   2.112   2.823   1.791
10235SOL    HW231605   2.074   2.820   1.632
10236SOL     OW31606   2.568   0.962   0.364
10236SOL    HW131607   2.614   1.023   0.300
10236SOL    HW231608   2.512   1.015   0.427
10237SOL     OW31609   0.656   3.679   6.693
10237SOL    HW131610   0.687   3.738   6.767
10237SOL    HW231611   0.566   3.707   6.663
10238SOL     OW31612   3.812   4.274   1.720
10238SOL    HW131613   3.735   4.338   1.713
10238SOL    HW231614   3.786   4.198   1.779
10239SOL     OW31615   1.430   3.449   5.187
10239SOL    HW131616   1.341   3.454   5.233
10239SOL    HW231617   1.454   3.539   5.151
10240SOL     OW31618   2.315   5.208   2.122
10240SOL    HW131619   2.308   5.284   2.057
10240SOL    HW231620   2.263   5.231   2.204
10241SOL     OW31621   6.314   6.751   2.809
10241SOL    HW131622   6.400   6.735   2.762
10241SOL    HW231623   6.317   6.706   2.899
10242SOL     OW31624   0.410   1.727   0.937
10242SOL    HW131625   0.486   1.671   0.903
10242SOL    HW231626   0.399   1.807   0.878
10243SOL     OW31627   2.131   4.516   2.533
10243SOL    HW131628   2.180   4.543   2.451
10243SOL    HW231629   2.043   4.476   2.508
10244SOL     OW31630   1.823   4.364   0.676
10244SOL    HW131631   1.873   4.346   0.591
10244SOL    HW231632   1.887   4.395   0.746
10245SOL     OW31633   3.384   3.890   1.628
10245SOL    HW131634   3.368   3.976   1.580
10245SOL    HW231635   3.360   3.899   1.724
10246SOL     OW31636   3.700   3.708   4.182
10246SOL    HW131637   3.761   3.686   4.107
10246SOL    HW231638   3.606   3.719   4.148
10247SOL     OW31639   6.659   3.785   5.335
10247SOL    HW131640   6.680   3.774   5.432
10247SOL    HW231641   6.585   3.851   5.324
10248SOL     OW31642   1.662   6.247   2.247
10248SOL    HW131643   1.600   6.172   2.225
10248SOL    HW231644   1.659   6.315   2.173
10249SOL     OW31645   3.954   5.996   6.611
10249SOL    HW131646   3.914   5.911   6.578
10249SOL    HW231647   3.986   6.050   6.533
10250SOL     OW31648   6.853   3.511   2.106
10250SOL    HW131649   6.894   3.507   2.197
10250SOL    HW231650   6.852   3.420   2.065
10251SOL     OW31651   1.905   1.850   5.028
10251SOL    HW131652   1.871   1.937   4.993
10251SOL    HW231653   1.995   1.864   5.070
10252SOL     OW31654   4.254   4.322   6.813
10252SOL    HW131655   4.305   4.236   6.818
10252SOL    HW231656   4.213   4.331   6.723
10253SOL     OW31657   2.870   5.697   0.494
10253SOL    HW131658   2.957   5.657   0.524
10253SOL    HW231659   2.858   5.682   0.396
10254SOL     OW31660   4.971   0.877   5.463
10254SOL    HW131661   5.018   0.834   5.540
10254SOL    HW231662   5.027   0.951   5.427
10255SOL     OW31663   2.450   6.300   1.385
10255SOL    HW131664   2.472   6.203   1.370
10255SOL    HW231665   2.388   6.331   1.313
10256SOL     OW31666   4.398   2.083   2.016
10256SOL    HW131667   4.316   2.029   2.033
10256SOL    HW231668   4.380   2.180   2.033
10257SOL     OW31669   2.127   5.290   4.061
10257SOL    HW131670   2.090   5.380   4.082
10257SOL    HW231671   2.218   5.281   4.100
10258SOL     OW31672   3.886   2.111   3.681
10258SOL    HW131673   3.921   2.068   3.597
10258SOL    HW231674   3.951   2.180   3.712
10259SOL     OW31675   0.752   4.231   2.497
10259SOL    HW131676   0.754   4.241   2.596
10259SOL    HW231677   0.732   4.319   2.455
10260SOL     OW31678   1.159   1.473   3.022
10260SOL    HW131679   1.220   1.473   3.101
10260SOL    HW231680   1.205   1.434   2.943
10261SOL     OW31681   6.663   5.434   1.527
10261SOL    HW131682   6.624   5.502   1.589
10261SOL    HW231683   6.680   5.349   1.577
10262SOL     OW31684   2.428   0.043   5.815
10262SOL    HW131685   2.385   6.980   5.837
10262SOL    HW231686   2.462   0.041   5.721
10263SOL     OW31687   5.598   0.324   0.410
10263SOL    HW131688   5.554   0.327   0.500
10263SOL    HW231689   5.630   0.231   0.392
10264SOL     OW31690   6.495   6.794   6.763
10264SOL    HW131691   6.573   6.843   6.800
10264SOL    HW231692   6.476   6.713   6.819
10265SOL     OW31693   2.830   2.680   1.730
10265SOL    HW131694   2.761   2.667   1.660
10265SOL    HW231695   2.845   2.595   1.780
10266SOL     OW31696   3.563   2.919   3.977
10266SOL    HW131697   3.542   2.897   3.882
10266SOL    HW231698   3.481   2.905   4.033
10267SOL     OW31699   5.440   2.500   0.134
10267SOL    HW131700   5.466   2.562   0.209
10267SOL    HW231701   5.417   2.554   0.053
10268SOL     OW31702   6.454   6.110   2.218
10268SOL    HW131703   6.428   6.177   2.287
10268SOL    HW231704   6.529   6.146   2.163
10269SOL     OW31705   0.403   3.949   6.717
10269SOL    HW131706   0.499   3.970   6.700
10269SOL    HW231707   0.345   4.010   6.663
10270SOL     OW31708   3.364   4.932   2.202
10270SOL    HW131709   3.310   4.904   2.281
10270SOL    HW231710   3.305   4.933   2.121
10271SOL     OW31711   3.645   2.626   6.728
10271SOL    HW131712   3.560   2.627   6.781
10271SOL    HW231713   3.645   2.549   6.665
10272SOL     OW31714   1.445   0.921   5.630
10272SOL    HW131715   1.377   0.870   5.683
10272SOL    HW231716   1.535   0.878   5.641
10273SOL     OW31717   2.926   5.574   2.963
10273SOL    HW131718   2.900   5.487   3.005
10273SOL    HW231719   2.957   5.557   2.869
10274SOL     OW31720   0.625   4.760   5.967
10274SOL    HW131721   0.550   4.751   5.901
10274SOL    HW231722   0.674   4.846   5.950
10275SOL     OW31723   0.610   6.344   2.038
10275SOL    HW131724   0.705   6.317   2.026
10275SOL    HW231725   0.551   6.264   2.028
10276SOL     OW31726   5.479   5.842   5.270
10276SOL    HW131727   5.397   5.842   5.328
10276SOL    HW231728   5.470   5.770   5.201
10277SOL     OW31729   1.777   6.263   5.308
10277SOL    HW131730   1.801   6.258   5.211
10277SOL    HW231731   1.693   6.316   5.319
10278SOL     OW31732   1.604   1.673   3.289
10278SOL    HW131733   1.585   1.705   3.382
10278SOL    HW231734   1.575   1.742   3.223
10279SOL     OW31735   1.549   4.658   4.176
10279SOL    HW131736   1.627   4.608   4.137
10279SOL    HW231737   1.521   4.730   4.112
10280SOL     OW31738   7.001   2.369   6.640
10280SOL    HW131739   6.986   2.467   6.648
10280SOL    HW231740   6.997   2.327   6.731
10281SOL     OW31741   5.550   1.232   3.340
10281SOL    HW131742   5.598   1.151   3.375
10281SOL    HW231743   5.579   1.250   3.246
10282SOL     OW31744   5.335   3.445   4.492
10282SOL    HW131745   5.339   3.359   4.441
10282SOL    HW231746   5.242   3.480   4.492
10283SOL     OW31747   1.984   3.243   1.335
10283SOL    HW131748   1.975   3.221   1.237
10283SOL    HW231749   1.920   3.315   1.359
10284SOL     OW31750   4.738   2.340   5.263
10284SOL    HW131751   4.739   2.283   5.181
10284SOL    HW231752   4.814   2.405   5.259
10285SOL     OW31753   5.499   6.565   3.134
10285SOL    HW131754   5.580   6.554   3.077
10285SOL    HW231755   5.469   6.475   3.167
10286SOL     OW31756   3.413   1.879   3.929
10286SOL    HW131757   3.432   1.973   3.901
10286SOL    HW231758   3.460   1.859   4.015
10287SOL     OW31759   3.140   5.773   1.741
10287SOL    HW131760   3.127   5.857   1.794
10287SOL    HW231761   3.065   5.710   1.760
10288SOL     OW31762   4.746   5.705   2.917
10288SOL    HW131763   4.725   5.802   2.903
10288SOL    HW231764   4.816   5.695   2.987
10289SOL     OW31765   2.841   6.232   6.777
10289SOL    HW131766   2.817   6.262   6.685
10289SOL    HW231767   2.765   6.251   6.840
10290SOL     OW31768   3.035   3.874   2.824
10290SOL    HW131769   2.944   3.870   2.784
10290SOL    HW231770   3.039   3.948   2.891
10291SOL     OW31771   4.099   1.646   2.232
10291SOL    HW131772   4.103   1.604   2.141
10291SOL    HW231773   4.053   1.584   2.295
10292SOL     OW31774   1.618   2.419   5.189
10292SOL    HW131775   1.717   2.405   5.198
10292SOL    HW231776   1.571   2.331   5.200
10293SOL     OW31777   1.405   3.550   2.499
10293SOL    HW131778   1.463   3.564   2.419
10293SOL    HW231779   1.454   3.497   2.568
10294SOL     OW31780   4.842   2.302   3.470
10294SOL    HW131781   4.870   2.302   3.566
10294SOL    HW231782   4.802   2.390   3.447
10295SOL     OW31783   0.420   3.204   6.182
10295SOL    HW131784   0.502   3.148   6.192
10295SOL    HW231785   0.431   3.266   6.104
10296SOL     OW31786   5.212   1.339   6.753
10296SOL    HW131787   5.228   1.347   6.852
10296SOL    HW231788   5.199   1.430   6.714
10297SOL     OW31789   1.826   0.788   6.287
10297SOL    HW131790   1.925   0.792   6.274
10297SOL    HW231791   1.797   0.693   6.297
10298SOL     OW31792   2.888   4.615   0.944
10298SOL    HW131793   2.980   4.608   0.907
10298SOL    HW231794   2.840   4.692   0.900
10299SOL     OW31795   4.403   4.774   2.981
10299SOL    HW131796   4.419   4.810   3.073
10299SOL    HW231797   4.423   4.845   2.913
10300SOL     OW31798   1.657   4.282   2.574
10300SOL    HW131799   1.716   4.345   2.624
10300SOL    HW231800   1.561   4.301   2.596
10301SOL     OW31801   4.862   1.938   4.363
10301SOL    HW131802   4.868   1.918   4.461
10301SOL    HW231803   4.954   1.944   4.324
10302SOL     OW31804   1.888   6.286   5.056
10302SOL    HW131805   1.876   6.256   4.962
10302SOL    HW231806   1.981   6.264   5.086
10303SOL     OW31807   1.518   5.965   2.825
10303SOL    HW131808   1.438   5.913   2.855
10303SOL    HW231809   1.592   5.953   2.891
10304SOL     OW31810   5.559   0.097   1.649
10304SOL    HW131811   5.543   0.021   1.712
10304SOL    HW231812   5.656   0.121   1.651
10305SOL     OW31813   1.159   4.445   6.336
10305SOL    HW131814   1.167   4.363   6.393
10305SOL    HW231815   1.063   4.464   6.317
10306SOL     OW31816   5.152   5.767   6.960
10306SOL    HW131817   5.077   5.708   6.933
10306SOL    HW231818   5.116   5.856   6.989
10307SOL     OW31819   2.809   2.131   5.223
10307SOL    HW131820   2.903   2.098   5.228
10307SOL    HW231821   2.794   2.201   5.292
10308SOL     OW31822   1.483   4.079   3.204
10308SOL    HW131823   1.544   4.137   3.259
10308SOL    HW231824   1.486   3.985   3.239
10309SOL     OW31825   6.977   1.743   6.798
10309SOL    HW131826   0.018   1.687   6.850
10309SOL    HW231827   6.892   1.693   6.786
10310SOL     OW31828   3.075   3.939   0.808
10310SOL    HW131829   3.121   3.851   0.823
10310SOL    HW231830   2.977   3.924   0.795
10311SOL     OW31831   6.609   5.889   0.540
10311SOL    HW131832   6.624   5.920   0.445
10311SOL    HW231833   6.552   5.807   0.539
10312SOL     OW31834   3.886   5.829   2.412
10312SOL    HW131835   3.825   5.761   2.452
10312SOL    HW231836   3.866   5.840   2.315
10313SOL     OW31837   4.464   6.302   1.678
10313SOL    HW131838   4.433   6.390   1.712
10313SOL    HW231839   4.513   6.314   1.592
10314SOL     OW31840   6.790   0.700   1.887
10314SOL    HW131841   6.882   0.691   1.848
10314SOL    HW231842   6.738   0.766   1.833
10315SOL     OW31843   5.275   5.263   5.208
10315SOL    HW131844   5.361   5.227   5.243
10315SOL    HW231845   5.232   5.195   5.148
10316SOL     OW31846   5.836   1.369   5.255
10316SOL    HW131847   5.819   1.378   5.157
10316SOL    HW231848   5.804   1.279   5.285
10317SOL     OW31849   4.884   5.841   5.586
10317SOL    HW131850   4.830   5.816   5.667
10317SOL    HW231851   4.942   5.764   5.560
10318SOL     OW31852   5.192   0.062   6.694
10318SOL    HW131853   5.282   0.044   6.653
10318SOL    HW231854   5.199   0.137   6.758
10319SOL     OW31855   0.823   2.354   5.603
10319SOL    HW131856   0.794   2.262   5.628
10319SOL    HW231857   0.922   2.360   5.607
10320SOL     OW31858   0.536   0.186   2.286
10320SOL    HW131859   0.502   0.143   2.202
10320SOL    HW231860   0.623   0.143   2.311
10321SOL     OW31861   3.999   1.899   1.779
10321SOL    HW131862   3.971   1.990   1.809
10321SOL    HW231863   3.922   1.853   1.734
10322SOL     OW31864   6.399   5.482   5.470
10322SOL    HW131865   6.341   5.558   5.442
10322SOL    HW231866   6.355   5.432   5.545
10323SOL     OW31867   5.883   3.323   5.295
10323SOL    HW131868   5.803   3.290   5.244
10323SOL    HW231869   5.955   3.349   5.231
10324SOL     OW31870   3.155   3.054   2.134
10324SOL    HW131871   3.174   2.969   2.085
10324SOL    HW231872   3.058   3.059   2.156
10325SOL     OW31873   6.533   4.222   2.339
10325SOL    HW131874   6.496   4.143   2.288
10325SOL    HW231875   6.537   4.200   2.436
10326SOL     OW31876   3.636   5.088   0.421
10326SOL    HW131877   3.669   5.032   0.345
10326SOL    HW231878   3.692   5.170   0.429
10327SOL     OW31879   2.304   1.442   0.974
10327SOL    HW131880   2.396   1.432   0.935
10327SOL    HW231881   2.253   1.357   0.958
10328SOL     OW31882   6.699   2.480   1.190
10328SOL    HW131883   6.626   2.414   1.170
10328SOL    HW231884   6.704   2.546   1.115
10329SOL     OW31885   3.473   0.819   3.871
10329SOL    HW131886   3.467   0.913   3.906
10329SOL    HW231887   3.469   0.755   3.948
10330SOL     OW31888   4.695   0.681   2.274
10330SOL    HW131889   4.766   0.611   2.279
10330SOL    HW231890   4.736   0.771   2.292
10331SOL     OW31891   6.447   0.510   6.071
10331SOL    HW131892   6.442   0.424   6.020
10331SOL    HW231893   6.534   0.515   6.120
10332SOL     OW31894   6.717   0.478   1.112
10332SOL    HW131895   6.625   0.500   1.081
10332SOL    HW231896   6.741   0.385   1.082
10333SOL     OW31897   6.735   4.616   4.988
10333SOL    HW131898   6.709   4.624   4.892
10333SOL    HW231899   6.672   4.669   5.044
10334SOL     OW31900   3.390   0.028   3.539
10334SOL    HW131901   3.477   0.072   3.514
10334SOL    HW231902   3.353   7.005   3.459
10335SOL     OW31903   2.688   4.422   6.584
10335SOL    HW131904   2.689   4.520   6.603
10335SOL    HW231905   2.684   4.407   6.485
10336SOL     OW31906   6.587   0.229   2.218
10336SOL    HW131907   6.521   0.175   2.166
10336SOL    HW231908   6.635   0.291   2.155
10337SOL     OW31909   0.065   6.554   5.635
10337SOL    HW131910   7.007   6.497   5.646
10337SOL    HW231911   0.118   6.522   5.557
10338SOL     OW31912   2.026   6.556   2.667
10338SOL    HW131913   2.072   6.562   2.579
10338SOL    HW231914   1.942   6.502   2.657
10339SOL     OW31915   3.765   4.041   6.695
10339SOL    HW131916   3.828   4.015   6.622
10339SOL    HW231917   3.674   4.058   6.656
10340SOL     OW31918   1.764   4.079   1.410
10340SOL    HW131919   1.862   4.098   1.418
10340SOL    HW231920   1.747   3.984   1.438
10341SOL     OW31921   2.102   3.373   2.551
10341SOL    HW131922   2.108   3.284   2.597
10341SOL    HW231923   2.038   3.431   2.600
10342SOL     OW31924   1.762   0.379   4.826
10342SOL    HW131925   1.827   0.454   4.828
10342SOL    HW231926   1.751   0.346   4.732
10343SOL     OW31927   3.608   6.068   0.170
10343SOL    HW131928   3.670   5.991   0.158
10343SOL    HW231929   3.661   6.152   0.183
10344SOL     OW31930   4.473   3.830   1.153
10344SOL    HW131931   4.425   3.821   1.241
10344SOL    HW231932   4.446   3.916   1.109
10345SOL     OW31933   1.606   1.390   6.581
10345SOL    HW131934   1.561   1.457   6.640
10345SOL    HW231935   1.601   1.300   6.624
10346SOL     OW31936   6.963   5.433   1.752
10346SOL    HW131937   6.953   5.532   1.744
10346SOL    HW231938   0.035   5.408   1.737
10347SOL     OW31939   4.277   1.843   3.592
10347SOL    HW131940   4.326   1.928   3.573
10347SOL    HW231941   4.261   1.795   3.506
10348SOL     OW31942   6.337   2.055   0.563
10348SOL    HW131943   6.404   2.088   0.496
10348SOL    HW231944   6.247   2.052   0.521
10349SOL     OW31945   0.947   0.876   0.779
10349SOL    HW131946   1.037   0.874   0.823
10349SOL    HW231947   0.888   0.940   0.829
10350SOL     OW31948   2.332   6.961   5.147
10350SOL    HW131949   2.324   0.027   5.105
10350SOL    HW231950   2.347   6.893   5.076
10351SOL     OW31951   4.271   4.676   6.172
10351SOL    HW131952   4.366   4.647   6.176
10351SOL    HW231953   4.223   4.621   6.103
10352SOL     OW31954   3.959   1.650   5.713
10352SOL    HW131955   4.004   1.731   5.675
10352SOL    HW231956   3.910   1.675   5.796
10353SOL     OW31957   6.657   2.422   5.581
10353SOL    HW131958   6.638   2.360   5.657
10353SOL    HW231959   6.659   2.371   5.496
10354SOL     OW31960   5.717   2.621   2.048
10354SOL    HW131961   5.757   2.588   2.133
10354SOL    HW231962   5.770   2.589   1.970
10355SOL     OW31963   1.658   7.015   2.131
10355SOL    HW131964   1.687   6.922   2.106
10355SOL    HW231965   1.589   7.009   2.204
10356SOL     OW31966   0.923   4.646   5.485
10356SOL    HW131967   0.837   4.644   5.537
10356SOL    HW231968   0.961   4.738   5.487
10357SOL     OW31969   1.841   3.239   6.082
10357SOL    HW131970   1.902   3.318   6.083
10357SOL    HW231971   1.755   3.264   6.037
10358SOL     OW31972   6.047   2.692   3.131
10358SOL    HW131973   5.990   2.774   3.128
10358SOL    HW231974   6.139   2.717   3.160
10359SOL     OW31975   0.292   1.869   1.948
10359SOL    HW131976   0.334   1.947   1.901
10359SOL    HW231977   0.362   1.817   1.996
10360SOL     OW31978   4.808   5.373   3.238
10360SOL    HW131979   4.801   5.472   3.236
10360SOL    HW231980   4.794   5.340   3.331
10361SOL     OW31981   3.099   6.977   3.250
10361SOL    HW131982   3.197   6.965   3.234
10361SOL    HW231983   3.077   6.947   3.343
10362SOL     OW31984   0.400   4.977   4.957
10362SOL    HW131985   0.337   4.936   5.024
10362SOL    HW231986   0.370   4.954   4.865
10363SOL     OW31987   5.169   1.692   1.862
10363SOL    HW131988   5.124   1.774   1.898
10363SOL    HW231989   5.239   1.663   1.927
10364SOL     OW31990   2.955   3.284   1.547
10364SOL    HW131991   2.886   3.214   1.529
10364SOL    HW231992   2.966   3.296   1.646
10365SOL     OW31993   4.390   4.431   6.340
10365SOL    HW131994   4.438   4.352   6.378
10365SOL    HW231995   4.410   4.512   6.395
10366SOL     OW31996   3.623   0.613   4.096
10366SOL    HW131997   3.654   0.537   4.152
10366SOL    HW231998   3.625   0.698   4.149
10367SOL     OW31999   6.444   1.644   2.600
10367SOL    HW132000   6.380   1.568   2.599
10367SOL    HW232001   6.420   1.707   2.674
10368SOL     OW32002   1.985   1.215   1.669
10368SOL    HW132003   2.006   1.258   1.581
10368SOL    HW232004   2.007   1.280   1.743
10369SOL     OW32005   4.047   1.109   5.184
10369SOL    HW132006   4.104   1.103   5.266
10369SOL    HW232007   3.967   1.165   5.203
10370SOL     OW32008   5.520   1.450   5.507
10370SOL    HW132009   5.518   1.363   5.557
10370SOL    HW232010   5.465   1.517   5.557
10371SOL     OW32011   3.106   6.166   4.878
10371SOL    HW132012   3.066   6.085   4.835
10371SOL    HW232013   3.043   6.202   4.947
10372SOL     OW32014   1.100   1.651   6.938
10372SOL    HW132015   1.149   1.603   6.865
10372SOL    HW232016   1.010   1.609   6.950
10373SOL     OW32017   2.188   6.199   4.874
10373SOL    HW132018   2.116   6.254   4.833
10373SOL    HW232019   2.185   6.208   4.973
10374SOL     OW32020   3.920   1.148   2.447
10374SOL    HW132021   3.876   1.067   2.486
10374SOL    HW232022   3.966   1.199   2.519
10375SOL     OW32023   3.138   1.760   5.910
10375SOL    HW132024   3.135   1.669   5.869
10375SOL    HW232025   3.101   1.827   5.846
10376SOL     OW32026   1.322   6.527   3.911
10376SOL    HW132027   1.257   6.560   3.842
10376SOL    HW232028   1.385   6.601   3.935
10377SOL     OW32029   0.270   0.517   4.119
10377SOL    HW132030   0.352   0.465   4.141
10377SOL    HW232031   0.294   0.612   4.102
10378SOL     OW32032   6.723   0.510   6.164
10378SOL    HW132033   6.771   0.423   6.154
10378SOL    HW232034   6.691   0.520   6.258
10379SOL     OW32035   3.469   6.764   5.007
10379SOL    HW132036   3.489   6.847   4.954
10379SOL    HW232037   3.373   6.763   5.034
10380SOL     OW32038   0.246   0.967   3.992
10380SOL    HW132039   0.271   1.045   4.049
10380SOL    HW232040   0.280   0.982   3.899
10381SOL     OW32041   4.057   5.731   6.293
10381SOL    HW132042   4.100   5.641   6.291
10381SOL    HW232043   4.118   5.797   6.336
10382SOL     OW32044   2.066   4.456   0.065
10382SOL    HW132045   2.056   4.423   6.995
10382SOL    HW232046   2.145   4.412   0.107
10383SOL     OW32047   0.583   3.835   0.979
10383SOL    HW132048   0.615   3.750   0.938
10383SOL    HW232049   0.490   3.855   0.947
10384SOL     OW32050   0.754   0.290   1.019
10384SOL    HW132051   0.688   0.247   1.080
10384SOL    HW232052   0.744   0.390   1.025
10385SOL     OW32053   4.136   0.341   6.741
10385SOL    HW132054   4.099   0.434   6.742
10385SOL    HW232055   4.176   0.321   6.652
10386SOL     OW32056   5.753   3.245   5.015
10386SOL    HW132057   5.695   3.182   5.067
10386SOL    HW232058   5.714   3.337   5.018
10387SOL     OW32059   3.947   2.119   2.122
10387SOL    HW132060   3.864   2.170   2.098
10387SOL    HW232061   4.005   2.111   2.041
10388SOL     OW32062   1.661   5.710   3.198
10388SOL    HW132063   1.711   5.671   3.275
10388SOL    HW232064   1.590   5.771   3.232
10389SOL     OW32065   0.240   6.856   1.407
10389SOL    HW132066   0.240   6.862   1.308
10389SOL    HW232067   0.206   6.942   1.446
10390SOL     OW32068   1.446   3.865   1.504
10390SOL    HW132069   1.546   3.865   1.504
10390SOL    HW232070   1.412   3.771   1.510
10391SOL     OW32071   1.225   5.992   4.955
10391SOL    HW132072   1.266   6.049   5.027
10391SOL    HW232073   1.298   5.951   4.900
10392SOL     OW32074   6.315   4.031   0.136
10392SOL    HW132075   6.361   3.943   0.153
10392SOL    HW232076   6.337   4.095   0.210
10393SOL     OW32077   2.158   1.965   2.861
10393SOL    HW132078   2.175   1.890   2.926
10393SOL    HW232079   2.074   1.948   2.811
10394SOL     OW32080   2.696   6.604   5.912
10394SOL    HW132081   2.708   6.652   5.826
10394SOL    HW232082   2.627   6.532   5.902
10395SOL     OW32083   6.178   0.438   3.975
10395SOL    HW132084   6.130   0.505   4.031
10395SOL    HW232085   6.171   0.463   3.878
10396SOL     OW32086   1.860   0.237   4.566
10396SOL    HW132087   1.942   0.266   4.516
10396SOL    HW232088   1.780   0.245   4.507
10397SOL     OW32089   3.407   1.791   3.284
10397SOL    HW132090   3.495   1.813   3.327
10397SOL    HW232091   3.363   1.875   3.254
10398SOL     OW32092   6.047   2.559   0.596
10398SOL    HW132093   5.976   2.497   0.628
10398SOL    HW232094   6.010   2.652   0.589
10399SOL     OW32095   4.438   1.171   4.887
10399SOL    HW132096   4.479   1.244   4.833
10399SOL    HW232097   4.472   1.174   4.980
10400SOL     OW32098   3.433   5.888   1.802
10400SOL    HW132099   3.337   5.860   1.793
10400SOL    HW232100   3.474   5.839   1.879
10401SOL     OW32101   6.871   0.295   2.167
10401SOL    HW132102   6.823   0.338   2.090
10401SOL    HW232103   6.811   0.226   2.208
10402SOL     OW32104   0.222   2.323   5.513
10402SOL    HW132105   0.315   2.337   5.481
10402SOL    HW232106   0.218   2.336   5.612
10403SOL     OW32107   5.213   1.142   2.489
10403SOL    HW132108   5.255   1.161   2.400
10403SOL    HW232109   5.231   1.218   2.551
10404SOL     OW32110   0.631   6.667   3.338
10404SOL    HW132111   0.642   6.686   3.435
10404SOL    HW232112   0.541   6.627   3.321
10405SOL     OW32113   1.243   5.370   5.014
10405SOL    HW132114   1.278   5.446   5.069
10405SOL    HW232115   1.147   5.386   4.992
10406SOL     OW32116   2.231   4.098   5.370
10406SOL    HW132117   2.304   4.073   5.306
10406SOL    HW232118   2.143   4.068   5.334
10407SOL     OW32119   1.928   0.837   6.683
10407SOL    HW132120   1.959   0.742   6.679
10407SOL    HW232121   1.989   0.890   6.741
10408SOL     OW32122   4.415   5.801   2.738
10408SOL    HW132123   4.389   5.891   2.703
10408SOL    HW232124   4.373   5.786   2.828
10409SOL     OW32125   0.959   4.842   0.789
10409SOL    HW132126   0.924   4.769   0.730
10409SOL    HW232127   0.933   4.823   0.884
10410SOL     OW32128   5.124   1.525   1.358
10410SOL    HW132129   5.026   1.511   1.345
10410SOL    HW232130   5.138   1.604   1.418
10411SOL     OW32131   3.060   5.435   4.109
10411SOL    HW132132   3.131   5.450   4.178
10411SOL    HW232133   2.971   5.427   4.155
10412SOL     OW32134   0.649   1.577   0.837
10412SOL    HW132135   0.631   1.588   0.739
10412SOL    HW232136   0.732   1.627   0.861
10413SOL     OW32137   0.782   2.112   0.811
10413SOL    HW132138   0.745   2.179   0.748
10413SOL    HW232139   0.875   2.138   0.838
10414SOL     OW32140   4.583   6.010   5.986
10414SOL    HW132141   4.653   6.044   5.924
10414SOL    HW232142   4.622   5.997   6.077
10415SOL     OW32143   2.281   4.938   4.379
10415SOL    HW132144   2.259   5.034   4.360
10415SOL    HW232145   2.263   4.918   4.475
10416SOL     OW32146   0.113   1.720   5.984
10416SOL    HW132147   0.136   1.623   5.994
10416SOL    HW232148   0.019   1.729   5.951
10417SOL     OW32149   4.453   4.492   3.620
10417SOL    HW132150   4.492   4.461   3.533
10417SOL    HW232151   4.481   4.430   3.693
10418SOL     OW32152   6.511   4.209   5.170
10418SOL    HW132153   6.559   4.178   5.252
10418SOL    HW232154   6.423   4.161   5.163
10419SOL     OW32155   3.042   0.713   5.033
10419SOL    HW132156   3.024   0.762   5.118
10419SOL    HW232157   3.016   0.770   4.955
10420SOL     OW32158   6.677   3.679   2.677
10420SOL    HW132159   6.609   3.733   2.727
10420SOL    HW232160   6.643   3.585   2.666
10421SOL     OW32161   1.157   3.727   3.936
10421SOL    HW132162   1.103   3.755   4.015
10421SOL    HW232163   1.130   3.781   3.857
10422SOL     OW32164   6.682   3.735   5.604
10422SOL    HW132165   6.701   3.643   5.569
10422SOL    HW232166   6.584   3.744   5.623
10423SOL     OW32167   3.893   5.065   4.743
10423SOL    HW132168   3.854   5.031   4.829
10423SOL    HW232169   3.860   5.010   4.667
10424SOL     OW32170   4.880   2.018   0.190
10424SOL    HW132171   4.934   2.020   0.275
10424SOL    HW232172   4.837   2.107   0.176
10425SOL     OW32173   1.014   6.500   1.622
10425SOL    HW132174   0.998   6.571   1.553
10425SOL    HW232175   0.995   6.537   1.713
10426SOL     OW32176   4.869   3.486   5.701
10426SOL    HW132177   4.961   3.487   5.740
10426SOL    HW232178   4.836   3.579   5.689
10427SOL     OW32179   5.209   5.488   5.737
10427SOL    HW132180   5.240   5.571   5.784
10427SOL    HW232181   5.148   5.437   5.798
10428SOL     OW32182   1.314   1.883   3.745
10428SOL    HW132183   1.233   1.927   3.784
10428SOL    HW232184   1.385   1.952   3.728
10429SOL     OW32185   1.435   4.064   2.886
10429SOL    HW132186   1.391   4.131   2.826
10429SOL    HW232187   1.483   4.111   2.959
10430SOL     OW32188   3.506   5.812   4.480
10430SOL    HW132189   3.449   5.861   4.414
10430SOL    HW232190   3.602   5.826   4.458
10431SOL     OW32191   2.742   0.808   4.285
10431SOL    HW132192   2.837   0.778   4.297
10431SOL    HW232193   2.697   0.813   4.374
10432SOL     OW32194   1.019   0.706   5.388
10432SOL    HW132195   0.986   0.733   5.478
10432SOL    HW232196   1.095   0.765   5.362
10433SOL     OW32197   0.761   6.232   1.497
10433SOL    HW132198   0.736   6.154   1.554
10433SOL    HW232199   0.837   6.206   1.437
10434SOL     OW32200   5.082   6.420   4.644
10434SOL    HW132201   5.027   6.488   4.596
10434SOL    HW232202   5.166   6.464   4.677
10435SOL     OW32203   1.218   2.335   6.344
10435SOL    HW132204   1.318   2.325   6.347
10435SOL    HW232205   1.184   2.359   6.435
10436SOL     OW32206   6.397   3.356   4.387
10436SOL    HW132207   6.306   3.343   4.427
10436SOL    HW232208   6.453   3.275   4.406
10437SOL     OW32209   5.076   5.145   5.749
10437SOL    HW132210   5.171   5.170   5.731
10437SOL    HW232211   5.017   5.225   5.733
10438SOL     OW32212   0.069   6.186   5.492
10438SOL    HW132213   0.095   6.094   5.523
10438SOL    HW232214   0.146   6.228   5.445
10439SOL     OW32215   6.334   0.315   4.680
10439SOL    HW132216   6.395   0.386   4.646
10439SOL    HW232217   6.275   0.353   4.751
10440SOL     OW32218   0.300   0.695   6.911
10440SOL    HW132219   0.211   0.681   6.955
10440SOL    HW232220   0.373   0.684   6.978
10441SOL     OW32221   3.219   1.765   0.884
10441SOL    HW132222   3.249   1.828   0.812
10441SOL    HW232223   3.298   1.735   0.937
10442SOL     OW32224   3.626   0.944   5.281
10442SOL    HW132225   3.715   0.898   5.279
10442SOL    HW232226   3.594   0.951   5.376
10443SOL     OW32227   6.874   1.928   2.742
10443SOL    HW132228   6.805   1.908   2.811
10443SOL    HW232229   6.937   1.851   2.733
10444SOL     OW32230   3.338   4.917   3.554
10444SOL    HW132231   3.409   4.850   3.576
10444SOL    HW232232   3.368   5.008   3.581
10445SOL     OW32233   0.360   3.593   2.330
10445SOL    HW132234   0.431   3.638   2.275
10445SOL    HW232235   0.307   3.531   2.273
10446SOL     OW32236   1.991   4.420   6.094
10446SOL    HW132237   2.060   4.350   6.112
10446SOL    HW232238   2.023   4.509   6.127
10447SOL     OW32239   6.351   0.958   1.840
10447SOL    HW132240   6.322   0.885   1.778
10447SOL    HW232241   6.387   1.035   1.787
10448SOL     OW32242   2.986   0.632   3.344
10448SOL    HW132243   2.966   0.691   3.266
10448SOL    HW232244   2.922   0.653   3.418
10449SOL     OW32245   3.660   5.402   6.835
10449SOL    HW132246   3.690   5.308   6.818
10449SOL    HW232247   3.723   5.466   6.791
10450SOL     OW32248   6.302   0.763   6.255
10450SOL    HW132249   6.271   0.833   6.190
10450SOL    HW232250   6.397   0.781   6.280
10451SOL     OW32251   2.869   0.797   3.623
10451SOL    HW132252   2.927   0.729   3.667
10451SOL    HW232253   2.780   0.756   3.602
10452SOL     OW32254   0.229   2.633   2.958
10452SOL    HW132255   0.150   2.634   2.896
10452SOL    HW232256   0.201   2.663   3.049
10453SOL     OW32257   4.667   5.877   3.252
10453SOL    HW132258   4.594   5.897   3.186
10453SOL    HW232259   4.739   5.946   3.242
10454SOL     OW32260   6.367   0.936   6.983
10454SOL    HW132261   6.356   0.959   6.886
10454SOL    HW232262   6.426   1.005   0.002
10455SOL     OW32263   6.152   5.886   4.331
10455SOL    HW132264   6.239   5.893   4.381
10455SOL    HW232265   6.146   5.961   4.265
10456SOL     OW32266   7.007   5.732   0.121
10456SOL    HW132267   6.956   5.817   0.125
10456SOL    HW232268   7.001   5.685   0.210
10457SOL     OW32269   4.471   3.578   6.936
10457SOL    HW132270   4.495   3.611   6.845
10457SOL    HW232271   4.517   3.490   6.952
10458SOL     OW32272   6.712   0.762   6.022
10458SOL    HW132273   6.723   0.783   5.925
10458SOL    HW232274   6.689   0.665   6.033
10459SOL     OW32275   6.115   5.038   0.765
10459SOL    HW132276   6.142   5.117   0.709
10459SOL    HW232277   6.115   4.956   0.708
10460SOL     OW32278   6.761   4.001   1.909
10460SOL    HW132279   6.834   3.969   1.970
10460SOL    HW232280   6.798   4.020   1.819
10461SOL     OW32281   6.583   4.442   5.425
10461SOL    HW132282   6.666   4.402   5.386
10461SOL    HW232283   6.504   4.387   5.400
10462SOL     OW32284   4.867   1.479   2.010
10462SOL    HW132285   4.800   1.475   1.936
10462SOL    HW232286   4.822   1.513   2.093
10463SOL     OW32287   4.805   1.745   6.031
10463SOL    HW132288   4.731   1.702   5.979
10463SOL    HW232289   4.769   1.778   6.119
10464SOL     OW32290   5.404   6.122   1.910
10464SOL    HW132291   5.484   6.092   1.962
10464SOL    HW232292   5.331   6.055   1.919
10465SOL     OW32293   5.225   4.665   2.598
10465SOL    HW132294   5.222   4.612   2.513
10465SOL    HW232295   5.190   4.610   2.673
10466SOL     OW32296   4.872   4.481   6.703
10466SOL    HW132297   4.834   4.501   6.794
10466SOL    HW232298   4.965   4.447   6.712
10467SOL     OW32299   1.652   2.661   6.701
10467SOL    HW132300   1.723   2.669   6.632
10467SOL    HW232301   1.680   2.594   6.770
10468SOL     OW32302   3.845   5.201   3.534
10468SOL    HW132303   3.772   5.132   3.524
10468SOL    HW232304   3.931   5.163   3.501
10469SOL     OW32305   4.622   4.197   6.148
10469SOL    HW132306   4.711   4.159   6.123
10469SOL    HW232307   4.593   4.262   6.077
10470SOL     OW32308   2.491   1.909   3.430
10470SOL    HW132309   2.447   1.909   3.340
10470SOL    HW232310   2.542   1.824   3.442
10471SOL     OW32311   3.026   0.520   0.034
10471SOL    HW132312   3.069   0.575   0.105
10471SOL    HW232313   3.001   0.430   0.071
10472SOL     OW32314   2.737   5.353   1.194
10472SOL    HW132315   2.817   5.387   1.242
10472SOL    HW232316   2.662   5.338   1.260
10473SOL     OW32317   5.840   6.271   5.773
10473SOL    HW132318   5.823   6.173   5.763
10473SOL    HW232319   5.932   6.286   5.809
10474SOL     OW32320   4.588   1.090   3.796
10474SOL    HW132321   4.513   1.096   3.730
10474SOL    HW232322   4.585   1.169   3.857
10475SOL     OW32323   2.529   6.412   1.739
10475SOL    HW132324   2.443   6.433   1.692
10475SOL    HW232325   2.592   6.489   1.729
10476SOL     OW32326   4.970   6.587   5.956
10476SOL    HW132327   4.925   6.594   5.867
10476SOL    HW232328   5.052   6.531   5.948
10477SOL     OW32329   0.042   0.217   4.456
10477SOL    HW132330   0.018   0.121   4.443
10477SOL    HW232331   6.989   0.265   4.498
10478SOL     OW32332   6.980   0.019   0.415
10478SOL    HW132333   6.893   0.031   0.461
10478SOL    HW232334   6.972   0.051   0.320
10479SOL     OW32335   6.663   1.483   1.995
10479SOL    HW132336   6.686   1.520   1.905
10479SOL    HW232337   6.726   1.518   2.063
10480SOL     OW32338   1.041   0.378   2.039
10480SOL    HW132339   0.963   0.315   2.038
10480SOL    HW232340   1.066   0.398   2.134
10481SOL     OW32341   1.546   6.232   2.745
10481SOL    HW132342   1.508   6.238   2.653
10481SOL    HW232343   1.537   6.139   2.780
10482SOL     OW32344   6.369   4.953   4.630
10482SOL    HW132345   6.325   5.042   4.641
10482SOL    HW232346   6.432   4.937   4.707
10483SOL     OW32347   5.551   6.029   0.393
10483SOL    HW132348   5.458   6.000   0.414
10483SOL    HW232349   5.552   6.074   0.304
10484SOL     OW32350   4.529   1.567   1.438
10484SOL    HW132351   4.539   1.470   1.462
10484SOL    HW232352   4.432   1.587   1.422
10485SOL     OW32353   3.299   4.435   6.775
10485SOL    HW132354   3.358   4.410   6.851
10485SOL    HW232355   3.227   4.367   6.764
10486SOL     OW32356   6.703   1.277   0.686
10486SOL    HW132357   6.763   1.280   0.766
10486SOL    HW232358   6.684   1.182   0.661
10487SOL     OW32359   5.218   6.528   2.279
10487SOL    HW132360   5.166   6.466   2.338
10487SOL    HW232361   5.316   6.514   2.295
10488SOL     OW32362   2.684   2.180   6.113
10488SOL    HW132363   2.709   2.160   6.018
10488SOL    HW232364   2.763   2.163   6.172
10489SOL     OW32365   0.309   6.822   5.303
10489SOL    HW132366   0.256   6.812   5.388
10489SOL    HW232367   0.360   6.907   5.306
10490SOL     OW32368   6.160   1.420   1.849
10490SOL    HW132369   6.164   1.378   1.939
10490SOL    HW232370   6.141   1.349   1.780
10491SOL     OW32371   1.645   3.493   0.267
10491SOL    HW132372   1.615   3.425   0.201
10491SOL    HW232373   1.684   3.571   0.220
10492SOL     OW32374   5.867   3.760   5.897
10492SOL    HW132375   5.937   3.703   5.854
10492SOL    HW232376   5.864   3.849   5.850
10493SOL     OW32377   3.202   1.021   1.650
10493SOL    HW132378   3.208   1.028   1.550
10493SOL    HW232379   3.152   1.100   1.686
10494SOL     OW32380   4.785   3.201   5.724
10494SOL    HW132381   4.840   3.241   5.651
10494SOL    HW232382   4.781   3.264   5.802
10495SOL     OW32383   2.151   6.810   0.392
10495SOL    HW132384   2.209   6.768   0.462
10495SOL    HW232385   2.189   6.899   0.366
10496SOL     OW32386   0.662   5.903   0.655
10496SOL    HW132387   0.749   5.936   0.618
10496SOL    HW232388   0.587   5.952   0.611
10497SOL     OW32389   2.188   6.538   1.915
10497SOL    HW132390   2.116   6.597   1.951
10497SOL    HW232391   2.164   6.508   1.823
10498SOL     OW32392   3.187   6.513   1.447
10498SOL    HW132393   3.154   6.522   1.352
10498SOL    HW232394   3.251   6.437   1.453
10499SOL     OW32395   3.172   6.572   2.403
10499SOL    HW132396   3.213   6.539   2.318
10499SOL    HW232397   3.151   6.494   2.462
10500SOL     OW32398   0.349   0.787   6.258
10500SOL    HW132399   0.313   0.695   6.275
10500SOL    HW232400   0.387   0.790   6.165
10501SOL     OW32401   2.047   5.262   3.067
10501SOL    HW132402   2.026   5.200   3.143
10501SOL    HW232403   2.007   5.352   3.086
10502SOL     OW32404   3.001   0.759   0.937
10502SOL    HW132405   3.088   0.780   0.980
10502SOL    HW232406   2.939   0.720   1.005
10503SOL     OW32407   4.047   2.972   0.340
10503SOL    HW132408   3.960   2.923   0.349
10503SOL    HW232409   4.039   3.042   0.270
10504SOL     OW32410   2.172   2.062   0.302
10504SOL    HW132411   2.136   1.979   0.345
10504SOL    HW232412   2.215   2.039   0.215
10505SOL     OW32413   6.195   5.384   0.895
10505SOL    HW132414   6.202   5.480   0.922
10505SOL    HW232415   6.286   5.348   0.874
10506SOL     OW32416   0.239   4.967   6.196
10506SOL    HW132417   0.336   4.960   6.222
10506SOL    HW232418   0.182   4.954   6.277
10507SOL     OW32419   2.631   6.896   0.028
10507SOL    HW132420   2.549   6.861   0.075
10507SOL    HW232421   2.702   6.826   0.029
10508SOL     OW32422   5.940   5.992   5.148
10508SOL    HW132423   5.847   6.019   5.121
10508SOL    HW232424   5.997   6.073   5.160
10509SOL     OW32425   1.150   6.243   5.513
10509SOL    HW132426   1.235   6.190   5.510
10509SOL    HW232427   1.143   6.298   5.430
10510SOL     OW32428   5.062   5.939   5.913
10510SOL    HW132429   5.028   5.862   5.966
10510SOL    HW232430   5.140   5.909   5.857
10511SOL     OW32431   4.881   2.473   1.264
10511SOL    HW132432   4.901   2.463   1.166
10511SOL    HW232433   4.956   2.522   1.308
10512SOL     OW32434   3.745   0.524   5.947
10512SOL    HW132435   3.820   0.476   5.901
10512SOL    HW232436   3.782   0.600   6.000
10513SOL     OW32437   0.175   2.428   4.972
10513SOL    HW132438   0.269   2.420   5.005
10513SOL    HW232439   0.121   2.479   5.038
10514SOL     OW32440   6.816   3.840   0.112
10514SOL    HW132441   6.731   3.879   0.149
10514SOL    HW232442   6.887   3.910   0.109
10515SOL     OW32443   6.753   2.448   3.161
10515SOL    HW132444   6.766   2.436   3.062
10515SOL    HW232445   6.707   2.368   3.198
10516SOL     OW32446   4.440   1.120   6.669
10516SOL    HW132447   4.465   1.182   6.743
10516SOL    HW232448   4.482   1.031   6.685
10517SOL     OW32449   0.053   1.981   2.950
10517SOL    HW132450   7.023   1.964   2.867
10517SOL    HW232451   7.016   1.989   3.029
10518SOL     OW32452   0.749   4.610   6.503
10518SOL    HW132453   0.835   4.578   6.542
10518SOL    HW232454   0.740   4.709   6.519
10519SOL     OW32455   2.379   2.484   6.328
10519SOL    HW132456   2.415   2.478   6.235
10519SOL    HW232457   2.297   2.540   6.329
10520SOL     OW32458   2.046   2.530   6.435
10520SOL    HW132459   1.998   2.459   6.383
10520SOL    HW232460   2.081   2.492   6.520
10521SOL     OW32461   6.202   5.512   1.761
10521SOL    HW132462   6.126   5.560   1.718
10521SOL    HW232463   6.266   5.481   1.691
10522SOL     OW32464   5.947   0.795   0.247
10522SOL    HW132465   5.922   0.891   0.232
10522SOL    HW232466   6.041   0.780   0.217
10523SOL     OW32467   0.653   5.849   4.828
10523SOL    HW132468   0.577   5.845   4.893
10523SOL    HW232469   0.740   5.847   4.877
10524SOL     OW32470   2.402   1.198   4.896
10524SOL    HW132471   2.322   1.186   4.955
10524SOL    HW232472   2.396   1.287   4.849
10525SOL     OW32473   3.218   0.087   5.859
10525SOL    HW132474   3.219   7.015   5.831
10525SOL    HW232475   3.266   0.142   5.790
10526SOL     OW32476   0.810   7.023   2.635
10526SOL    HW132477   0.851   0.059   2.566
10526SOL    HW232478   0.882   6.982   2.691
10527SOL     OW32479   6.542   2.674   4.660
10527SOL    HW132480   6.620   2.711   4.609
10527SOL    HW232481   6.574   2.632   4.745
10528SOL     OW32482   0.658   3.378   5.940
10528SOL    HW132483   0.563   3.378   5.971
10528SOL    HW232484   0.660   3.373   5.840
10529SOL     OW32485   2.298   6.226   3.774
10529SOL    HW132486   2.383   6.198   3.820
10529SOL    HW232487   2.306   6.211   3.676
10530SOL     OW32488   2.044   1.253   6.241
10530SOL    HW132489   1.967   1.224   6.184
10530SOL    HW232490   2.037   1.207   6.330
10531SOL     OW32491   0.955   2.601   4.434
10531SOL    HW132492   1.008   2.593   4.518
10531SOL    HW232493   0.882   2.669   4.447
10532SOL     OW32494   2.171   4.194   0.519
10532SOL    HW132495   2.265   4.182   0.484
10532SOL    HW232496   2.171   4.181   0.618
10533SOL     OW32497   3.069   1.890   4.562
10533SOL    HW132498   2.977   1.923   4.582
10533SOL    HW232499   3.129   1.969   4.546
10534SOL     OW32500   6.014   5.597   1.580
10534SOL    HW132501   6.033   5.659   1.504
10534SOL    HW232502   6.007   5.503   1.546
10535SOL     OW32503   0.237   2.044   0.883
10535SOL    HW132504   0.293   2.118   0.847
10535SOL    HW232505   0.162   2.082   0.937
10536SOL     OW32506   3.732   0.821   3.056
10536SOL    HW132507   3.780   0.752   3.001
10536SOL    HW232508   3.673   0.775   3.122
10537SOL     OW32509   3.535   5.419   3.880
10537SOL    HW132510   3.596   5.354   3.925
10537SOL    HW232511   3.582   5.508   3.871
10538SOL     OW32512   4.542   2.880   0.045
10538SOL    HW132513   4.556   2.806   0.111
10538SOL    HW232514   4.616   2.878   7.002
10539SOL     OW32515   0.606   4.325   6.841
10539SOL    HW132516   0.602   4.243   6.784
10539SOL    HW232517   0.580   4.405   6.786
10540SOL     OW32518   1.491   2.170   5.185
10540SOL    HW132519   1.487   2.125   5.096
10540SOL    HW232520   1.403   2.163   5.231
10541SOL     OW32521   3.640   3.455   1.957
10541SOL    HW132522   3.626   3.374   1.901
10541SOL    HW232523   3.553   3.484   1.996
10542SOL     OW32524   6.619   1.907   6.697
10542SOL    HW132525   6.529   1.951   6.704
10542SOL    HW232526   6.626   1.834   6.765
10543SOL     OW32527   6.877   1.291   5.123
10543SOL    HW132528   6.898   1.388   5.112
10543SOL    HW232529   6.955   1.245   5.165
10544SOL     OW32530   1.273   6.972   2.649
10544SOL    HW132531   1.255   6.915   2.568
10544SOL    HW232532   1.282   0.044   2.620
10545SOL     OW32533   5.654   1.349   2.813
10545SOL    HW132534   5.693   1.327   2.903
10545SOL    HW232535   5.555   1.337   2.816
10546SOL     OW32536   0.550   1.010   5.946
10546SOL    HW132537   0.515   0.921   5.916
10546SOL    HW232538   0.509   1.034   6.034
10547SOL     OW32539   4.680   1.855   1.859
10547SOL    HW132540   4.594   1.897   1.832
10547SOL    HW232541   4.731   1.827   1.778
10548SOL     OW32542   5.185   3.763   4.741
10548SOL    HW132543   5.206   3.860   4.755
10548SOL    HW232544   5.202   3.713   4.826
10549SOL     OW32545   6.466   0.346   2.424
10549SOL    HW132546   6.495   0.298   2.341
10549SOL    HW232547   6.526   0.425   2.440
10550SOL     OW32548   4.587   6.321   4.809
10550SOL    HW132549   4.639   6.254   4.756
10550SOL    HW232550   4.643   6.354   4.885
10551SOL     OW32551   1.654   2.832   5.710
10551SOL    HW132552   1.712   2.768   5.760
10551SOL    HW232553   1.712   2.899   5.662
10552SOL     OW32554   3.890   2.256   5.911
10552SOL    HW132555   3.872   2.209   5.824
10552SOL    HW232556   3.971   2.217   5.953
10553SOL     OW32557   1.197   5.179   1.695
10553SOL    HW132558   1.178   5.113   1.622
10553SOL    HW232559   1.209   5.270   1.655
10554SOL     OW32560   5.211   5.336   6.792
10554SOL    HW132561   5.254   5.378   6.712
10554SOL    HW232562   5.181   5.244   6.769
10555SOL     OW32563   2.630   3.396   0.936
10555SOL    HW132564   2.656   3.468   1.001
10555SOL    HW232565   2.712   3.342   0.912
10556SOL     OW32566   2.186   2.508   5.179
10556SOL    HW132567   2.153   2.469   5.093
10556SOL    HW232568   2.241   2.589   5.160
10557SOL     OW32569   1.711   2.289   3.516
10557SOL    HW132570   1.757   2.337   3.590
10557SOL    HW232571   1.774   2.279   3.438
10558SOL     OW32572   3.968   0.394   4.047
10558SOL    HW132573   3.905   0.351   3.982
10558SOL    HW232574   3.967   0.342   4.133
10559SOL     OW32575   4.263   0.729   1.234
10559SOL    HW132576   4.261   0.651   1.172
10559SOL    HW232577   4.321   0.801   1.197
10560SOL     OW32578   2.501   0.079   3.833
10560SOL    HW132579   2.540   0.028   3.757
10560SOL    HW232580   2.401   0.082   3.825
10561SOL     OW32581   2.616   5.004   0.663
10561SOL    HW132582   2.637   4.938   0.591
10561SOL    HW232583   2.520   5.030   0.658
10562SOL     OW32584   5.345   6.212   0.548
10562SOL    HW132585   5.439   6.246   0.540
10562SOL    HW232586   5.308   6.238   0.637
10563SOL     OW32587   1.149   0.482   4.093
10563SOL    HW132588   1.209   0.403   4.087
10563SOL    HW232589   1.201   0.562   4.123
10564SOL     OW32590   5.945   6.475   2.411
10564SOL    HW132591   5.898   6.393   2.446
10564SOL    HW232592   5.891   6.514   2.337
10565SOL     OW32593   0.221   0.640   5.157
10565SOL    HW132594   0.294   0.708   5.165
10565SOL    HW232595   0.139   0.684   5.121
10566SOL     OW32596   3.846   2.829   0.160
10566SOL    HW132597   3.773   2.820   0.092
10566SOL    HW232598   3.893   2.916   0.146
10567SOL     OW32599   2.436   2.059   4.159
10567SOL    HW132600   2.482   2.086   4.075
10567SOL    HW232601   2.489   2.090   4.238
10568SOL     OW32602   5.579   1.552   1.568
10568SOL    HW132603   5.595   1.481   1.637
10568SOL    HW232604   5.505   1.611   1.598
10569SOL     OW32605   6.536   2.392   1.616
10569SOL    HW132606   6.546   2.294   1.600
10569SOL    HW232607   6.594   2.443   1.553
10570SOL     OW32608   1.612   4.870   3.110
10570SOL    HW132609   1.675   4.935   3.067
10570SOL    HW232610   1.643   4.777   3.091
10571SOL     OW32611   0.278   4.388   4.550
10571SOL    HW132612   0.242   4.449   4.620
10571SOL    HW232613   0.244   4.416   4.460
10572SOL     OW32614   6.993   3.730   3.265
10572SOL    HW132615   6.963   3.655   3.325
10572SOL    HW232616   0.013   3.692   3.184
10573SOL     OW32617   4.659   6.182   4.367
10573SOL    HW132618   4.711   6.189   4.282
10573SOL    HW232619   4.587   6.113   4.356
10574SOL     OW32620   1.587   1.622   4.291
10574SOL    HW132621   1.581   1.569   4.207
10574SOL    HW232622   1.552   1.568   4.367
10575SOL     OW32623   0.014   0.987   3.240
10575SOL    HW132624   0.101   1.034   3.255
10575SOL    HW232625   7.004   1.009   3.149
10576SOL     OW32626   0.201   6.480   5.414
10576SOL    HW132627   0.300   6.472   5.401
10576SOL    HW232628   0.157   6.495   5.326
10577SOL     OW32629   1.644   2.392   6.511
10577SOL    HW132630   1.564   2.388   6.571
10577SOL    HW232631   1.718   2.339   6.553
10578SOL     OW32632   6.493   0.252   3.440
10578SOL    HW132633   6.582   0.212   3.464
10578SOL    HW232634   6.424   0.180   3.437
10579SOL     OW32635   3.473   1.583   0.569
10579SOL    HW132636   3.374   1.592   0.557
10579SOL    HW232637   3.497   1.601   0.664
10580SOL     OW32638   0.062   0.695   0.072
10580SOL    HW132639   0.067   0.794   0.058
10580SOL    HW232640   6.998   0.661   0.038
10581SOL     OW32641   5.790   6.735   2.957
10581SOL    HW132642   5.708   6.682   2.934
10581SOL    HW232643   5.872   6.683   2.932
10582SOL     OW32644   4.371   4.785   0.256
10582SOL    HW132645   4.348   4.695   0.292
10582SOL    HW232646   4.323   4.855   0.308
10583SOL     OW32647   3.855   1.144   5.509
10583SOL    HW132648   3.832   1.169   5.415
10583SOL    HW232649   3.944   1.183   5.533
10584SOL     OW32650   6.181   6.372   1.277
10584SOL    HW132651   6.101   6.422   1.243
10584SOL    HW232652   6.259   6.390   1.218
10585SOL     OW32653   1.609   3.376   5.425
10585SOL    HW132654   1.690   3.321   5.405
10585SOL    HW232655   1.568   3.407   5.339
10586SOL     OW32656   1.102   5.848   5.153
10586SOL    HW132657   1.128   5.896   5.069
10586SOL    HW232658   1.144   5.893   5.231
10587SOL     OW32659   6.020   4.658   0.087
10587SOL    HW132660   6.011   4.662   0.186
10587SOL    HW232661   5.940   4.701   0.044
10588SOL     OW32662   0.756   3.959   2.399
10588SOL    HW132663   0.774   4.035   2.462
10588SOL    HW232664   0.659   3.959   2.375
10589SOL     OW32665   5.664   1.483   4.369
10589SOL    HW132666   5.685   1.388   4.391
10589SOL    HW232667   5.721   1.544   4.424
10590SOL     OW32668   0.664   0.307   1.803
10590SOL    HW132669   0.650   0.255   1.719
10590SOL    HW232670   0.605   0.388   1.801
10591SOL     OW32671   1.168   1.322   6.481
10591SOL    HW132672   1.080   1.285   6.510
10591SOL    HW232673   1.181   1.304   6.384
10592SOL     OW32674   6.216   2.587   0.284
10592SOL    HW132675   6.126   2.554   0.310
10592SOL    HW232676   6.245   2.659   0.347
10593SOL     OW32677   2.765   5.277   0.640
10593SOL    HW132678   2.752   5.280   0.740
10593SOL    HW232679   2.725   5.193   0.604
10594SOL     OW32680   5.793   0.753   2.831
10594SOL    HW132681   5.891   0.767   2.844
10594SOL    HW232682   5.744   0.837   2.854
10595SOL     OW32683   3.131   0.427   6.358
10595SOL    HW132684   3.163   0.498   6.296
10595SOL    HW232685   3.110   0.344   6.306
10596SOL     OW32686   4.665   0.487   1.047
10596SOL    HW132687   4.591   0.445   0.995
10596SOL    HW232688   4.744   0.503   0.988
10597SOL     OW32689   3.094   1.043   5.069
10597SOL    HW132690   3.088   0.983   5.148
10597SOL    HW232691   3.088   0.988   4.985
10598SOL     OW32692   2.683   2.595   6.669
10598SOL    HW132693   2.692   2.602   6.570
10598SOL    HW232694   2.770   2.568   6.710
10599SOL     OW32695   5.168   2.265   6.921
10599SOL    HW132696   5.229   2.283   6.844
10599SOL    HW232697   5.075   2.293   6.898
10600SOL     OW32698   1.736   3.324   0.457
10600SOL    HW132699   1.790   3.246   0.425
10600SOL    HW232700   1.751   3.402   0.397
10601SOL     OW32701   1.865   4.713   6.445
10601SOL    HW132702   1.785   4.763   6.411
10601SOL    HW232703   1.940   4.724   6.381
10602SOL     OW32704   5.169   1.476   3.283
10602SOL    HW132705   5.070   1.475   3.296
10602SOL    HW232706   5.210   1.401   3.334
10603SOL     OW32707   2.098   5.799   3.717
10603SOL    HW132708   2.089   5.731   3.790
10603SOL    HW232709   2.150   5.760   3.641
10604SOL     OW32710   6.225   4.172   5.169
10604SOL    HW132711   6.187   4.092   5.216
10604SOL    HW232712   6.175   4.187   5.083
10605SOL     OW32713   1.922   4.757   0.926
10605SOL    HW132714   1.917   4.784   0.830
10605SOL    HW232715   1.844   4.794   0.976
10606SOL     OW32716   6.111   6.693   2.655
10606SOL    HW132717   6.139   6.626   2.586
10606SOL    HW232718   6.192   6.725   2.705
10607SOL     OW32719   4.261   3.892   5.579
10607SOL    HW132720   4.237   3.980   5.621
10607SOL    HW232721   4.342   3.903   5.522
10608SOL     OW32722   5.670   1.983   5.482
10608SOL    HW132723   5.747   1.924   5.505
10608SOL    HW232724   5.612   1.994   5.563
10609SOL     OW32725   3.524   6.707   1.704
10609SOL    HW132726   3.573   6.661   1.778
10609SOL    HW232727   3.433   6.668   1.695
10610SOL     OW32728   0.207   3.553   6.460
10610SOL    HW132729   0.204   3.454   6.475
10610SOL    HW232730   0.200   3.573   6.363
10611SOL     OW32731   4.491   3.629   5.895
10611SOL    HW132732   4.470   3.630   5.797
10611SOL    HW232733   4.429   3.566   5.943
10612SOL     OW32734   2.744   6.842   6.066
10612SOL    HW132735   2.730   6.914   5.998
10612SOL    HW232736   2.723   6.753   6.025
10613SOL     OW32737   0.171   0.063   5.032
10613SOL    HW132738   0.254   0.026   4.990
10613SOL    HW232739   0.152   0.154   4.996
10614SOL     OW32740   6.526   2.252   4.184
10614SOL    HW132741   6.438   2.299   4.189
10614SOL    HW232742   6.597   2.310   4.225
10615SOL     OW32743   3.682   5.788   5.681
10615SOL    HW132744   3.695   5.875   5.728
10615SOL    HW232745   3.629   5.726   5.740
10616SOL     OW32746   3.101   6.374   0.655
10616SOL    HW132747   3.023   6.316   0.630
10616SOL    HW232748   3.186   6.324   0.637
10617SOL     OW32749   2.314   2.925   0.725
10617SOL    HW132750   2.363   3.006   0.758
10617SOL    HW232751   2.355   2.894   0.640
10618SOL     OW32752   5.866   3.802   6.981
10618SOL    HW132753   5.909   3.734   0.016
10618SOL    HW232754   5.908   3.892   6.997
10619SOL     OW32755   0.383   3.689   1.625
10619SOL    HW132756   0.477   3.657   1.638
10619SOL    HW232757   0.385   3.776   1.575
10620SOL     OW32758   1.337   5.570   5.834
10620SOL    HW132759   1.375   5.662   5.823
10620SOL    HW232760   1.238   5.574   5.822
10621SOL     OW32761   1.303   6.113   1.132
10621SOL    HW132762   1.368   6.052   1.177
10621SOL    HW232763   1.298   6.200   1.182
10622SOL     OW32764   5.148   1.290   1.526
10622SOL    HW132765   5.166   1.362   1.459
10622SOL    HW232766   5.054   1.299   1.559
10623SOL     OW32767   6.485   4.125   3.969
10623SOL    HW132768   6.528   4.093   3.885
10623SOL    HW232769   6.549   4.182   4.020
10624SOL     OW32770   0.947   1.326   4.808
10624SOL    HW132771   0.968   1.362   4.899
10624SOL    HW232772   0.862   1.368   4.775
10625SOL     OW32773   0.666   4.808   0.198
10625SOL    HW132774   0.761   4.841   0.205
10625SOL    HW232775   0.607   4.884   0.171
10626SOL     OW32776   1.043   2.526   1.336
10626SOL    HW132777   1.049   2.455   1.265
10626SOL    HW232778   1.015   2.485   1.422
10627SOL     OW32779   5.337   5.860   1.892
10627SOL    HW132780   5.412   5.821   1.838
10627SOL    HW232781   5.343   5.826   1.986
10628SOL     OW32782   5.533   5.457   5.885
10628SOL    HW132783   5.463   5.528   5.875
10628SOL    HW232784   5.616   5.498   5.924
10629SOL     OW32785   2.574   4.676   4.970
10629SOL    HW132786   2.665   4.635   4.975
10629SOL    HW232787   2.531   4.651   4.883
10630SOL     OW32788   6.348   0.945   3.818
10630SOL    HW132789   6.433   0.947   3.766
10630SOL    HW232790   6.366   0.906   3.909
10631SOL     OW32791   1.794   5.055   4.912
10631SOL    HW132792   1.887   5.046   4.875
10631SOL    HW232793   1.738   4.979   4.879
10632SOL     OW32794   5.500   1.779   4.150
10632SOL    HW132795   5.486   1.812   4.057
10632SOL    HW232796   5.567   1.838   4.197
10633SOL     OW32797   2.656   4.059   1.451
10633SOL    HW132798   2.682   4.075   1.546
10633SOL    HW232799   2.694   3.972   1.420
10634SOL     OW32800   3.308   5.050   0.875
10634SOL    HW132801   3.333   5.091   0.962
10634SOL    HW232802   3.320   5.116   0.801
10635SOL     OW32803   3.674   1.392   1.350
10635SOL    HW132804   3.688   1.297   1.378
10635SOL    HW232805   3.576   1.415   1.357
10636SOL     OW32806   1.228   2.034   1.962
10636SOL    HW132807   1.253   2.105   1.896
10636SOL    HW232808   1.285   1.953   1.947
10637SOL     OW32809   3.471   4.749   5.502
10637SOL    HW132810   3.386   4.801   5.499
10637SOL    HW232811   3.481   4.704   5.591
10638SOL     OW32812   0.002   5.475   2.545
10638SOL    HW132813   0.088   5.521   2.521
10638SOL    HW232814   0.022   5.381   2.573
10639SOL     OW32815   0.233   2.202   3.012
10639SOL    HW132816   0.198   2.108   3.016
10639SOL    HW232817   0.333   2.200   3.013
10640SOL     OW32818   4.255   0.302   6.466
10640SOL    HW132819   4.167   0.349   6.456
10640SOL    HW232820   4.320   0.364   6.509
10641SOL     OW32821   3.100   1.856   0.484
10641SOL    HW132822   3.137   1.881   0.395
10641SOL    HW232823   3.010   1.897   0.496
10642SOL     OW32824   0.341   2.557   1.842
10642SOL    HW132825   0.349   2.499   1.761
10642SOL    HW232826   0.324   2.501   1.923
10643SOL     OW32827   2.042   4.962   5.546
10643SOL    HW132828   2.016   5.042   5.493
10643SOL    HW232829   2.049   4.986   5.642
10644SOL     OW32830   5.394   2.260   3.403
10644SOL    HW132831   5.428   2.281   3.311
10644SOL    HW232832   5.446   2.183   3.440
10645SOL     OW32833   0.871   1.022   4.430
10645SOL    HW132834   0.970   1.006   4.427
10645SOL    HW232835   0.826   0.942   4.469
10646SOL     OW32836   0.319   1.776   5.164
10646SOL    HW132837   0.372   1.695   5.139
10646SOL    HW232838   0.225   1.749   5.186
10647SOL     OW32839   4.770   6.103   6.734
10647SOL    HW132840   4.860   6.073   6.764
10647SOL    HW232841   4.719   6.140   6.811
10648SOL     OW32842   5.113   3.244   6.501
10648SOL    HW132843   5.203   3.252   6.457
10648SOL    HW232844   5.061   3.328   6.484
10649SOL     OW32845   0.269   4.495   3.648
10649SOL    HW132846   0.350   4.545   3.619
10649SOL    HW232847   0.224   4.455   3.569
10650SOL     OW32848   1.339   6.174   3.021
10650SOL    HW132849   1.358   6.269   3.045
10650SOL    HW232850   1.424   6.129   2.993
10651SOL     OW32851   5.039   0.077   5.797
10651SOL    HW132852   5.033   7.003   5.812
10651SOL    HW232853   4.986   0.125   5.866
10652SOL     OW32854   3.466   0.278   6.888
10652SOL    HW132855   3.446   0.209   6.958
10652SOL    HW232856   3.403   0.356   6.899
10653SOL     OW32857   5.058   4.827   4.100
10653SOL    HW132858   5.151   4.803   4.128
10653SOL    HW232859   5.061   4.899   4.031
10654SOL     OW32860   4.631   1.263   0.864
10654SOL    HW132861   4.715   1.310   0.893
10654SOL    HW232862   4.652   1.167   0.844
10655SOL     OW32863   3.280   5.457   1.548
10655SOL    HW132864   3.363   5.505   1.577
10655SOL    HW232865   3.225   5.435   1.629
10656SOL     OW32866   6.253   2.387   0.659
10656SOL    HW132867   6.200   2.468   0.631
10656SOL    HW232868   6.351   2.409   0.655
10657SOL     OW32869   6.246   6.734   0.326
10657SOL    HW132870   6.204   6.784   0.250
10657SOL    HW232871   6.175   6.685   0.376
10658SOL     OW32872   6.785   3.786   4.782
10658SOL    HW132873   6.780   3.884   4.796
10658SOL    HW232874   6.716   3.758   4.716
10659SOL     OW32875   6.811   6.546   0.911
10659SOL    HW132876   6.829   6.627   0.966
10659SOL    HW232877   6.889   6.484   0.916
10660SOL     OW32878   4.822   4.464   6.416
10660SOL    HW132879   4.861   4.373   6.400
10660SOL    HW232880   4.822   4.483   6.514
10661SOL     OW32881   0.250   6.378   2.258
10661SOL    HW132882   0.291   6.455   2.209
10661SOL    HW232883   0.297   6.365   2.345
10662SOL     OW32884   5.699   0.934   2.435
10662SOL    HW132885   5.745   0.993   2.501
10662SOL    HW232886   5.760   0.914   2.359
10663SOL     OW32887   0.610   6.644   1.061
10663SOL    HW132888   0.662   6.590   0.995
10663SOL    HW232889   0.529   6.682   1.018
10664SOL     OW32890   2.110   4.264   6.376
10664SOL    HW132891   2.097   4.190   6.310
10664SOL    HW232892   2.205   4.295   6.373
10665SOL     OW32893   1.327   0.799   0.400
10665SOL    HW132894   1.366   0.708   0.409
10665SOL    HW232895   1.400   0.867   0.394
10666SOL     OW32896   4.115   4.581   0.286
10666SOL    HW132897   4.069   4.607   0.370
10666SOL    HW232898   4.134   4.483   0.288
10667SOL     OW32899   3.854   2.310   5.582
10667SOL    HW132900   3.848   2.214   5.610
10667SOL    HW232901   3.890   2.316   5.489
10668SOL     OW32902   1.089   1.401   5.111
10668SOL    HW132903   1.071   1.477   5.049
10668SOL    HW232904   1.173   1.419   5.162
10669SOL     OW32905   6.439   6.973   0.592
10669SOL    HW132906   6.490   6.897   0.551
10669SOL    HW232907   6.502   0.007   0.644
10670SOL     OW32908   5.148   4.670   5.678
10670SOL    HW132909   5.097   4.597   5.722
10670SOL    HW232910   5.085   4.741   5.647
10671SOL     OW32911   2.050   3.098   2.695
10671SOL    HW132912   1.953   3.118   2.709
10671SOL    HW232913   2.102   3.126   2.776
10672SOL     OW32914   6.855   2.935   0.411
10672SOL    HW132915   6.868   3.017   0.466
10672SOL    HW232916   6.759   2.929   0.382
10673SOL     OW32917   2.116   1.978   5.413
10673SOL    HW132918   2.143   1.892   5.455
10673SOL    HW232919   2.016   1.988   5.416
10674SOL     OW32920   3.885   3.788   0.541
10674SOL    HW132921   3.802   3.747   0.580
10674SOL    HW232922   3.909   3.870   0.592
10675SOL     OW32923   1.980   1.166   6.541
10675SOL    HW132924   1.923   1.128   6.614
10675SOL    HW232925   1.955   1.262   6.527
10676SOL     OW32926   5.978   0.089   6.511
10676SOL    HW132927   5.909   0.156   6.539
10676SOL    HW232928   5.947   0.042   6.429
10677SOL     OW32929   0.842   0.895   2.258
10677SOL    HW132930   0.853   0.940   2.347
10677SOL    HW232931   0.752   0.917   2.221
10678SOL     OW32932   3.544   5.308   3.318
10678SOL    HW132933   3.582   5.218   3.338
10678SOL    HW232934   3.566   5.334   3.224
10679SOL     OW32935   5.465   5.197   5.950
10679SOL    HW132936   5.502   5.287   5.926
10679SOL    HW232937   5.467   5.138   5.869
10680SOL     OW32938   2.161   2.632   3.902
10680SOL    HW132939   2.078   2.653   3.952
10680SOL    HW232940   2.198   2.544   3.934
10681SOL     OW32941   0.093   4.066   6.779
10681SOL    HW132942   0.050   3.976   6.776
10681SOL    HW232943   0.153   4.071   6.859
10682SOL     OW32944   1.702   2.010   3.556
10682SOL    HW132945   1.791   1.993   3.515
10682SOL    HW232946   1.672   2.102   3.531
10683SOL     OW32947   2.940   2.164   3.599
10683SOL    HW132948   2.923   2.087   3.537
10683SOL    HW232949   2.900   2.247   3.561
10684SOL     OW32950   4.264   4.347   0.274
10684SOL    HW132951   4.299   4.329   0.182
10684SOL    HW232952   4.217   4.266   0.308
10685SOL     OW32953   0.095   4.071   2.744
10685SOL    HW132954   0.137   4.040   2.659
10685SOL    HW232955   0.139   4.026   2.821
10686SOL     OW32956   4.195   6.030   6.326
10686SOL    HW132957   4.138   6.104   6.362
10686SOL    HW232958   4.217   6.048   6.230
10687SOL     OW32959   0.254   5.555   1.933
10687SOL    HW132960   0.172   5.498   1.942
10687SOL    HW232961   0.336   5.497   1.939
10688SOL     OW32962   6.039   4.164   2.432
10688SOL    HW132963   6.080   4.249   2.398
10688SOL    HW232964   6.112   4.101   2.461
10689SOL     OW32965   0.015   6.858   3.113
10689SOL    HW132966   6.962   6.922   3.112
10689SOL    HW232967   0.074   6.877   3.035
10690SOL     OW32968   5.506   5.456   3.417
10690SOL    HW132969   5.512   5.425   3.322
10690SOL    HW232970   5.585   5.423   3.467
10691SOL     OW32971   0.020   1.775   2.196
10691SOL    HW132972   0.067   1.756   2.109
10691SOL    HW232973   0.033   1.871   2.220
10692SOL     OW32974   2.894   5.693   4.157
10692SOL    HW132975   2.891   5.781   4.110
10692SOL    HW232976   2.959   5.633   4.111
10693SOL     OW32977   1.948   0.902   1.218
10693SOL    HW132978   1.912   0.910   1.125
10693SOL    HW232979   1.876   0.924   1.284
10694SOL     OW32980   3.552   6.521   0.571
10694SOL    HW132981   3.592   6.459   0.639
10694SOL    HW232982   3.583   6.614   0.589
10695SOL     OW32983   6.465   2.110   3.815
10695SOL    HW132984   6.409   2.155   3.886
10695SOL    HW232985   6.449   2.155   3.727
10696SOL     OW32986   6.863   4.869   1.636
10696SOL    HW132987   6.840   4.847   1.541
10696SOL    HW232988   6.917   4.953   1.638
10697SOL     OW32989   0.421   6.358   3.783
10697SOL    HW132990   0.512   6.327   3.809
10697SOL    HW232991   0.427   6.418   3.704
10698SOL     OW32992   3.228   6.968   3.994
10698SOL    HW132993   3.261   6.958   3.900
10698SOL    HW232994   3.306   6.970   4.056
10699SOL     OW32995   4.550   2.045   2.792
10699SOL    HW132996   4.624   1.980   2.774
10699SOL    HW232997   4.585   2.138   2.786
10700SOL     OW32998   1.238   0.112   0.156
10700SOL    HW132999   1.258   0.210   0.169
10700SOL    HW233000   1.274   0.061   0.234
10701SOL     OW33001   4.230   6.091   0.028
10701SOL    HW133002   4.183   6.114   0.113
10701SOL    HW233003   4.163   6.081   6.979
10702SOL     OW33004   5.581   2.486   1.563
10702SOL    HW133005   5.507   2.553   1.554
10702SOL    HW233006   5.560   2.423   1.638
10703SOL     OW33007   3.737   3.398   4.012
10703SOL    HW133008   3.794   3.479   3.995
10703SOL    HW233009   3.656   3.402   3.955
10704SOL     OW33010   4.712   6.568   2.330
10704SOL    HW133011   4.807   6.597   2.337
10704SOL    HW233012   4.654   6.629   2.384
10705SOL     OW33013   1.342   3.509   0.361
10705SOL    HW133014   1.425   3.521   0.307
10705SOL    HW233015   1.364   3.466   0.449
10706SOL     OW33016   4.816   0.299   1.655
10706SOL    HW133017   4.766   0.228   1.605
10706SOL    HW233018   4.903   0.261   1.687
10707SOL     OW33019   0.157   6.822   5.529
10707SOL    HW133020   0.133   6.887   5.600
10707SOL    HW233021   0.107   6.736   5.543
10708SOL     OW33022   4.815   0.893   1.451
10708SOL    HW133023   4.858   0.855   1.533
10708SOL    HW233024   4.735   0.839   1.427
10709SOL     OW33025   5.976   0.610   5.790
10709SOL    HW133026   6.049   0.582   5.853
10709SOL    HW233027   5.896   0.551   5.804
10710SOL     OW33028   0.029   6.477   4.459
10710SOL    HW133029   6.977   6.492   4.522
10710SOL    HW233030   0.018   6.388   4.415
10711SOL     OW33031   2.152   0.309   3.782
10711SOL    HW133032   2.052   0.308   3.786
10711SOL    HW233033   2.185   0.397   3.816
10712SOL     OW33034   3.919   1.525   4.408
10712SOL    HW133035   4.010   1.538   4.369
10712SOL    HW233036   3.924   1.457   4.481
10713SOL     OW33037   1.786   5.441   1.968
10713SOL    HW133038   1.846   5.391   1.907
10713SOL    HW233039   1.808   5.539   1.965
10714SOL     OW33040   0.115   4.078   4.743
10714SOL    HW133041   0.169   4.086   4.660
10714SOL    HW233042   0.085   4.169   4.772
10715SOL     OW33043   5.768   0.614   4.014
10715SOL    HW133044   5.814   0.555   4.080
10715SOL    HW233045   5.751   0.561   3.930
10716SOL     OW33046   6.413   0.934   3.450
10716SOL    HW133047   6.437   0.870   3.522
10716SOL    HW233048   6.362   1.011   3.489
10717SOL     OW33049   0.664   1.804   1.246
10717SOL    HW133050   0.628   1.863   1.174
10717SOL    HW233051   0.614   1.717   1.246
10718SOL     OW33052   6.929   5.365   0.503
10718SOL    HW133053   6.999   5.323   0.446
10718SOL    HW233054   6.863   5.296   0.533
10719SOL     OW33055   5.013   6.877   2.401
10719SOL    HW133056   4.975   6.854   2.312
10719SOL    HW233057   5.023   6.793   2.456
10720SOL     OW33058   0.060   3.311   6.074
10720SOL    HW133059   0.061   3.411   6.073
10720SOL    HW233060   0.119   3.276   6.002
10721SOL     OW33061   5.975   2.197   4.126
10721SOL    HW133062   5.942   2.131   4.193
10721SOL    HW233063   5.920   2.190   4.043
10722SOL     OW33064   6.692   3.612   6.995
10722SOL    HW133065   6.750   3.589   6.917
10722SOL    HW233066   6.747   3.657   0.041
10723SOL     OW33067   5.473   4.040   6.984
10723SOL    HW133068   5.508   3.955   7.024
10723SOL    HW233069   5.412   4.085   0.024
10724SOL     OW33070   3.999   6.605   6.000
10724SOL    HW133071   3.913   6.642   6.034
10724SOL    HW233072   3.985   6.567   5.909
10725SOL     OW33073   0.204   5.277   4.362
10725SOL    HW133074   0.230   5.270   4.459
10725SOL    HW233075   0.167   5.189   4.331
10726SOL     OW33076   5.498   0.514   5.030
10726SOL    HW133077   5.409   0.554   5.007
10726SOL    HW233078   5.525   0.544   5.121
10727SOL     OW33079   1.723   4.535   5.197
10727SOL    HW133080   1.721   4.546   5.098
10727SOL    HW233081   1.748   4.623   5.240
10728SOL     OW33082   5.168   6.773   3.489
10728SOL    HW133083   5.256   6.774   3.442
10728SOL    HW233084   5.167   6.847   3.558
10729SOL     OW33085   6.649   1.712   2.425
10729SOL    HW133086   6.593   1.758   2.356
10729SOL    HW233087   6.593   1.695   2.506
10730SOL     OW33088   2.041   5.589   2.078
10730SOL    HW133089   1.990   5.654   2.022
10730SOL    HW233090   2.040   5.620   2.173
10731SOL     OW33091   3.067   5.521   0.373
10731SOL    HW133092   3.164   5.538   0.357
10731SOL    HW233093   3.021   5.505   0.285
10732SOL     OW33094   5.969   6.715   3.183
10732SOL    HW133095   5.898   6.723   3.112
10732SOL    HW233096   6.022   6.800   3.186
10733SOL     OW33097   5.959   1.749   0.221
10733SOL    HW133098   6.030   1.738   0.290
10733SOL    HW233099   5.870   1.752   0.265
10734SOL     OW33100   0.839   0.056   6.040
10734SOL    HW133101   0.849   7.001   6.101
10734SOL    HW233102   0.873   0.138   6.087
10735SOL     OW33103   0.947   5.383   2.638
10735SOL    HW133104   0.972   5.380   2.542
10735SOL    HW233105   1.010   5.326   2.691
10736SOL     OW33106   0.573   0.633   3.831
10736SOL    HW133107   0.625   0.549   3.812
10736SOL    HW233108   0.619   0.684   3.903
10737SOL     OW33109   0.709   2.307   1.140
10737SOL    HW133110   0.641   2.241   1.171
10737SOL    HW233111   0.683   2.341   1.049
10738SOL     OW33112   2.754   1.035   2.629
10738SOL    HW133113   2.797   0.958   2.675
10738SOL    HW233114   2.696   1.002   2.554
10739SOL     OW33115   5.893   1.755   2.197
10739SOL    HW133116   5.910   1.695   2.120
10739SOL    HW233117   5.941   1.721   2.278
10740SOL     OW33118   1.692   6.424   5.643
10740SOL    HW133119   1.724   6.398   5.552
10740SOL    HW233120   1.667   6.342   5.693
10741SOL     OW33121   1.813   2.442   3.725
10741SOL    HW133122   1.787   2.452   3.821
10741SOL    HW233123   1.860   2.524   3.693
10742SOL     OW33124   5.634   6.037   2.059
10742SOL    HW133125   5.720   6.066   2.018
10742SOL    HW233126   5.647   5.950   2.107
10743SOL     OW33127   3.718   1.180   5.020
10743SOL    HW133128   3.741   1.090   5.056
10743SOL    HW233129   3.801   1.224   4.984
10744SOL     OW33130   2.991   0.605   1.775
10744SOL    HW133131   2.910   0.553   1.747
10744SOL    HW233132   2.972   0.653   1.860
10745SOL     OW33133   2.766   4.810   0.807
10745SOL    HW133134   2.813   4.768   0.730
10745SOL    HW233135   2.749   4.907   0.787
10746SOL     OW33136   2.198   5.948   1.224
10746SOL    HW133137   2.257   5.909   1.153
10746SOL    HW233138   2.122   5.996   1.181
10747SOL     OW33139   5.568   1.833   3.837
10747SOL    HW133140   5.484   1.867   3.795
10747SOL    HW233141   5.599   1.751   3.788
10748SOL     OW33142   5.169   5.693   0.921
10748SOL    HW133143   5.204   5.728   1.008
10748SOL    HW233144   5.231   5.719   0.847
10749SOL     OW33145   5.746   4.646   3.194
10749SOL    HW133146   5.676   4.601   3.139
10749SOL    HW233147   5.759   4.596   3.279
10750SOL     OW33148   5.151   4.343   4.155
10750SOL    HW133149   5.061   4.380   4.177
10750SOL    HW233150   5.189   4.297   4.235
10751SOL     OW33151   0.875   3.034   5.065
10751SOL    HW133152   0.936   3.052   4.988
10751SOL    HW233153   0.865   3.118   5.119
10752SOL     OW33154   5.963   4.933   6.981
10752SOL    HW133155   6.059   4.905   6.987
10752SOL    HW233156   5.955   5.030   7.004
10753SOL     OW33157   4.532   0.328   4.161
10753SOL    HW133158   4.499   0.377   4.081
10753SOL    HW233159   4.573   0.393   4.226
10754SOL     OW33160   0.703   3.231   1.854
10754SOL    HW133161   0.605   3.251   1.859
10754SOL    HW233162   0.739   3.222   1.947
10755SOL     OW33163   6.913   1.612   0.928
10755SOL    HW133164   6.926   1.610   1.027
10755SOL    HW233165   6.991   1.658   0.885
10756SOL     OW33166   6.287   2.416   6.931
10756SOL    HW133167   6.345   2.496   6.918
10756SOL    HW233168   6.320   2.364   7.011
10757SOL     OW33169   0.078   4.343   0.636
10757SOL    HW133170   0.061   4.298   0.724
10757SOL    HW233171   0.110   4.437   0.652
10758SOL     OW33172   0.719   5.808   6.077
10758SOL    HW133173   0.625   5.818   6.044
10758SOL    HW233174   0.770   5.892   6.059
10759SOL     OW33175   1.500   2.993   6.124
10759SOL    HW133176   1.501   3.090   6.104
10759SOL    HW233177   1.467   2.942   6.044
10760SOL     OW33178   1.227   5.925   0.644
10760SOL    HW133179   1.255   5.981   0.722
10760SOL    HW233180   1.139   5.958   0.610
10761SOL     OW33181   0.853   2.723   6.259
10761SOL    HW133182   0.858   2.756   6.164
10761SOL    HW233183   0.874   2.799   6.321
10762SOL     OW33184   3.879   0.727   6.079
10762SOL    HW133185   3.860   0.816   6.121
10762SOL    HW233186   3.967   0.694   6.111
10763SOL     OW33187   5.244   0.516   2.596
10763SOL    HW133188   5.333   0.548   2.561
10763SOL    HW233189   5.174   0.530   2.526
10764SOL     OW33190   4.711   0.861   5.592
10764SOL    HW133191   4.793   0.882   5.539
10764SOL    HW233192   4.648   0.808   5.536
10765SOL     OW33193   5.513   1.396   2.556
10765SOL    HW133194   5.483   1.315   2.506
10765SOL    HW233195   5.588   1.371   2.618
10766SOL     OW33196   1.944   4.805   0.632
10766SOL    HW133197   1.929   4.865   0.554
10766SOL    HW233198   2.043   4.795   0.647
10767SOL     OW33199   1.778   6.249   0.737
10767SOL    HW133200   1.731   6.336   0.725
10767SOL    HW233201   1.738   6.181   0.674
10768SOL     OW33202   4.959   5.417   0.460
10768SOL    HW133203   5.020   5.466   0.398
10768SOL    HW233204   4.993   5.426   0.553
10769SOL     OW33205   2.882   4.414   5.384
10769SOL    HW133206   2.908   4.488   5.323
10769SOL    HW233207   2.903   4.326   5.341
10770SOL     OW33208   5.489   0.186   4.531
10770SOL    HW133209   5.403   0.152   4.570
10770SOL    HW233210   5.565   0.129   4.561
10771SOL     OW33211   4.146   7.017   5.352
10771SOL    HW133212   4.097   6.941   5.311
10771SOL    HW233213   4.238   6.988   5.379
10772SOL     OW33214   6.206   6.708   4.578
10772SOL    HW133215   6.264   6.773   4.629
10772SOL    HW233216   6.190   6.627   4.635
10773SOL     OW33217   6.946   4.465   6.828
10773SOL    HW133218   6.938   4.367   6.806
10773SOL    HW233219   0.007   4.481   6.878
10774SOL     OW33220   1.417   2.572   0.998
10774SOL    HW133221   1.398   2.652   0.941
10774SOL    HW233222   1.406   2.596   1.094
10775SOL     OW33223   1.772   4.440   1.818
10775SOL    HW133224   1.776   4.455   1.917
10775SOL    HW233225   1.802   4.523   1.771
10776SOL     OW33226   6.952   0.541   2.775
10776SOL    HW133227   6.895   0.610   2.732
10776SOL    HW233228   6.904   0.453   2.775
10777SOL     OW33229   3.585   0.430   3.569
10777SOL    HW133230   3.510   0.437   3.634
10777SOL    HW233231   3.661   0.488   3.599
10778SOL     OW33232   6.292   5.981   4.887
10778SOL    HW133233   6.263   5.934   4.970
10778SOL    HW233234   6.299   6.079   4.906
10779SOL     OW33235   5.990   4.674   3.012
10779SOL    HW133236   5.908   4.698   3.064
10779SOL    HW233237   5.967   4.610   2.939
10780SOL     OW33238   6.752   5.388   4.101
10780SOL    HW133239   6.698   5.453   4.048
10780SOL    HW233240   6.786   5.432   4.184
10781SOL     OW33241   5.630   0.650   4.431
10781SOL    HW133242   5.655   0.592   4.509
10781SOL    HW233243   5.712   0.691   4.392
10782SOL     OW33244   6.487   3.217   4.813
10782SOL    HW133245   6.490   3.118   4.799
10782SOL    HW233246   6.483   3.236   4.911
10783SOL     OW33247   1.868   2.715   2.566
10783SOL    HW133248   1.908   2.760   2.646
10783SOL    HW233249   1.941   2.685   2.505
10784SOL     OW33250   2.551   5.912   1.787
10784SOL    HW133251   2.556   5.812   1.787
10784SOL    HW233252   2.614   5.948   1.718
10785SOL     OW33253   1.663   5.116   1.919
10785SOL    HW133254   1.609   5.093   1.837
10785SOL    HW233255   1.760   5.118   1.895
10786SOL     OW33256   3.979   2.015   2.541
10786SOL    HW133257   3.897   1.982   2.493
10786SOL    HW233258   4.046   1.941   2.546
10787SOL     OW33259   3.128   1.298   4.356
10787SOL    HW133260   3.038   1.255   4.347
10787SOL    HW233261   3.142   1.326   4.452
10788SOL     OW33262   1.613   4.327   0.279
10788SOL    HW133263   1.596   4.293   0.187
10788SOL    HW233264   1.563   4.271   0.345
10789SOL     OW33265   6.239   0.965   0.714
10789SOL    HW133266   6.158   1.024   0.712
10789SOL    HW233267   6.212   0.871   0.693
10790SOL     OW33268   7.010   1.221   5.752
10790SOL    HW133269   0.082   1.196   5.749
10790SOL    HW233270   6.958   1.145   5.791
10791SOL     OW33271   1.900   1.776   2.382
10791SOL    HW133272   1.849   1.692   2.399
10791SOL    HW233273   1.971   1.787   2.451
10792SOL     OW33274   3.326   2.899   1.490
10792SOL    HW133275   3.284   2.892   1.581
10792SOL    HW233276   3.342   2.808   1.453
10793SOL     OW33277   5.119   2.035   4.542
10793SOL    HW133278   5.142   1.991   4.455
10793SOL    HW233279   5.030   2.002   4.574
10794SOL     OW33280   3.741   3.365   1.634
10794SOL    HW133281   3.763   3.293   1.568
10794SOL    HW233282   3.663   3.337   1.689
10795SOL     OW33283   6.838   4.026   2.735
10795SOL    HW133284   6.936   4.031   2.753
10795SOL    HW233285   6.788   4.057   2.815
10796SOL     OW33286   5.120   7.016   6.186
10796SOL    HW133287   5.083   6.924   6.180
10796SOL    HW233288   5.135   0.016   6.282
10797SOL     OW33289   3.638   2.889   6.972
10797SOL    HW133290   3.588   2.882   0.034
10797SOL    HW233291   3.575   2.918   6.899
10798SOL     OW33292   2.384   6.896   6.393
10798SOL    HW133293   2.387   6.927   6.488
10798SOL    HW233294   2.307   6.834   6.380
10799SOL     OW33295   3.205   2.161   2.484
10799SOL    HW133296   3.251   2.218   2.416
10799SOL    HW233297   3.205   2.066   2.453
10800SOL     OW33298   2.433   6.537   0.945
10800SOL    HW133299   2.474   6.464   1.001
10800SOL    HW233300   2.473   6.625   0.971
10801SOL     OW33301   2.008   6.525   5.578
10801SOL    HW133302   1.971   6.438   5.611
10801SOL    HW233303   1.971   6.600   5.633
10802SOL     OW33304   1.832   2.792   3.887
10802SOL    HW133305   1.887   2.804   3.970
10802SOL    HW233306   1.857   2.861   3.820
10803SOL     OW33307   5.482   4.613   5.817
10803SOL    HW133308   5.478   4.712   5.832
10803SOL    HW233309   5.549   4.573   5.878
10804SOL     OW33310   6.169   3.979   1.275
10804SOL    HW133311   6.187   3.881   1.283
10804SOL    HW233312   6.166   4.005   1.178
10805SOL     OW33313   3.725   6.959   0.044
10805SOL    HW133314   3.805   6.972   0.103
10805SOL    HW233315   3.710   6.861   0.031
10806SOL     OW33316   5.686   3.694   0.584
10806SOL    HW133317   5.777   3.688   0.626
10806SOL    HW233318   5.621   3.640   0.637
10807SOL     OW33319   3.391   6.281   3.736
10807SOL    HW133320   3.483   6.300   3.768
10807SOL    HW233321   3.326   6.340   3.784
10808SOL     OW33322   0.924   3.895   0.020
10808SOL    HW133323   0.963   3.987   0.026
10808SOL    HW233324   0.894   3.866   0.111
10809SOL     OW33325   2.863   1.249   4.246
10809SOL    HW133326   2.788   1.184   4.256
10809SOL    HW233327   2.909   1.234   4.159
10810SOL     OW33328   0.477   1.181   5.617
10810SOL    HW133329   0.541   1.151   5.547
10810SOL    HW233330   0.526   1.227   5.691
10811SOL     OW33331   3.909   5.031   5.905
10811SOL    HW133332   3.925   4.990   5.815
10811SOL    HW233333   3.814   5.017   5.932
10812SOL     OW33334   0.073   2.565   2.566
10812SOL    HW133335   0.067   2.485   2.626
10812SOL    HW233336   0.168   2.577   2.537
10813SOL     OW33337   2.852   6.197   1.967
10813SOL    HW133338   2.821   6.258   1.894
10813SOL    HW233339   2.848   6.102   1.936
10814SOL     OW33340   1.769   0.049   5.502
10814SOL    HW133341   1.754   0.117   5.430
10814SOL    HW233342   1.708   0.067   5.578
10815SOL     OW33343   4.827   4.074   3.045
10815SOL    HW133344   4.920   4.109   3.057
10815SOL    HW233345   4.777   4.132   2.982
10816SOL     OW33346   1.695   1.073   2.299
10816SOL    HW133347   1.744   1.160   2.286
10816SOL    HW233348   1.672   1.034   2.210
10817SOL     OW33349   5.461   6.983   2.928
10817SOL    HW133350   5.456   0.052   2.964
10817SOL    HW233351   5.536   6.978   2.862
10818SOL     OW33352   5.630   2.818   6.437
10818SOL    HW133353   5.650   2.821   6.535
10818SOL    HW233354   5.572   2.738   6.417
10819SOL     OW33355   0.441   3.845   6.392
10819SOL    HW133356   0.412   3.936   6.420
10819SOL    HW233357   0.470   3.847   6.296
10820SOL     OW33358   0.346   6.984   3.883
10820SOL    HW133359   0.365   6.898   3.834
10820SOL    HW233360   0.286   0.016   3.827
10821SOL     OW33361   6.916   6.401   1.787
10821SOL    HW133362   6.897   6.314   1.742
10821SOL    HW233363   6.840   6.464   1.769
10822SOL     OW33364   1.183   3.397   2.491
10822SOL    HW133365   1.251   3.470   2.496
10822SOL    HW233366   1.215   3.318   2.544
10823SOL     OW33367   2.491   5.638   1.730
10823SOL    HW133368   2.511   5.597   1.641
10823SOL    HW233369   2.399   5.677   1.729
10824SOL     OW33370   5.089   0.187   3.459
10824SOL    HW133371   5.059   0.262   3.519
10824SOL    HW233372   5.140   0.120   3.513
10825SOL     OW33373   2.636   1.653   1.169
10825SOL    HW133374   2.537   1.669   1.176
10825SOL    HW233375   2.682   1.694   1.248
10826SOL     OW33376   6.982   3.923   2.096
10826SOL    HW133377   7.017   3.881   2.180
10826SOL    HW233378   6.992   4.022   2.102
10827SOL     OW33379   6.081   3.683   4.097
10827SOL    HW133380   5.989   3.676   4.059
10827SOL    HW233381   6.110   3.594   4.132
10828SOL     OW33382   1.025   5.957   1.007
10828SOL    HW133383   1.113   6.004   1.009
10828SOL    HW233384   0.975   5.982   0.924
10829SOL     OW33385   2.529   3.584   1.398
10829SOL    HW133386   2.460   3.525   1.440
10829SOL    HW233387   2.486   3.643   1.330
10830SOL     OW33388   5.929   3.146   4.514
10830SOL    HW133389   5.868   3.083   4.562
10830SOL    HW233390   5.895   3.240   4.523
10831SOL     OW33391   5.109   0.690   2.798
10831SOL    HW133392   5.025   0.705   2.746
10831SOL    HW233393   5.159   0.613   2.758
10832SOL     OW33394   0.726   2.333   0.626
10832SOL    HW133395   0.653   2.316   0.560
10832SOL    HW233396   0.779   2.414   0.598
10833SOL     OW33397   2.465   0.701   4.037
10833SOL    HW133398   2.433   0.759   4.112
10833SOL    HW233399   2.442   0.743   3.949
10834SOL     OW33400   0.205   1.525   5.019
10834SOL    HW133401   0.212   1.524   4.919
10834SOL    HW233402   0.142   1.597   5.047
10835SOL     OW33403   6.799   1.642   2.203
10835SOL    HW133404   6.770   1.634   2.299
10835SOL    HW233405   6.894   1.673   2.200
10836SOL     OW33406   0.368   1.606   5.563
10836SOL    HW133407   0.368   1.530   5.499
10836SOL    HW233408   0.453   1.658   5.554
10837SOL     OW33409   0.016   4.781   0.240
10837SOL    HW133410   6.969   4.818   0.300
10837SOL    HW233411   7.015   4.688   0.213
10838SOL     OW33412   5.640   0.675   6.003
10838SOL    HW133413   5.669   0.656   6.097
10838SOL    HW233414   5.693   0.618   5.940
10839SOL     OW33415   2.712   2.271   0.198
10839SOL    HW133416   2.628   2.233   0.236
10839SOL    HW233417   2.703   2.279   0.099
10840SOL     OW33418   3.285   6.235   1.469
10840SOL    HW133419   3.198   6.197   1.501
10840SOL    HW233420   3.360   6.177   1.501
10841SOL     OW33421   3.717   6.030   5.839
10841SOL    HW133422   3.706   5.993   5.931
10841SOL    HW233423   3.651   6.104   5.825
10842SOL     OW33424   6.587   2.923   1.279
10842SOL    HW133425   6.612   2.873   1.363
10842SOL    HW233426   6.505   2.880   1.239
10843SOL     OW33427   0.940   1.751   1.901
10843SOL    HW133428   0.948   1.759   2.000
10843SOL    HW233429   1.031   1.745   1.860
10844SOL     OW33430   6.736   6.094   4.657
10844SOL    HW133431   6.738   6.160   4.732
10844SOL    HW233432   6.649   6.101   4.609
10845SOL     OW33433   1.060   1.449   1.754
10845SOL    HW133434   1.093   1.355   1.750
10845SOL    HW233435   1.054   1.478   1.850
10846SOL     OW33436   4.803   1.891   0.728
10846SOL    HW133437   4.720   1.856   0.771
10846SOL    HW233438   4.820   1.985   0.758
10847SOL     OW33439   2.271   1.501   5.729
10847SOL    HW133440   2.208   1.563   5.777
10847SOL    HW233441   2.252   1.503   5.631
10848SOL     OW33442   2.775   1.551   0.245
10848SOL    HW133443   2.806   1.516   0.156
10848SOL    HW233444   2.707   1.623   0.231
10849SOL     OW33445   2.865   4.742   3.675
10849SOL    HW133446   2.961   4.758   3.698
10849SOL    HW233447   2.848   4.770   3.581
10850SOL     OW33448   3.800   6.511   0.005
10850SOL    HW133449   3.738   6.589   0.009
10850SOL    HW233450   3.833   6.490   0.097
10851SOL     OW33451   2.997   3.042   6.208
10851SOL    HW133452   2.899   3.045   6.188
10851SOL    HW233453   3.033   2.952   6.182
10852SOL     OW33454   0.407   0.772   5.922
10852SOL    HW133455   0.405   0.733   5.830
10852SOL    HW233456   0.327   0.831   5.935
10853SOL     OW33457   2.893   1.630   4.541
10853SOL    HW133458   2.913   1.720   4.502
10853SOL    HW233459   2.932   1.624   4.632
10854SOL     OW33460   5.643   0.495   6.947
10854SOL    HW133461   5.707   0.572   6.947
10854SOL    HW233462   5.552   0.528   6.924
10855SOL     OW33463   2.585   6.088   2.790
10855SOL    HW133464   2.534   6.028   2.852
10855SOL    HW233465   2.597   6.043   2.702
10856SOL     OW33466   6.448   6.464   0.723
10856SOL    HW133467   6.474   6.498   0.813
10856SOL    HW233468   6.354   6.432   0.726
10857SOL     OW33469   6.150   2.119   3.452
10857SOL    HW133470   6.133   2.182   3.377
10857SOL    HW233471   6.121   2.027   3.426
10858SOL     OW33472   1.557   3.763   0.317
10858SOL    HW133473   1.586   3.717   0.401
10858SOL    HW233474   1.618   3.737   0.242
10859SOL     OW33475   1.423   3.791   3.350
10859SOL    HW133476   1.430   3.764   3.254
10859SOL    HW233477   1.331   3.825   3.368
10860SOL     OW33478   6.539   1.183   0.320
10860SOL    HW133479   6.449   1.198   0.362
10860SOL    HW233480   6.594   1.266   0.330
10861SOL     OW33481   3.564   2.819   1.790
10861SOL    HW133482   3.514   2.882   1.850
10861SOL    HW233483   3.628   2.871   1.733
10862SOL     OW33484   2.385   2.148   5.943
10862SOL    HW133485   2.329   2.081   5.895
10862SOL    HW233486   2.458   2.180   5.882
10863SOL     OW33487   2.733   0.095   3.056
10863SOL    HW133488   2.705   0.166   2.992
10863SOL    HW233489   2.741   0.007   3.008
10864SOL     OW33490   2.829   4.561   1.410
10864SOL    HW133491   2.914   4.613   1.405
10864SOL    HW233492   2.755   4.616   1.371
10865SOL     OW33493   5.319   2.708   3.521
10865SOL    HW133494   5.304   2.699   3.619
10865SOL    HW233495   5.232   2.723   3.475
10866SOL     OW33496   6.585   3.113   1.017
10866SOL    HW133497   6.528   3.052   1.072
10866SOL    HW233498   6.642   3.059   0.955
10867SOL     OW33499   2.675   2.993   0.506
10867SOL    HW133500   2.693   2.900   0.475
10867SOL    HW233501   2.584   3.021   0.474
10868SOL     OW33502   0.824   2.207   3.448
10868SOL    HW133503   0.798   2.266   3.524
10868SOL    HW233504   0.774   2.233   3.366
10869NA      NA33505   0.648   1.618   5.835
10870NA      NA33506   4.508   4.464   5.142
10871NA      NA33507   1.953   5.034   2.687
10872NA      NA33508   5.139   4.090   3.675
10873NA      NA33509   4.274   2.456   5.333
10874NA      NA33510   2.907   4.982   1.262
10875NA      NA33511   1.347   4.930   0.432
10876NA      NA33512   3.989   4.270   1.577
10877NA      NA33513   4.558   3.985   0.756
10878NA      NA33514   3.647   1.313   5.878
10879NA      NA33515   4.970   5.992   2.163
10880NA      NA33516   1.662   0.424   5.475
10881NA      NA33517   4.854   5.022   1.719
10882NA      NA33518   3.030   3.423   0.173
   7.02428   7.02428   7.02428
